Membrane in water
40344
    1TMC1    C1    1   4.026   3.944  12.472  0.1644 -0.2394 -0.0921
    1TMC1    C2    2   3.900   3.955  12.530 -0.1248  0.5611  0.6464
    1TMC1    C3    3   3.877   4.078  12.581 -0.7972  0.0445 -0.3227
    1TMC1    C4    4   4.124   4.035  12.478  0.2450  0.6704 -0.2303
    1TMC1    C5    5   4.089   4.164  12.531 -0.1832 -0.2913 -0.2995
    1TMC1    C6    6   3.966   4.181  12.592  0.4099  0.3205  0.1817
    1TMC1     C    7   4.065   3.808  12.428 -0.2170 -0.3782  0.6917
    1TMC1     O    8   3.974   3.731  12.417 -0.2178  0.3469 -0.5892
    1TMC1     H    9   3.823   3.879  12.517 -1.0072  1.9688 -2.2536
    1TMC1    H1   10   4.223   4.027  12.434  0.8616  2.5321  0.8102
    1TMC1    H2   11   3.935   4.273  12.640 -1.1023  0.4103 -0.9561
    1TMC1    C7   12   4.182   4.278  12.521  0.0884 -0.0974  0.1837
    1TMC1    C8   13   3.746   4.087  12.646  0.1828 -0.4793  0.4519
    1TMC1    O1   14   4.280   4.265  12.445  0.8775 -0.0460  0.5512
    1TMC1    O2   15   3.694   4.194  12.673 -1.0620  0.5921 -0.2297
    1TMC1    O3   16   4.188   4.333  12.643 -0.5652 -0.1473 -0.4069
    1TMC1    H3   17   4.107   4.358  12.692 -0.7713 -1.0759 -0.2854
    1TMC1    O5   18   3.728   3.968  12.704  0.0574 -0.4054 -0.1463
    1TMC1    H5   19   3.807   3.912  12.715  0.7655  0.4098 -1.1113
    2MPD2     C   20   4.360   3.470  12.199 -0.3755  0.0468  0.1506
    2MPD2    C1   21   4.243   3.450  12.276  0.2692  0.4353 -0.5155
    2MPD2    C2   22   4.194   3.558  12.350 -0.6438 -0.5860 -0.4017
    2MPD2    C3   23   4.256   3.682  12.341 -1.1554  0.2427  0.9517
    2MPD2    C4   24   4.375   3.695  12.272  0.0648 -0.3047  0.3490
    2MPD2    C5   25   4.423   3.593  12.198  0.0018 -0.1771 -0.3470
    2MPD2     H   26   4.106   3.548  12.412 -1.6126 -0.7090 -1.8084
    2MPD2    H1   27   4.431   3.788  12.269 -1.6420  0.5537 -3.8725
    2MPD2    H2   28   4.403   3.392  12.138  0.5383 -0.0584  0.9413
    2MPD2    H3   29   4.514   3.606  12.139  1.0408 -1.1556  1.0271
    2MPD2     N   30   4.195   3.797  12.383 -0.3485  0.2281 -0.0058
    2MPD2    H5   31   4.255   3.876  12.404  1.5468 -1.3659  0.5302
    2MPD2    N1   32   4.162   3.333  12.269  0.5069  0.5069 -0.4846
    2MPD2    H7   33   4.084   3.319  12.332  1.1952  0.2911  0.3192
    3TMC1    C1   34   3.720   4.661  11.003  0.6195  0.2565  0.4939
    3TMC1    C2   35   3.728   4.578  10.899  0.6536  0.4391  0.6191
    3TMC1    C3   36   3.786   4.623  10.784  0.0109  0.0283 -0.1067
    3TMC1    C4   37   3.785   0.047  11.002  0.5586 -0.7801 -0.8608
    3TMC1    C5   38   3.839   0.086  10.885 -0.1427 -0.1205  0.6353
    3TMC1    C6   39   3.832   0.015  10.769  0.4613 -0.1533  0.3312
    3TMC1     C   40   3.628   4.633  11.114 -0.1220 -0.3761  0.2232
    3TMC1     O   41   3.605   4.513  11.135 -0.6634 -0.4489 -0.1258
    3TMC1     H   42   3.690   4.477  10.907  1.7381  0.1541  2.1480
    3TMC1    H1   43   3.801   0.111  11.089  0.5210 -1.3088 -0.4684
    3TMC1    H2   44   3.847   0.057  10.670 -0.8168 -2.0685 -0.6770
    3TMC1    C7   45   3.906   0.210  10.877  0.0956  0.9491  0.1547
    3TMC1    C8   46   3.802   4.524  10.678  0.1240  0.0013  0.0869
    3TMC1    O1   47   3.856   0.314  10.917  0.0328 -0.6512 -0.1685
    3TMC1    O2   48   3.730   4.429  10.665 -0.2905  0.3847 -0.1847
    3TMC1    O3   49   3.993   0.189  10.772 -0.4247 -0.4313 -0.1346
    3TMC1    H3   50   4.044   0.107  10.789  1.9958  1.4561  1.6438
    3TMC1    O5   51   3.904   4.561  10.593 -0.4384  0.2747 -0.1242
    3TMC1    H5   52   3.971   4.621  10.631 -0.5635  1.2298 -1.4207
    4MPD2     C   53   3.179   0.054  11.301 -0.4530 -0.4187 -0.7627
    4MPD2    C1   54   3.260   0.164  11.298  0.2350  0.1132  0.8759
    4MPD2    C2   55   3.390   0.157  11.251 -0.5968  0.4046 -0.1919
    4MPD2    C3   56   3.435   0.032  11.206 -0.1051 -0.3844  0.2488
    4MPD2    C4   57   3.353   4.654  11.215  0.5831  0.1505  0.2001
    4MPD2    C5   58   3.223   4.672  11.258 -0.1932 -0.2061  0.7208
    4MPD2     H   59   3.451   0.245  11.260 -1.0064  0.7101 -0.3759
    4MPD2    H1   60   3.374   4.556  11.172 -2.1336 -0.0333 -0.7437
    4MPD2    H2   61   3.081   0.053  11.348  0.0018  0.9474  0.2154
    4MPD2    H3   62   3.164   4.581  11.271  1.3729 -1.5276 -1.3788
    4MPD2     N   63   3.562   0.016  11.146 -0.3831 -0.0989  1.1819
    4MPD2    H5   64   3.604   0.104  11.117  0.6100 -1.1373 -0.4819
    4MPD2    N1   65   3.215   0.283  11.358 -0.5221 -0.3344  0.0432
    4MPD2    H7   66   3.293   0.346  11.376 -0.2388 -1.0661  1.3675
    5TCq1    O1   67   3.696   2.268  11.359  0.6230 -0.2905  0.5054
    5TCq1    C1   68   3.769   2.200  11.275  0.3769  0.4861 -0.8980
    5TCq1    O2   69   3.790   2.080  11.291  0.5635  0.0870  0.1977
    5TCq1    C2   70   3.809   2.278  11.159 -0.0030  0.0043  0.3070
    5TCq1    C3   71   3.725   2.374  11.109  0.6034 -0.5475  0.3551
    5TCq1    C4   72   3.750   2.428  10.980  0.2247  0.0541  0.0558
    5TCq1    C5   73   3.830   2.365  10.894  0.2889 -0.4447 -0.0569
    5TCq1    C6   74   3.899   2.261  10.946  0.3940  0.0126 -0.1589
    5TCq1    C7   75   3.899   2.219  11.077 -0.1864  1.0915 -0.1036
    5TCq1    C8   76   3.970   2.165  10.855 -0.0962  0.8789 -0.1964
    5TCq1    O4   77   4.001   2.062  10.906 -0.2409  0.4381 -0.3681
    5TCq1    C9   78   3.666   2.531  10.940 -0.8576 -0.1825  0.0608
    5TCq1    O5   79   3.696   2.584  10.829  0.4675  0.6320 -0.1330
    5TCq1    O6   80   3.571   2.555  11.015 -0.5802  0.2800  0.1011
    5TCq1    H1   81   3.704   2.365  11.346  2.7446 -0.4245  0.8170
    5TCq1    H2   82   3.647   2.415  11.172  0.0373  2.0323 -2.0143
    5TCq1    H3   83   3.830   2.390  10.788  0.9054 -0.1041  0.0182
    5TCq1    H4   84   3.960   2.134  11.107  1.8707  2.5532 -0.1352
    6MPD2     C   85   3.980   2.138  10.493 -0.3590  0.1003  0.3095
    6MPD2    C1   86   3.987   2.094  10.622 -0.7829  0.4398 -0.1009
    6MPD2    C2   87   4.022   1.960  10.642  0.1000  0.2893  0.6399
    6MPD2    C3   88   4.038   1.873  10.534 -0.3098 -0.1066 -0.4943
    6MPD2    C4   89   4.020   1.918  10.404 -0.2763 -0.3359 -0.6594
    6MPD2    C5   90   4.004   2.050  10.384 -0.1416  0.4698 -0.1954
    6MPD2     H   91   4.036   1.916  10.740  0.5986 -0.0879  0.3987
    6MPD2    H1   92   4.019   1.854  10.317 -2.4068 -1.2816  0.0611
    6MPD2    H2   93   3.955   2.242  10.477  0.0503  0.1860  0.2269
    6MPD2    H3   94   4.004   2.092  10.284  0.8447  0.9046 -0.0116
    6MPD2     N   95   4.072   1.737  10.575  0.6781 -0.6190 -0.9929
    6MPD2    H5   96   4.060   1.711  10.672  0.4714  0.3741 -0.7481
    6MPD2    N1   97   3.971   2.191  10.722  0.1494  0.1914 -0.2712
    6MPD2    H7   98   3.960   2.286  10.687 -0.5592  0.4334  0.6065
    7TCq1    O1   99   1.051   1.201  12.770  0.7561  0.1371 -0.0842
    7TCq1    C1  100   0.988   1.170  12.651  0.2940 -0.5126  0.0861
    7TCq1    O2  101   0.961   1.247  12.559  0.0957 -0.5972 -0.5593
    7TCq1    C2  102   0.941   1.030  12.662  0.0207  0.2574  0.1411
    7TCq1    C3  103   0.825   1.004  12.593  0.4864 -0.1514 -0.7100
    7TCq1    C4  104   0.795   0.868  12.573  0.3843 -0.2634 -0.2082
    7TCq1    C5  105   0.864   0.773  12.641  0.1962 -0.6171  0.4520
    7TCq1    C6  106   0.981   0.810  12.711 -0.0072 -0.0071  0.8592
    7TCq1    C7  107   1.025   0.936  12.715  0.2157 -0.4107  0.2277
    7TCq1    C8  108   1.040   0.703  12.793  0.2162  0.3542 -0.2159
    7TCq1    O4  109   0.981   0.598  12.808  0.0226  0.4205 -0.2785
    7TCq1    C9  110   0.678   0.832  12.505 -0.5721 -0.4556 -0.3457
    7TCq1    O5  111   0.671   0.709  12.472  0.1049 -0.0024 -0.2228
    7TCq1    O6  112   0.624   0.933  12.454  0.4559 -0.1758 -0.0371
    7TCq1    H1  113   1.064   1.125  12.831 -2.7197  1.1446  1.8707
    7TCq1    H2  114   0.771   1.087  12.548  0.6310  0.9060  1.0642
    7TCq1    H3  115   0.839   0.668  12.631 -1.0677 -0.1252 -1.4525
    7TCq1    H4  116   1.116   0.970  12.764 -1.1903  0.5030  2.2398
    8MPD2     C  117   1.431   0.510  13.066  0.0314  0.6133 -0.1522
    8MPD2    C1  118   1.302   0.473  13.048  0.2594  0.9254  0.8499
    8MPD2    C2  119   1.219   0.546  12.973  0.3485  0.6112 -0.1093
    8MPD2    C3  120   1.257   0.656  12.903  0.2899 -0.6088 -0.3722
    8MPD2    C4  121   1.388   0.694  12.917 -0.3787  0.9483  0.5402
    8MPD2    C5  122   1.472   0.627  13.000 -0.2158 -0.4643  0.5664
    8MPD2     H  123   1.116   0.511  12.966  0.2342  1.0158 -0.4369
    8MPD2    H1  124   1.419   0.791  12.880  0.3745 -0.0541 -1.4284
    8MPD2    H2  125   1.502   0.446  13.119  0.2022  2.4742  1.8665
    8MPD2    H3  126   1.573   0.662  13.020  0.4904 -3.0329  1.4091
    8MPD2     N  127   1.171   0.736  12.819  0.6099 -0.3228 -0.3553
    8MPD2    H5  128   1.204   0.827  12.789 -1.7504  0.4681 -0.5532
    8MPD2    N1  129   1.255   0.355  13.114  0.9187 -0.2698 -0.9718
    8MPD2    H7  130   1.317   0.328  13.189 -0.0234  0.4804  0.0873
    9TMC1    C1  131   4.001   4.726  11.674 -0.1509 -0.4183  0.4465
    9TMC1    C2  132   3.988   4.666  11.550 -0.6755 -0.4533 -0.2266
    9TMC1    C3  133   4.078   4.693  11.455 -0.1280 -0.2966  0.6694
    9TMC1    C4  134   4.107   0.063  11.704  0.1268 -0.8034  0.3922
    9TMC1    C5  135   4.200   0.089  11.606  0.1354 -0.3920 -0.7225
    9TMC1    C6  136   4.193   0.033  11.485 -0.5694  0.6925 -0.5969
    9TMC1     C  137   3.894   4.724  11.769  0.0578  0.2245  0.0517
    9TMC1     O  138   3.881   0.078  11.851 -0.0466 -0.0322 -0.3027
    9TMC1     H  139   3.897   4.620  11.513  1.4848 -1.8450 -3.8064
    9TMC1    H1  140   4.110   0.107  11.803  0.4313 -0.6787  0.3278
    9TMC1    H2  141   4.270   0.052  11.410 -2.1781  2.5419 -1.7681
    9TMC1    C7  142   4.333   0.128  11.655  0.3693 -0.1460 -0.8991
    9TMC1    C8  143   4.025   4.695  11.320  0.0334  0.6620  0.7536
    9TMC1    O1  144   4.377   0.240  11.634  0.2984 -0.4522  0.0232
    9TMC1    O2  145   3.925   0.021  11.291 -0.1314 -0.5009 -0.1992
    9TMC1    O3  146   4.336   0.076  11.779  0.3608 -0.6635 -0.0254
    9TMC1    H3  147   4.304   4.719  11.779 -0.2095 -0.4699 -3.3092
    9TMC1    O5  148   4.135   4.690  11.236 -0.4238  0.0173 -0.1516
    9TMC1    H5  149   4.216   4.650  11.273 -0.4236 -1.4064 -1.6851
   10MPD2     C  150   3.632   4.657  11.891 -0.6647 -0.7619  0.6670
   10MPD2    C1  151   3.709   4.567  11.817 -0.0768  0.2794  0.3246
   10MPD2    C2  152   3.680   4.431  11.810 -0.5010  0.2601  1.1637
   10MPD2    C3  153   3.563   4.388  11.867 -0.1677 -0.1107 -0.4569
   10MPD2    C4  154   3.488   4.470  11.952  0.3932 -0.3730  0.2922
   10MPD2    C5  155   3.530   4.601  11.960  0.1782  0.0291  0.3314
   10MPD2     H  156   3.750   4.366  11.759  0.4308  2.9860 -1.0150
   10MPD2    H1  157   3.396   4.442  12.001  1.8064 -0.4784  2.8889
   10MPD2    H2  158   3.657   0.026  11.899 -2.0247 -0.2889 -1.2757
   10MPD2    H3  159   3.471   4.670  12.019  0.5639 -0.2411  1.0330
   10MPD2     N  160   3.529   4.251  11.865  0.5043 -0.7580  0.3441
   10MPD2    H5  161   3.453   4.228  11.929  1.0911 -0.4390  1.1442
   10MPD2    N1  162   3.822   4.609  11.749 -0.3234  0.2566  0.0895
   10MPD2    H7  163   3.857   4.541  11.683 -0.3016 -0.0898  0.4656
   11TCq1    O1  164   4.224   4.136  14.140  0.3553 -0.4092 -0.0652
   11TCq1    C1  165   4.144   4.033  14.182  0.0215  0.0018  0.0505
   11TCq1    O2  166   4.184   3.920  14.206  0.6289 -0.0796 -0.1507
   11TCq1    C2  167   4.003   4.069  14.182  0.2852 -0.7182 -0.5543
   11TCq1    C3  168   3.965   4.194  14.163 -0.0435  0.1353  0.8874
   11TCq1    C4  169   3.832   4.216  14.145 -0.8067 -0.6042 -1.0963
   11TCq1    C5  170   3.748   4.112  14.134  0.4517  0.2773 -0.7740
   11TCq1    C6  171   3.787   3.986  14.146  0.1542 -0.1403 -0.1605
   11TCq1    C7  172   3.922   3.956  14.166 -0.0567 -0.4511  0.4026
   11TCq1    C8  173   3.701   3.881  14.095  0.2611 -0.2443 -0.2251
   11TCq1    O4  174   3.595   3.911  14.033 -0.3332 -0.4018  0.1045
   11TCq1    C9  175   3.775   4.345  14.166 -0.0738 -0.5745 -0.1183
   11TCq1    O5  176   3.843   4.433  14.222  0.0865 -0.0792 -0.4800
   11TCq1    O6  177   3.650   4.350  14.161 -0.3932  0.2320  0.0049
   11TCq1    H1  178   4.188   4.213  14.093 -0.8598 -1.2671 -0.5330
   11TCq1    H2  179   4.030   4.279  14.182  1.9847 -1.2392  0.0071
   11TCq1    H3  180   3.643   4.134  14.116  0.4605  0.1065 -1.0470
   11TCq1    H4  181   3.956   3.854  14.179 -1.6457 -1.2188 -1.5454
   12MPD2     C  182   3.534   3.630  14.059  0.9908 -0.0407  0.1638
   12MPD2    C1  183   3.674   3.635  14.084 -0.3532 -0.2532  0.2074
   12MPD2    C2  184   3.743   3.520  14.093  0.0818  0.0041 -0.2049
   12MPD2    C3  185   3.678   3.398  14.053  0.0815 -0.1294  0.3173
   12MPD2    C4  186   3.545   3.398  14.007  0.0466 -0.1375 -0.2666
   12MPD2    C5  187   3.481   3.517  14.009 -0.3105  0.0226 -0.3771
   12MPD2     H  188   3.846   3.520  14.127 -0.0113 -1.3908  0.0770
   12MPD2    H1  189   3.492   3.312  13.970  0.8667 -1.6312  2.0280
   12MPD2    H2  190   3.469   3.716  14.050  0.7272 -0.5028 -2.5240
   12MPD2    H3  191   3.379   3.527  13.974 -0.2884  1.6792  0.0138
   12MPD2     N  192   3.747   3.277  14.031  0.3621 -0.0319 -0.1912
   12MPD2    H5  193   3.702   3.201  13.982 -2.4564  0.0542  2.3073
   12MPD2    N1  194   3.744   3.754  14.115 -0.3074  0.0418  0.0815
   12MPD2    H7  195   3.840   3.739  14.144 -0.8775 -1.3627  1.2533
   13TCq1    O1  196   4.194   4.408  10.415  0.1054 -0.0331  0.1783
   13TCq1    C1  197   4.139   4.295  10.459  0.0811  0.2428  0.1397
   13TCq1    O2  198   4.036   4.238  10.417  0.3105  0.3886 -0.0668
   13TCq1    C2  199   4.170   4.304  10.601 -0.4619  0.4288  0.9525
   13TCq1    C3  200   4.293   4.350  10.643  0.2336  0.1414  0.3878
   13TCq1    C4  201   4.315   4.354  10.779  0.2793  0.8607  0.4649
   13TCq1    C5  202   4.209   4.335  10.863  0.7883 -0.1450 -0.4556
   13TCq1    C6  203   4.092   4.271  10.814 -1.0027 -0.5596 -0.7747
   13TCq1    C7  204   4.066   4.263  10.678 -0.1295 -0.6290 -0.4994
   13TCq1    C8  205   3.989   4.250  10.908  0.7290 -0.4566  0.1346
   13TCq1    O4  206   3.995   4.318  11.010  0.2449 -0.6024  0.4787
   13TCq1    C9  207   4.441   4.409  10.822 -0.0993 -0.2059 -0.0275
   13TCq1    O5  208   4.457   4.410  10.943 -0.2657  0.3811 -0.2103
   13TCq1    O6  209   4.499   4.483  10.737  0.2168  0.0365  0.5171
   13TCq1    H1  210   4.263   4.446  10.473 -0.4107 -1.6032  1.8363
   13TCq1    H2  211   4.380   4.362  10.579 -0.9079  0.2504 -1.1382
   13TCq1    H3  212   4.220   4.339  10.970  1.1816  0.2098 -0.5080
   13TCq1    H4  213   3.973   4.240  10.626 -0.5234  0.9622 -0.5050
   14MPD2     C  214   3.719   4.016  10.849 -0.2654 -0.5363  0.2304
   14MPD2    C1  215   3.774   4.135  10.906 -0.1674 -0.1156  0.5295
   14MPD2    C2  216   3.724   4.196  11.019  0.0837 -0.0773 -0.2789
   14MPD2    C3  217   3.597   4.148  11.067 -0.5955  0.1355  0.3982
   14MPD2    C4  218   3.549   4.029  11.008  0.0669 -0.0152 -0.0070
   14MPD2    C5  219   3.609   3.967  10.905  0.3561 -0.4999  0.1541
   14MPD2     H  220   3.771   4.280  11.068 -0.2662  1.2642 -2.2506
   14MPD2    H1  221   3.463   3.984  11.054 -0.7266  1.6765  0.1871
   14MPD2    H2  222   3.765   3.962  10.767 -1.2427  1.1622 -1.4364
   14MPD2    H3  223   3.581   3.869  10.866  2.5885 -1.9682  2.2531
   14MPD2     N  224   3.537   4.213  11.176 -0.8939  0.5447  0.2667
   14MPD2    H5  225   3.555   4.311  11.192  1.8465 -0.1511  1.3386
   14MPD2    N1  226   3.897   4.166  10.850 -0.0898 -0.0957 -0.3021
   14MPD2    H7  227   3.916   4.115  10.765 -0.1701 -1.0334  0.2413
   15TCq1    O1  228   4.532   3.495   1.242  0.2759 -0.7490  0.4039
   15TCq1    C1  229   4.595   3.502   1.119 -0.0666 -0.2669 -0.0450
   15TCq1    O2  230   4.572   3.595   1.044 -0.1459 -0.0406 -0.4626
   15TCq1    C2  231   4.574   3.365   1.065 -0.0528  0.4049 -0.3048
   15TCq1    C3  232   4.470   3.350   0.972 -0.0534  0.4044 -0.3120
   15TCq1    C4  233   4.423   3.223   0.955  0.9547  0.1764  0.0522
   15TCq1    C5  234   4.487   3.112   1.003  0.3845 -0.4667  0.7434
   15TCq1    C6  235   4.592   3.130   1.096 -0.3947 -0.5810 -0.2757
   15TCq1    C7  236   4.638   3.259   1.128  0.2118 -0.8874 -0.6518
   15TCq1    C8  237   4.695   3.031   1.076 -0.2797  0.9580 -0.0482
   15TCq1    O4  238   0.064   3.039   1.138 -0.2160  0.1770  0.5206
   15TCq1    C9  239   4.319   3.201   0.862 -0.4385  0.5391 -0.1801
   15TCq1    O5  240   4.281   3.079   0.849 -0.0608  0.0365  0.5782
   15TCq1    O6  241   4.264   3.306   0.815 -0.0188  0.1263 -0.5394
   15TCq1    H1  242   4.521   3.402   1.272 -0.1365 -1.0296 -0.6079
   15TCq1    H2  243   4.418   3.438   0.935 -2.3522 -1.1132 -0.6681
   15TCq1    H3  244   4.451   3.011   0.991 -0.2468  0.1657 -2.5378
   15TCq1    H4  245   4.725   3.279   1.190 -0.0435 -0.8351 -0.3112
   16MPD2     C  246   4.732   2.839   0.763  0.1432  0.3421 -0.5913
   16MPD2    C1  247   0.027   2.880   0.896  0.0716 -0.5283  0.8432
   16MPD2    C2  248   0.140   2.825   0.952 -0.0391 -0.7803 -0.4337
   16MPD2    C3  249   0.215   2.728   0.892  0.5253  0.0566  0.0177
   16MPD2    C4  250   0.178   2.685   0.766 -0.1673  0.2106  0.4546
   16MPD2    C5  251   0.069   2.742   0.706  0.2854 -0.2272 -0.9466
   16MPD2     H  252   0.167   2.847   1.054  1.5248  1.1573 -1.2625
   16MPD2    H1  253   0.218   2.604   0.706 -0.3398  1.7062 -1.6976
   16MPD2    H2  254   4.654   2.888   0.707 -2.5176 -1.0241  1.9335
   16MPD2    H3  255   0.055   2.696   0.608  2.3286 -1.5025 -0.6409
   16MPD2     N  256   0.316   2.670   0.965 -0.0106 -0.0950  0.1591
   16MPD2    H5  257   0.331   2.708   1.057  1.3674 -2.6674  0.9876
   16MPD2    N1  258   4.678   2.978   0.948 -0.1156 -0.2369  0.0006
   16MPD2    H7  259   4.590   3.001   0.902 -0.4865 -1.4493  0.0985
   17TMC1    C1  260   3.496   3.898  10.230 -0.2055 -0.0867  0.3231
   17TMC1    C2  261   3.456   3.846  10.110 -0.0613  0.2864  0.7444
   17TMC1    C3  262   3.505   3.905   9.997  0.3775 -0.2759 -0.1171
   17TMC1    C4  263   3.571   4.009  10.239 -0.4154 -0.0331  0.0328
   17TMC1    C5  264   3.611   4.065  10.120  0.2773  0.6878  0.0203
   17TMC1    C6  265   3.588   4.014   9.999  0.0685  0.1675 -0.2186
   17TMC1     C  266   3.500   3.819  10.354  0.5122  0.1013  0.3069
   17TMC1     O  267   3.400   3.753  10.384 -0.0396  0.0539 -0.4803
   17TMC1     H  268   3.390   3.761  10.097  2.8811 -2.0871  1.5030
   17TMC1    H1  269   3.596   4.069  10.326  1.7012  0.2864 -0.7851
   17TMC1    H2  270   3.624   4.056   9.905  2.5302  2.0494  1.5646
   17TMC1    C7  271   3.673   4.196  10.120  0.0900 -0.6468  0.5257
   17TMC1    C8  272   3.450   3.859   9.875  0.7886 -0.1633 -0.5373
   17TMC1    O1  273   3.668   4.272  10.215 -0.1198  0.0146 -0.0137
   17TMC1    O2  274   3.409   3.742   9.856 -0.6033 -0.1088  0.5136
   17TMC1    O3  275   3.793   4.184  10.053  0.4457 -0.4239  0.0165
   17TMC1    H3  276   3.815   4.090  10.038  0.3220 -0.7031  1.5936
   17TMC1    O5  277   3.384   3.973   9.833 -0.1112 -0.9226 -0.3217
   17TMC1    H5  278   3.419   4.055   9.875 -0.8729 -0.4875 -0.5289
   18MPD2     C  279   3.592   3.653  10.594 -0.0858 -0.4088 -0.6620
   18MPD2    C1  280   3.661   3.759  10.539 -0.0697  0.3950  0.2614
   18MPD2    C2  281   3.789   3.788  10.586 -0.0861 -0.8528  0.9753
   18MPD2    C3  282   3.837   3.706  10.683  0.2419  0.3752 -0.8493
   18MPD2    C4  283   3.775   3.597  10.732 -0.1681  0.1438 -0.6719
   18MPD2    C5  284   3.648   3.570  10.691  0.1728 -0.2217 -0.3334
   18MPD2     H  285   3.848   3.866  10.537 -0.8417 -1.7875 -1.4173
   18MPD2    H1  286   3.828   3.526  10.795  0.0167  1.6987  0.9362
   18MPD2    H2  287   3.491   3.630  10.565 -0.8495 -0.2795  1.8578
   18MPD2    H3  288   3.591   3.487  10.731 -1.5040  1.8575  1.6219
   18MPD2     N  289   3.963   3.731  10.740  0.9228 -0.0010 -0.4256
   18MPD2    H5  290   4.004   3.666  10.806  0.8301 -1.5213 -1.8602
   18MPD2    N1  291   3.615   3.837  10.431 -0.5692  0.0329 -0.5531
   18MPD2    H7  292   3.689   3.899  10.398  0.7853 -0.9669  0.6090
   19TMC2    C1  293   4.484   4.036  13.789 -0.2926  0.5891 -0.4033
   19TMC2    C2  294   4.355   4.060  13.770 -0.3886  0.7820  0.1159
   19TMC2    C3  295   4.267   3.965  13.820 -0.3417 -0.1933 -0.1725
   19TMC2    C4  296   4.529   3.939  13.873  0.1087 -0.1188 -0.5559
   19TMC2    C5  297   4.438   3.858  13.929 -0.0288  0.7295  1.3408
   19TMC2    C6  298   4.304   3.871  13.906  0.2954 -0.4038 -0.3756
   19TMC2     C  299   4.587   4.133  13.747 -0.6471 -0.4184 -0.1265
   19TMC2     O  300   4.548   4.219  13.664 -0.5098  0.5320  0.6834
   19TMC2     H  301   4.314   4.137  13.705 -1.5581  0.3037  0.2847
   19TMC2    H1  302   4.633   3.915  13.893  0.0176 -0.8297 -0.9176
   19TMC2    H2  303   4.229   3.818  13.963 -0.0853  0.0954 -0.4168
   19TMC2    C7  304   4.485   3.767  14.033 -0.1646 -0.6608  0.3834
   19TMC2    C8  305   4.143   3.946  13.754 -1.0424 -0.0109  0.0568
   19TMC2    O1  306   4.595   3.722  14.015  0.8704 -0.1468  0.6678
   19TMC2    O2  307   4.085   4.032  13.687 -0.1307 -0.2481 -0.4772
   19TMC2    O5  308   4.141   3.816  13.717 -0.1393 -0.1872 -0.5431
   19TMC2    H5  309   4.202   3.758  13.768  0.3110 -0.4732 -1.4042
   20MPD2     C  310   0.067   4.348  13.754 -0.1092 -0.3283  0.0137
   20MPD2    C1  311   0.068   4.228  13.822  0.1584 -0.0014 -0.8095
   20MPD2    C2  312   0.180   4.191  13.896 -0.0814 -0.3595  0.0119
   20MPD2    C3  313   0.286   4.271  13.894  0.0160 -0.5053  0.0101
   20MPD2    C4  314   0.282   4.388  13.821 -0.2353 -0.0305 -0.1880
   20MPD2    C5  315   0.172   4.420  13.749 -0.0399 -0.1485 -0.1188
   20MPD2     H  316   0.186   4.100  13.955  0.3816 -0.1069  0.3601
   20MPD2    H1  317   0.353   4.469  13.831 -0.2607 -0.0203 -0.0930
   20MPD2    H2  318   4.725   4.377  13.684  0.5348 -1.0168 -1.0068
   20MPD2    H3  319   0.156   4.509  13.689  0.9547  0.4469  0.5153
   20MPD2     N  320   0.406   4.233  13.965  0.4727 -0.2037 -0.4115
   20MPD2    H5  321   0.479   4.303  13.958  0.0493  0.3593  0.7337
   20MPD2    N1  322   4.704   4.128  13.824 -0.1606  0.2441  0.1984
   20MPD2    H7  323   4.713   4.059  13.898  0.4815  0.5461  0.4054
   21TMC2    C1  324   2.497   4.478  14.572  0.0189  0.4420 -0.2378
   21TMC2    C2  325   2.479   4.356  14.625 -0.9013  0.5931 -0.5887
   21TMC2    C3  326   2.462   4.338  14.754 -0.9139 -0.3347 -0.2740
   21TMC2    C4  327   2.513   4.589  14.640 -0.1643 -0.7133  0.1601
   21TMC2    C5  328   2.503   4.566  14.773  0.0613 -0.0149 -0.6726
   21TMC2    C6  329   2.485   4.445  14.834  0.4182  0.1286 -0.3835
   21TMC2     C  330   2.593   4.470  14.464 -0.2873 -0.6956 -0.0896
   21TMC2     O  331   2.674   4.379  14.461  0.3607  0.5617  0.5092
   21TMC2     H  332   2.474   4.268  14.562 -0.4984 -1.9590  2.8939
   21TMC2    H1  333   2.548   4.683  14.601  0.7667 -1.7953 -1.5916
   21TMC2    H2  334   2.458   4.439  14.939 -3.6218 -0.6517 -1.4422
   21TMC2    C7  335   2.470   4.676  14.857  0.3334  0.4614  0.0160
   21TMC2    C8  336   2.459   4.201  14.807 -0.2881  0.0058  0.1291
   21TMC2    O1  337   2.479   4.665  14.980  0.0548 -0.0871 -0.4234
   21TMC2    O2  338   2.420   4.108  14.730  0.1757 -0.4094  0.4410
   21TMC2    O5  339   2.539   4.204  14.915  0.2114  0.2097 -0.5124
   21TMC2    H5  340   2.568   4.294  14.942 -0.6424  0.1749  0.5161
   22MPD2     C  341   2.901   0.071  14.277  0.0984 -0.3582 -0.5813
   22MPD2    C1  342   2.919   4.691  14.352  0.1633  1.5509 -0.4878
   22MPD2    C2  343   2.820   4.593  14.348 -0.6506 -0.4911  0.5019
   22MPD2    C3  344   2.692   4.640  14.325 -0.6956 -0.5908  0.7079
   22MPD2    C4  345   2.670   0.022  14.262 -0.1423 -0.1046 -0.4285
   22MPD2    C5  346   2.775   0.104  14.232  0.9662 -0.4476 -0.4763
   22MPD2     H  347   2.845   4.499  14.397 -0.1472 -1.5068 -1.6898
   22MPD2    H1  348   2.576   0.072  14.245  0.1870 -0.3208 -2.8071
   22MPD2    H2  349   2.981   0.143  14.269 -1.6998  1.4935 -1.7182
   22MPD2    H3  350   2.762   0.198  14.179  1.3044 -0.1204  0.0186
   22MPD2     N  351   2.581   4.582  14.388  0.2914 -0.0384 -0.8970
   22MPD2    H5  352   2.501   4.642  14.407  0.3106 -1.1764  2.9024
   22MPD2    N1  353   3.040   4.667  14.431  0.2469 -0.6451 -0.3471
   22MPD2    H7  354   3.049   4.571  14.463 -0.8796 -0.3469  0.8633
   23TMC2    C1  355   3.937   1.052  14.760 -0.7687  0.1077  0.3279
   23TMC2    C2  356   3.839   1.149  14.792  0.2358 -0.0511 -0.6371
   23TMC2    C3  357   3.717   1.145  14.724 -0.2714 -0.4582  0.2539
   23TMC2    C4  358   3.907   0.956  14.674  0.0031 -0.1359 -0.4861
   23TMC2    C5  359   3.782   0.952  14.610  0.8053  0.9532 -0.2443
   23TMC2    C6  360   3.689   1.046  14.636  0.3825 -0.7511  0.2641
   23TMC2     C  361   4.054   1.041  14.856 -0.2167 -0.4280  0.4938
   23TMC2     O  362   4.093   0.924  14.878  0.2324  0.0626  0.1417
   23TMC2     H  363   3.863   1.244  14.839 -1.5834  0.2709 -0.3739
   23TMC2    H1  364   3.980   0.882  14.646  0.2823 -0.2434  0.5369
   23TMC2    H2  365   3.592   1.050  14.586 -0.3968  1.2412  1.9213
   23TMC2    C7  366   3.745   0.828  14.534 -0.4719 -0.0246  0.8883
   23TMC2    C8  367   3.620   1.244  14.761  0.1306 -0.6291  0.3859
   23TMC2    O1  368   3.840   0.748  14.515 -0.4765  0.0876  0.5000
   23TMC2    O2  369   3.653   1.339  14.834 -0.5147 -0.5451 -0.2731
   23TMC2    O5  370   3.517   1.251  14.669 -0.2201  0.8875  0.0798
   23TMC2    H5  371   3.497   1.172  14.615 -0.3011  0.4050  0.8040
   24MPD2     C  372   4.413   1.225  15.158 -0.3592 -0.0287 -0.1185
   24MPD2    C1  373   4.358   1.096  15.158  0.2187  0.5834 -0.3582
   24MPD2    C2  374   4.262   1.073  15.061 -0.0118 -0.2272  0.1388
   24MPD2    C3  375   4.201   1.178  14.993  0.0748 -0.0827 -1.0133
   24MPD2    C4  376   4.254   1.309  15.005  0.2776 -0.6698 -0.0699
   24MPD2    C5  377   4.369   1.322  15.082  0.6548  0.2536 -0.3371
   24MPD2     H  378   4.225   0.971  15.059 -1.1821  0.1236  4.2292
   24MPD2    H1  379   4.216   1.388  14.941 -0.6784 -1.2055 -0.1654
   24MPD2    H2  380   4.494   1.254  15.224 -0.4018 -1.0579  0.3985
   24MPD2    H3  381   4.411   1.422  15.084 -0.3530  0.6469  0.8615
   24MPD2     N  382   4.102   1.162  14.904  0.5167  0.2560 -0.2625
   24MPD2    H5  383   4.063   1.245  14.861 -0.8873 -0.2209  0.0815
   24MPD2    N1  384   4.406   0.996  15.247 -0.1473  0.0123  0.5313
   24MPD2    H7  385   4.364   0.903  15.244  1.1696 -0.6047  1.7499
   25TMC2    C1  386   3.102   3.487  11.933  0.1246 -0.8423 -0.4008
   25TMC2    C2  387   3.195   3.520  12.027  0.2602 -0.0652  0.1932
   25TMC2    C3  388   3.145   3.571  12.145  0.2095  0.0789 -0.0626
   25TMC2    C4  389   2.970   3.474  11.963 -0.1713  0.5942 -0.1215
   25TMC2    C5  390   2.929   3.536  12.083  0.7093  0.3780  0.0408
   25TMC2    C6  391   3.016   3.593  12.174  0.4378 -0.0690 -0.2713
   25TMC2     C  392   3.150   3.480  11.801  0.6700  0.1899  0.1412
   25TMC2     O  393   3.239   3.553  11.769  0.5687  0.5362 -0.3107
   25TMC2     H  394   3.300   3.522  12.003  0.3491  0.5026  0.6213
   25TMC2    H1  395   2.903   3.452  11.881 -0.0926  0.2048 -0.0819
   25TMC2    H2  396   2.982   3.627  12.271  0.3123  0.1774 -0.4007
   25TMC2    C7  397   2.810   3.480  12.149 -0.1039 -0.2697  0.2427
   25TMC2    C8  398   3.235   3.542  12.258 -0.7060  0.8549  0.4843
   25TMC2    O1  399   2.827   3.453  12.269  0.1907  0.2676 -0.6760
   25TMC2    O2  400   3.208   3.567  12.375 -0.3385  0.1457  0.3049
   25TMC2    O5  401   3.318   3.442  12.223 -0.0219  0.0014  0.8623
   25TMC2    H5  402   3.337   3.437  12.127  3.0206 -0.9878  1.4996
   26MPD2     C  403   3.201   3.270  11.345 -0.1985  0.5007  0.2827
   26MPD2    C1  404   3.094   3.212  11.407 -0.1425 -0.1579 -0.3918
   26MPD2    C2  405   3.064   3.263  11.530 -0.3230  0.2549  0.1659
   26MPD2    C3  406   3.147   3.345  11.598  0.1123 -0.2520 -0.0610
   26MPD2    C4  407   3.268   3.379  11.536 -0.1147  0.3601 -0.8672
   26MPD2    C5  408   3.290   3.349  11.409 -0.1261  0.2813  0.0725
   26MPD2     H  409   2.979   3.225  11.587  1.2541 -4.0891 -0.3939
   26MPD2    H1  410   3.333   3.452  11.582  0.6002 -0.4560 -0.5726
   26MPD2    H2  411   3.211   3.246  11.240  2.2373  2.9652 -0.0571
   26MPD2    H3  412   3.378   3.390  11.360 -0.8949  2.6281  0.6756
   26MPD2     N  413   3.094   3.383  11.729  0.1029  0.5667 -0.4075
   26MPD2    H5  414   3.001   3.351  11.756  0.3989  0.3437  0.3578
   26MPD2    N1  415   3.009   3.123  11.333  1.0295 -0.2749  0.4212
   26MPD2    H7  416   3.043   3.102  11.239 -0.2775 -2.9139  0.5326
   27TMC2    C1  417   2.513   0.399  12.160  0.2124  0.7451  0.6144
   27TMC2    C2  418   2.535   0.499  12.064  0.2108  0.4055 -0.3055
   27TMC2    C3  419   2.658   0.553  12.050  0.1338 -0.5717  0.0144
   27TMC2    C4  420   2.608   0.359  12.246 -0.2447 -0.2493  0.5060
   27TMC2    C5  421   2.729   0.431  12.235  0.0112  0.4613 -0.5447
   27TMC2    C6  422   2.760   0.516  12.133 -0.0376 -0.0066  0.2346
   27TMC2     C  423   2.378   0.376  12.203  0.0796  0.4166  1.0355
   27TMC2     O  424   2.322   0.478  12.237 -0.2453  0.1065 -1.0422
   27TMC2     H  425   2.455   0.528  11.997  0.6645 -0.9718 -1.4375
   27TMC2    H1  426   2.591   0.307  12.340 -1.5687  1.2129  1.0589
   27TMC2    H2  427   2.858   0.557  12.109 -0.6861 -0.9521 -4.1556
   27TMC2    C7  428   2.763   0.485  12.367 -0.0860 -0.3287 -0.6041
   27TMC2    C8  429   2.702   0.596  11.918  0.3011  0.1861 -0.1481
   27TMC2    O1  430   2.740   0.415  12.467 -0.1072  0.2800  0.0636
   27TMC2    O2  431   2.817   0.574  11.880 -0.5512  0.2910 -0.3360
   27TMC2    O5  432   2.597   0.589  11.835 -0.1160 -0.3260  0.4787
   27TMC2    H5  433   2.521   0.641  11.869  1.6376  2.5784  0.0071
   28MPD2     C  434   2.087   0.074  12.498 -0.2147 -0.9801  0.1947
   28MPD2    C1  435   2.080   0.211  12.478  0.2204  0.6153  0.0357
   28MPD2    C2  436   2.172   0.270  12.386  0.0998 -0.4228  0.2291
   28MPD2    C3  437   2.282   0.195  12.336 -0.4411  0.2237  0.3056
   28MPD2    C4  438   2.295   0.066  12.375 -0.1905  0.2773  0.1511
   28MPD2    C5  439   2.200   0.008  12.453  0.3274 -0.3691 -0.0226
   28MPD2     H  440   2.165   0.372  12.351  1.1203 -0.4092  0.0868
   28MPD2    H1  441   2.367   4.733  12.331  2.0796  0.5096  3.4560
   28MPD2    H2  442   2.018   0.007  12.548 -0.5846 -0.8034 -0.0842
   28MPD2    H3  443   2.220   4.639  12.471 -3.2020 -1.1752 -0.8101
   28MPD2     N  444   2.371   0.245  12.239 -0.4629  0.0630 -0.3420
   28MPD2    H5  445   2.449   0.187  12.211 -0.4908  0.3162 -0.9434
   28MPD2    N1  446   1.976   0.283  12.542 -0.4562 -0.2306  0.0073
   28MPD2    H7  447   1.905   0.237  12.599 -0.5948 -1.4258 -1.1153
   29TMC2    C1  448   1.560   2.965  14.272  0.3111 -0.2728 -0.1815
   29TMC2    C2  449   1.532   2.973  14.406  0.3421 -0.1599 -0.4661
   29TMC2    C3  450   1.549   3.087  14.476  0.2698  0.3257 -0.0191
   29TMC2    C4  451   1.626   3.068  14.208 -0.2384  0.2011  0.2879
   29TMC2    C5  452   1.650   3.180  14.285 -0.5252 -0.2717 -0.1657
   29TMC2    C6  453   1.606   3.191  14.416  0.2330  0.3968 -1.1687
   29TMC2     C  454   1.511   2.851  14.199 -0.4314  0.3248  0.0544
   29TMC2     O  455   1.493   2.748  14.262 -0.1212  0.1000  0.2186
   29TMC2     H  456   1.493   2.881  14.448 -0.4689  0.4007 -0.0066
   29TMC2    H1  457   1.657   3.066  14.104 -0.7202  0.2120  0.1443
   29TMC2    H2  458   1.618   3.288  14.464  3.3532 -0.2539 -0.6683
   29TMC2    C7  459   1.691   3.302  14.217 -0.7825  0.3411 -0.6441
   29TMC2    C8  460   1.527   3.086  14.623 -0.2912 -0.1384 -0.3647
   29TMC2    O1  461   1.619   3.334  14.123 -0.1964  0.0403  0.3832
   29TMC2    O2  462   1.559   3.171  14.704 -0.3885  0.7527  0.4767
   29TMC2    O5  463   1.421   3.002  14.644 -0.1509 -0.2660 -0.1217
   29TMC2    H5  464   1.416   2.977  14.550 -1.5899  0.2317 -0.1747
   30MPD2     C  465   1.373   2.648  13.758  0.1726  0.3662  0.0044
   30MPD2    C1  466   1.413   2.592  13.875  0.3659 -0.5281 -0.4043
   30MPD2    C2  467   1.456   2.674  13.975 -0.1323 -0.6190 -0.4040
   30MPD2    C3  468   1.447   2.809  13.960  0.8964 -0.4555 -0.6255
   30MPD2    C4  469   1.390   2.865  13.849 -0.7904  0.4609 -0.6262
   30MPD2    C5  470   1.348   2.788  13.743  0.3173 -0.3911 -0.3055
   30MPD2     H  471   1.501   2.635  14.065 -0.8515  1.1468  0.7186
   30MPD2    H1  472   1.378   2.971  13.832  1.2481  1.0451  1.7080
   30MPD2    H2  473   1.345   2.582  13.677 -1.8330 -1.4402  2.1488
   30MPD2    H3  474   1.309   2.827  13.650 -0.4337 -2.1941 -0.7486
   30MPD2     N  475   1.491   2.892  14.069  0.4151  0.3429 -0.3878
   30MPD2    H5  476   1.502   2.990  14.046  3.1925  0.3085  0.8467
   30MPD2    N1  477   1.430   2.452  13.892 -0.2953 -0.0783  0.6855
   30MPD2    H7  478   1.444   2.423  13.988  4.3344 -0.8695 -0.2238
   31TMC2    C1  479   4.029   1.616  15.548 -0.3133  0.2911 -0.1047
   31TMC2    C2  480   3.895   1.634  15.513 -0.1363  0.1232 -0.7805
   31TMC2    C3  481   3.806   1.566  15.593 -0.0792 -0.6852 -0.4573
   31TMC2    C4  482   4.072   1.515  15.631  0.5390 -0.0335  0.5654
   31TMC2    C5  483   3.974   1.447  15.704  0.4714  0.6143 -0.4845
   31TMC2    C6  484   3.837   1.472  15.685 -0.1248 -0.3616 -0.7728
   31TMC2     C  485   4.117   1.676  15.448  0.4247 -0.2324  0.0695
   31TMC2     O  486   4.076   1.777  15.391 -0.0861  0.1542 -0.7776
   31TMC2     H  487   3.866   1.706  15.438 -1.8484  0.3531  0.0881
   31TMC2    H1  488   4.175   1.502  15.661 -0.3253 -1.7709  2.7929
   31TMC2    H2  489   3.767   1.400  15.726  1.7326 -1.1254  1.1010
   31TMC2    C7  490   4.015   1.362  15.809 -0.4739  0.4087 -0.1939
   31TMC2    C8  491   3.667   1.587  15.565 -0.1542 -0.0209  0.6664
   31TMC2    O1  492   4.131   1.326  15.815 -0.2213 -0.1095 -0.5891
   31TMC2    O2  493   3.631   1.628  15.457  0.1153  0.4251  0.4101
   31TMC2    O5  494   3.606   1.594  15.683 -0.0578  0.0269 -0.1377
   31TMC2    H5  495   3.657   1.564  15.761 -0.7283 -0.5330  0.0863
   32MPD2     C  496   4.548   1.642  15.167 -0.1313  0.2616 -0.3107
   32MPD2    C1  497   4.432   1.724  15.144 -0.5132 -0.5321 -0.2280
   32MPD2    C2  498   4.322   1.710  15.230 -0.4591 -0.9485  0.6525
   32MPD2    C3  499   4.332   1.623  15.336 -0.5281 -0.2343 -0.0925
   32MPD2    C4  500   4.448   1.552  15.359  0.0642  0.2982  0.0338
   32MPD2    C5  501   4.555   1.560  15.274  0.0595  0.3243 -0.4608
   32MPD2     H  502   4.233   1.766  15.206  0.5516 -0.2853 -1.4917
   32MPD2    H1  503   4.466   1.493  15.448  1.9393 -0.4399 -0.8438
   32MPD2    H2  504   4.624   1.638  15.091 -0.9475  1.4427 -1.1818
   32MPD2    H3  505   4.648   1.507  15.292 -0.6950 -0.6860  0.4574
   32MPD2     N  506   4.232   1.603  15.430 -0.3930 -0.6299  0.1161
   32MPD2    H5  507   4.249   1.538  15.507  1.6402 -0.5984 -0.2990
   32MPD2    N1  508   4.416   1.810  15.036  0.0470  0.2325  0.2033
   32MPD2    H7  509   4.328   1.860  15.029 -0.0003  0.2211  0.6944
   33TMC2    C1  510   4.390   4.428  10.080  0.2220  0.0549 -0.4409
   33TMC2    C2  511   4.312   4.360   9.989 -0.1318  0.6041  0.5502
   33TMC2    C3  512   4.255   4.429   9.888  0.3214 -0.4107 -0.1717
   33TMC2    C4  513   4.428   4.556  10.059 -0.7438 -0.4509  0.1160
   33TMC2    C5  514   4.385   4.621   9.943  0.2141 -0.1944  0.5213
   33TMC2    C6  515   4.298   4.558   9.854 -0.6990 -0.3876  0.4249
   33TMC2     C  516   4.436   4.348  10.203 -0.2847 -0.3933 -0.4404
   33TMC2     O  517   4.380   4.237  10.211  0.3428 -0.0059  0.4353
   33TMC2     H  518   4.275   4.258  10.002 -1.3867  0.7905 -1.6690
   33TMC2    H1  519   4.484   4.605  10.138 -0.8082 -0.2495  0.0385
   33TMC2    H2  520   4.260   4.598   9.761  0.1061  0.8524  0.6304
   33TMC2    C7  521   4.452   0.004   9.899 -0.9570  0.3759 -0.4195
   33TMC2    C8  522   4.163   4.353   9.803  0.0184  0.2366 -0.0491
   33TMC2    O1  523   4.556   0.026   9.956  0.4789  0.4385 -0.0156
   33TMC2    O2  524   4.163   4.374   9.681  0.4763  0.0086  0.5488
   33TMC2    O5  525   4.064   4.299   9.876  0.0396  0.0334 -0.0139
   33TMC2    H5  526   4.072   4.332   9.968  1.1753  0.7526 -0.3685
   34MPD2     C  527   4.729   4.248  10.610 -0.1184  0.5421  0.5076
   34MPD2    C1  528   4.612   4.186  10.576  0.3239 -0.3341 -0.0532
   34MPD2    C2  529   4.558   4.223  10.451  0.0823  0.9960  0.0315
   34MPD2    C3  530   4.601   4.342  10.384 -0.0978 -0.0121 -0.6047
   34MPD2    C4  531   4.714   4.409  10.438  0.1547 -0.0068  0.4625
   34MPD2    C5  532   0.048   4.349  10.539 -0.0878 -0.5221 -0.2528
   34MPD2     H  533   4.476   4.168  10.406 -0.1096 -1.0161  2.7888
   34MPD2    H1  534   0.024   4.496  10.392  0.2807 -0.5535 -0.4500
   34MPD2    H2  535   0.054   4.201  10.686 -0.4735 -1.0017 -0.1729
   34MPD2    H3  536   0.144   4.390  10.571  0.0262 -1.6912  0.9489
   34MPD2     N  537   4.548   4.398  10.269  0.3101  0.2570  0.3885
   34MPD2    H5  538   4.593   4.484  10.240  1.5684  0.0383  1.6842
   34MPD2    N1  539   4.558   4.069  10.642  0.1824  0.1038  0.0201
   34MPD2    H7  540   4.605   4.051  10.730 -0.5809  0.4802  0.5070
   35TMC2    C1  541   1.426   0.869  11.251  0.3982 -0.7791 -1.4296
   35TMC2    C2  542   1.434   0.870  11.112  0.8454  0.7270 -0.2365
   35TMC2    C3  543   1.361   0.786  11.035 -0.8919  0.2789 -0.4573
   35TMC2    C4  544   1.338   0.785  11.307 -0.1422 -0.3606 -0.7374
   35TMC2    C5  545   1.245   0.713  11.227  0.0409  0.3258  0.4655
   35TMC2    C6  546   1.261   0.709  11.088  0.2909  0.2747 -0.3373
   35TMC2     C  547   1.493   0.979  11.329  0.3141  0.1749  0.5933
   35TMC2     O  548   1.552   1.066  11.266  0.1834  0.4134 -0.0012
   35TMC2     H  549   1.494   0.945  11.062 -0.2825  1.5403 -0.3795
   35TMC2    H1  550   1.335   0.774  11.414 -0.4989 -1.0318 -0.8120
   35TMC2    H2  551   1.186   0.664  11.024  0.7199  2.6651 -2.5395
   35TMC2    C7  552   1.138   0.628  11.284 -0.2932  0.1799  0.2760
   35TMC2    C8  553   1.345   0.834  10.903 -0.0653 -0.3410  0.7557
   35TMC2    O1  554   1.078   0.555  11.206  0.4895  0.7248 -0.1766
   35TMC2    O2  555   1.383   0.946  10.864 -0.5214 -0.5549  0.2246
   35TMC2    O5  556   1.336   0.725  10.824  0.2922 -0.1961 -0.0501
   35TMC2    H5  557   1.323   0.638  10.867 -1.1957 -0.1404 -0.3738
   36MPD2     C  558   1.696   1.192  11.741 -0.0315 -0.1639  0.1666
   36MPD2    C1  559   1.678   1.059  11.773 -0.1432 -0.1290 -0.0689
   36MPD2    C2  560   1.630   0.979  11.670 -0.2272  0.4177 -0.2415
   36MPD2    C3  561   1.576   1.033  11.555 -0.3957 -1.2133 -0.1048
   36MPD2    C4  562   1.582   1.167  11.534 -0.6500  0.8041  0.4460
   36MPD2    C5  563   1.647   1.251  11.623  0.1667  0.3564  0.9666
   36MPD2     H  564   1.620   0.871  11.682  2.6605  0.1166 -0.4072
   36MPD2    H1  565   1.522   1.203  11.452 -1.7141  1.8025  1.6734
   36MPD2    H2  566   1.747   1.258  11.810  1.9223  0.4459 -1.8702
   36MPD2    H3  567   1.652   1.358  11.609 -0.6650  0.6716  3.1638
   36MPD2     N  568   1.516   0.950  11.461 -0.1442  0.1763  0.0169
   36MPD2    H5  569   1.487   0.864  11.506  0.1804 -0.1115 -0.3278
   36MPD2    N1  570   1.731   1.010  11.900 -0.6132 -0.5684 -0.0114
   36MPD2    H7  571   1.761   1.081  11.966  1.1069 -0.7980 -0.5258
   37TMC2    C1  572   3.724   1.113  11.226  0.1227  0.2538  0.0741
   37TMC2    C2  573   3.861   1.118  11.248 -0.3136 -0.6344 -0.7833
   37TMC2    C3  574   3.922   1.213  11.186 -0.4762 -0.2919  0.1765
   37TMC2    C4  575   3.659   1.193  11.135 -0.4571 -0.1188 -0.8711
   37TMC2    C5  576   3.726   1.287  11.067 -0.0378  0.1402 -0.0116
   37TMC2    C6  577   3.860   1.302  11.095  0.0543 -0.5261 -0.1243
   37TMC2     C  578   3.641   1.058  11.328  0.6512 -0.0564 -0.6985
   37TMC2     O  579   3.521   1.072  11.322 -0.6899  0.4157 -0.5127
   37TMC2     H  580   3.929   1.080  11.323  0.1667 -1.4617 -1.6250
   37TMC2    H1  581   3.553   1.210  11.147 -0.2186  1.0683 -0.4853
   37TMC2    H2  582   3.917   1.383  11.052 -0.7274  0.7539  1.2481
   37TMC2    C7  583   3.653   1.410  11.058 -0.7084 -0.5730 -0.5113
   37TMC2    C8  584   4.051   1.246  11.232  0.1918 -0.2797  0.0532
   37TMC2    O1  585   3.561   1.422  11.136  0.1848 -0.6738 -0.0985
   37TMC2    O2  586   4.136   1.169  11.266 -0.5718 -0.1562  0.6697
   37TMC2    O5  587   4.059   1.378  11.258 -0.3673 -0.8105 -0.2448
   37TMC2    H5  588   3.969   1.418  11.253  0.9157  1.8963 -1.9509
   38MPD2     C  589   3.531   0.884  11.782 -0.3171  0.2035  0.6526
   38MPD2    C1  590   3.634   0.807  11.731 -0.3366  0.2788 -0.3491
   38MPD2    C2  591   3.706   0.842  11.611  0.3231  0.3669 -0.2626
   38MPD2    C3  592   3.652   0.949  11.541  0.7762 -0.0940 -0.1135
   38MPD2    C4  593   3.549   1.021  11.593  0.1053  0.1435  0.0678
   38MPD2    C5  594   3.493   0.987  11.712  0.4851  0.9897 -1.0232
   38MPD2     H  595   3.787   0.779  11.576  0.2518 -0.3323  0.8248
   38MPD2    H1  596   3.506   1.109  11.547  0.1824 -0.0865 -0.4471
   38MPD2    H2  597   3.473   0.863  11.871  0.6415 -0.7513  1.0529
   38MPD2    H3  598   3.407   1.050  11.735  0.5008  0.7248 -0.2204
   38MPD2     N  599   3.715   0.986  11.419 -0.1506  0.1046 -0.1521
   38MPD2    H5  600   3.799   0.941  11.386 -0.5471  0.2179 -1.3273
   38MPD2    N1  601   3.680   0.695  11.793  0.0275  0.4933 -0.3009
   38MPD2    H7  602   3.756   0.641  11.753  1.1268  2.3289 -0.6985
   39TMC2    C1  603   0.988   2.770   1.679 -0.6749 -0.5075 -0.6082
   39TMC2    C2  604   0.930   2.871   1.755  0.1749 -0.2942  0.2876
   39TMC2    C3  605   1.010   2.952   1.831  0.3236 -0.2300 -0.0264
   39TMC2    C4  606   1.117   2.744   1.685  0.6880 -0.5155  0.1552
   39TMC2    C5  607   1.191   2.810   1.776  0.2523  0.5722 -0.4228
   39TMC2    C6  608   1.141   2.916   1.852 -0.5915  0.6091  0.0379
   39TMC2     C  609   0.898   2.699   1.598 -0.1734 -0.2375  0.3511
   39TMC2     O  610   0.780   2.726   1.605  0.0923  0.6741  0.1615
   39TMC2     H  611   0.831   2.909   1.734  0.2264 -0.5358 -0.3900
   39TMC2    H1  612   1.159   2.663   1.626 -1.6157 -2.0256  0.5507
   39TMC2    H2  613   1.210   2.965   1.920  0.5387 -0.8281 -0.0724
   39TMC2    C7  614   1.341   2.804   1.750 -0.4302  0.2650  0.3459
   39TMC2    C8  615   0.951   3.052   1.911  0.2866  0.8694  0.2249
   39TMC2    O1  616   1.389   2.704   1.695 -0.2566 -0.0217  0.3018
   39TMC2    O2  617   1.011   3.154   1.940  0.0809  0.3092 -0.1097
   39TMC2    O5  618   0.895   2.976   2.008 -0.8227  0.0219 -0.0648
   39TMC2    H5  619   0.860   2.887   1.985 -0.5185 -0.2322  0.4806
   40MPD2     C  620   0.998   2.383   1.440  0.3107  0.2852  0.0065
   40MPD2    C1  621   0.906   2.482   1.474  0.0854  0.3146 -0.6162
   40MPD2    C2  622   0.774   2.452   1.452 -0.4706 -0.3882 -0.5435
   40MPD2    C3  623   0.737   2.325   1.394 -0.2045 -0.5517  0.2469
   40MPD2    C4  624   0.827   2.223   1.377  0.4995 -0.1606 -0.4279
   40MPD2    C5  625   0.957   2.262   1.385  0.5570 -0.3836 -0.2216
   40MPD2     H  626   0.702   2.525   1.487 -0.0615 -0.4367  0.4123
   40MPD2    H1  627   0.810   2.121   1.347 -0.2590  0.6497 -2.7284
   40MPD2    H2  628   1.101   2.410   1.457 -0.6214  4.7231 -1.3753
   40MPD2    H3  629   1.033   2.188   1.360  1.0893  0.1788 -0.2629
   40MPD2     N  630   0.599   2.288   1.380  0.2824 -0.1650 -0.2671
   40MPD2    H5  631   0.585   2.196   1.340  1.4418  0.6659 -2.6086
   40MPD2    N1  632   0.960   2.594   1.545 -0.5492  0.0759  0.1655
   40MPD2    H7  633   1.060   2.601   1.561 -0.1923 -1.6156 -1.2947
   41TMC2    C1  634   0.134   0.155  13.380  1.0142  0.2085 -0.5376
   41TMC2    C2  635   0.036   0.116  13.296  0.8628 -0.1169 -0.4490
   41TMC2    C3  636   0.018   0.194  13.182  0.0452  0.0650 -0.4031
   41TMC2    C4  637   0.202   0.275  13.356 -0.1319  0.0317  0.7235
   41TMC2    C5  638   0.173   0.346  13.247  0.5027  0.5641  0.7101
   41TMC2    C6  639   0.092   0.304  13.153  0.3778  0.1010 -0.0843
   41TMC2     C  640   0.140   0.089  13.515 -0.1989 -0.5562  0.4241
   41TMC2     O  641   0.080   4.715  13.520 -0.2540 -0.4455 -0.5126
   41TMC2     H  642   4.712   0.029  13.320  0.2756  1.3596  3.4342
   41TMC2    H1  643   0.276   0.316  13.422  0.0661  2.5328 -1.0348
   41TMC2    H2  644   0.076   0.369  13.068  0.2794  1.5043  1.0009
   41TMC2    C7  645   0.283   0.429  13.197  0.1796 -0.6233  0.6498
   41TMC2    C8  646   4.676   0.134  13.079  0.3539  0.8365  0.4218
   41TMC2    O1  647   0.348   0.499  13.274 -0.1155 -0.3355 -0.0175
   41TMC2    O2  648   4.637   0.024  13.098 -0.0616 -0.1279  0.0465
   41TMC2    O5  649   4.627   0.227  12.997  0.6728 -0.9398  0.0129
   41TMC2    H5  650   4.668   0.317  12.993 -2.0696  0.3424  1.1228
   42MPD2     C  651   0.066   0.050  13.800 -0.6376 -0.1583  0.1153
   42MPD2    C1  652   0.174   0.121  13.752  0.1628  0.8407 -0.0937
   42MPD2    C2  653   0.257   0.179  13.845 -0.1970  0.1257 -0.4715
   42MPD2    C3  654   0.230   0.178  13.980  0.7878 -0.1347  0.0712
   42MPD2    C4  655   0.128   0.098  14.024  0.0224 -0.0526  0.2274
   42MPD2    C5  656   0.046   0.033  13.930 -0.2814  0.2671 -0.5782
   42MPD2     H  657   0.344   0.231  13.805 -1.5637  1.7976 -1.2584
   42MPD2    H1  658   0.103   0.101  14.129  2.5166  0.9953  0.7892
   42MPD2    H2  659   4.725   0.013  13.733  0.8970 -1.7238 -0.7824
   42MPD2    H3  660   4.690   4.727  13.969  1.1921 -0.7275  1.7844
   42MPD2     N  661   0.310   0.244  14.077 -0.1618 -0.1950 -0.0133
   42MPD2    H5  662   0.272   0.237  14.171  1.3140  0.1091  0.6007
   42MPD2    N1  663   0.199   0.152  13.617 -0.6052 -0.2242  0.7667
   42MPD2    H7  664   0.263   0.226  13.588 -1.8934  0.3212 -0.6803
   43TMC2    C1  665   0.912   3.922   1.168  1.0949 -0.6039  0.3459
   43TMC2    C2  666   0.780   3.916   1.213 -0.1287  0.1053 -0.3107
   43TMC2    C3  667   0.748   3.970   1.333 -0.1372 -0.2628  0.2475
   43TMC2    C4  668   1.008   3.972   1.250 -0.8184 -0.2601  0.3358
   43TMC2    C5  669   0.972   4.011   1.371 -0.8958  0.4083  0.1840
   43TMC2    C6  670   0.848   4.027   1.417 -0.4630 -0.3805 -0.2284
   43TMC2     C  671   0.950   3.880   1.036 -0.3032  0.4055  0.5605
   43TMC2     O  672   1.070   3.884   1.019 -0.1596 -0.2962  0.1153
   43TMC2     H  673   0.712   3.863   1.148 -0.2647  0.6656 -0.6239
   43TMC2    H1  674   1.113   3.956   1.227 -0.3954  3.5594 -0.4389
   43TMC2    H2  675   0.818   4.078   1.508  0.1948  0.5551 -0.5366
   43TMC2    C7  676   1.068   4.089   1.441 -0.1275 -0.2165 -0.1785
   43TMC2    C8  677   0.618   3.948   1.384 -0.1524  0.9153 -0.3451
   43TMC2    O1  678   1.167   4.130   1.379 -0.5169  0.0818 -0.5591
   43TMC2    O2  679   0.566   4.013   1.472 -0.3484 -0.2674  0.4083
   43TMC2    O5  680   0.595   3.817   1.365  0.3276  0.2354  0.1275
   43TMC2    H5  681   0.637   3.766   1.293 -0.2669 -0.5615  0.3386
   44MPD2     C  682   0.884   3.636   0.581 -0.0687  0.3816 -0.1997
   44MPD2    C1  683   0.994   3.641   0.666  0.4470  0.1022  0.0069
   44MPD2    C2  684   0.983   3.720   0.781  0.0932 -0.0374 -0.4542
   44MPD2    C3  685   0.862   3.761   0.825  0.4755  0.3869  0.0670
   44MPD2    C4  686   0.752   3.750   0.742 -0.6812 -0.3679 -0.0515
   44MPD2    C5  687   0.764   3.693   0.620  0.0081 -0.3459  0.2717
   44MPD2     H  688   1.074   3.730   0.839  0.0447  0.6581 -0.5010
   44MPD2    H1  689   0.663   3.806   0.769 -1.8466 -1.9371 -0.6246
   44MPD2    H2  690   0.902   3.590   0.485 -0.5134 -2.0780  0.8987
   44MPD2    H3  691   0.681   3.691   0.551 -0.5560  0.1894  0.9469
   44MPD2     N  692   0.848   3.836   0.947  0.5638  0.2731  0.1058
   44MPD2    H5  693   0.752   3.866   0.967  0.8707  1.4691 -0.2063
   44MPD2    N1  694   1.120   3.588   0.627 -0.2443 -0.1111  0.1771
   44MPD2    H7  695   1.197   3.605   0.692 -1.2599  0.9594  1.0852
   45TMC2    C1  696   3.498   1.219   9.774  0.4417  0.1805 -0.2465
   45TMC2    C2  697   3.621   1.161   9.753 -0.3701  0.4224  0.0430
   45TMC2    C3  698   3.726   1.242   9.731 -0.6595  0.0192  0.3257
   45TMC2    C4  699   3.484   1.357   9.772  0.1290  0.2191  0.5907
   45TMC2    C5  700   3.593   1.440   9.763 -0.0066 -0.7119 -0.8481
   45TMC2    C6  701   3.716   1.375   9.745 -0.4866  0.2724 -0.1591
   45TMC2     C  702   3.372   1.140   9.759  0.5055 -0.7699  0.1823
   45TMC2     O  703   3.268   1.202   9.791 -0.1089 -0.5424  0.3292
   45TMC2     H  704   3.624   1.056   9.725 -0.4139 -0.1614  2.1928
   45TMC2    H1  705   3.391   1.403   9.804  0.7749  0.4559  2.1464
   45TMC2    H2  706   3.808   1.430   9.730 -1.3291  1.2901 -1.6637
   45TMC2    C7  707   3.586   1.585   9.743  0.3411  0.6873 -0.4167
   45TMC2    C8  708   3.843   1.180   9.670 -0.2658  0.8067  0.4770
   45TMC2    O1  709   3.671   1.627   9.664 -0.3304 -0.3941 -0.4838
   45TMC2    O2  710   3.871   1.064   9.688  0.0129 -0.3000 -0.5680
   45TMC2    O5  711   3.858   1.238   9.549 -0.1084 -0.3497  0.1554
   45TMC2    H5  712   3.797   1.313   9.535 -0.7993 -0.7681  1.0073
   46MPD2     C  713   3.288   0.795   9.749 -0.2926  0.0687 -0.1100
   46MPD2    C1  714   3.267   0.924   9.724 -0.4225 -0.3982 -0.5656
   46MPD2    C2  715   3.145   0.973   9.679  0.5624  0.0368  0.3552
   46MPD2    C3  716   3.031   0.889   9.690 -0.0253 -0.7844 -0.3194
   46MPD2    C4  717   3.045   0.757   9.731  0.2514  0.4295 -0.2340
   46MPD2    C5  718   3.176   0.712   9.741 -0.0217  0.4791 -0.3752
   46MPD2     H  719   3.121   1.077   9.657 -1.4617 -0.2736  1.1069
   46MPD2    H1  720   2.958   0.692   9.726  1.3676 -0.8815 -2.4969
   46MPD2    H2  721   3.388   0.756   9.759 -0.0091  1.5344  2.7801
   46MPD2    H3  722   3.194   0.605   9.749  1.3014  0.7371  0.0424
   46MPD2     N  723   2.907   0.961   9.677 -0.1696  0.2215  0.4580
   46MPD2    H5  724   2.910   1.056   9.641 -0.9782 -0.0994 -0.4595
   46MPD2    N1  725   3.383   1.004   9.740  0.3757  0.4010  0.2399
   46MPD2    H7  726   3.474   0.961   9.742 -0.1003 -0.6388 -0.6955
   47TMC2    C1  727   0.320   2.012   9.400  0.2612  0.3865  0.5916
   47TMC2    C2  728   0.305   1.906   9.319 -0.0659  0.3264 -0.9671
   47TMC2    C3  729   0.182   1.880   9.268 -0.3338  0.3573 -0.6240
   47TMC2    C4  730   0.215   2.095   9.436 -0.4867  0.2331 -0.1842
   47TMC2    C5  731   0.099   2.072   9.376  0.5848  0.4099 -0.2157
   47TMC2    C6  732   0.079   1.962   9.293 -0.2451  0.0085  1.0031
   47TMC2     C  733   0.448   2.043   9.454  0.0436  0.7371 -0.6014
   47TMC2     O  734   0.462   2.157   9.496  0.2430  0.1749  0.2810
   47TMC2     H  735   0.392   1.848   9.288 -0.8330  0.2286 -2.9385
   47TMC2    H1  736   0.229   2.173   9.509 -0.4735 -0.2842  0.3700
   47TMC2    H2  737   4.712   1.941   9.267  0.0712 -0.6470  0.2964
   47TMC2    C7  738   4.729   2.158   9.426  0.3658  0.7878  0.3270
   47TMC2    C8  739   0.153   1.753   9.202  0.4758  0.7554  0.0004
   47TMC2    O1  740   0.029   2.235   9.514  0.4430 -0.1787 -0.2406
   47TMC2    O2  741   0.046   1.741   9.141 -0.3250 -0.6026  0.0331
   47TMC2    O5  742   0.184   1.678   9.310  0.2553 -0.5259 -0.4798
   47TMC2    H5  743   0.270   1.710   9.345  0.3800 -0.8762 -0.4660
   48MPD2     C  744   0.737   2.067   9.542  0.1921  0.2892 -0.0768
   48MPD2    C1  745   0.670   1.953   9.498 -0.0167  0.3367 -0.3088
   48MPD2    C2  746   0.727   1.832   9.499 -0.0435 -0.3657  0.5206
   48MPD2    C3  747   0.857   1.820   9.538 -0.2472 -0.0261 -1.1851
   48MPD2    C4  748   0.927   1.931   9.591 -0.4304 -0.9755  0.1069
   48MPD2    C5  749   0.858   2.053   9.607  0.5510 -0.0010  0.2829
   48MPD2     H  750   0.663   1.749   9.472  0.8694 -0.2211 -2.1104
   48MPD2    H1  751   1.029   1.926   9.626 -0.2857 -0.5786 -0.2609
   48MPD2    H2  752   0.686   2.162   9.554  0.8828  0.7969 -1.0868
   48MPD2    H3  753   0.906   2.142   9.647  1.8243 -1.0949  1.1795
   48MPD2     N  754   0.920   1.700   9.511 -0.4244 -0.3905  0.0699
   48MPD2    H5  755   0.860   1.629   9.471  0.7646 -1.6928  0.5879
   48MPD2    N1  756   0.532   1.942   9.464 -0.9807 -0.2243  0.4567
   48MPD2    H7  757   0.492   1.850   9.451  4.3802 -2.3136 -1.3969
   49TMC2    C1  758   3.754   0.556  10.662 -0.1880 -0.1527  0.8821
   49TMC2    C2  759   3.775   0.693  10.654  0.4504  0.1852  0.0059
   49TMC2    C3  760   3.882   0.737  10.581  0.0315 -0.2235 -0.3373
   49TMC2    C4  761   3.834   0.466  10.598  0.2924  0.0828 -0.1075
   49TMC2    C5  762   3.929   0.522  10.516  0.7447 -0.3347 -0.2069
   49TMC2    C6  763   3.957   0.655  10.504 -0.0962 -0.7359  0.0545
   49TMC2     C  764   3.635   0.516  10.739 -0.3788 -0.6492  0.1941
   49TMC2     O  765   3.586   0.593  10.818 -0.5485  0.6189 -0.4368
   49TMC2     H  766   3.716   0.760  10.714 -1.5167 -1.0134 -0.5947
   49TMC2    H1  767   3.838   0.361  10.626  0.6730  0.4000  1.0015
   49TMC2    H2  768   4.031   0.691  10.433 -2.1621  1.5582 -0.9497
   49TMC2    C7  769   4.030   0.434  10.464 -0.4901 -0.0735 -0.0364
   49TMC2    C8  770   3.889   0.877  10.547  0.1209  0.6156  0.2558
   49TMC2    O1  771   4.134   0.483  10.415  0.1842 -0.4135 -0.0223
   49TMC2    O2  772   3.796   0.951  10.525 -0.1266 -0.1654  0.7328
   49TMC2    O5  773   4.022   0.910  10.559 -0.4913  0.0394 -0.2008
   49TMC2    H5  774   4.077   0.840  10.599  1.0716 -0.2585 -2.8528
   50MPD2     C  775   3.392   0.397  10.870  0.2170  0.7045  0.5662
   50MPD2    C1  776   3.478   0.332  10.784  0.6201 -0.2117 -0.2117
   50MPD2    C2  777   3.453   0.198  10.754  0.2284  0.9498 -0.1227
   50MPD2    C3  778   3.368   0.123  10.835 -0.0116 -0.5074 -0.0456
   50MPD2    C4  779   3.310   0.190  10.934 -0.0718 -0.3590  0.1293
   50MPD2    C5  780   3.315   0.323  10.950  0.4620 -0.4565  0.3184
   50MPD2     H  781   3.514   0.160  10.673 -3.5982 -1.1617 -1.9893
   50MPD2    H1  782   3.239   0.140  11.000  0.3337  0.2321  1.0022
   50MPD2    H2  783   3.396   0.505  10.880  1.4558  0.6567  0.5602
   50MPD2    H3  784   3.257   0.375  11.025  0.0144 -1.7012  0.8360
   50MPD2     N  785   3.358   4.719  10.826 -0.0673 -0.7951 -0.4837
   50MPD2    H5  786   3.292   4.678  10.891  1.7503 -3.1680 -0.0926
   50MPD2    N1  787   3.577   0.395  10.708  0.1964 -0.1657 -0.2080
   50MPD2    H7  788   3.643   0.344  10.649  1.1057  0.8147 -0.0288
   51TMC2    C1  789   2.150   2.271   1.380  0.8894 -0.5181 -0.5095
   51TMC2    C2  790   2.067   2.288   1.488  0.2065  0.3175 -0.2500
   51TMC2    C3  791   1.982   2.395   1.486  0.2080  0.2597  0.0220
   51TMC2    C4  792   2.178   2.368   1.285  0.0154 -0.4210 -0.4216
   51TMC2    C5  793   2.093   2.476   1.300  0.8286  0.0296 -0.1489
   51TMC2    C6  794   1.996   2.488   1.392  0.6022 -0.3180 -0.1593
   51TMC2     C  795   2.229   2.148   1.365 -0.3966  0.0038  0.6604
   51TMC2     O  796   2.245   2.108   1.252  0.1296  0.3949 -0.1379
   51TMC2     H  797   2.058   2.205   1.557 -0.5513  1.9208  1.5492
   51TMC2    H1  798   2.265   2.369   1.221  0.4459  0.9774  0.1873
   51TMC2    H2  799   1.924   2.569   1.392  2.4060  1.2868 -0.7139
   51TMC2    C7  800   2.102   2.583   1.199 -0.4751  0.2971 -0.1782
   51TMC2    C8  801   1.879   2.398   1.576  0.0115  0.1454  0.3486
   51TMC2    O1  802   1.996   2.628   1.151  0.2533  0.1513 -0.5007
   51TMC2    O2  803   1.829   2.295   1.620 -0.2836  0.2227 -0.5882
   51TMC2    O5  804   1.921   2.487   1.662  0.1100  0.3648 -0.0366
   51TMC2    H5  805   1.981   2.557   1.628 -0.9011  0.2401 -2.1161
   52MPD2     C  806   2.647   1.919   1.550  0.4364  0.0321  0.3582
   52MPD2    C1  807   2.593   1.909   1.425  0.3268 -0.5984  0.1150
   52MPD2    C2  808   2.474   1.982   1.402 -0.0843 -0.3976  0.3753
   52MPD2    C3  809   2.410   2.051   1.504 -0.4455  0.5117  0.4814
   52MPD2    C4  810   2.460   2.034   1.628 -0.0341  0.4947 -0.5337
   52MPD2    C5  811   2.571   1.960   1.657 -0.9081  0.5478 -0.3966
   52MPD2     H  812   2.425   1.988   1.305  1.5915  0.3208 -0.4152
   52MPD2    H1  813   2.405   2.076   1.712  2.2476  0.6194  0.8903
   52MPD2    H2  814   2.742   1.877   1.582  0.0398 -1.7957 -0.8917
   52MPD2    H3  815   2.609   1.969   1.758 -0.0693 -1.7242 -0.5039
   52MPD2     N  816   2.289   2.121   1.483  0.2637 -0.1354  0.1235
   52MPD2    H5  817   2.247   2.154   1.569 -0.5564  1.6641 -0.9616
   52MPD2    N1  818   2.663   1.844   1.320 -0.5296  0.1592  0.6398
   52MPD2    H7  819   2.624   1.855   1.227  0.4985 -0.8086  0.0906
   53TMC2    C1  820   3.458   2.085  11.243  0.1876 -0.3655  0.1432
   53TMC2    C2  821   3.375   2.200  11.260  0.0008  0.0121  0.9563
   53TMC2    C3  822   3.314   2.212  11.388 -0.5024  0.2133 -0.2383
   53TMC2    C4  823   3.466   1.982  11.332 -0.1561  0.0375  0.2956
   53TMC2    C5  824   3.379   1.985  11.441 -0.8642  0.3089 -0.6783
   53TMC2    C6  825   3.302   2.098  11.469 -0.0531  0.0585 -0.2993
   53TMC2     C  826   3.512   2.048  11.113  0.6781 -0.8014 -0.4064
   53TMC2     O  827   3.536   2.129  11.023 -0.1551  0.1882 -0.1640
   53TMC2     H  828   3.377   2.279  11.186  1.3440  0.3859  1.3794
   53TMC2    H1  829   3.546   1.910  11.329  0.2242  0.4065  1.4348
   53TMC2    H2  830   3.232   2.095  11.552  0.2614  0.3959 -0.0247
   53TMC2    C7  831   3.389   1.881  11.538  0.4997 -0.4736  0.1507
   53TMC2    C8  832   3.216   2.308  11.423  0.1530  1.1018 -0.7585
   53TMC2    O1  833   3.338   1.908  11.645  0.3530  0.2586 -0.3168
   53TMC2    O2  834   3.126   2.295  11.508  0.3770  0.0664 -0.8520
   53TMC2    O5  835   3.206   2.383  11.303 -0.4839  0.0251 -0.1722
   53TMC2    H5  836   3.286   2.420  11.259 -0.5994  0.7368  0.2304
   54MPD2     C  837   3.636   1.893  10.888 -0.3621 -0.3873  0.6768
   54MPD2    C1  838   3.575   1.836  10.995 -0.7424  0.5499 -0.4534
   54MPD2    C2  839   3.580   1.698  11.010 -0.3134  0.2307  0.9370
   54MPD2    C3  840   3.666   1.626  10.935 -0.0948  0.2084  0.5858
   54MPD2    C4  841   3.738   1.691  10.837 -0.2574 -1.1254  1.3510
   54MPD2    C5  842   3.717   1.820  10.803 -0.7074 -0.7981  0.0667
   54MPD2     H  843   3.531   1.644  11.091 -1.4077 -0.3311 -0.0946
   54MPD2    H1  844   3.817   1.632  10.791  0.1506 -0.9906  1.8909
   54MPD2    H2  845   3.635   1.999  10.868 -1.9149  0.0175  2.7911
   54MPD2    H3  846   3.780   1.879  10.737 -0.1928 -0.3314  0.9611
   54MPD2     N  847   3.701   1.491  10.958  0.2595  0.1150 -0.6867
   54MPD2    H5  848   3.757   1.438  10.892  0.4695 -0.6577  0.1009
   54MPD2    N1  849   3.511   1.909  11.098 -0.1501  0.4035 -0.4279
   54MPD2    H7  850   3.485   1.860  11.182  0.8261 -0.8363 -0.8485
   55TMC2    C1  851   4.245   3.218   0.059 -0.1668 -0.3065  0.9183
   55TMC2    C2  852   4.308   3.182  17.691  0.5699  0.2066  0.4154
   55TMC2    C3  853   4.313   3.047  17.666  0.5555 -0.1766 -0.0226
   55TMC2    C4  854   4.209   3.125   0.156 -0.6697  0.2999 -0.0308
   55TMC2    C5  855   4.210   2.990   0.129  0.0506  0.1171  0.7410
   55TMC2    C6  856   4.267   2.953   0.010  0.3661  0.8326  0.2238
   55TMC2     C  857   4.218   3.358   0.095  0.2422  0.1414 -0.7578
   55TMC2     O  858   4.172   3.375   0.209  0.0094 -0.3308  0.2297
   55TMC2     H  859   4.359   3.245  17.619 -1.8846  1.5887 -0.1309
   55TMC2    H1  860   4.174   3.159   0.253 -2.0988  0.6735 -0.6619
   55TMC2    H2  861   4.291   2.851  17.729  1.9363  1.0082  1.0320
   55TMC2    C7  862   4.159   2.889   0.222 -0.2935 -0.2263 -0.6934
   55TMC2    C8  863   4.421   3.002  17.580  0.2776  0.4264 -0.1353
   55TMC2    O1  864   4.180   2.776   0.189 -0.0125 -0.1494  0.0402
   55TMC2    O2  865   4.531   3.052  17.575 -0.3136 -0.4808 -0.1462
   55TMC2    O5  866   4.371   2.918  17.490 -0.8492 -0.1442 -0.0686
   55TMC2    H5  867   4.275   2.906  17.499 -0.7825  1.0736  2.1404
   56MPD2     C  868   4.224   3.664  17.630 -0.0250 -0.2962  0.2156
   56MPD2    C1  869   4.195   3.587  17.742 -0.5353 -0.0865 -0.6170
   56MPD2    C2  870   4.137   3.646   0.112  0.2121 -0.1932  0.2127
   56MPD2    C3  871   4.111   3.779   0.113 -0.0980  0.7124 -0.4997
   56MPD2    C4  872   4.137   3.859  17.738  0.7369  0.3546 -0.6735
   56MPD2    C5  873   4.201   3.798  17.635 -0.2094 -0.1287 -0.3779
   56MPD2     H  874   4.111   3.589   0.201 -0.9923 -1.3431 -0.8653
   56MPD2    H1  875   4.121   3.966  17.732 -0.0437  0.1026 -2.8502
   56MPD2    H2  876   4.270   3.623  17.541 -1.7620  3.1935 -2.3314
   56MPD2    H3  877   4.221   3.858  17.547  0.1811  0.3114  0.0090
   56MPD2     N  878   4.045   3.827   0.229 -0.3102 -0.0015  0.2514
   56MPD2    H5  879   4.040   3.773   0.315  0.6097 -2.6398 -1.3684
   56MPD2    N1  880   4.237   3.450  17.732  0.5030 -0.9105 -0.1984
   56MPD2    H7  881   4.279   3.427  17.643 -1.4922 -0.1933 -1.3373
   57TMC2    C1  882   3.568   3.958  13.744  0.2456 -0.4356 -0.2699
   57TMC2    C2  883   3.561   3.824  13.759  0.0564 -0.4034 -0.4779
   57TMC2    C3  884   3.678   3.751  13.733  0.0904 -0.3026  0.3640
   57TMC2    C4  885   3.679   4.013  13.683  0.1224  0.2232  0.2290
   57TMC2    C5  886   3.787   3.938  13.647 -0.2625 -0.3167  0.5361
   57TMC2    C6  887   3.785   3.804  13.671 -0.6240 -0.3484 -0.3153
   57TMC2     C  888   3.457   4.046  13.766  0.1905  0.3384 -0.0073
   57TMC2     O  889   3.491   4.161  13.799 -0.1667  0.3703 -0.2546
   57TMC2     H  890   3.471   3.786  13.806  0.5610 -2.3816 -1.1131
   57TMC2    H1  891   3.669   4.119  13.659  0.4363  0.0644 -0.6152
   57TMC2    H2  892   3.864   3.733  13.651  0.7746  0.7690  1.2335
   57TMC2    C7  893   3.830   3.971  13.515 -0.4121 -0.0685  1.0175
   57TMC2    C8  894   3.669   3.609  13.740  0.3209  0.2696  0.0863
   57TMC2    O1  895   3.751   4.037  13.442  0.0210 -0.1620 -0.6980
   57TMC2    O2  896   3.769   3.535  13.749 -0.1026 -0.9326  0.5773
   57TMC2    O5  897   3.555   3.586  13.672  0.3251 -0.4863 -0.3332
   57TMC2    H5  898   3.517   3.668  13.633 -0.2737 -0.3957  0.4445
   58MPD2     C  899   2.955   4.098  13.857  0.0410 -0.5306  0.0894
   58MPD2    C1  900   3.057   4.190  13.873 -0.4790  0.2618 -1.2022
   58MPD2    C2  901   3.189   4.159  13.832 -0.6029  0.2538 -0.1563
   58MPD2    C3  902   3.213   4.028  13.781  0.2320 -0.1649 -0.2121
   58MPD2    C4  903   3.113   3.943  13.763  0.1624  0.3265 -0.1096
   58MPD2    C5  904   2.988   3.976  13.801 -0.8245  0.5134 -0.0126
   58MPD2     H  905   3.264   4.237  13.835 -1.7134  1.2786  0.8781
   58MPD2    H1  906   3.135   3.840  13.737  0.7440  0.4187  0.0255
   58MPD2    H2  907   2.850   4.102  13.882  0.4146 -0.0099  1.5624
   58MPD2    H3  908   2.905   3.909  13.782 -0.7147  0.1015  0.9510
   58MPD2     N  909   3.339   3.983  13.750  0.2137  0.8308 -0.6621
   58MPD2    H5  910   3.338   3.887  13.717  3.5210  0.3384  0.6533
   58MPD2    N1  911   3.048   4.323  13.922  0.7131  0.2765  0.1573
   58MPD2    H7  912   3.130   4.382  13.924  1.0130 -0.0603 -1.9869
   59TMC2    C1  913   1.610   4.498  12.676 -0.7245 -0.0820  0.5266
   59TMC2    C2  914   1.472   4.504  12.659  0.0371  0.2326 -0.4844
   59TMC2    C3  915   1.431   4.564  12.544 -0.0466  0.1394 -0.4136
   59TMC2    C4  916   1.703   4.550  12.589 -0.4677  0.6403 -0.8915
   59TMC2    C5  917   1.651   4.608  12.473 -0.9529  0.5989 -0.0622
   59TMC2    C6  918   1.514   4.627  12.456 -0.0686  0.1613 -0.1390
   59TMC2     C  919   1.647   4.454  12.804 -0.1510 -0.3815 -0.7822
   59TMC2     O  920   1.612   4.342  12.830  0.3424 -0.0551  0.0850
   59TMC2     H  921   1.400   4.457  12.725  0.4084  2.4238  1.4571
   59TMC2    H1  922   1.808   4.536  12.611 -0.8775 -0.0007  0.6630
   59TMC2    H2  923   1.479   4.673  12.364  2.4367 -0.4047 -1.3902
   59TMC2    C7  924   1.747   4.650  12.380  0.8392 -0.3149  0.2843
   59TMC2    C8  925   1.293   4.581  12.525 -1.0936 -0.2113 -0.4394
   59TMC2    O1  926   1.830   4.571  12.337  0.1218 -0.3711 -0.5229
   59TMC2    O2  927   1.207   4.560  12.612 -0.4869  0.1838  0.3069
   59TMC2    O5  928   1.271   4.574  12.392 -0.1292 -0.1410 -0.1294
   59TMC2    H5  929   1.349   4.566  12.334  1.0387 -0.6148  1.4941
   60MPD2     C  930   1.838   4.380  13.018  0.3203  0.5590  0.3354
   60MPD2    C1  931   1.810   4.507  12.982 -0.2881  0.1033 -0.3550
   60MPD2    C2  932   1.868   4.615  13.039  0.4013 -0.6426  0.4215
   60MPD2    C3  933   1.969   4.585  13.127  0.2229 -0.0322  0.4912
   60MPD2    C4  934   2.002   4.455  13.165  0.4958  0.0504  0.3307
   60MPD2    C5  935   1.933   4.354  13.109 -0.1155 -0.4865  0.3388
   60MPD2     H  936   1.847   4.716  13.005  0.4667 -1.2457 -1.3963
   60MPD2    H1  937   2.081   4.439  13.237  1.5904  1.6017 -0.5307
   60MPD2    H2  938   1.788   4.297  12.968 -0.9282  1.4952  0.0403
   60MPD2    H3  939   1.953   4.250  13.128 -0.4091 -0.5989  0.0417
   60MPD2     N  940   2.043   4.683  13.192 -0.6321  0.1576 -0.4597
   60MPD2    H5  941   2.117   4.651  13.254 -0.5760  0.4684 -0.3658
   60MPD2    N1  942   1.730   4.543  12.869  0.0355 -0.3563 -0.1360
   60MPD2    H7  943   1.748   4.632  12.825 -1.2158  0.3396  0.7638
   61TMC2    C1  944   0.369   1.471  15.560 -0.7288 -0.0783  0.3732
   61TMC2    C2  945   0.291   1.436  15.664 -0.1979 -0.8431  0.0613
   61TMC2    C3  946   0.241   1.533  15.745 -0.2139  0.7596  0.3413
   61TMC2    C4  947   0.398   1.604  15.528  0.5816  0.4837  0.1131
   61TMC2    C5  948   0.337   1.700  15.602 -0.5004 -0.3577 -0.2162
   61TMC2    C6  949   0.255   1.666  15.715 -0.1615  0.0106 -0.4518
   61TMC2     C  950   0.404   1.367  15.467 -0.1127 -0.1832 -0.5774
   61TMC2     O  951   0.397   1.251  15.509  0.2745  0.4029  0.6355
   61TMC2     H  952   0.264   1.333  15.686 -1.0817 -0.1600  2.1937
   61TMC2    H1  953   0.479   1.636  15.464  3.2301  0.8168  3.6622
   61TMC2    H2  954   0.207   1.748  15.767 -1.5055 -1.2543  0.3006
   61TMC2    C7  955   0.375   1.838  15.579 -0.3618  0.0491  0.4319
   61TMC2    C8  956   0.207   1.506  15.883  0.9595  0.0734 -0.0694
   61TMC2    O1  957   0.405   1.863  15.465  0.0544  0.1616  0.3088
   61TMC2    O2  958   0.103   1.544  15.936  0.6120  0.1305 -0.0197
   61TMC2    O5  959   0.273   1.389  15.914 -0.2488 -0.1946 -0.6505
   61TMC2    H5  960   0.362   1.389  15.873 -0.6083  2.0092 -1.4610
   62MPD2     C  961   0.436   1.179  15.244 -0.1353  0.5347 -0.0170
   62MPD2    C1  962   0.450   1.318  15.236 -0.2661 -0.2479 -0.2078
   62MPD2    C2  963   0.484   1.372  15.108 -0.3922 -0.0186 -0.0242
   62MPD2    C3  964   0.513   1.300  15.001  0.0462 -0.4648  0.0143
   62MPD2    C4  965   0.510   1.166  15.015 -0.2348  0.0449  0.2876
   62MPD2    C5  966   0.471   1.109  15.133  0.5445 -0.4068  0.2926
   62MPD2     H  967   0.482   1.480  15.101  3.3870 -0.0769 -2.1113
   62MPD2    H1  968   0.554   1.099  14.942 -2.5603 -0.6198 -0.5248
   62MPD2    H2  969   0.417   1.123  15.334 -0.1098  2.7533  1.3666
   62MPD2    H3  970   0.483   1.004  15.156 -0.8055 -0.8418 -1.0839
   62MPD2     N  971   0.558   1.354  14.877 -0.5082  0.3697 -0.6423
   62MPD2    H5  972   0.579   1.285  14.805 -2.6149 -3.6169  2.5376
   62MPD2    N1  973   0.436   1.408  15.343  0.3632  0.3209  0.2633
   62MPD2    H7  974   0.452   1.506  15.322  2.2495  0.2959  1.5483
   63TMC2    C1  975   0.459   1.368  10.127  0.2812 -0.7600 -0.7895
   63TMC2    C2  976   0.546   1.341  10.235  0.2632 -0.4564 -0.4597
   63TMC2    C3  977   0.636   1.435  10.267 -0.3914  0.0063  0.4585
   63TMC2    C4  978   0.470   1.480  10.054  0.2707  0.9823 -0.0915
   63TMC2    C5  979   0.572   1.564  10.084 -0.3065  0.2366 -0.9354
   63TMC2    C6  980   0.649   1.548  10.195  0.0617 -0.4460 -0.3715
   63TMC2     C  981   0.348   1.275  10.107  0.0907  0.1995 -0.2492
   63TMC2     O  982   0.254   1.315  10.042 -0.2398 -0.3271  0.2549
   63TMC2     H  983   0.539   1.258  10.304 -3.2739  0.0589 -0.2159
   63TMC2    H1  984   0.402   1.501   9.972  0.8652 -0.9761 -1.0752
   63TMC2    H2  985   0.703   1.633  10.236  0.7499 -0.5667 -1.0387
   63TMC2    C7  986   0.558   1.694  10.025  0.4596  0.2700 -0.0012
   63TMC2    C8  987   0.746   1.391  10.356 -0.1582 -0.5169 -0.1778
   63TMC2    O1  988   0.456   1.721   9.963  0.8390 -0.3927 -0.0096
   63TMC2    O2  989   0.749   1.280  10.404 -0.3421  0.8036 -0.1209
   63TMC2    O5  990   0.855   1.449  10.314  0.1609  0.2236  0.0461
   63TMC2    H5  991   0.831   1.529  10.263  2.0859  0.7441 -0.0357
   64MPD2     C  992   0.084   0.850  10.262 -0.9633 -0.6422  1.0945
   64MPD2    C1  993   0.209   0.851  10.320 -0.0500  0.4703  0.0977
   64MPD2    C2  994   0.292   0.960  10.285  0.5964 -0.2822  0.3345
   64MPD2    C3  995   0.258   1.065  10.203  0.7947  0.0529 -0.0768
   64MPD2    C4  996   0.132   1.063  10.150 -0.0109 -0.2145 -0.0591
   64MPD2    C5  997   0.048   0.958  10.182 -0.5577  0.1258 -0.0287
   64MPD2     H  998   0.385   0.957  10.342  0.6346 -0.0345  0.2834
   64MPD2    H1  999   0.091   1.138  10.084 -0.2903  0.6910  1.1383
   64MPD2    H2 1000   4.733   0.790  10.286  0.6845 -3.3832  0.1324
   64MPD2    H3 1001   4.685   0.973  10.139 -0.9777 -0.8686  0.5918
   64MPD2     N 1002   0.359   1.156  10.178  0.4715  0.4856 -0.3038
   64MPD2    H5 1003   0.455   1.135  10.204  0.3997  1.7693  0.9821
   64MPD2    N1 1004   0.248   0.755  10.419  0.2290  0.3761  0.5828
   64MPD2    H7 1005   0.338   0.771  10.464  0.4395 -1.5749  0.8386
   65TMC2    C1 1006   0.786   1.094  15.385  0.0501 -0.1299 -0.2190
   65TMC2    C2 1007   0.805   1.054  15.257  0.5455 -0.3505  0.3087
   65TMC2    C3 1008   0.816   1.154  15.164  0.1696  0.7594  0.1111
   65TMC2    C4 1009   0.803   1.224  15.428  0.3215 -0.1884  0.1482
   65TMC2    C5 1010   0.794   1.318  15.329  1.2540  0.2049 -0.0554
   65TMC2    C6 1011   0.810   1.287  15.201 -0.3256  0.4354  0.1968
   65TMC2     C 1012   0.769   0.992  15.483 -0.2484 -0.5096 -0.1926
   65TMC2     O 1013   0.728   1.028  15.595 -0.0691 -0.0399  0.5276
   65TMC2     H 1014   0.826   0.953  15.224  0.8987 -0.5642  1.1784
   65TMC2    H1 1015   0.818   1.250  15.532 -0.7704 -0.1531  0.2969
   65TMC2    H2 1016   0.803   1.356  15.118 -0.6870 -1.4902 -1.3831
   65TMC2    C7 1017   0.773   1.462  15.351  0.3448  0.0824 -0.5578
   65TMC2    C8 1018   0.816   1.115  15.024  0.0836 -0.2615  0.5266
   65TMC2    O1 1019   0.772   1.527  15.248  0.2686  0.7427 -0.2108
   65TMC2    O2 1020   0.774   1.001  15.005 -0.1932  0.7960  0.7322
   65TMC2    O5 1021   0.938   1.161  14.980  0.5369 -0.2227 -0.4715
   65TMC2    H5 1022   0.943   1.259  14.984 -0.3935 -0.2542  1.5112
   66MPD2     C 1023   0.780   0.744  15.647 -0.1100  0.0508  0.0459
   66MPD2    C1 1024   0.831   0.750  15.521  0.6331 -0.1922 -0.1711
   66MPD2    C2 1025   0.889   0.635  15.460  0.3282  0.2965 -0.2997
   66MPD2    C3 1026   0.905   0.522  15.534  0.2266 -0.1946  0.5893
   66MPD2    C4 1027   0.858   0.517  15.656  0.2501 -0.4673 -0.5748
   66MPD2    C5 1028   0.792   0.626  15.711  0.2093  0.0572 -0.3409
   66MPD2     H 1029   0.924   0.639  15.357  2.6698  1.2596  0.5253
   66MPD2    H1 1030   0.864   0.423  15.711 -0.2314 -0.5617 -0.6856
   66MPD2    H2 1031   0.745   0.830  15.704 -0.5920 -0.9812  1.3145
   66MPD2    H3 1032   0.761   0.621  15.815 -1.4629  0.3963 -0.8361
   66MPD2     N 1033   0.964   0.400  15.485  0.2865 -0.6788 -0.5414
   66MPD2    H5 1034   0.973   0.326  15.554 -0.3207  1.4207  1.8060
   66MPD2    N1 1035   0.821   0.869  15.446  0.4756 -0.4317 -0.2675
   66MPD2    H7 1036   0.861   0.863  15.353  2.4184 -0.8633  0.5951
   67TMC2    C1 1037   1.714   0.394  14.082  0.2345  0.6500  0.4127
   67TMC2    C2 1038   1.684   0.532  14.076 -0.0902 -0.3895  0.6624
   67TMC2    C3 1039   1.660   0.595  14.190  0.0101 -0.1171  0.0267
   67TMC2    C4 1040   1.738   0.324  14.198  0.0460 -0.3944 -0.0213
   67TMC2    C5 1041   1.711   0.394  14.314  0.1311 -0.1725  0.0173
   67TMC2    C6 1042   1.671   0.526  14.313  0.3808  0.3569  0.4180
   67TMC2     C 1043   1.690   0.328  13.954  0.2757  0.0232 -0.3073
   67TMC2     O 1044   1.710   0.389  13.848 -0.0041  0.7085 -0.3988
   67TMC2     H 1045   1.660   0.575  13.979 -2.3963 -0.9763  0.9755
   67TMC2    H1 1046   1.765   0.219  14.197  0.4463 -0.3059  1.1306
   67TMC2    H2 1047   1.646   0.582  14.402 -1.4836 -0.2046  0.2429
   67TMC2    C7 1048   1.775   0.342  14.433 -0.0237 -0.2633  0.3905
   67TMC2    C8 1049   1.543   0.684  14.184 -0.0832 -0.0973  0.5387
   67TMC2    O1 1050   1.865   0.262  14.416 -0.1246  0.3995 -0.3225
   67TMC2    O2 1051   1.442   0.669  14.116 -0.4411 -0.2055  0.7829
   67TMC2    O5 1052   1.545   0.762  14.291  0.1179 -0.6622 -0.1991
   67TMC2    H5 1053   1.635   0.775  14.327  0.2583  2.6597 -1.7685
   68MPD2     C 1054   1.549   0.162  13.733 -0.2094  0.0165  0.1806
   68MPD2    C1 1055   1.525   0.155  13.868 -0.6584  0.0873  0.0080
   68MPD2    C2 1056   1.415   0.079  13.912 -0.9247 -0.0313 -0.4499
   68MPD2    C3 1057   1.333   0.009  13.825 -0.3297 -0.0586  0.5403
   68MPD2    C4 1058   1.352   0.026  13.692  1.0072 -0.0070 -0.3843
   68MPD2    C5 1059   1.461   0.099  13.655  0.5813 -0.0707  1.2237
   68MPD2     H 1060   1.400   0.081  14.019 -2.2423 -0.9142 -0.6150
   68MPD2    H1 1061   1.283   4.714  13.624  1.4052  2.8821 -2.7961
   68MPD2    H2 1062   1.631   0.225  13.698  0.9077 -0.7660  1.3980
   68MPD2    H3 1063   1.490   0.099  13.550  0.5581  1.3263  1.2265
   68MPD2     N 1064   1.211   4.687  13.863 -0.2729 -0.3525  0.6727
   68MPD2    H5 1065   1.152   4.671  13.781  0.9555  2.5505 -0.7958
   68MPD2    N1 1066   1.592   0.228  13.970  0.0336  0.0837  0.4668
   68MPD2    H7 1067   1.583   0.210  14.070  1.6854  0.9681  0.7691
   69TMC2    C1 1068   3.861   1.251  11.951  0.1520 -0.2715  0.5776
   69TMC2    C2 1069   3.896   1.385  11.911 -0.6065 -0.7341 -0.3541
   69TMC2    C3 1070   3.952   1.393  11.787 -0.2347 -0.1810  0.6888
   69TMC2    C4 1071   3.895   1.140  11.871 -0.3136 -0.3646  0.1751
   69TMC2    C5 1072   3.951   1.157  11.750 -0.0508  0.0086  0.2251
   69TMC2    C6 1073   3.981   1.280  11.707 -0.1294  0.5144 -0.0431
   69TMC2     C 1074   3.824   1.227  12.091 -0.5083 -0.0055  0.7781
   69TMC2     O 1075   3.727   1.155  12.108  0.3452 -0.1538 -0.2367
   69TMC2     H 1076   3.846   1.462  11.970  1.5572  0.1457  0.3579
   69TMC2    H1 1077   3.869   1.043  11.910  1.2927 -0.9408 -0.2252
   69TMC2    H2 1078   4.033   1.286  11.612  2.5590 -1.6264  1.2937
   69TMC2    C7 1079   4.010   1.036  11.673 -0.5399 -0.1300  0.3475
   69TMC2    C8 1080   3.940   1.515  11.714 -0.2463  0.1648  0.2542
   69TMC2    O1 1081   4.033   1.052  11.555 -0.1553  0.2298  1.1538
   69TMC2    O2 1082   3.932   1.509  11.590  0.0006 -0.0356  0.1666
   69TMC2    O5 1083   3.952   1.620  11.797 -0.0813 -0.2528  0.8077
   69TMC2    H5 1084   3.978   1.598  11.889  2.3253 -0.6758  0.0235
   70MPD2     C 1085   4.025   1.284  12.383 -0.3437  0.2174  0.2728
   70MPD2    C1 1086   3.924   1.229  12.312 -0.8157 -0.1807  0.8359
   70MPD2    C2 1087   3.839   1.144  12.379  0.5527  1.1023 -0.1617
   70MPD2    C3 1088   3.862   1.102  12.507 -0.0058 -0.4979 -0.1286
   70MPD2    C4 1089   3.960   1.168  12.579 -0.4264  0.1614 -0.6828
   70MPD2    C5 1090   4.041   1.255  12.512  0.0926  0.2991 -0.1268
   70MPD2     H 1091   3.760   1.093  12.326  0.4165 -0.5050  1.5694
   70MPD2    H1 1092   3.969   1.177  12.687 -2.1404 -3.8297 -0.2099
   70MPD2    H2 1093   4.100   1.353  12.346  0.2470 -0.0273  1.0178
   70MPD2    H3 1094   4.114   1.310  12.569 -0.7792  0.6921  0.6068
   70MPD2     N 1095   3.785   1.007  12.575 -0.1685 -0.1626 -0.6325
   70MPD2    H5 1096   3.830   0.963  12.656 -0.0391 -0.7026 -0.9973
   70MPD2    N1 1097   3.922   1.264  12.176 -0.1209 -0.0994  0.1302
   70MPD2    H7 1098   4.002   1.313  12.138 -0.6262 -0.1052 -0.9585
   71TMC2    C1 1099   0.752   2.111   1.718 -0.3553  0.2107 -0.2632
   71TMC2    C2 1100   0.855   2.197   1.741  0.1140  0.1347  0.1181
   71TMC2    C3 1101   0.825   2.321   1.797 -0.2537 -0.5235  0.5148
   71TMC2    C4 1102   0.619   2.147   1.742  0.1174  0.6185 -0.4640
   71TMC2    C5 1103   0.595   2.271   1.796 -0.3415  0.0488  0.4249
   71TMC2    C6 1104   0.698   2.360   1.818  0.1509 -0.8925 -0.4473
   71TMC2     C 1105   0.785   1.992   1.652  0.4281  0.0526 -0.2404
   71TMC2     O 1106   0.891   1.994   1.590  0.3427 -0.0613  0.2792
   71TMC2     H 1107   0.953   2.164   1.710  0.2288 -1.9901  2.7262
   71TMC2    H1 1108   0.537   2.076   1.746  1.7686 -1.4755 -4.1003
   71TMC2    H2 1109   0.677   2.455   1.867  2.1977 -1.8806  2.3677
   71TMC2    C7 1110   0.457   2.296   1.840  0.1098  0.4887  0.4414
   71TMC2    C8 1111   0.934   2.396   1.854 -0.0834  0.1516  0.7041
   71TMC2    O1 1112   0.452   2.393   1.913  0.2886 -0.4320 -0.2398
   71TMC2    O2 1113   0.927   2.516   1.891 -0.5695 -0.3331  0.4398
   71TMC2    O5 1114   1.047   2.326   1.877  0.6708  0.4298 -0.1426
   71TMC2    H5 1115   1.047   2.230   1.857  1.6231 -0.0478  2.1318
   72MPD2     C 1116   0.724   1.493   1.563  0.9312 -0.0817  0.8530
   72MPD2    C1 1117   0.787   1.589   1.492 -0.0339  0.1412  0.0325
   72MPD2    C2 1118   0.787   1.719   1.535 -0.1200  0.4802  1.3010
   72MPD2    C3 1119   0.714   1.754   1.646  0.0656  0.9758 -0.4500
   72MPD2    C4 1120   0.643   1.661   1.715 -0.1331 -0.1233  0.0268
   72MPD2    C5 1121   0.653   1.531   1.671 -0.9459 -0.0615  0.4931
   72MPD2     H 1122   0.827   1.802   1.479  1.9526 -0.1413  1.8584
   72MPD2    H1 1123   0.586   1.680   1.805 -0.0154 -0.2745  0.1331
   72MPD2    H2 1124   0.729   1.388   1.538  0.2999 -0.1425  0.9824
   72MPD2    H3 1125   0.602   1.454   1.727  0.3530 -0.7634  0.6853
   72MPD2     N 1126   0.715   1.889   1.705  0.0884 -0.0444 -0.0993
   72MPD2    H5 1127   0.656   1.903   1.787  0.3119 -2.7732  0.5521
   72MPD2    N1 1128   0.856   1.536   1.381  0.2969 -0.1813 -0.1026
   72MPD2    H7 1129   0.844   1.439   1.354  2.1097 -0.6462  0.7975
   73TMC2    C1 1130   0.440   3.666  13.878 -0.0761 -0.4507 -0.1160
   73TMC2    C2 1131   0.362   3.670  13.991 -0.3192  0.0377  0.4633
   73TMC2    C3 1132   0.394   3.568  14.083 -0.3388 -0.1585 -0.2468
   73TMC2    C4 1133   0.535   3.576  13.847 -0.6194  0.4309  0.4181
   73TMC2    C5 1134   0.568   3.488  13.948 -0.4032 -0.4264  0.7982
   73TMC2    C6 1135   0.501   3.479  14.065  0.5322 -0.7383 -0.5477
   73TMC2     C 1136   0.506   3.794  13.844  0.4442 -0.4334 -0.6608
   73TMC2     O 1137   0.629   3.787  13.859 -0.3415  0.0143  0.2847
   73TMC2     H 1138   0.291   3.745  14.023  1.5486  1.1751  1.9577
   73TMC2    H1 1139   0.596   3.585  13.757 -2.6017 -0.9702 -1.0587
   73TMC2    H2 1140   0.532   3.404  14.137  0.6931 -1.5514 -1.4465
   73TMC2    C7 1141   0.710   3.454  13.977 -0.5256  0.0567  0.0637
   73TMC2    C8 1142   0.316   3.554  14.201 -0.3568  0.4433  0.1727
   73TMC2    O1 1143   0.755   3.345  14.008  0.0385  0.1430 -0.0770
   73TMC2    O2 1144   0.351   3.484  14.291 -0.2240  0.2960  1.3107
   73TMC2    O5 1145   0.190   3.594  14.173 -0.1605 -0.0804 -0.8694
   73TMC2    H5 1146   0.177   3.610  14.077  2.6585  4.0104 -0.5586
   74MPD2     C 1147   0.603   4.227  13.598 -0.1809  0.2225 -0.5167
   74MPD2    C1 1148   0.671   4.165  13.698  0.3972 -0.2285 -0.1311
   74MPD2    C2 1149   0.614   4.049  13.753  0.0133  0.8516 -0.0566
   74MPD2    C3 1150   0.483   4.004  13.726  0.6404  0.0013  0.4783
   74MPD2    C4 1151   0.414   4.080  13.631 -0.0770 -0.3152 -0.3040
   74MPD2    C5 1152   0.474   4.184  13.561  0.2710  0.1426 -0.3236
   74MPD2     H 1153   0.659   4.009  13.843 -1.0625 -1.1695 -0.4301
   74MPD2    H1 1154   0.316   4.045  13.603 -0.3733  1.8879 -2.0626
   74MPD2    H2 1155   0.654   4.309  13.549  0.0110  1.4339  1.7182
   74MPD2    H3 1156   0.418   4.235  13.484 -0.0285  0.0424 -0.1692
   74MPD2     N 1157   0.426   3.893  13.787  0.0363 -0.1550  0.3729
   74MPD2    H5 1158   0.335   3.859  13.755 -0.8588  1.3117  1.3411
   74MPD2    N1 1159   0.793   4.218  13.744  0.1396  0.7032  0.1833
   74MPD2    H7 1160   0.826   4.306  13.704  0.8245 -1.2401 -3.5827
   75TMC2    C1 1161   1.011   4.660  13.988  0.4073  0.9355  0.6095
   75TMC2    C2 1162   0.948   4.699  14.103 -0.5271  0.1068  0.5577
   75TMC2    C3 1163   0.817   0.005  14.096 -0.5252  0.4137 -0.0367
   75TMC2    C4 1164   0.947   4.666  13.864 -0.3259 -0.2482  0.4698
   75TMC2    C5 1165   0.814   4.704  13.866 -0.2179  0.4205  0.2127
   75TMC2    C6 1166   0.747   0.013  13.981 -0.0166  0.9708 -0.4670
   75TMC2     C 1167   1.156   4.675  13.992  0.2456  0.5248  0.0654
   75TMC2     O 1168   1.218   4.675  14.101 -0.1241 -0.0872 -0.0444
   75TMC2     H 1169   1.011   4.717  14.190 -1.3924 -0.5357  1.3124
   75TMC2    H1 1170   0.995   4.627  13.775  0.1075  0.2778  0.4762
   75TMC2    H2 1171   0.648   0.055  13.977 -1.2122 -1.8652 -0.9590
   75TMC2    C7 1172   0.757   0.019  13.741 -0.2407 -0.1769  0.4498
   75TMC2    C8 1173   0.776   0.076  14.215 -0.5987 -0.4279  0.5035
   75TMC2    O1 1174   0.745   4.686  13.640 -0.8560  0.6562 -0.0694
   75TMC2    O2 1175   0.858   0.129  14.295 -0.7913 -0.1444  0.7533
   75TMC2    O5 1176   0.653   0.129  14.198 -0.0174 -0.1818 -0.0729
   75TMC2    H5 1177   0.603   0.049  14.172  1.4142 -0.6558 -1.4340
   76TMC2    C1 1178   4.658   4.590  11.627  0.2642  0.1666  0.6698
   76TMC2    C2 1179   4.533   4.545  11.618  0.1773  0.1936 -0.0756
   76TMC2    C3 1180   4.503   4.445  11.715  0.1003 -0.4333  0.0513
   76TMC2    C4 1181   0.011   4.553  11.720 -0.2799  0.2701  0.3110
   76TMC2    C5 1182   4.708   4.456  11.809  0.6794 -0.0245  0.6934
   76TMC2    C6 1183   4.588   4.398  11.810  0.3212  0.3698 -0.2372
   76TMC2     C 1184   4.692   4.701  11.535 -0.1226 -0.1298  1.2235
   76TMC2     O 1185   4.600   4.726  11.456  0.3150 -0.3490  0.1792
   76TMC2     H 1186   4.462   4.598  11.556 -0.9247 -0.6087  0.4969
   76TMC2    H1 1187   0.109   4.597  11.715  0.4433 -1.2608  0.8479
   76TMC2    H2 1188   4.560   4.327  11.886  0.7974  1.2323  0.7524
   76TMC2    C7 1189   0.038   4.442  11.942  1.0422  0.6294 -0.4469
   76TMC2    C8 1190   4.363   4.450  11.755  0.2720  0.1771  0.0594
   76TMC2    O1 1191   0.009   4.345  12.014 -0.6285 -0.0022  0.6472
   76TMC2    O2 1192   4.304   4.556  11.754 -0.0866  0.3060  0.0410
   76TMC2    O5 1193   4.320   4.336  11.825 -0.1423 -0.1208  0.5051
   76TMC2    H5 1194   4.382   4.262  11.806  1.5992  0.9308  2.0989
   77MPD2     C 1195   0.212   0.353  11.344 -0.6063  0.0594  0.8625
   77MPD2    C1 1196   0.077   0.342  11.376  0.5097  0.5881  0.5069
   77MPD2    C2 1197   0.032   0.225  11.425  0.4430 -0.1384  0.4094
   77MPD2    C3 1198   0.125   0.123  11.465 -0.1096 -0.3543  1.0839
   77MPD2    C4 1199   0.261   0.146  11.451  0.4883  0.2277  0.3544
   77MPD2    C5 1200   0.299   0.257  11.383 -0.2242  0.8244 -0.2266
   77MPD2     H 1201   4.661   0.217  11.439  0.5269 -0.8318  0.6750
   77MPD2    H1 1202   0.334   0.071  11.480 -2.1842 -2.2772  0.6079
   77MPD2    H2 1203   0.259   0.437  11.294  0.9567 -1.7183 -0.6380
   77MPD2    H3 1204   0.403   0.265  11.352  0.7425 -3.0441  2.1152
   77MPD2     N 1205   0.086   0.010  11.533  0.4455 -0.4000  0.1009
   77MPD2    H5 1206   0.157   4.686  11.573  0.4975 -1.1518 -1.1147
   77MPD2    N1 1207   4.718   0.442  11.335 -0.3385  0.1153  0.5497
   77MPD2    H7 1208   4.619   0.421  11.345 -0.3154  0.1693  0.8822
   78TMC2    C1 1209   0.845   2.414   2.225  0.1663 -0.1180 -0.4409
   78TMC2    C2 1210   0.767   2.520   2.276  0.3777 -0.1799 -0.7599
   78TMC2    C3 1211   0.828   2.644   2.269 -0.3055  0.0424  0.9771
   78TMC2    C4 1212   0.972   2.433   2.179  0.5301 -0.0203  0.2792
   78TMC2    C5 1213   1.025   2.563   2.165 -0.4968  0.0045  0.0932
   78TMC2    C6 1214   0.949   2.665   2.216 -0.1668  0.2633 -0.1185
   78TMC2     C 1215   0.781   2.294   2.179  0.1948 -0.0739 -0.2573
   78TMC2     O 1216   0.845   2.234   2.094 -0.3922  0.3687 -0.3286
   78TMC2     H 1217   0.670   2.508   2.324  1.2352 -0.2809  0.9355
   78TMC2    H1 1218   1.034   2.353   2.140  0.0902 -0.6032  0.7794
   78TMC2    H2 1219   0.978   2.769   2.206  0.1911  0.1159 -0.6117
   78TMC2    C7 1220   1.154   2.594   2.119 -0.5038 -1.0828 -0.1990
   78TMC2    C8 1221   0.760   2.767   2.316  1.0526  0.6484  0.8998
   78TMC2    O1 1222   1.192   2.711   2.135 -0.0524 -0.5306  0.3376
   78TMC2    O2 1223   0.817   2.877   2.339 -0.1987 -0.1597  0.3836
   78TMC2    O5 1224   0.639   2.763   2.249  0.3223  0.2352 -0.3302
   78TMC2    H5 1225   0.624   2.681   2.198 -1.5978  0.3899 -0.0152
   79MPD1     C 1226   0.353   2.045   2.065 -0.1707 -0.1952 -0.2525
   79MPD1    C1 1227   0.483   2.009   2.042 -0.0027  0.4645  0.5084
   79MPD1    C2 1228   0.585   2.090   2.086 -0.6573  0.0330 -0.1544
   79MPD1    C3 1229   0.551   2.201   2.169 -0.1637  0.1868  0.4102
   79MPD1    C4 1230   0.418   2.232   2.190  1.0535  0.1933  0.3104
   79MPD1    C5 1231   0.318   2.148   2.150  0.0672 -0.0388 -0.2817
   79MPD1     H 1232   0.688   2.055   2.080 -0.1619  1.6695 -1.1497
   79MPD1    H1 1233   0.399   2.332   2.225  2.1643  0.4078  0.2801
   79MPD1    H2 1234   0.274   1.983   2.024  0.1868 -1.4359  0.9381
   79MPD1    H3 1235   0.219   2.181   2.179 -0.1796  0.2813 -1.5097
   79MPD1     N 1236   0.645   2.293   2.208  0.5548  0.2101 -0.3411
   79MPD1    H5 1237   0.600   2.376   2.244  0.8467 -0.5932  1.9071
   79MPD1    N1 1238   0.515   1.897   1.961 -0.0339  0.1780  0.1884
   79MPD1    H6 1239   0.606   1.854   1.981 -0.9972 -0.2978  3.5545
   79MPD1    H7 1240   0.442   1.827   1.966 -0.0049  0.1213 -0.1641
   80TMC2    C1 1241   4.390   4.369  12.161  0.1128  0.4952 -0.1730
   80TMC2    C2 1242   4.510   4.308  12.195 -0.0409  0.6365 -0.0335
   80TMC2    C3 1243   4.501   4.169  12.201  0.6846  0.1218  0.4590
   80TMC2    C4 1244   4.269   4.305  12.150 -0.1929  0.4893  0.2277
   80TMC2    C5 1245   4.270   4.172  12.147 -0.8711 -0.1449  0.7489
   80TMC2    C6 1246   4.387   4.099  12.159  0.5850 -0.4797 -0.1237
   80TMC2     C 1247   4.409   4.510  12.141  0.5200 -0.2827 -1.0262
   80TMC2     O 1248   4.522   4.542  12.169 -0.0596  0.3620  0.7809
   80TMC2     H 1249   4.607   4.357  12.203  1.2744 -1.8390 -0.7802
   80TMC2    H1 1250   4.182   4.361  12.117  0.0880  0.4894 -0.5053
   80TMC2    H2 1251   4.384   3.991  12.164 -3.9837 -0.4907 -2.9725
   80TMC2    C7 1252   4.145   4.104  12.149  0.1035 -0.9477 -0.1378
   80TMC2    C8 1253   4.620   4.089  12.210  0.0494  0.1663  0.3374
   80TMC2    O1 1254   4.145   4.000  12.082  0.6055  0.2088  0.5841
   80TMC2    O2 1255   4.618   3.994  12.284  0.1649  0.8101  0.1423
   80TMC2    O5 1256   4.684   4.105  12.090 -0.0455  0.2741  0.2544
   80TMC2    H5 1257   4.692   4.198  12.061 -0.2910 -0.6800 -2.8444
   81MPD2     C 1258   4.363   0.065  12.177 -0.4081 -0.3268  0.0351
   81MPD2    C1 1259   4.269   4.721  12.122  0.3022 -0.1439  0.8887
   81MPD2    C2 1260   4.152   0.046  12.084 -0.4608  0.7335  0.1067
   81MPD2    C3 1261   4.131   0.183  12.101 -0.9771 -0.5373  0.2738
   81MPD2    C4 1262   4.223   0.257  12.166  0.1969 -0.5640 -0.8664
   81MPD2    C5 1263   4.342   0.199  12.195 -0.0127 -0.1598  0.0044
   81MPD2     H 1264   4.073   4.727  12.034  0.2089 -0.8097  0.7585
   81MPD2    H1 1265   4.207   0.363  12.185  2.3113 -1.1858  4.5458
   81MPD2    H2 1266   4.455   0.032  12.224 -0.0644  0.1194 -0.3203
   81MPD2    H3 1267   4.418   0.258  12.246  2.1645 -1.1660 -2.0327
   81MPD2     N 1268   4.010   0.227  12.049  0.3615  0.4612 -0.1692
   81MPD2    H5 1269   3.964   0.155  11.994  1.2777  1.2506 -2.0040
   81MPD2    N1 1270   4.292   4.582  12.107  0.1440 -0.7774 -0.2549
   81MPD2    H7 1271   4.206   4.532  12.084 -0.6054  0.5411 -0.3006
   82TMC2    C1 1272   2.270   4.385  11.231  0.2956  0.9408  0.1079
   82TMC2    C2 1273   2.385   4.385  11.312  0.3271  0.2442  0.0707
   82TMC2    C3 1274   2.427   4.271  11.377 -0.8568 -0.6853  0.5253
   82TMC2    C4 1275   2.197   4.269  11.208 -0.5489 -0.0243 -0.3571
   82TMC2    C5 1276   2.240   4.159  11.279 -0.1880  0.0678 -0.3029
   82TMC2    C6 1277   2.353   4.160  11.369  0.1803 -0.2407  0.0087
   82TMC2     C 1278   2.202   4.507  11.191  0.2249  1.0045 -0.7051
   82TMC2     O 1279   2.123   4.506  11.099 -0.1256 -0.1171  0.6675
   82TMC2     H 1280   2.443   4.476  11.316  0.8604 -0.0491 -0.8380
   82TMC2    H1 1281   2.104   4.277  11.153 -1.5327 -0.7440  1.2047
   82TMC2    H2 1282   2.385   4.066  11.413  2.6069  0.1729 -0.8827
   82TMC2    C7 1283   2.151   4.056  11.305 -0.3725 -0.2146  0.3140
   82TMC2    C8 1284   2.559   4.271  11.435 -0.5628 -0.1336 -0.5426
   82TMC2    O1 1285   2.177   3.992  11.406  0.3213 -0.3382  0.1643
   82TMC2    O2 1286   2.622   4.370  11.455  0.1829  0.1734  0.3521
   82TMC2    O5 1287   2.593   4.146  11.482 -0.0453  0.6248  0.0794
   82TMC2    H5 1288   2.526   4.075  11.472 -0.4950  0.8800  1.3145
   83MPD2     C 1289   2.098   0.261  11.180 -0.7727 -0.2012 -0.1849
   83MPD2    C1 1290   2.015   0.153  11.164 -0.3168  0.1097  0.5647
   83MPD2    C2 1291   2.062   0.026  11.199  0.3437  1.1744  0.0561
   83MPD2    C3 1292   2.190   0.007  11.251 -0.3699 -0.2297 -0.5139
   83MPD2    C4 1293   2.273   0.112  11.262 -0.2514 -0.2446  0.2852
   83MPD2    C5 1294   2.226   0.236  11.222 -0.1416 -0.5055 -0.5432
   83MPD2     H 1295   2.002   4.672  11.208  1.8187 -0.0083 -1.8857
   83MPD2    H1 1296   2.374   0.102  11.300  0.1244  2.2113 -0.0337
   83MPD2    H2 1297   2.056   0.360  11.169 -0.6084 -0.0671  0.4151
   83MPD2    H3 1298   2.300   0.315  11.224 -0.1810 -0.4313 -2.6703
   83MPD2     N 1299   2.236   4.614  11.266 -0.5132 -0.1163 -0.7057
   83MPD2    H5 1300   2.317   4.602  11.326 -0.8593 -1.9899 -0.6382
   83MPD2    N1 1301   1.880   0.184  11.132  0.7212 -0.0915  0.3729
   83MPD2    H7 1302   1.851   0.277  11.108 -1.0524 -0.9323 -0.7023
   84TMC2    C1 1303   3.355   4.294  10.882 -0.0453  0.3632  0.4830
   84TMC2    C2 1304   3.398   4.217  10.777  0.1266  0.0711  0.1190
   84TMC2    C3 1305   3.443   4.283  10.671  0.1522  0.3235 -0.0287
   84TMC2    C4 1306   3.372   4.430  10.879  0.3801  0.2010  0.2892
   84TMC2    C5 1307   3.413   4.490  10.763  0.7606 -0.4156 -0.3735
   84TMC2    C6 1308   3.441   4.419  10.653  0.2770 -0.1154 -0.4292
   84TMC2     C 1309   3.256   4.246  10.977 -0.5950  0.0705 -0.5601
   84TMC2     O 1310   3.225   4.311  11.074 -0.1568  0.3082  0.1776
   84TMC2     H 1311   3.435   4.115  10.781  0.3520  0.1866  0.8714
   84TMC2    H1 1312   3.348   4.479  10.973 -1.1011  0.6058 -0.3078
   84TMC2    H2 1313   3.469   4.456  10.555  1.6558  0.5618  0.2192
   84TMC2    C7 1314   3.438   4.637  10.753 -0.5338  0.1705 -0.8398
   84TMC2    C8 1315   3.496   4.211  10.553 -0.4769  0.0729  0.3048
   84TMC2    O1 1316   3.525   4.658  10.670  0.0714  0.6608 -0.2859
   84TMC2    O2 1317   3.432   4.114  10.512  0.1150  0.1392  0.6020
   84TMC2    O5 1318   3.627   4.215  10.569 -0.0035  0.6440  0.1652
   84TMC2    H5 1319   3.654   4.301  10.607 -3.0855  2.4079 -1.5784
   85TMC2    C1 1320   3.343   2.171  16.137 -0.0987  0.3355 -0.3068
   85TMC2    C2 1321   3.213   2.174  16.083 -0.1424  0.1659  0.3682
   85TMC2    C3 1322   3.200   2.220  15.954 -0.5371  1.0432  0.3121
   85TMC2    C4 1323   3.456   2.204  16.066 -0.3792 -0.1678 -0.2076
   85TMC2    C5 1324   3.431   2.251  15.938  0.0737  0.0394 -0.7116
   85TMC2    C6 1325   3.302   2.268  15.884 -0.1842  0.1426  0.0824
   85TMC2     C 1326   3.345   2.101  16.264  0.0263 -0.8789  1.0052
   85TMC2     O 1327   3.428   2.132  16.344 -0.1291 -0.0041  0.0692
   85TMC2     H 1328   3.122   2.143  16.134  0.8177  0.0183  1.9655
   85TMC2    H1 1329   3.555   2.185  16.106  0.0450 -0.2569 -1.2829
   85TMC2    H2 1330   3.281   2.279  15.778  0.8474  0.1398 -0.1178
   85TMC2    C7 1331   3.547   2.286  15.856  0.0836  0.1493 -0.0985
   85TMC2    C8 1332   3.072   2.230  15.894  0.1118  0.3400  0.3382
   85TMC2    O1 1333   3.653   2.245  15.893 -0.1945 -0.0134  0.6113
   85TMC2    O2 1334   3.053   2.311  15.807  0.1554  0.5045 -0.2652
   85TMC2    O5 1335   3.029   2.108  15.889 -0.0262 -0.1648 -0.1167
   85TMC2    H5 1336   3.076   2.047  15.950  0.1330  0.1567  0.0792
   86MPD2     C 1337   3.206   1.681  16.519 -0.4306 -0.1062 -0.2726
   86MPD2    C1 1338   3.156   1.669  16.392 -0.2658 -0.6157  0.2267
   86MPD2    C2 1339   3.181   1.773  16.305 -0.6498  0.3352 -0.1292
   86MPD2    C3 1340   3.254   1.887  16.343 -0.5375  0.4089 -0.3636
   86MPD2    C4 1341   3.290   1.904  16.475 -0.5747 -0.1419  0.2633
   86MPD2    C5 1342   3.263   1.798  16.563 -0.1112  0.3870 -0.2904
   86MPD2     H 1343   3.141   1.761  16.206 -0.9295 -2.7697  0.3666
   86MPD2    H1 1344   3.334   1.992  16.521 -0.5620  0.1690 -0.3448
   86MPD2    H2 1345   3.194   1.606  16.596 -1.6516 -0.9069 -1.2442
   86MPD2    H3 1346   3.288   1.810  16.668 -0.3040 -0.1688 -0.1782
   86MPD2     N 1347   3.264   1.993  16.248 -0.3008  0.3170  0.0755
   86MPD2    H5 1348   3.234   1.975  16.152 -0.7301 -1.8733  0.6179
   86MPD2    N1 1349   3.081   1.559  16.339 -0.4356  0.3002  0.1039
   86MPD2    H7 1350   3.049   1.564  16.243  0.5421 -1.6279 -0.3073
   87TMC2    C1 1351   0.899   0.126   0.285 -0.0215 -0.3437 -0.5301
   87TMC2    C2 1352   0.965   0.010   0.259  0.1966  0.4256  0.2728
   87TMC2    C3 1353   0.985   4.663   0.360  0.2578 -0.0400  0.0738
   87TMC2    C4 1354   0.856   0.161   0.411 -0.3103 -0.0010 -0.6304
   87TMC2    C5 1355   0.880   0.072   0.510  0.1457  0.1113  0.0795
   87TMC2    C6 1356   0.943   4.690   0.486  0.5815 -0.4555  0.1341
   87TMC2     C 1357   0.891   0.214   0.170  0.0438 -0.7249  0.5487
   87TMC2     O 1358   0.871   0.333   0.185 -0.0111 -0.1599 -0.4986
   87TMC2     H 1359   0.996   4.717   0.160 -0.6118  1.0831 -0.1717
   87TMC2    H1 1360   0.805   0.255   0.430 -1.4909 -0.2985 -2.3262
   87TMC2    H2 1361   0.977   4.619   0.560  0.9827  1.6540  1.9656
   87TMC2    C7 1362   0.839   0.104   0.651  0.4207  0.9561 -0.3555
   87TMC2    C8 1363   1.082   4.557   0.338  0.8127  0.1329 -0.2313
   87TMC2    O1 1364   0.790   0.217   0.667 -0.2217 -0.4799 -0.1338
   87TMC2    O2 1365   1.198   4.592   0.317  0.1480 -0.2898 -0.7994
   87TMC2    O5 1366   1.009   4.463   0.272  0.6185  0.2600  0.0578
   87TMC2    H5 1367   0.911   4.469   0.281  0.4662 -1.2233 -0.6156
   88MPD2     C 1368   0.812   4.624   0.940 -0.2491  0.0608 -0.3704
   88MPD2    C1 1369   0.845   0.003   0.875  0.1784 -0.7780 -0.7664
   88MPD2    C2 1370   0.848   0.127   0.937 -0.4294 -0.7635  0.3735
   88MPD2    C3 1371   0.820   0.125   1.074 -0.1256 -0.3693  0.0407
   88MPD2    C4 1372   0.796   0.010   1.147  0.1148  0.0853  0.3485
   88MPD2    C5 1373   0.798   4.628   1.073  0.4446 -0.0815  0.1457
   88MPD2     H 1374   0.878   0.218   0.885 -0.4040 -1.4202 -0.7679
   88MPD2    H1 1375   0.767   0.017   1.251  0.1273  1.2810  0.2685
   88MPD2    H2 1376   0.809   4.533   0.880 -0.4855 -0.2196  0.0618
   88MPD2    H3 1377   0.772   4.541   1.132 -2.1407  1.2093  0.9447
   88MPD2     N 1378   0.818   0.241   1.152 -0.0202  0.7743  0.0064
   88MPD2    H5 1379   0.774   0.232   1.243  1.4579 -0.0301  0.6397
   88MPD2    N1 1380   0.866   4.734   0.734  0.2621  0.2235  0.2797
   88MPD2    H7 1381   0.880   4.643   0.692  0.6345 -1.1100  3.2599
   89TMC2    C1 1382   1.861   3.429   1.741 -0.0864  0.1527 -0.4900
   89TMC2    C2 1383   1.982   3.490   1.722 -0.1710  0.8273  0.5373
   89TMC2    C3 1384   1.976   3.619   1.670 -0.0515 -0.5133  0.7874
   89TMC2    C4 1385   1.746   3.473   1.680 -0.1202  0.3170  0.1186
   89TMC2    C5 1386   1.751   3.591   1.615  0.0795  0.3327  0.2008
   89TMC2    C6 1387   1.868   3.670   1.607  0.1452  0.0369 -0.2993
   89TMC2     C 1388   1.873   3.294   1.796  0.1195 -0.6440 -0.2880
   89TMC2     O 1389   1.990   3.256   1.821  0.1153  0.1554 -0.0885
   89TMC2     H 1390   2.077   3.454   1.759 -0.1701 -0.3406 -0.5929
   89TMC2    H1 1391   1.652   3.418   1.691  0.1430 -0.4386 -1.4675
   89TMC2    H2 1392   1.869   3.777   1.594 -2.4071  0.2312  1.1109
   89TMC2    C7 1393   1.641   3.611   1.523 -0.5171  0.9882  1.0418
   89TMC2    C8 1394   2.106   3.688   1.670  0.0748  0.1431 -0.0741
   89TMC2    O1 1395   1.537   3.563   1.559 -0.3240 -0.2725  0.2188
   89TMC2    O2 1396   2.200   3.649   1.737 -0.3118  0.0660 -0.0770
   89TMC2    O5 1397   2.120   3.754   1.551  0.0038 -0.4691  0.1333
   89TMC2    H5 1398   2.034   3.768   1.508  0.6752  0.5979 -0.8583
   90MPD2     C 1399   1.626   2.845   1.763 -0.1344 -0.8556 -0.1020
   90MPD2    C1 1400   1.538   2.943   1.784  0.6231  0.5344 -0.3544
   90MPD2    C2 1401   1.577   3.071   1.805 -0.3169 -0.5543  0.5733
   90MPD2    C3 1402   1.712   3.100   1.808  0.1195  0.1859 -0.2535
   90MPD2    C4 1403   1.805   3.000   1.790  0.3683  1.0732 -0.5536
   90MPD2    C5 1404   1.764   2.872   1.768 -0.6082 -0.6292  0.3496
   90MPD2     H 1405   1.511   3.153   1.828  0.0579  0.5699 -2.3120
   90MPD2    H1 1406   1.910   3.019   1.810  0.2205  0.2286  1.0027
   90MPD2    H2 1407   1.597   2.743   1.740  1.2742 -1.2011 -0.3313
   90MPD2    H3 1408   1.831   2.787   1.771  3.6301  2.6601 -1.5568
   90MPD2     N 1409   1.749   3.234   1.809  0.2606  0.4641 -0.3637
   90MPD2    H5 1410   1.678   3.306   1.798 -1.3757 -0.7031  2.6774
   90MPD2    N1 1411   1.396   2.921   1.781  0.0159  0.0490  0.2120
   90MPD2    H7 1412   1.342   3.005   1.796  0.3514  0.3233 -0.1220
   91TMC2    C1 1413   2.956   2.844  16.349 -0.0800 -0.5730  0.2582
   91TMC2    C2 1414   3.045   2.904  16.263  0.3127  0.3297 -0.2212
   91TMC2    C3 1415   2.987   2.922  16.141  0.8557 -0.0169 -0.6809
   91TMC2    C4 1416   2.819   2.826  16.330 -0.0015  0.5889  0.1140
   91TMC2    C5 1417   2.771   2.861  16.210  0.2276 -0.2367 -0.1729
   91TMC2    C6 1418   2.855   2.907  16.110 -0.5129 -0.3141  0.1505
   91TMC2     C 1419   3.008   2.803  16.484 -0.1712 -0.1353 -0.1501
   91TMC2     O 1420   2.929   2.780  16.575  0.4370 -0.4212 -0.0101
   91TMC2     H 1421   3.139   2.948  16.291  0.5503 -1.0715  1.1482
   91TMC2    H1 1422   2.758   2.807  16.417  0.8980  2.5663  1.1678
   91TMC2    H2 1423   2.815   2.930  16.012  1.1549 -2.8336 -1.1322
   91TMC2    C7 1424   2.631   2.849  16.191 -0.0183  1.0000 -0.8827
   91TMC2    C8 1425   3.069   2.976  16.035  0.5500 -0.5017  0.1543
   91TMC2    O1 1426   2.563   2.810  16.283 -0.5799  0.5651 -0.3548
   91TMC2    O2 1427   3.013   3.028  15.939  0.0727  0.0744  0.1673
   91TMC2    O5 1428   3.167   2.885  16.017  0.2177  0.7295  0.5651
   91TMC2    H5 1429   3.194   2.861  16.108 -0.5745 -1.4407  0.2232
   92MPD2     C 1430   3.185   2.744  16.720  0.6761  0.8205  0.2761
   92MPD2    C1 1431   3.230   2.773  16.590  0.9011  0.1118 -0.2466
   92MPD2    C2 1432   3.363   2.772  16.568 -0.0547 -0.2532 -0.3343
   92MPD2    C3 1433   3.454   2.735  16.666  0.1116 -0.1223 -0.0048
   92MPD2    C4 1434   3.413   2.698  16.788  0.0982 -0.3152  0.1240
   92MPD2    C5 1435   3.279   2.710  16.815  0.0310 -0.3479  0.8921
   92MPD2     H 1436   3.404   2.778  16.468  0.5426 -0.6755 -0.1181
   92MPD2    H1 1437   3.475   2.663  16.869 -0.1752  0.4643  0.6694
   92MPD2    H2 1438   3.081   2.748  16.751  0.0332 -0.5406 -1.6940
   92MPD2    H3 1439   3.239   2.692  16.914 -3.2919  0.4445 -0.3136
   92MPD2     N 1440   3.590   2.754  16.630  0.6545  0.3521 -0.1006
   92MPD2    H5 1441   3.610   2.795  16.540  1.4996 -0.0247 -0.0803
   92MPD2    N1 1442   3.147   2.798  16.479  0.1324 -0.1369 -0.5150
   92MPD2    H7 1443   3.197   2.806  16.391  0.0093  0.2186 -0.5546
   93TMC2    C1 1444   0.959   3.085  13.611 -0.0558 -0.6399  0.0536
   93TMC2    C2 1445   0.864   3.185  13.593  0.2437 -0.4673  0.2999
   93TMC2    C3 1446   0.907   3.315  13.602  0.1900  0.3115  0.1621
   93TMC2    C4 1447   1.087   3.119  13.641 -0.7579  0.1387 -0.4031
   93TMC2    C5 1448   1.122   3.246  13.665 -0.2174 -0.3281  0.3014
   93TMC2    C6 1449   1.033   3.348  13.638  0.1798  0.5863  0.3530
   93TMC2     C 1450   0.919   2.949  13.596 -0.6498  0.8749 -0.4699
   93TMC2     O 1451   1.006   2.868  13.568  0.2911 -0.0477  0.5210
   93TMC2     H 1452   0.776   3.156  13.537  0.3193 -0.1184 -0.0002
   93TMC2    H1 1453   1.165   3.047  13.658 -1.7455 -1.2006 -1.5989
   93TMC2    H2 1454   1.061   3.452  13.640 -0.8508  0.8765  0.0253
   93TMC2    C7 1455   1.262   3.280  13.686 -0.0146 -0.0813  0.4956
   93TMC2    C8 1456   0.815   3.420  13.614 -0.1330 -0.1008 -0.3090
   93TMC2    O1 1457   1.330   3.181  13.725 -0.4805  0.2135 -0.3075
   93TMC2    O2 1458   0.844   3.539  13.602 -0.7470  0.1324 -0.0643
   93TMC2    O5 1459   0.714   3.362  13.677 -0.1442  0.5150 -0.0707
   93TMC2    H5 1460   0.733   3.271  13.705 -1.3764  0.1468 -0.3936
   94MPD2     C 1461   0.780   2.666  13.641  0.3818 -0.0886 -0.6361
   94MPD2    C1 1462   0.731   2.795  13.684 -0.1139 -0.1822  0.5197
   94MPD2    C2 1463   0.616   2.793  13.756  0.3937 -0.3758  0.2794
   94MPD2    C3 1464   0.547   2.672  13.776  0.5982 -0.4762  0.1769
   94MPD2    C4 1465   0.591   2.551  13.732  0.3683  0.1857  0.1521
   94MPD2    C5 1466   0.717   2.548  13.662  0.8676  0.7433  0.4630
   94MPD2     H 1467   0.573   2.886  13.790  0.8952 -0.1983  0.4278
   94MPD2    H1 1468   0.545   2.456  13.754  0.8861  0.1148  0.9199
   94MPD2    H2 1469   0.880   2.661  13.598  0.9040 -1.9675  0.7870
   94MPD2    H3 1470   0.756   2.456  13.621  1.8938  1.7230 -0.7277
   94MPD2     N 1471   0.429   2.668  13.849 -0.5790 -0.7453 -0.2156
   94MPD2    H5 1472   0.368   2.588  13.836 -1.2525 -0.6014  2.0901
   94MPD2    N1 1473   0.805   2.922  13.673 -0.0363  0.2888 -0.0564
   94MPD2    H7 1474   0.772   2.996  13.734 -1.0659 -1.3138  1.3387
   95TMC2    C1 1475   0.118   0.203  15.637  0.4881 -0.1444  0.8005
   95TMC2    C2 1476   0.057   0.137  15.741 -0.0690  0.2032  0.3324
   95TMC2    C3 1477   4.714   0.204  15.833  0.0659 -0.3677  0.3714
   95TMC2    C4 1478   0.108   0.339  15.621  0.3012 -1.1190 -0.1953
   95TMC2    C5 1479   0.022   0.398  15.712 -0.2750  0.4659  0.0891
   95TMC2    C6 1480   4.687   0.337  15.813 -0.3909  0.0905  0.4770
   95TMC2     C 1481   0.244   0.142  15.591  0.1699 -1.1216  0.0114
   95TMC2     O 1482   0.331   0.211  15.534 -0.2084  0.3895 -0.2278
   95TMC2     H 1483   0.064   0.030  15.751 -0.9660  0.1750  0.6432
   95TMC2    H1 1484   0.169   0.395  15.551 -1.0873 -0.1940 -0.6750
   95TMC2    H2 1485   4.613   0.386  15.874  0.3502 -1.9067  2.9804
   95TMC2    C7 1486   0.020   0.543  15.708 -0.2627 -0.2415 -0.1964
   95TMC2    C8 1487   4.615   0.138  15.901 -0.7399  0.5420 -0.5161
   95TMC2    O1 1488   4.683   0.593  15.793  0.1194  0.5403  0.2964
   95TMC2    O2 1489   4.591   0.020  15.884  0.1786 -0.0125  0.2883
   95TMC2    O5 1490   4.642   0.187  16.028  0.0245  0.0878 -0.1417
   95TMC2    H5 1491   4.703   0.264  16.025  0.2750 -0.0220  2.4427
   96MPD2     C 1492   0.564   4.474  15.546  0.0027 -0.3688 -0.6458
   96MPD2    C1 1493   0.582   4.605  15.510 -0.0755 -0.0478 -0.0702
   96MPD2    C2 1494   0.481   4.693  15.536 -0.1515  0.2669  0.0775
   96MPD2    C3 1495   0.361   4.654  15.592 -0.1121 -0.4543  0.8545
   96MPD2    C4 1496   0.340   4.522  15.628  0.1849 -0.0828  0.0407
   96MPD2    C5 1497   0.445   4.433  15.605 -0.1455  0.6933  0.6687
   96MPD2     H 1498   0.484   0.056  15.494  0.7282  0.8046  1.4323
   96MPD2    H1 1499   0.236   4.499  15.644 -0.2800  0.2741 -2.4207
   96MPD2    H2 1500   0.637   4.397  15.526 -1.2353 -1.6433 -0.2245
   96MPD2    H3 1501   0.436   4.327  15.627  0.2207  0.0858 -2.1570
   96MPD2     N 1502   0.252   0.006  15.623  0.3814 -0.1740  0.4483
   96MPD2    H5 1503   0.170   4.698  15.662 -0.9000  0.9662 -0.9741
   96MPD2    N1 1504   0.711   4.641  15.456 -0.6162 -0.3689  0.3044
   96MPD2    H7 1505   0.771   4.565  15.426 -1.7897 -1.5035  0.8277
   97TMC2    C1 1506   2.306   2.493   0.412 -0.7845  0.2263 -0.3729
   97TMC2    C2 1507   2.266   2.459   0.287 -0.9370  0.2377  0.3635
   97TMC2    C3 1508   2.246   2.556   0.197  0.0718 -0.4885  0.5399
   97TMC2    C4 1509   2.298   2.625   0.448  0.4083 -0.5423 -0.7959
   97TMC2    C5 1510   2.281   2.728   0.351 -0.5805 -0.1732  0.3316
   97TMC2    C6 1511   2.263   2.694   0.220  0.1281 -0.3964  0.2252
   97TMC2     C 1512   2.341   2.389   0.501  0.5409 -0.2832  0.4915
   97TMC2     O 1513   2.305   2.274   0.478 -0.2994 -0.6525 -0.0149
   97TMC2     H 1514   2.287   2.358   0.254 -0.8630  0.1042  0.8113
   97TMC2    H1 1515   2.325   2.657   0.548 -0.3924  2.2146 -1.4546
   97TMC2    H2 1516   2.247   2.769   0.144 -1.2408  0.6895  1.5742
   97TMC2    C7 1517   2.342   2.861   0.378 -0.1235 -0.0429 -0.1027
   97TMC2    C8 1518   2.195   2.508   0.064  0.7095  1.1609 -0.3104
   97TMC2    O1 1519   2.410   2.863   0.477  0.3615 -0.5089  0.8601
   97TMC2    O2 1520   2.198   2.570  17.700  0.8106  0.6632  0.6159
   97TMC2    O5 1521   2.123   2.394   0.083  0.0930 -0.1556  0.1694
   97TMC2    H5 1522   2.102   2.372   0.177  2.0606  0.4919  0.7626
   98MPD2     C 1523   2.403   2.279   0.992 -0.4160  0.6315  0.3332
   98MPD2    C1 1524   2.301   2.237   0.911 -0.2379 -0.0931 -0.4800
   98MPD2    C2 1525   2.311   2.277   0.777  0.4632 -0.3461 -0.2002
   98MPD2    C3 1526   2.414   2.357   0.726  0.1042 -0.0775  0.4744
   98MPD2    C4 1527   2.511   2.397   0.819  0.5252 -0.7121  0.1013
   98MPD2    C5 1528   2.508   2.351   0.949 -0.3594 -0.2874  0.1487
   98MPD2     H 1529   2.234   2.243   0.709  1.5420  0.2556 -1.7179
   98MPD2    H1 1530   2.601   2.447   0.784 -1.8848  1.5166 -2.9143
   98MPD2    H2 1531   2.394   2.242   1.093  1.5737  1.2685  0.7365
   98MPD2    H3 1532   2.587   2.374   1.019  0.4230 -2.3038 -0.0572
   98MPD2     N 1533   2.415   2.430   0.606 -0.0666  0.1038  0.5046
   98MPD2    H5 1534   2.487   2.501   0.594 -0.4472  0.2601 -0.9240
   98MPD2    N1 1535   2.197   2.158   0.973 -0.4343  0.1129 -0.4696
   98MPD2    H7 1536   2.208   2.139   1.072 -0.7950 -2.2392 -0.8757
   99TMC2    C1 1537   1.012   4.144   2.276  0.0287 -0.2092  0.4206
   99TMC2    C2 1538   1.059   4.115   2.401 -0.4418  0.6777 -0.6520
   99TMC2    C3 1539   0.962   4.101   2.489  0.8575  0.0341  0.4525
   99TMC2    C4 1540   0.882   4.169   2.250  0.8306 -0.0707 -0.6732
   99TMC2    C5 1541   0.793   4.173   2.353  0.2653 -0.1888  1.1358
   99TMC2    C6 1542   0.833   4.141   2.482 -0.7910 -0.1223 -0.1864
   99TMC2     C 1543   1.120   4.157   2.171  0.4195 -0.0772 -0.4025
   99TMC2     O 1544   1.238   4.179   2.199  0.1374  0.0364  0.0211
   99TMC2     H 1545   1.165   4.110   2.420 -0.3439  0.9841 -1.1255
   99TMC2    H1 1546   0.850   4.201   2.151 -2.8500  0.5577  0.7349
   99TMC2    H2 1547   0.768   4.129   2.568 -0.7795  1.9194  0.1098
   99TMC2    C7 1548   0.653   4.183   2.326 -1.1686  0.3036 -0.0640
   99TMC2    C8 1549   1.003   4.068   2.621 -0.3281 -0.2833 -0.4748
   99TMC2    O1 1550   0.577   4.220   2.416 -0.6443  0.2950 -0.6419
   99TMC2    O2 1551   0.957   4.126   2.720  0.4840 -0.3291 -0.2296
   99TMC2    O5 1552   1.117   3.992   2.629 -0.6654  0.0921 -0.1736
   99TMC2    H5 1553   1.147   3.943   2.550  2.4260 -0.5670  1.3882
  100MPD2     C 1554   1.266   4.206   1.906 -0.0699  0.8947 -0.0458
  100MPD2    C1 1555   1.138   4.152   1.918 -0.8661  0.6979 -0.6182
  100MPD2    C2 1556   1.067   4.105   1.808  0.0463 -0.3128  0.7377
  100MPD2    C3 1557   1.115   4.129   1.684  0.3696 -0.1275 -1.3590
  100MPD2    C4 1558   1.236   4.194   1.671 -0.5445  0.4756 -0.3737
  100MPD2    C5 1559   1.311   4.242   1.778 -0.0224  0.0329 -0.1621
  100MPD2     H 1560   0.971   4.057   1.821 -1.1845  1.4740 -1.7603
  100MPD2    H1 1561   1.282   4.205   1.573  1.4208  1.8580  0.7115
  100MPD2    H2 1562   1.332   4.230   1.988  1.4993  1.1222 -1.3903
  100MPD2    H3 1563   1.402   4.298   1.765  1.1445 -1.8912 -0.3351
  100MPD2     N 1564   1.046   4.066   1.575  0.7400 -0.0799  0.2636
  100MPD2    H5 1565   0.963   4.012   1.595 -2.3288  4.6468  0.4091
  100MPD2    N1 1566   1.068   4.133   2.045  0.5548 -0.7613  0.5617
  100MPD2    H7 1567   0.976   4.091   2.033  0.7039 -0.4624 -1.5349
  101TMC2    C1 1568   2.591   1.015  12.876 -0.8656  0.1181  0.6155
  101TMC2    C2 1569   2.484   1.106  12.870  0.0601  0.7859  0.4215
  101TMC2    C3 1570   2.521   1.229  12.820  0.3012 -0.7217  0.0392
  101TMC2    C4 1571   2.713   1.032  12.827 -0.6355  0.4104  0.5480
  101TMC2    C5 1572   2.739   1.151  12.770  0.3848  0.6438  0.0806
  101TMC2    C6 1573   2.649   1.247  12.773  0.0029  0.4721  0.4402
  101TMC2     C 1574   2.557   0.889  12.936  0.1640 -0.1131  0.4236
  101TMC2     O 1575   2.464   0.887  13.015 -0.2806 -0.1866 -0.0010
  101TMC2     H 1576   2.383   1.089  12.906  0.7433 -1.1855  1.3784
  101TMC2    H1 1577   2.790   0.961  12.855 -1.2742 -1.3099 -2.0253
  101TMC2    H2 1578   2.653   1.342  12.722 -0.5065 -0.3369 -1.1075
  101TMC2    C7 1579   2.859   1.167  12.683  0.2964  0.4167 -0.9388
  101TMC2    C8 1580   2.451   1.348  12.835 -0.5756 -0.2997  0.1162
  101TMC2    O1 1581   2.864   1.280  12.634  0.1324  0.1427 -0.4381
  101TMC2    O2 1582   2.499   1.460  12.850  0.1430 -0.1109 -0.1653
  101TMC2    O5 1583   2.319   1.320  12.844  0.0940  0.2224  0.8171
  101TMC2    H5 1584   2.297   1.226  12.829  4.1015 -0.6217  0.0437
  102MPD2     C 1585   2.663   0.565  12.808  0.1917 -0.5453 -0.2613
  102MPD2    C1 1586   2.604   0.652  12.898 -0.0641  0.2368  0.0800
  102MPD2    C2 1587   2.534   0.601  13.009  0.3761 -0.5122  0.0376
  102MPD2    C3 1588   2.528   0.468  13.024 -0.0031  0.2104  0.0500
  102MPD2    C4 1589   2.593   0.378  12.936  0.1112 -0.3504  0.6976
  102MPD2    C5 1590   2.666   0.431  12.833 -0.6147  0.5636  0.5777
  102MPD2     H 1591   2.491   0.669  13.081  0.2696 -0.7194  0.1666
  102MPD2    H1 1592   2.601   0.271  12.949  2.0080 -0.2785  0.1112
  102MPD2    H2 1593   2.706   0.607  12.718 -0.4501  1.0537  0.1744
  102MPD2    H3 1594   2.728   0.365  12.773  0.8766  0.0187  2.7113
  102MPD2     N 1595   2.453   0.421  13.138 -0.2428  0.4095 -0.0211
  102MPD2    H5 1596   2.414   0.498  13.192 -0.2613 -1.3552  2.4634
  102MPD2    N1 1597   2.619   0.786  12.871 -0.1607  0.2954 -0.1916
  102MPD2    H7 1598   2.677   0.805  12.790  2.7396  1.1801  2.0941
  103TMC2    C1 1599   0.468   0.293  12.233 -0.0772 -0.1113 -0.1279
  103TMC2    C2 1600   0.500   0.405  12.157 -0.4885  0.2747 -0.0689
  103TMC2    C3 1601   0.494   0.528  12.219 -0.4738 -0.1207  0.6064
  103TMC2    C4 1602   0.448   0.298  12.361 -0.4511 -0.3139  0.4536
  103TMC2    C5 1603   0.447   0.422  12.417  0.1249 -1.0547 -0.1747
  103TMC2    C6 1604   0.451   0.539  12.347  0.4486  0.4385  0.0850
  103TMC2     C 1605   0.452   0.162  12.163 -0.3418 -0.0115  0.0285
  103TMC2     O 1606   0.470   0.153  12.043 -0.4207 -0.2352 -0.3794
  103TMC2     H 1607   0.528   0.400  12.052  0.3269 -0.2247  0.1750
  103TMC2    H1 1608   0.420   0.213  12.421 -1.9028  0.0305  0.2573
  103TMC2    H2 1609   0.451   0.638  12.393 -2.0315  0.5953 -0.2572
  103TMC2    C7 1610   0.417   0.428  12.559 -0.0917  0.3983  0.5386
  103TMC2    C8 1611   0.544   0.644  12.152  0.4303  0.3682  0.2226
  103TMC2    O1 1612   0.353   0.332  12.602 -0.1908  0.2645  0.0763
  103TMC2    O2 1613   0.568   0.643  12.033 -0.4548 -0.1600  0.5984
  103TMC2    O5 1614   0.588   0.738  12.238  0.0542  0.2632 -0.5319
  103TMC2    H5 1615   0.592   0.729  12.336 -2.3234  1.2007 -0.3520
  104MPD2     C 1616   0.373   4.561  12.307 -0.3713  0.0449  0.3015
  104MPD2    C1 1617   0.367   4.662  12.218 -0.4785 -1.1061  0.2107
  104MPD2    C2 1618   0.290   4.655  12.103  0.4182 -0.0367  0.6296
  104MPD2    C3 1619   0.224   4.541  12.072 -0.0583 -0.3042  0.1403
  104MPD2    C4 1620   0.229   4.436  12.166 -0.7673  0.7238  0.1081
  104MPD2    C5 1621   0.307   4.448  12.279  0.4243  0.4442  0.4067
  104MPD2     H 1622   0.287   0.009  12.042  0.4020  0.0821  0.8079
  104MPD2    H1 1623   0.177   4.342  12.156 -0.9360  0.4139  3.7441
  104MPD2    H2 1624   0.422   4.565  12.403 -0.2434 -0.0214  0.2397
  104MPD2    H3 1625   0.307   4.367  12.352 -0.0618  2.6412  2.8658
  104MPD2     N 1626   0.139   4.535  11.961 -0.3945 -0.4105 -0.5102
  104MPD2    H5 1627   0.136   4.619  11.903  0.9064 -1.5301 -2.2110
  104MPD2    N1 1628   0.436   0.055  12.249 -0.7826  0.6028  0.0821
  104MPD2    H7 1629   0.483   0.059  12.339  1.0731 -0.1635 -0.8465
  105TMC2    C1 1630   1.373   0.687  17.287  1.0438  0.5758 -0.5258
  105TMC2    C2 1631   1.410   0.730  17.410  0.1532  1.0162  0.7962
  105TMC2    C3 1632   1.321   0.735  17.509  0.2852  0.2513  0.0355
  105TMC2    C4 1633   1.245   0.645  17.266  0.7253  0.6716 -0.4725
  105TMC2    C5 1634   1.159   0.634  17.374  0.6724 -0.2488  0.2001
  105TMC2    C6 1635   1.198   0.684  17.496 -0.5566 -0.7715  0.0627
  105TMC2     C 1636   1.472   0.655  17.189 -0.2625  0.4889  0.9284
  105TMC2     O 1637   1.583   0.620  17.232 -0.1557 -0.5374 -0.6728
  105TMC2     H 1638   1.511   0.766  17.419  0.7398 -0.0301 -1.6597
  105TMC2    H1 1639   1.212   0.595  17.176  0.2048  3.6019 -1.8740
  105TMC2    H2 1640   1.133   0.695  17.582  0.3705 -0.2243  0.6918
  105TMC2    C7 1641   1.048   0.546  17.361  0.3399  0.1969  0.0098
  105TMC2    C8 1642   1.385   0.752  17.637 -0.1920 -0.3245 -0.3057
  105TMC2    O1 1643   1.039   0.489  17.252  0.0639  0.6352  0.2755
  105TMC2    O2 1644   1.466   0.836  17.663  0.3145  0.0287  0.2318
  105TMC2    O5 1645   1.392   0.621  17.684 -0.2206  0.3050  0.1505
  105TMC2    H5 1646   1.338   0.551  17.641 -1.7203 -0.9128  4.0462
  106MPD2     C 1647   1.607   0.593  16.694 -0.0962  0.2928 -0.5922
  106MPD2    C1 1648   1.479   0.634  16.690 -0.3958 -0.7308 -0.3305
  106MPD2    C2 1649   1.422   0.669  16.815 -0.2091 -0.0596 -0.4361
  106MPD2    C3 1650   1.487   0.649  16.940 -0.0779  0.1607  0.5881
  106MPD2    C4 1651   1.612   0.595  16.938  0.0804 -0.4257  0.2803
  106MPD2    C5 1652   1.672   0.570  16.816  0.1600 -0.4488  0.5855
  106MPD2     H 1653   1.320   0.705  16.810 -0.1414 -0.1420 -2.4684
  106MPD2    H1 1654   1.673   0.587  17.027  3.5356 -2.0257 -2.2515
  106MPD2    H2 1655   1.652   0.546  16.608 -1.1936 -1.4913 -0.1966
  106MPD2    H3 1656   1.777   0.543  16.815  0.2197 -0.2335  0.9754
  106MPD2     N 1657   1.423   0.683  17.065 -0.5776 -0.0603 -0.0783
  106MPD2    H5 1658   1.334   0.733  17.061 -1.2709 -1.0757  2.3228
  106MPD2    N1 1659   1.392   0.644  16.574  0.5541 -0.4016 -0.9119
  106MPD2    H7 1660   1.299   0.680  16.594  0.5290 -0.7375 -0.4171
  107TMC2    C1 1661   2.823   4.036  11.745  0.4841 -0.5809  0.1980
  107TMC2    C2 1662   2.794   3.908  11.782  0.1158 -0.0433  0.9244
  107TMC2    C3 1663   2.806   3.814  11.683  0.9167  0.5161 -0.2778
  107TMC2    C4 1664   2.874   4.074  11.623 -0.7127 -0.2247  0.1483
  107TMC2    C5 1665   2.880   3.979  11.527  0.3808 -0.1759  0.2077
  107TMC2    C6 1666   2.847   3.848  11.553 -0.0230  0.6165  0.5388
  107TMC2     C 1667   2.776   4.146  11.827 -0.5422 -0.5854 -1.1255
  107TMC2     O 1668   2.718   4.103  11.928  0.4671 -0.1114  0.3486
  107TMC2     H 1669   2.744   3.883  11.875 -1.7620  0.5095  0.0728
  107TMC2    H1 1670   2.935   4.163  11.616  0.1587 -0.6207  2.7471
  107TMC2    H2 1671   2.836   3.773  11.475  0.4264  0.1299  0.9454
  107TMC2    C7 1672   2.942   4.016  11.396  0.1907  0.7028  0.1780
  107TMC2    C8 1673   2.794   3.669  11.710  0.3797 -0.2107 -0.3445
  107TMC2    O1 1674   2.997   4.120  11.394 -0.1275 -0.4162  0.4661
  107TMC2    O2 1675   2.733   3.634  11.812  0.3563  0.1287 -0.2326
  107TMC2    O5 1676   2.889   3.599  11.638  0.5921  0.1195  0.0710
  107TMC2    H5 1677   2.947   3.664  11.594  1.0326 -0.6527 -0.4936
  108MPD2     C 1678   2.707   4.502  11.750  0.4419 -0.3125  0.4025
  108MPD2    C1 1679   2.706   4.389  11.829  0.0340  0.6464 -0.4741
  108MPD2    C2 1680   2.635   4.390  11.953 -0.8384 -0.1908  0.3205
  108MPD2    C3 1681   2.544   4.492  11.972  0.2417  0.5664 -0.0281
  108MPD2    C4 1682   2.533   4.595  11.880  0.3491 -0.1795  0.0252
  108MPD2    C5 1683   2.613   4.605  11.770 -0.2398 -0.7215 -0.9110
  108MPD2     H 1684   2.644   4.301  12.013 -2.8641 -0.6141 -0.0121
  108MPD2    H1 1685   2.462   4.677  11.891  1.1460  0.0490  3.4028
  108MPD2    H2 1686   2.769   4.505  11.661 -1.7025  0.3063 -1.0400
  108MPD2    H3 1687   2.614   4.692  11.706  3.3112  2.1370  3.0167
  108MPD2     N 1688   2.440   4.482  12.068  0.6537  0.0231 -0.2231
  108MPD2    H5 1689   2.365   4.550  12.060  1.1033  0.3277 -1.9901
  108MPD2    N1 1690   2.772   4.274  11.773  0.5118  0.1352 -0.2861
  108MPD2    H7 1691   2.813   4.298  11.683 -0.2226  2.5110  0.0076
  109TMC2    C1 1692   1.201   1.189   1.068 -0.5135 -0.2310 -0.4006
  109TMC2    C2 1693   1.095   1.181   0.985  0.8144  0.2659  0.5102
  109TMC2    C3 1694   1.104   1.246   0.860  0.7022 -0.4572 -0.5143
  109TMC2    C4 1695   1.315   1.246   1.031 -0.0570 -0.6935  0.2386
  109TMC2    C5 1696   1.326   1.298   0.904 -0.2685  0.0366 -0.5676
  109TMC2    C6 1697   1.218   1.297   0.811 -0.5027  0.5508 -0.1265
  109TMC2     C 1698   1.155   1.221   1.201  0.1905 -0.1765  0.0298
  109TMC2     O 1699   1.051   1.180   1.249 -0.4820 -0.4847 -0.2534
  109TMC2     H 1700   1.011   1.120   1.015  2.3419 -1.1496  1.9637
  109TMC2    H1 1701   1.400   1.267   1.095 -0.2932  0.6122  0.1277
  109TMC2    H2 1702   1.214   1.350   0.717 -0.6812  1.8867  0.6434
  109TMC2    C7 1703   1.428   1.399   0.893 -0.0952  0.1151 -0.5012
  109TMC2    C8 1704   1.004   1.219   0.755  0.3660 -0.2654  0.1454
  109TMC2    O1 1705   1.449   1.475   0.990 -0.0029 -0.9656 -0.9177
  109TMC2    O2 1706   1.041   1.237   0.640 -0.0448  0.0234  0.1730
  109TMC2    O5 1707   0.898   1.142   0.789  0.2697 -0.1521  0.0600
  109TMC2    H5 1708   0.882   1.153   0.886  1.8290 -0.8357  0.3870
  110MPD2     C 1709   1.186   1.523   1.619  0.1347 -0.0292  0.4681
  110MPD2    C1 1710   1.274   1.575   1.522  0.1359 -0.0753 -0.2246
  110MPD2    C2 1711   1.288   1.503   1.403 -0.4607  0.1874  0.7424
  110MPD2    C3 1712   1.210   1.394   1.374  0.5562 -0.2210 -0.3292
  110MPD2    C4 1713   1.127   1.346   1.468  0.3549  0.0971  0.3572
  110MPD2    C5 1714   1.115   1.411   1.590  0.4660 -0.6095  0.6611
  110MPD2     H 1715   1.345   1.539   1.318  1.1263  0.3193  1.8551
  110MPD2    H1 1716   1.080   1.249   1.466 -0.1816  0.3201  1.9481
  110MPD2    H2 1717   1.181   1.563   1.719  0.8654 -0.0889  0.5271
  110MPD2    H3 1718   1.066   1.362   1.673 -2.0530  0.4291 -0.2175
  110MPD2     N 1719   1.220   1.337   1.246 -0.8809 -0.1723 -0.3355
  110MPD2    H5 1720   1.295   1.369   1.187 -0.0943 -0.9746  0.2307
  110MPD2    N1 1721   1.352   1.689   1.553 -0.7983 -0.3244 -0.0705
  110MPD2    H7 1722   1.328   1.737   1.639 -1.4519  3.2624 -2.2573
  111TMC2    C1 1723   2.642   1.838  11.840  0.0773 -0.7942 -0.0013
  111TMC2    C2 1724   2.529   1.862  11.918 -0.4986  0.3614 -0.4260
  111TMC2    C3 1725   2.537   1.921  12.037  0.0570  0.7207  0.2351
  111TMC2    C4 1726   2.756   1.897  11.877  0.0473  0.1695 -0.1370
  111TMC2    C5 1727   2.763   1.953  12.005 -0.0641  0.1900  0.4906
  111TMC2    C6 1728   2.656   1.964  12.087 -0.1164 -0.4144  0.6006
  111TMC2     C 1729   2.644   1.757  11.719  0.2896 -0.1867 -0.3073
  111TMC2     O 1730   2.741   1.774  11.651  0.4647  0.0563  0.6482
  111TMC2     H 1731   2.432   1.817  11.903  0.4642 -1.3475 -1.5234
  111TMC2    H1 1732   2.848   1.885  11.820  0.3232  2.9309 -0.2732
  111TMC2    H2 1733   2.666   2.000  12.189 -1.4505 -2.0115  1.2909
  111TMC2    C7 1734   2.893   1.977  12.057 -0.1186 -0.5068  0.7449
  111TMC2    C8 1735   2.409   1.934  12.115 -0.0770 -0.4789 -0.4247
  111TMC2    O1 1736   2.897   1.962  12.178 -0.1478  0.0776 -0.3513
  111TMC2    O2 1737   2.299   1.949  12.060  0.2120 -0.1094 -0.3961
  111TMC2    O5 1738   2.447   1.982  12.235  0.3271  0.3962  0.7267
  111TMC2    H5 1739   2.536   1.953  12.265  0.3492  0.5700  0.8286
  112MPD2     C 1740   2.462   1.361  11.456  0.6448  0.3890 -0.3678
  112MPD2    C1 1741   2.546   1.456  11.419  0.7771  0.4725 -0.7095
  112MPD2    C2 1742   2.579   1.546  11.515  0.4796  0.3555 -0.2791
  112MPD2    C3 1743   2.512   1.560  11.630  0.4702  0.2119  0.1167
  112MPD2    C4 1744   2.413   1.462  11.672 -0.3105 -0.2062  0.2428
  112MPD2    C5 1745   2.390   1.362  11.578  0.3416  0.5525  0.2990
  112MPD2     H 1746   2.658   1.617  11.498  0.7019  0.2967  0.5012
  112MPD2    H1 1747   2.359   1.464  11.766  1.0702  0.5598  1.0181
  112MPD2    H2 1748   2.436   1.279  11.389 -0.7688  0.6703 -0.1764
  112MPD2    H3 1749   2.341   1.271  11.609 -1.1424  0.1297 -3.2465
  112MPD2     N 1750   2.545   1.662  11.727 -0.0072 -0.3305 -0.0724
  112MPD2    H5 1751   2.494   1.654  11.814  2.0292 -1.4844  0.9967
  112MPD2    N1 1752   2.625   1.457  11.305  0.7967  0.3837  0.3303
  112MPD2    H7 1753   2.687   1.536  11.291  0.4608  0.6827  0.5268
  113TMC2    C1 1754   4.504   3.232   0.534  0.2324 -0.3512  0.2830
  113TMC2    C2 1755   4.382   3.293   0.513  0.4356  0.2570 -0.0160
  113TMC2    C3 1756   4.276   3.210   0.507  0.8840  0.2278 -0.3628
  113TMC2    C4 1757   4.517   3.097   0.554 -0.4620 -0.0250  0.3542
  113TMC2    C5 1758   4.403   3.022   0.557  0.0703  0.4204 -0.4433
  113TMC2    C6 1759   4.279   3.074   0.540  0.5686 -0.3686 -0.6105
  113TMC2     C 1760   4.601   3.322   0.586  0.0558  0.4221  0.0846
  113TMC2     O 1761   4.585   3.443   0.563  0.1466 -0.3221 -0.1426
  113TMC2     H 1762   4.371   3.400   0.501  1.8422  0.2841 -1.1235
  113TMC2    H1 1763   4.610   3.045   0.572 -0.5390  0.2168  1.4592
  113TMC2    H2 1764   4.192   3.011   0.549 -0.8859  1.6992 -0.1173
  113TMC2    C7 1765   4.421   2.884   0.600 -0.7106 -0.2912 -0.4196
  113TMC2    C8 1766   4.142   3.263   0.492 -0.2528 -1.1780 -0.3299
  113TMC2    O1 1767   4.498   2.820   0.534  0.0422  0.1265  0.5107
  113TMC2    O2 1768   4.053   3.203   0.431 -0.1737 -0.6410 -0.3356
  113TMC2    O5 1769   4.113   3.328   0.605 -0.3571  0.2246 -0.0356
  113TMC2    H5 1770   4.188   3.326   0.668 -0.7905 -0.1950  0.4739
  114MPD2     C 1771   0.254   3.433   0.907 -0.2399 -0.6713  0.5084
  114MPD2    C1 1772   0.163   3.522   0.849 -0.0267 -0.1685 -0.2341
  114MPD2    C2 1773   0.066   3.471   0.760 -0.7882 -0.2844  0.1978
  114MPD2    C3 1774   0.058   3.332   0.745 -0.5512 -0.3219  0.3274
  114MPD2    C4 1775   0.143   3.246   0.811  0.3812  0.0535  0.0494
  114MPD2    C5 1776   0.239   3.295   0.893 -0.4284 -0.4309 -0.0153
  114MPD2     H 1777   4.715   3.523   0.723  0.1315  1.1473  0.0296
  114MPD2    H1 1778   0.142   3.138   0.796 -0.7389  0.0259  0.2736
  114MPD2    H2 1779   0.333   3.465   0.975 -1.1332  1.2938  0.6001
  114MPD2    H3 1780   0.310   3.232   0.946  2.2352  1.7864 -0.9600
  114MPD2     N 1781   4.701   3.264   0.667 -0.0622  0.6259 -0.2560
  114MPD2    H5 1782   4.713   3.163   0.660 -0.0497  0.5455  0.8653
  114MPD2    N1 1783   0.160   3.658   0.878  0.1797 -0.0262 -0.4048
  114MPD2    H7 1784   0.085   3.713   0.839  0.1312 -0.7189 -1.2984
  115TMC2    C1 1785   0.723   1.524   0.175 -0.4079  0.5212  0.3511
  115TMC2    C2 1786   0.860   1.521   0.184 -0.1704  0.6699  0.0106
  115TMC2    C3 1787   0.929   1.645   0.181  0.0431 -0.1490  0.2635
  115TMC2    C4 1788   0.661   1.646   0.171 -0.5073 -0.2870  0.5761
  115TMC2    C5 1789   0.733   1.762   0.165  0.5836  0.3211 -0.5910
  115TMC2    C6 1790   0.867   1.760   0.155 -0.0170  0.8548  0.0965
  115TMC2     C 1791   0.661   1.413   0.116 -0.6973  0.2261  0.2568
  115TMC2     O 1792   0.735   1.332   0.063  0.1271  0.0060  0.6241
  115TMC2     H 1793   0.907   1.425   0.197 -0.8239  0.4745  0.9272
  115TMC2    H1 1794   0.555   1.664   0.184 -0.1548  0.9996  1.6592
  115TMC2    H2 1795   0.935   1.845   0.153  2.5522 -1.1643  0.7773
  115TMC2    C7 1796   0.663   1.876   0.119  0.4558  0.2708 -0.4640
  115TMC2    C8 1797   1.065   1.653   0.227  0.3260  0.0686 -0.3995
  115TMC2    O1 1798   0.549   1.885   0.163  0.1191 -0.2465 -0.1292
  115TMC2    O2 1799   1.109   1.767   0.256 -0.0057 -0.2191  0.2013
  115TMC2    O5 1800   1.132   1.545   0.192 -0.0143 -0.2569  0.7600
  115TMC2    H5 1801   1.079   1.477   0.145 -2.6119  1.9549  0.5148
  116MPD2     C 1802   0.277   1.226  17.572 -0.3775 -0.1734  0.5092
  116MPD2    C1 1803   0.413   1.236  17.546  0.1887 -0.5898  0.3916
  116MPD2    C2 1804   0.504   1.284  17.642  0.0147  0.5689  0.4127
  116MPD2    C3 1805   0.450   1.340   0.014 -0.2267 -0.2165 -0.0917
  116MPD2    C4 1806   0.316   1.340   0.034  0.0457  0.0098  0.5176
  116MPD2    C5 1807   0.231   1.290  17.681  0.0582  0.1630 -0.0286
  116MPD2     H 1808   0.609   1.282  17.617 -0.3446 -1.6181 -0.9891
  116MPD2    H1 1809   0.278   1.382   0.126 -0.6439 -1.4874  0.9205
  116MPD2    H2 1810   0.202   1.189  17.503  0.4190  0.3749 -0.6410
  116MPD2    H3 1811   0.125   1.291  17.703  0.2608 -0.4958  1.0031
  116MPD2     N 1812   0.527   1.417   0.110 -0.5960 -0.7302  0.7302
  116MPD2    H5 1813   0.482   1.476   0.179  1.9771  1.6226  0.3756
  116MPD2    N1 1814   0.450   1.206  17.411 -0.2283 -0.6797  0.8778
  116MPD2    H7 1815   0.371   1.175  17.355  0.3314  1.2416 -0.9827
  117TMC2    C1 1816   0.207   3.155  14.287  0.7177  0.3371  0.2455
  117TMC2    C2 1817   0.330   3.137  14.347 -0.1294 -0.0438  0.2273
  117TMC2    C3 1818   0.342   3.192  14.466 -0.0617  0.4035  0.1120
  117TMC2    C4 1819   0.115   3.248  14.330  0.1322  0.4759  0.2769
  117TMC2    C5 1820   0.147   3.315  14.446 -0.5103  0.2818 -0.1620
  117TMC2    C6 1821   0.254   3.280  14.521 -0.1761 -0.3365  0.0129
  117TMC2     C 1822   0.154   3.035  14.216  0.0643 -0.0090  0.7495
  117TMC2     O 1823   0.239   2.948  14.202 -0.2211 -0.3155  0.5166
  117TMC2     H 1824   0.400   3.067  14.303  0.0186  0.7863 -0.8515
  117TMC2    H1 1825   0.017   3.266  14.286  0.1026 -0.9095 -0.2250
  117TMC2    H2 1826   0.281   3.340  14.607 -0.8645  0.8286 -0.5980
  117TMC2    C7 1827   0.062   3.421  14.491 -0.3258  0.7879  0.3954
  117TMC2    C8 1828   0.481   3.216  14.494  0.5085  0.4280 -1.3278
  117TMC2    O1 1829   0.055   3.429  14.612 -0.3252  0.1263 -0.0892
  117TMC2    O2 1830   0.563   3.123  14.500 -0.0887  0.1824 -0.2327
  117TMC2    O5 1831   0.494   3.305  14.398  0.5647  0.0407  0.6504
  117TMC2    H5 1832   0.417   3.364  14.379  0.4631  0.0119  0.9782
  118MPD2     C 1833   4.557   3.576  14.514  0.3397  0.6971  1.1867
  118MPD2    C1 1834   4.630   3.576  14.397  0.2332 -0.3160 -0.2258
  118MPD2    C2 1835   4.589   3.635  14.279 -0.2205 -0.7241  0.0638
  118MPD2    C3 1836   4.472   3.706  14.271 -0.0902 -0.4192 -0.6092
  118MPD2    C4 1837   4.401   3.719  14.391 -0.7464  0.2748  0.2918
  118MPD2    C5 1838   4.441   3.653  14.509  0.6341 -0.1381  0.6272
  118MPD2     H 1839   4.655   3.611  14.196  0.3460  2.9848 -0.5624
  118MPD2    H1 1840   4.308   3.775  14.397  0.9848  3.3736 -1.4367
  118MPD2    H2 1841   4.572   3.514  14.601 -2.4904 -1.7006 -0.0201
  118MPD2    H3 1842   4.379   3.664  14.597  2.6598  2.0527  1.7396
  118MPD2     N 1843   4.417   3.767  14.153 -0.2309 -0.3648 -0.3123
  118MPD2    H5 1844   4.326   3.813  14.157  1.8223  3.6441 -0.0442
  118MPD2    N1 1845   0.000   3.490  14.383  1.3711 -0.7834 -0.1291
  118MPD2    H7 1846   0.039   3.487  14.289 -0.6314 -1.7127 -0.9126
  119TMC2    C1 1847   2.918   4.662  13.424 -0.3927  0.3938 -0.0183
  119TMC2    C2 1848   2.937   4.686  13.290  0.3463  0.1195 -0.6350
  119TMC2    C3 1849   2.827   4.722  13.214 -0.2051  0.0193 -0.6959
  119TMC2    C4 1850   2.797   4.669  13.484  0.2131 -0.5385  0.2062
  119TMC2    C5 1851   2.693   4.714  13.409 -0.7367  0.3459 -0.0375
  119TMC2    C6 1852   2.709   0.015  13.279 -0.0816  0.0177 -0.3504
  119TMC2     C 1853   3.026   4.671  13.518  0.2827  0.2547 -0.3697
  119TMC2     O 1854   3.004   0.003  13.618  0.1816  0.0051 -0.1401
  119TMC2     H 1855   3.037   4.676  13.250 -0.1340 -0.5257 -1.6809
  119TMC2    H1 1856   2.791   4.667  13.592  0.0230 -0.0409  0.2024
  119TMC2    H2 1857   2.626   0.059  13.225  0.3964  2.4642  0.9256
  119TMC2    C7 1858   2.557   4.707  13.444 -0.0967  0.1988 -0.5379
  119TMC2    C8 1859   2.855   0.031  13.083 -0.0518  0.1888  0.4711
  119TMC2    O1 1860   2.475   4.728  13.361  0.7353 -0.3406  0.2662
  119TMC2    O2 1861   2.960   0.085  13.063  0.7840 -0.4587 -0.2049
  119TMC2    O5 1862   2.737   0.065  13.026  0.4248  0.0295 -0.0514
  119TMC2    H5 1863   2.661   0.007  13.046  1.4443 -0.9858  0.8961
  120MPD2     C 1864   3.434   4.470  13.770 -0.2667 -0.3024 -0.2893
  120MPD2    C1 1865   3.330   4.564  13.815  0.0618  0.9566 -0.0748
  120MPD2    C2 1866   3.229   4.596  13.724  0.1755  0.7099  0.0361
  120MPD2    C3 1867   3.227   4.542  13.597  0.0735 -0.0238  0.3764
  120MPD2    C4 1868   3.319   4.446  13.562 -0.5601  0.1386  0.5725
  120MPD2    C5 1869   3.421   4.416  13.641  0.6357 -0.1034 -0.2773
  120MPD2     H 1870   3.152   4.667  13.753  0.1579  0.5861  0.2965
  120MPD2    H1 1871   3.317   4.402  13.462 -1.0236 -1.5541  1.3278
  120MPD2    H2 1872   3.512   4.442  13.839  0.6233  2.5671 -0.1472
  120MPD2    H3 1873   3.500   4.350  13.608  0.1552  0.0667 -1.7488
  120MPD2     N 1874   3.127   4.582  13.496 -0.2045 -0.1424  0.4645
  120MPD2    H5 1875   3.128   4.535  13.406  0.6451 -0.3102  0.5576
  120MPD2    N1 1876   3.351   4.642  13.936  0.2479 -0.6094 -0.8458
  120MPD2    H7 1877   3.447   4.636  13.971  0.7160  0.6655 -1.9259
  121TMC2    C1 1878   0.235   1.517  13.852 -0.1181 -0.0508  0.2994
  121TMC2    C2 1879   0.209   1.401  13.923 -0.0874  0.7258 -0.3360
  121TMC2    C3 1880   0.094   1.403  13.999  0.3929 -0.5336 -0.1802
  121TMC2    C4 1881   0.155   1.629  13.852  0.2998  0.6407 -0.4685
  121TMC2    C5 1882   0.044   1.618  13.933  0.2046  0.7868  0.3427
  121TMC2    C6 1883   0.011   1.509  14.001 -0.1965 -0.2248  0.2162
  121TMC2     C 1884   0.361   1.511  13.779 -0.5050  0.0308  0.0455
  121TMC2     O 1885   0.397   1.401  13.747 -0.2552  0.1172  0.0480
  121TMC2     H 1886   0.276   1.316  13.920 -0.5653  0.3069  0.9401
  121TMC2    H1 1887   0.177   1.716  13.791  1.9015  0.7604  0.2787
  121TMC2    H2 1888   4.669   1.505  14.076  1.2496 -0.2911  1.7333
  121TMC2    C7 1889   4.696   1.743  13.938  0.5654 -0.0384 -0.4448
  121TMC2    C8 1890   0.070   1.300  14.095  0.0246  0.0129 -0.6768
  121TMC2    O1 1891   0.020   1.843  13.908 -0.0994  0.4799  0.0734
  121TMC2    O2 1892   0.019   1.337  14.198  0.3760  0.1596  0.2446
  121TMC2    O5 1893   0.169   1.212  14.090 -0.6640 -0.5679 -0.4670
  121TMC2    H5 1894   0.177   1.171  14.001  0.0816  0.9282 -1.0976
  122MPD2     C 1895   0.636   1.528  13.680  0.5253  0.6825  0.0260
  122MPD2    C1 1896   0.542   1.630  13.663  0.2060  0.3981  0.5575
  122MPD2    C2 1897   0.566   1.732  13.569 -0.0465  0.0747  0.3614
  122MPD2    C3 1898   0.676   1.723  13.486  0.2344 -0.1264  1.0976
  122MPD2    C4 1899   0.774   1.629  13.512 -0.1295  0.4349 -0.0811
  122MPD2    C5 1900   0.756   1.542  13.613  0.8203  0.4298  1.0161
  122MPD2     H 1901   0.490   1.807  13.551 -0.8897 -0.5001  1.5033
  122MPD2    H1 1902   0.859   1.600  13.450  1.5356  1.7894  1.5542
  122MPD2    H2 1903   0.624   1.458  13.762  1.8169  0.9645  0.4563
  122MPD2    H3 1904   0.830   1.465  13.630  0.8563 -0.3420 -2.7997
  122MPD2     N 1905   0.702   1.808  13.380 -0.8774 -0.6557  0.3184
  122MPD2    H5 1906   0.781   1.783  13.322 -0.4571  0.3885  0.4365
  122MPD2    N1 1907   0.417   1.629  13.733 -0.3205  0.1311 -0.4182
  122MPD2    H7 1908   0.360   1.713  13.733 -1.3931 -0.5981 -0.4207
  123TMC2    C1 1909   3.368   0.902  10.634  0.0462  0.4231 -0.3794
  123TMC2    C2 1910   3.414   1.031  10.625  0.1795  0.5266 -0.2192
  123TMC2    C3 1911   3.499   1.049  10.519  0.3074 -0.0674  0.4163
  123TMC2    C4 1912   3.400   0.811  10.537  0.1719  0.2069 -0.0024
  123TMC2    C5 1913   3.487   0.837  10.440  0.9930 -0.0018  0.0874
  123TMC2    C6 1914   3.535   0.961  10.426 -0.2937  0.0076  0.2014
  123TMC2     C 1915   3.311   0.852  10.759  0.4330  0.0420 -0.1089
  123TMC2     O 1916   3.289   0.941  10.840 -0.4640  0.5430  0.1555
  123TMC2     H 1917   3.391   1.113  10.692  3.4570  0.7344  0.6164
  123TMC2    H1 1918   3.358   0.711  10.533 -0.9763  0.7618 -1.5528
  123TMC2    H2 1919   3.616   0.982  10.358  1.0163 -0.1350  1.7037
  123TMC2    C7 1920   3.554   0.718  10.390 -0.2225  0.0033  0.1459
  123TMC2    C8 1921   3.550   1.189  10.510 -0.7141  0.3643 -0.0150
  123TMC2    O1 1922   3.521   0.606  10.427  0.3487 -0.6238 -0.4490
  123TMC2    O2 1923   3.484   1.289  10.538 -0.2134 -0.3474  0.4501
  123TMC2    O5 1924   3.681   1.176  10.495 -0.2121 -0.3747 -0.0753
  123TMC2    H5 1925   3.713   1.086  10.518 -0.6572 -0.4911  0.0851
  124MPD2     C 1926   3.038   0.515  11.028 -0.1340 -0.1830 -1.2125
  124MPD2    C1 1927   3.035   0.479  10.893 -0.9129  0.4665 -0.2028
  124MPD2    C2 1928   3.120   0.543  10.806  0.1877 -0.8043  0.5972
  124MPD2    C3 1929   3.183   0.660  10.846  1.2373  0.3662 -0.7062
  124MPD2    C4 1930   3.178   0.700  10.979  0.0070  0.0239  1.0599
  124MPD2    C5 1931   3.099   0.631  11.060 -0.5583  0.3584  0.1260
  124MPD2     H 1932   3.125   0.515  10.701 -1.5305 -0.3741  0.4020
  124MPD2    H1 1933   3.224   0.793  11.010 -0.7817  0.5207  0.7498
  124MPD2    H2 1934   2.965   0.476  11.098  0.3503  1.9181  0.4934
  124MPD2    H3 1935   3.093   0.654  11.165  0.0171 -1.1641  0.4975
  124MPD2     N 1936   3.244   0.737  10.741 -0.3730  0.0815 -0.2046
  124MPD2    H5 1937   3.231   0.698  10.648  0.0171 -2.7020  0.9378
  124MPD2    N1 1938   2.950   0.377  10.852  0.3176 -0.6211 -0.0264
  124MPD2    H7 1939   2.908   0.311  10.916 -0.0857  0.3605  0.7167
  125TMC2    C1 1940   4.424   2.963   9.750  0.0272  0.1677 -0.5704
  125TMC2    C2 1941   4.456   2.917   9.875  0.0443 -0.1707 -0.2753
  125TMC2    C3 1942   4.441   2.783   9.894  0.4485  0.1275  0.3255
  125TMC2    C4 1943   4.368   2.881   9.663 -0.7131 -1.3359 -1.0802
  125TMC2    C5 1944   4.363   2.746   9.683 -0.8285  0.9896 -0.1669
  125TMC2    C6 1945   4.409   2.687   9.802  0.4354  0.2247  0.0518
  125TMC2     C 1946   4.496   3.080   9.718  0.7101  0.1878 -0.1849
  125TMC2     O 1947   4.603   3.098   9.765  0.6865 -0.2643  0.2559
  125TMC2     H 1948   4.499   2.980   9.952  1.9498 -0.8566 -0.7711
  125TMC2    H1 1949   4.346   2.916   9.563 -1.1415  2.1646  0.2538
  125TMC2    H2 1950   4.405   2.581   9.823  0.2605  0.4198  1.0147
  125TMC2    C7 1951   4.331   2.652   9.577 -0.1287  0.1469  0.1042
  125TMC2    C8 1952   4.471   2.733  10.025  0.1589 -0.7964 -0.0185
  125TMC2    O1 1953   4.256   2.697   9.490 -0.9496 -0.1018 -0.4360
  125TMC2    O2 1954   4.472   2.800  10.130 -0.3231 -0.7297  0.4454
  125TMC2    O5 1955   4.521   2.609  10.007  0.0610  0.5292 -0.2164
  125TMC2    H5 1956   4.540   2.600   9.911  0.0891 -0.5402 -0.1102
  126MPD1     C 1957   4.538   3.565   9.588  1.0990 -0.1118 -0.3024
  126MPD1    C1 1958   4.407   3.531   9.569  0.0322 -0.1854 -0.0510
  126MPD1    C2 1959   4.370   3.396   9.590  0.2517 -0.3182 -0.2791
  126MPD1    C3 1960   4.465   3.307   9.626 -0.1843 -0.3015  0.4470
  126MPD1    C4 1961   4.599   3.347   9.638  0.3529 -0.3272 -0.1964
  126MPD1    C5 1962   4.633   3.473   9.613 -0.0577  0.2749 -0.2326
  126MPD1     H 1963   4.268   3.363   9.580  0.6044 -0.9335 -1.8289
  126MPD1    H1 1964   4.677   3.279   9.670 -0.9821 -2.5819 -1.6509
  126MPD1    H2 1965   4.580   3.663   9.566  0.1446  0.6751  1.3451
  126MPD1    H3 1966   4.736   3.507   9.617 -0.0449  0.3679 -1.3740
  126MPD1     N 1967   4.418   3.175   9.657  0.6322 -0.3408 -0.6189
  126MPD1    H5 1968   4.321   3.150   9.638  1.0004 -1.9685 -0.3549
  126MPD1    N1 1969   4.313   3.631   9.548 -0.1035 -0.5755 -0.0610
  126MPD1    H6 1970   4.352   3.723   9.530  0.3042 -1.0361 -1.5210
  126MPD1    H7 1971   4.218   3.614   9.514 -0.3868  0.2179  0.3185
  127TMC2    C1 1972   0.410   0.648   9.727 -0.2249 -0.3863 -0.3382
  127TMC2    C2 1973   0.456   0.585   9.838  0.5649 -0.3190 -0.9066
  127TMC2    C3 1974   0.370   0.503   9.898  0.0659  0.6507  0.2782
  127TMC2    C4 1975   0.295   0.610   9.663 -0.2489 -0.3231 -0.0801
  127TMC2    C5 1976   0.233   0.499   9.711 -0.5486 -0.0838  0.1119
  127TMC2    C6 1977   0.267   0.457   9.834  0.6235  0.7725  1.1919
  127TMC2     C 1978   0.498   0.746   9.685 -1.1207 -0.1773  0.0869
  127TMC2     O 1979   0.599   0.778   9.751 -0.0032  0.3131 -0.1291
  127TMC2     H 1980   0.547   0.615   9.888  0.6084 -2.1123  0.0846
  127TMC2    H1 1981   0.265   0.654   9.568 -0.5263 -1.4778 -0.5223
  127TMC2    H2 1982   0.208   0.382   9.885  1.7049 -0.9651 -0.1029
  127TMC2    C7 1983   0.098   0.487   9.662  0.5280  0.3086 -0.1742
  127TMC2    C8 1984   0.401   0.458  10.030  0.4739  0.5434 -0.6909
  127TMC2    O1 1985   0.067   0.542   9.555 -0.2758 -0.2494 -0.3071
  127TMC2    O2 1986   0.353   0.350  10.067  0.4731  0.0634  0.1236
  127TMC2    O5 1987   0.396   0.570  10.107  0.4224 -0.2894  0.1813
  127TMC2    H5 1988   0.432   0.651  10.065  1.1262 -1.1488 -0.8753
  128MPD2     C 1989   0.446   0.943   9.377  0.1542  0.7447 -0.6925
  128MPD2    C1 1990   0.510   0.904   9.490 -0.2401 -0.2274 -1.5044
  128MPD2    C2 1991   0.627   0.977   9.523  0.3376  0.6164 -0.2531
  128MPD2    C3 1992   0.670   1.091   9.458 -0.3121  0.4266  0.3959
  128MPD2    C4 1993   0.591   1.133   9.348 -0.5418 -0.1454  0.0665
  128MPD2    C5 1994   0.484   1.053   9.307 -0.0848 -0.8647  0.1445
  128MPD2     H 1995   0.682   0.953   9.614  0.0140  0.9237  0.0224
  128MPD2    H1 1996   0.594   1.233   9.307 -2.2053 -0.3733 -0.6145
  128MPD2    H2 1997   0.370   0.887   9.324  0.5676  0.0789 -0.5727
  128MPD2    H3 1998   0.424   1.081   9.222  1.4436  1.7759 -0.0590
  128MPD2     N 1999   0.783   1.160   9.501 -0.7324 -0.0684 -0.1873
  128MPD2    H5 2000   0.834   1.128   9.582 -0.3662 -0.9425 -0.7542
  128MPD2    N1 2001   0.453   0.792   9.564  0.2430  0.7589  0.2955
  128MPD2    H7 2002   0.364   0.756   9.532 -0.4515  2.4292  0.3736
  129TMC2    C1 2003   2.868   0.675   1.579  0.1165  0.3993  0.7976
  129TMC2    C2 2004   2.811   0.747   1.682  0.0969 -0.7062 -0.3758
  129TMC2    C3 2005   2.730   0.680   1.770 -0.1318 -0.0113 -0.6800
  129TMC2    C4 2006   2.854   0.538   1.567  0.0176 -0.4640 -0.1525
  129TMC2    C5 2007   2.783   0.476   1.662  0.0844 -0.7833 -0.2405
  129TMC2    C6 2008   2.709   0.546   1.758 -0.6347  0.0345 -0.1124
  129TMC2     C 2009   2.966   0.737   1.497  0.3911 -0.1548 -0.3576
  129TMC2     O 2010   3.062   0.668   1.464  0.3467 -0.4887  0.3311
  129TMC2     H 2011   2.831   0.850   1.709 -0.7884 -0.3805 -0.9917
  129TMC2    H1 2012   2.925   0.481   1.507  1.9405  0.6279  1.0662
  129TMC2    H2 2013   2.635   0.490   1.814 -1.1422  2.1720  1.3143
  129TMC2    C7 2014   2.716   0.361   1.619 -0.3029 -0.8735  0.2782
  129TMC2    C8 2015   2.720   0.739   1.903 -0.1445  0.3107 -0.5283
  129TMC2    O1 2016   2.596   0.358   1.636  0.1016  0.2733 -0.5663
  129TMC2    O2 2017   2.727   0.856   1.932  0.9041  0.2855 -0.3839
  129TMC2    O5 2018   2.689   0.640   1.993 -0.0671 -0.4208 -0.2247
  129TMC2    H5 2019   2.715   0.549   1.966  2.2989  0.5241 -1.1906
  130MPD2     C 2020   3.132   0.914   1.339 -0.1865  0.0709 -0.1263
  130MPD2    C1 2021   3.007   0.950   1.387 -0.1242 -0.5931 -0.4593
  130MPD2    C2 2022   2.953   1.078   1.355 -0.3547 -0.5871  0.7073
  130MPD2    C3 2023   3.033   1.174   1.284  0.2845 -0.0048  0.4474
  130MPD2    C4 2024   3.163   1.133   1.251 -0.4031 -0.0554  0.0839
  130MPD2    C5 2025   3.204   1.009   1.278  0.2329 -0.6274 -0.4668
  130MPD2     H 2026   2.847   1.089   1.375 -0.6448 -2.5479  0.2739
  130MPD2    H1 2027   3.229   1.189   1.184 -0.9238  0.5802  0.1029
  130MPD2    H2 2028   3.179   0.818   1.357  2.2491  0.7454 -2.8775
  130MPD2    H3 2029   3.294   0.983   1.223  0.9500 -0.8729  0.8253
  130MPD2     N 2030   2.967   1.297   1.247  0.2332 -0.3719 -0.4445
  130MPD2    H5 2031   2.879   1.311   1.294  0.7798  1.2871  0.1108
  130MPD2    N1 2032   2.925   0.860   1.466 -0.3740 -0.1236 -0.4327
  130MPD2    H7 2033   2.841   0.895   1.511  0.8982  1.7136  0.5422
  131TMC2    C1 2034   3.104   0.831  10.061  0.4455  0.4120  0.7019
  131TMC2    C2 2035   3.020   0.922  10.007 -0.2022  0.2467  0.1234
  131TMC2    C3 2036   3.066   1.054  10.003 -0.7101 -0.2510  0.2915
  131TMC2    C4 2037   3.231   0.857  10.100 -0.5402 -0.5774  0.0650
  131TMC2    C5 2038   3.272   0.988  10.094  0.3951  0.1526  0.9483
  131TMC2    C6 2039   3.193   1.083  10.049  0.0118  0.2005 -0.2691
  131TMC2     C 2040   3.043   0.706  10.110 -0.6383 -0.1796 -0.4560
  131TMC2     O 2041   3.096   0.640  10.199  0.6787  0.1926 -0.4718
  131TMC2     H 2042   2.919   0.897   9.979 -0.2446  1.6234 -0.9298
  131TMC2    H1 2043   3.294   0.784  10.151 -3.2399 -2.2270  1.0452
  131TMC2    H2 2044   3.210   1.190  10.060 -2.3995  0.5308  0.2605
  131TMC2    C7 2045   3.407   1.007  10.103  0.1501  0.7138  0.1286
  131TMC2    C8 2046   2.971   1.151   9.981 -0.1388 -0.2463 -0.9098
  131TMC2    O1 2047   3.474   0.906  10.120 -0.1989 -0.1647  0.5889
  131TMC2    O2 2048   2.855   1.120   9.999 -0.0233  0.0274  0.2247
  131TMC2    O5 2049   3.010   1.213   9.861  0.4123  0.0715  0.3832
  131TMC2    H5 2050   3.108   1.214   9.855  0.3874 -0.0183 -0.0500
  132MPD2     C 2051   2.797   0.505   9.948 -0.2276 -0.0796  0.9185
  132MPD2    C1 2052   2.865   0.555  10.053  0.1019 -0.1297  0.4559
  132MPD2    C2 2053   2.852   0.486  10.173  0.0305  0.3721  0.2262
  132MPD2    C3 2054   2.768   0.378  10.188 -0.3230 -0.2654  0.3067
  132MPD2    C4 2055   2.704   0.330  10.075  0.6010  1.0387 -0.2678
  132MPD2    C5 2056   2.724   0.392   9.952 -0.4215 -0.1757 -0.4201
  132MPD2     H 2057   2.898   0.530  10.261  0.3078  1.1797 -0.3224
  132MPD2    H1 2058   2.637   0.245  10.078  0.6428  1.0115 -0.1396
  132MPD2    H2 2059   2.824   0.539   9.848  0.5772  1.2444  1.5873
  132MPD2    H3 2060   2.688   0.348   9.859  0.0092 -1.1720 -0.1170
  132MPD2     N 2061   2.737   0.348  10.318 -0.7668 -0.0116 -0.2383
  132MPD2    H5 2062   2.768   0.411  10.391 -1.8928  1.3973 -0.9927
  132MPD2    N1 2063   2.947   0.670  10.031  0.6475  0.1404  0.2322
  132MPD2    H7 2064   2.948   0.714   9.939 -0.2537 -1.0252 -0.3194
  133TMC2    C1 2065   2.711   1.978   9.813 -0.5134  0.4796  0.2972
  133TMC2    C2 2066   2.788   1.979   9.921 -0.5944 -0.4829 -0.3437
  133TMC2    C3 2067   2.768   2.084  10.009 -0.1256  0.4505  0.3511
  133TMC2    C4 2068   2.617   2.070   9.793 -0.7961  0.3593 -0.6368
  133TMC2    C5 2069   2.602   2.168   9.881  0.6757  0.2499 -0.0536
  133TMC2    C6 2070   2.682   2.185   9.985  0.1517 -0.2011  0.2914
  133TMC2     C 2071   2.705   1.861   9.734 -0.4207 -0.8768  0.8969
  133TMC2     O 2072   2.760   1.759   9.775  0.2141 -0.6068 -0.9294
  133TMC2     H 2073   2.865   1.903   9.930 -2.2267 -2.0248  0.6523
  133TMC2    H1 2074   2.556   2.071   9.704  1.6970  2.4852 -2.3209
  133TMC2    H2 2075   2.688   2.282  10.032 -2.9006  0.1099  0.0416
  133TMC2    C7 2076   2.484   2.256   9.870  0.4749  0.3438  0.0690
  133TMC2    C8 2077   2.872   2.095  10.117 -0.0344 -0.1891  0.3420
  133TMC2    O1 2078   2.430   2.260   9.761  0.3593 -0.4143 -0.2262
  133TMC2    O2 2079   2.959   2.005  10.139  0.4672 -0.0113 -0.2534
  133TMC2    O5 2080   2.818   2.169  10.221  0.2842 -0.0903 -0.1088
  133TMC2    H5 2081   2.729   2.206  10.204  1.0122  1.9641  0.4899
  134MPD2     C 2082   2.579   1.818   9.388 -0.6793  0.0785  0.0999
  134MPD2    C1 2083   2.623   1.776   9.508 -0.0528  0.3774 -0.3189
  134MPD2    C2 2084   2.623   1.638   9.538 -0.2888  0.4660 -0.8382
  134MPD2    C3 2085   2.598   1.547   9.433  0.1478  0.3357  0.3388
  134MPD2    C4 2086   2.581   1.599   9.308  0.6983  0.2013 -0.1397
  134MPD2    C5 2087   2.563   1.733   9.286 -0.6283  0.2418 -0.0563
  134MPD2     H 2088   2.646   1.607   9.639 -0.7407  2.5749 -0.0854
  134MPD2    H1 2089   2.570   1.526   9.229 -0.2292  0.2651 -0.0777
  134MPD2    H2 2090   2.580   1.923   9.360  0.5034 -0.4563 -1.8201
  134MPD2    H3 2091   2.548   1.781   9.191  0.1362 -1.8937 -1.2563
  134MPD2     N 2092   2.603   1.408   9.451 -0.2738 -0.1674  0.2845
  134MPD2    H5 2093   2.578   1.351   9.371  1.2832 -2.2223  1.2764
  134MPD2    N1 2094   2.648   1.880   9.604  0.0825 -0.0128  0.8576
  134MPD2    H7 2095   2.638   1.976   9.572 -1.2473  0.2475  2.0510
  135TMC2    C1 2096   0.089   3.344   9.908 -0.1608  0.0886  0.3046
  135TMC2    C2 2097   0.139   3.467   9.934 -0.2792 -0.4342  0.6427
  135TMC2    C3 2098   0.054   3.561   9.985 -0.1005  1.1278 -0.0244
  135TMC2    C4 2099   4.702   3.302   9.954  0.2972  0.3386 -1.3241
  135TMC2    C5 2100   4.620   3.397  10.008  0.4004  0.2741  0.4487
  135TMC2    C6 2101   4.664   3.530  10.022 -0.2207 -0.0212  0.1492
  135TMC2     C 2102   0.184   3.237   9.883 -0.9898 -0.4891 -0.5493
  135TMC2     O 2103   0.303   3.248   9.903 -0.1124 -0.2614  0.3200
  135TMC2     H 2104   0.235   3.493   9.891 -0.4134 -1.2474 -0.1523
  135TMC2    H1 2105   4.665   3.200   9.964 -0.5740  0.6471 -1.3881
  135TMC2    H2 2106   4.602   3.608  10.064 -1.6062 -0.4169 -1.1699
  135TMC2    C7 2107   4.471   3.386  10.004 -0.3864 -0.1836 -0.2393
  135TMC2    C8 2108   0.091   3.704   9.983  0.1792 -0.3404  0.1753
  135TMC2    O1 2109   4.408   3.480   9.966  0.2783  0.2683 -0.6565
  135TMC2    O2 2110   0.018   3.798   9.976 -0.1323  0.6565  0.2508
  135TMC2    O5 2111   0.219   3.714  10.033  0.4311  0.8647 -0.0196
  135TMC2    H5 2112   0.258   3.625  10.050 -0.3895  1.1125  3.0631
  136MPD2     C 2113   0.311   2.968   9.829 -0.1751 -0.5121 -0.4487
  136MPD2    C1 2114   0.193   3.013   9.773  0.4727  0.1137 -0.5689
  136MPD2    C2 2115   0.127   2.928   9.688 -0.1282 -0.2611  1.0397
  136MPD2    C3 2116   0.186   2.814   9.635  0.7847 -0.1017  0.2670
  136MPD2    C4 2117   0.311   2.774   9.690 -0.4981  0.3389  0.4759
  136MPD2    C5 2118   0.363   2.850   9.792 -0.0999  0.4565 -0.3693
  136MPD2     H 2119   0.037   2.961   9.638  0.4213 -0.0521  0.1870
  136MPD2    H1 2120   0.361   2.690   9.644  1.8831  1.4008  1.1145
  136MPD2    H2 2121   0.362   3.025   9.906 -0.8387  0.4281 -0.7126
  136MPD2    H3 2122   0.462   2.812   9.814 -0.7171 -1.5935 -1.1109
  136MPD2     N 2123   0.133   2.729   9.534 -0.5609  0.2515 -0.1067
  136MPD2    H5 2124   0.190   2.651   9.501 -1.4517  0.0140 -1.1034
  136MPD2    N1 2125   0.127   3.133   9.813  0.3652 -0.2193  0.2486
  136MPD2    H7 2126   0.027   3.147   9.803  0.3540  0.4519  1.2551
  137TMC2    C1 2127   0.054   1.598   9.880  0.2416  0.0951  0.3168
  137TMC2    C2 2128   0.038   1.466   9.846 -0.7630 -0.3159  0.0595
  137TMC2    C3 2129   4.692   1.441   9.737  0.5254 -0.4424  0.8906
  137TMC2    C4 2130   0.002   1.704   9.802 -0.9187 -1.0832  0.5839
  137TMC2    C5 2131   4.670   1.676   9.691 -0.0690 -0.2929  0.2183
  137TMC2    C6 2132   4.636   1.544   9.660  0.6853  0.4138 -0.5048
  137TMC2     C 2133   0.049   1.628  10.021  0.0434 -0.6617  0.4880
  137TMC2     O 2134   0.018   1.741  10.050  0.0382 -0.7418  0.8374
  137TMC2     H 2135   0.071   1.381   9.906  0.7046 -0.7448 -1.3656
  137TMC2    H1 2136   0.023   1.806   9.830  2.5695 -0.9758 -2.3910
  137TMC2    H2 2137   4.572   1.523   9.575 -0.8344  2.4292  0.1537
  137TMC2    C7 2138   4.585   1.783   9.646 -1.1019 -0.2008  0.1245
  137TMC2    C8 2139   4.657   1.301   9.718 -0.3682  0.9803 -0.2223
  137TMC2    O1 2140   4.557   1.814   9.529  0.3837  0.1970  0.4308
  137TMC2    O2 2141   4.680   1.202   9.785  1.1031  0.2327 -0.3063
  137TMC2    O5 2142   4.633   1.279   9.588  0.1483 -0.5969 -0.5091
  137TMC2    H5 2143   4.627   1.362   9.535 -0.2492 -1.0949 -1.2371
  138MPD2     C 2144   0.058   1.426  10.334 -0.0660 -0.3531 -0.1425
  138MPD2    C1 2145   0.022   1.523  10.244 -0.3506 -0.7782  0.1807
  138MPD2    C2 2146   4.661   1.615  10.278  0.7783  0.2991 -0.4159
  138MPD2    C3 2147   4.607   1.610  10.407  0.2870  0.1814  0.3800
  138MPD2    C4 2148   4.638   1.509  10.493 -0.9737  0.0669  0.0136
  138MPD2    C5 2149   4.733   1.415  10.457 -0.3484  0.5243 -0.3779
  138MPD2     H 2150   4.625   1.682  10.201  1.0666  0.8686 -0.0592
  138MPD2    H1 2151   4.598   1.498  10.593 -0.9544  2.8136  0.3161
  138MPD2    H2 2152   0.132   1.348  10.319  0.2319  0.1540 -1.2902
  138MPD2    H3 2153   0.024   1.351  10.541  2.0226  0.3766 -1.2375
  138MPD2     N 2154   4.517   1.710  10.441 -0.0405 -0.2359  0.0052
  138MPD2    H5 2155   4.489   1.767  10.362 -2.7995  0.6744  1.6274
  138MPD2    N1 2156   0.072   1.523  10.107  0.4322 -0.2456  0.1695
  138MPD2    H7 2157   0.140   1.452  10.080  2.5204  1.6068  0.5699
  139TMC2    C1 2158   4.266   4.104  13.274 -0.2990  0.0258 -0.7891
  139TMC2    C2 2159   4.237   4.096  13.142  0.1655  0.1111 -0.3297
  139TMC2    C3 2160   4.120   4.142  13.095  0.5450 -0.4493 -0.9468
  139TMC2    C4 2161   4.173   4.143  13.366 -0.4652  0.5266 -0.3965
  139TMC2    C5 2162   4.059   4.195  13.317  0.8778 -0.6480 -0.0724
  139TMC2    C6 2163   4.026   4.193  13.186 -1.1032 -0.7559  0.1241
  139TMC2     C 2164   4.393   4.070  13.325 -0.1260 -0.5622 -0.3073
  139TMC2     O 2165   4.493   4.124  13.281 -0.2595  0.1143  0.2870
  139TMC2     H 2166   4.318   4.071  13.073  0.0804 -2.3229  0.4496
  139TMC2    H1 2167   4.193   4.147  13.473 -0.8427  0.5155 -0.3272
  139TMC2    H2 2168   3.940   4.246  13.147 -0.0616  1.4007  0.7447
  139TMC2    C7 2169   3.986   4.298  13.388  0.4688  0.0581 -0.0576
  139TMC2    C8 2170   4.108   4.161  12.957 -0.4827 -0.1798 -0.6206
  139TMC2    O1 2171   3.910   4.370  13.327  0.0966  0.1611 -0.3466
  139TMC2    O2 2172   4.209   4.197  12.900 -0.0871  0.8912 -0.1071
  139TMC2    O5 2173   3.986   4.204  12.930  0.6053 -0.4267  0.0334
  139TMC2    H5 2174   3.920   4.167  12.992  0.4253 -0.2783 -0.0695
  140MPD2     C 2175   4.443   3.799  13.564  0.0435  0.0288  0.1787
  140MPD2    C1 2176   4.475   3.885  13.466  0.3516  0.1451  0.0144
  140MPD2    C2 2177   4.613   3.894  13.434  0.0390  0.4339  0.3981
  140MPD2    C3 2178   4.714   3.832  13.511  0.2953  0.2135 -0.3580
  140MPD2    C4 2179   4.668   3.736  13.611 -0.1531 -0.1335 -0.4574
  140MPD2    C5 2180   4.531   3.718  13.629 -0.4268  0.1038 -0.2158
  140MPD2     H 2181   4.641   3.966  13.358 -0.2549 -2.3814 -2.3528
  140MPD2    H1 2182   4.731   3.672  13.672 -0.4831  0.2299  0.2722
  140MPD2    H2 2183   4.338   3.779  13.586 -0.3967 -0.3676 -2.2689
  140MPD2    H3 2184   4.497   3.641  13.696 -0.3893  0.8786  0.6935
  140MPD2     N 2185   0.110   3.849  13.473  0.1017  0.7354 -0.3562
  140MPD2    H5 2186   0.125   3.895  13.384  0.3708  0.0655 -0.6492
  140MPD2    N1 2187   4.371   3.965  13.411 -0.2581  0.0034 -0.4664
  140MPD2    H7 2188   4.276   3.933  13.426 -1.0116  3.1440  1.2882
  141TMC2    C1 2189   0.476   0.395  14.165  1.1032 -0.6171  0.2301
  141TMC2    C2 2190   0.421   0.381  14.288 -0.1080  0.1133  0.6412
  141TMC2    C3 2191   0.438   0.485  14.378 -0.5833 -0.2968 -0.5282
  141TMC2    C4 2192   0.554   0.507  14.133 -0.4702 -0.0735 -0.2669
  141TMC2    C5 2193   0.558   0.607  14.225  0.3228  0.7563 -0.2434
  141TMC2    C6 2194   0.510   0.594  14.354  0.1069  0.7916  0.3151
  141TMC2     C 2195   0.414   0.333  14.045 -0.1809  0.8253 -0.0363
  141TMC2     O 2196   0.463   0.358  13.934 -0.2117  1.4375 -0.3490
  141TMC2     H 2197   0.367   0.288  14.303 -0.1907  0.1925  0.8333
  141TMC2    H1 2198   0.600   0.521  14.036 -0.2352  1.2310  0.0309
  141TMC2    H2 2199   0.512   0.676  14.425  1.2976  1.1757 -0.1596
  141TMC2    C7 2200   0.648   0.717  14.188 -0.6441  0.7733 -0.8598
  141TMC2    C8 2201   0.397   0.469  14.518 -0.1586  0.7560 -0.6471
  141TMC2    O1 2202   0.733   0.692  14.101  0.1112 -0.2989 -0.1557
  141TMC2    O2 2203   0.442   0.533  14.610 -0.3870  0.5253 -0.1165
  141TMC2    O5 2204   0.337   0.347  14.529 -0.1779  0.2026  0.0803
  141TMC2    H5 2205   0.279   0.318  14.455 -0.9630  1.6104  0.1629
  142TMC2    C1 2206   3.534   4.611  10.115 -0.3543 -0.5727  0.1156
  142TMC2    C2 2207   3.636   4.568  10.041  0.4750  0.8206  0.0664
  142TMC2    C3 2208   3.729   4.658   9.992 -0.8027  0.1640  0.4902
  142TMC2    C4 2209   3.520   0.004  10.154  0.5470 -0.3889  0.2145
  142TMC2    C5 2210   3.622   0.092  10.112  0.4839 -0.2927  0.1143
  142TMC2    C6 2211   3.728   0.051  10.035 -0.2707 -0.0240 -0.4691
  142TMC2     C 2212   3.440   4.506  10.149  0.5927 -0.2137 -0.1615
  142TMC2     O 2213   3.436   4.411  10.070  0.7377  0.4051  0.2883
  142TMC2     H 2214   3.637   4.469   9.996  0.6371  0.1652  1.4951
  142TMC2    H1 2215   3.444   0.033  10.226  0.8489  1.2304 -0.1297
  142TMC2    H2 2216   3.818   0.109  10.018  0.3318 -0.6995  0.4565
  142TMC2    C7 2217   3.619   0.230  10.158  0.6577  0.3377 -0.0982
  142TMC2    C8 2218   3.828   4.618   9.888 -0.4706 -0.6571 -0.2704
  142TMC2    O1 2219   3.534   0.275  10.233  0.3465  0.5732  0.3025
  142TMC2    O2 2220   3.810   4.619   9.770 -0.3283 -0.0747  0.1257
  142TMC2    O5 2221   3.945   4.619   9.953 -0.6864  0.5245 -0.4089
  142TMC2    H5 2222   3.941   4.614  10.051  0.4143  0.1696 -0.3826
  143MPD2     C 2223   3.048   4.292  10.409  0.6554  0.0285 -0.1384
  143MPD2    C1 2224   3.138   4.234  10.318 -0.1568 -0.2728  0.2229
  143MPD2    C2 2225   3.238   4.319  10.268  0.0080  0.6480 -0.5041
  143MPD2    C3 2226   3.255   4.447  10.313  0.3132  0.0003  0.0478
  143MPD2    C4 2227   3.155   4.494  10.398 -0.0108  1.4169 -0.3079
  143MPD2    C5 2228   3.052   4.422  10.450 -0.2634 -0.1858 -0.8046
  143MPD2     H 2229   3.307   4.276  10.197  0.1462 -2.1217  1.3086
  143MPD2    H1 2230   3.142   4.599  10.422 -0.1204  0.9049  1.8219
  143MPD2    H2 2231   2.969   4.231  10.452  0.4432 -0.0601 -0.6565
  143MPD2    H3 2232   2.992   4.464  10.530  2.7841 -0.6127  1.7027
  143MPD2     N 2233   3.360   4.532  10.263 -0.4625 -0.3446  0.1680
  143MPD2    H5 2234   3.371   4.623  10.308  0.9219 -0.2160 -0.4177
  143MPD2    N1 2235   3.111   4.106  10.262 -0.0789 -0.3335 -0.4086
  143MPD2    H7 2236   3.035   4.054  10.304 -0.4928 -0.3023 -1.1276
  144TMC2    C1 2237   1.055   2.982   0.971 -0.1211  0.4252 -0.8032
  144TMC2    C2 2238   1.173   2.953   0.905  0.9482 -0.1868  0.5918
  144TMC2    C3 2239   1.280   3.025   0.961  0.1332  0.6044 -0.4075
  144TMC2    C4 2240   1.041   3.060   1.087 -0.0874  0.2457  0.9401
  144TMC2    C5 2241   1.155   3.129   1.125  0.2755  0.2756  0.3609
  144TMC2    C6 2242   1.274   3.108   1.063  0.0601 -0.5485 -0.3017
  144TMC2     C 2243   0.944   2.930   0.902 -0.4755 -0.7840  0.4987
  144TMC2     O 2244   0.973   2.847   0.821 -0.0563  0.4719 -0.0353
  144TMC2     H 2245   1.192   2.887   0.820 -0.5687 -0.8085  0.7298
  144TMC2    H1 2246   0.949   3.067   1.143  0.1446  1.4611  1.1579
  144TMC2    H2 2247   1.369   3.152   1.092 -1.6450  3.5117 -0.8951
  144TMC2    C7 2248   1.147   3.251   1.207  0.0734 -0.1490 -0.4967
  144TMC2    C8 2249   1.400   3.022   0.895  0.8876 -1.1216 -0.0401
  144TMC2    O1 2250   1.256   3.310   1.221  0.1261  0.0025  0.2200
  144TMC2    O2 2251   1.465   2.920   0.876  0.0119 -0.0495 -0.1767
  144TMC2    O5 2252   1.384   3.119   0.800 -0.0411 -0.3981 -0.3103
  144TMC2    H5 2253   1.303   3.172   0.819 -0.1354 -0.3378 -0.8816
  145MPD2     C 2254   0.459   2.917   0.749 -0.2767 -0.2079  0.0794
  145MPD2    C1 2255   0.563   2.838   0.707  0.3051 -0.3389  0.1201
  145MPD2    C2 2256   0.683   2.855   0.772 -0.0010 -0.1418  0.3712
  145MPD2    C3 2257   0.697   2.944   0.878  0.1569  0.1965  0.5619
  145MPD2    C4 2258   0.590   3.017   0.916 -0.2037 -0.0072 -0.6717
  145MPD2    C5 2259   0.470   3.003   0.855 -0.4831  0.1420  0.0607
  145MPD2     H 2260   0.772   2.810   0.730  0.2300 -0.0561  0.7687
  145MPD2    H1 2261   0.594   3.089   0.998 -0.1112 -0.0154 -0.6691
  145MPD2    H2 2262   0.358   2.912   0.710 -0.6190  0.0455  0.9403
  145MPD2    H3 2263   0.391   3.069   0.887 -2.1606 -0.9502 -1.8744
  145MPD2     N 2264   0.824   2.975   0.938 -0.3429 -0.5221  0.2906
  145MPD2    H5 2265   0.809   3.043   1.012 -1.7343  0.8529 -1.2678
  145MPD2    N1 2266   0.563   2.766   0.582 -0.2936 -0.1828  0.1067
  145MPD2    H7 2267   0.649   2.715   0.561 -1.2366 -1.5817 -0.4020
  146TMC2    C1 2268   3.323   2.097  12.455  0.4450  0.2212  0.2513
  146TMC2    C2 2269   3.377   2.185  12.357 -0.4269 -0.2636  0.2670
  146TMC2    C3 2270   3.516   2.188  12.347 -0.0259  0.2740  0.0498
  146TMC2    C4 2271   3.409   2.019  12.525  0.1615  0.4950  0.0103
  146TMC2    C5 2272   3.547   2.023  12.502  0.7339 -0.1031  0.5640
  146TMC2    C6 2273   3.604   2.104  12.412  0.5626 -0.0329 -0.3120
  146TMC2     C 2274   3.183   2.100  12.477 -0.1959  0.3686 -0.1755
  146TMC2     O 2275   3.121   2.165  12.393 -0.1306  0.3236  0.2545
  146TMC2     H 2276   3.315   2.256  12.302 -0.4144  1.0779  1.9978
  146TMC2    H1 2277   3.378   1.965  12.614  1.1499  0.0515  0.0857
  146TMC2    H2 2278   3.711   2.104  12.395  0.4483 -1.0911 -1.0229
  146TMC2    C7 2279   3.620   1.898  12.517  0.2639 -0.4219 -0.2521
  146TMC2    C8 2280   3.563   2.268  12.236  1.2500  0.0068 -0.2768
  146TMC2    O1 2281   3.738   1.905  12.499  0.2595 -0.0216  0.1163
  146TMC2    O2 2282   3.493   2.309  12.147  0.0463  0.1620  0.1805
  146TMC2    O5 2283   3.696   2.287  12.233  0.0914 -0.3998 -0.0412
  146TMC2    H5 2284   3.726   2.279  12.327 -1.0887  1.9394  0.5123
  147MPD2     C 2285   3.617   1.387  12.483  0.1774 -0.6362 -0.1273
  147MPD2    C1 2286   3.513   1.424  12.568 -1.1096  0.8466 -0.4976
  147MPD2    C2 2287   3.497   1.559  12.597 -0.5894  0.0385  0.0131
  147MPD2    C3 2288   3.573   1.651  12.532 -0.2686 -0.2221  0.3342
  147MPD2    C4 2289   3.676   1.611  12.455  0.0434  0.3778  0.3738
  147MPD2    C5 2290   3.702   1.478  12.432 -0.3809  0.3522 -0.6461
  147MPD2     H 2291   3.416   1.594  12.660 -1.0406  1.3008 -1.2450
  147MPD2    H1 2292   3.748   1.680  12.411  0.4788 -0.9980 -1.0805
  147MPD2    H2 2293   3.631   1.282  12.463  2.0207 -0.2896 -0.6657
  147MPD2    H3 2294   3.782   1.451  12.364 -0.8857  1.1045 -1.5413
  147MPD2     N 2295   3.544   1.790  12.547  0.6716  0.0419 -0.1013
  147MPD2    H5 2296   3.455   1.797  12.596  1.0915 -1.6837  0.9142
  147MPD2    N1 2297   3.436   1.320  12.624 -0.5746  0.7082  0.2475
  147MPD2    H7 2298   3.443   1.223  12.596 -0.2938  0.5015  1.0278
  148TMC2    C1 2299   2.749   1.128  10.653  0.1335 -0.0655 -0.2578
  148TMC2    C2 2300   2.830   1.209  10.730  0.3546  1.0748 -0.2884
  148TMC2    C3 2301   2.898   1.146  10.833 -0.7296  0.5213  0.4388
  148TMC2    C4 2302   2.741   0.996  10.675  0.0286  0.5807 -0.4317
  148TMC2    C5 2303   2.803   0.936  10.780 -0.9615 -0.2533  0.0164
  148TMC2    C6 2304   2.894   1.005  10.849 -0.0812  0.0669 -0.1659
  148TMC2     C 2305   2.662   1.195  10.561 -0.1075  0.3944  0.0704
  148TMC2     O 2306   2.677   1.313  10.536  0.0251  0.3320  0.4557
  148TMC2     H 2307   2.829   1.315  10.709  4.4824  0.8797 -1.4875
  148TMC2    H1 2308   2.687   0.933  10.605  0.2144 -0.9234  0.7706
  148TMC2    H2 2309   2.945   0.954  10.929  0.5778  0.3883 -0.3782
  148TMC2    C7 2310   2.761   0.796  10.796  0.3587 -0.4056  0.3174
  148TMC2    C8 2311   3.000   1.222  10.907  0.1755 -0.4261 -0.1703
  148TMC2    O1 2312   2.730   0.724  10.702  0.0791 -0.6648 -0.3198
  148TMC2    O2 2313   3.057   1.321  10.867  0.2904  0.0200 -0.1987
  148TMC2    O5 2314   2.966   1.204  11.038  0.1355  0.2657 -0.4594
  148TMC2    H5 2315   2.913   1.124  11.058 -1.5837  1.3286 -0.7886
  149MPD2     C 2316   2.466   1.230  10.345 -0.7013  0.5062  0.2829
  149MPD2    C1 2317   2.469   1.116  10.425 -0.3587  0.0943  0.6987
  149MPD2    C2 2318   2.382   1.008  10.399 -0.0403  0.1654 -0.1323
  149MPD2    C3 2319   2.289   1.015  10.301  0.1392 -0.4489  0.2312
  149MPD2    C4 2320   2.279   1.134  10.225  0.1680  0.5154 -1.1162
  149MPD2    C5 2321   2.366   1.243  10.252 -0.3071 -0.2189 -0.2691
  149MPD2     H 2322   2.390   0.919  10.460 -0.4977  2.5421  3.4692
  149MPD2    H1 2323   2.212   1.155  10.142  0.8647  1.2375 -1.5002
  149MPD2    H2 2324   2.535   1.314  10.349 -0.4747  0.3608 -0.5429
  149MPD2    H3 2325   2.382   1.329  10.188  0.8119  0.6739  1.2016
  149MPD2     N 2326   2.220   0.896  10.260 -0.6446  0.3999 -0.5617
  149MPD2    H5 2327   2.151   0.917  10.188 -1.5038  0.5218  0.2899
  149MPD2    N1 2328   2.561   1.109  10.527  0.1792 -0.3692  0.0756
  149MPD2    H7 2329   2.564   1.029  10.590 -2.3612 -0.4684  0.0681
  150TMC2    C1 2330   3.660   3.576  12.710 -0.5777  0.0280 -0.5816
  150TMC2    C2 2331   3.672   3.466  12.621 -0.3414 -0.4867  0.3533
  150TMC2    C3 2332   3.801   3.430  12.600 -0.1953 -0.3633 -0.4779
  150TMC2    C4 2333   3.756   3.639  12.784  0.6713 -1.0325 -0.5665
  150TMC2    C5 2334   3.880   3.604  12.742 -0.4103  0.0006  0.5296
  150TMC2    C6 2335   3.909   3.504  12.647 -0.4217 -0.9968  0.0395
  150TMC2     C 2336   3.552   3.660  12.691  0.9746 -0.1010 -0.3334
  150TMC2     O 2337   3.490   3.708  12.784  0.2235 -0.0994  0.6841
  150TMC2     H 2338   3.588   3.430  12.563  0.3010  0.7589 -1.3844
  150TMC2    H1 2339   3.741   3.724  12.850 -1.4660 -0.2235 -2.0899
  150TMC2    H2 2340   4.007   3.488  12.605 -0.9405 -1.4203 -1.0110
  150TMC2    C7 2341   3.971   3.713  12.761 -0.2849 -0.6283  0.2687
  150TMC2    C8 2342   3.814   3.342  12.488  0.1233  0.4741 -0.9469
  150TMC2    O1 2343   3.928   3.825  12.780  0.3710 -0.7893  0.0880
  150TMC2    O2 2344   3.893   3.367  12.399 -0.4796 -0.3247 -0.5587
  150TMC2    O5 2345   3.709   3.256  12.477  0.6846 -0.2911  0.4629
  150TMC2    H5 2346   3.651   3.241  12.555  1.2957  0.9074  1.1456
  151MPD2     C 2347   3.279   3.964  12.379 -0.1162  0.2087 -0.0023
  151MPD2    C1 2348   3.351   3.869  12.304  0.0623 -0.2708 -0.2730
  151MPD2    C2 2349   3.433   3.774  12.371 -0.1039  0.5566 -0.3298
  151MPD2    C3 2350   3.455   3.791  12.507  0.2433 -0.4131 -0.7505
  151MPD2    C4 2351   3.378   3.883  12.582  0.6498 -0.1110 -0.6414
  151MPD2    C5 2352   3.295   3.967  12.512 -0.0657  0.1002  0.2245
  151MPD2     H 2353   3.492   3.693  12.330  0.6603  1.0902 -0.2874
  151MPD2    H1 2354   3.391   3.903  12.688 -0.1733  0.3482 -0.6252
  151MPD2    H2 2355   3.215   4.037  12.330  1.2081 -0.6826 -3.0957
  151MPD2    H3 2356   3.230   4.032  12.570  0.1315 -0.0106  0.5694
  151MPD2     N 2357   3.538   3.692  12.560 -0.2571  0.0448 -0.0489
  151MPD2    H5 2358   3.595   3.652  12.487  1.3821 -0.2496  1.3869
  151MPD2    N1 2359   3.352   3.888  12.167  0.4983  0.0580 -0.3407
  151MPD2    H7 2360   3.293   3.962  12.132 -0.8608 -0.8737 -0.0055
  152TMC2    C1 2361   4.182   4.526  12.949  0.5668 -0.2128 -0.5435
  152TMC2    C2 2362   4.219   4.515  13.086 -0.6092  0.0456  0.9722
  152TMC2    C3 2363   4.353   4.532  13.117 -0.4733 -0.0360 -0.1302
  152TMC2    C4 2364   4.274   4.554  12.850 -0.1998 -0.0632  0.2995
  152TMC2    C5 2365   4.407   4.566  12.893 -0.2569 -0.0240 -0.1930
  152TMC2    C6 2366   4.446   4.562  13.022  0.0491 -0.3655 -0.7018
  152TMC2     C 2367   4.041   4.509  12.912  0.6350  0.3565 -0.5873
  152TMC2     O 2368   4.021   4.477  12.795 -0.3958  0.3444 -0.5738
  152TMC2     H 2369   4.152   4.495  13.169 -1.0199  1.3593  0.9538
  152TMC2    H1 2370   4.230   4.572  12.752  1.1247  1.2785 -0.0477
  152TMC2    H2 2371   4.553   4.562  13.042 -0.5030  0.8524  2.1397
  152TMC2    C7 2372   4.509   4.568  12.792  0.9554 -0.0554  0.6508
  152TMC2    C8 2373   4.383   4.515  13.258  0.2311 -0.2898 -0.2313
  152TMC2    O1 2374   4.463   4.536  12.684 -0.2993 -0.3007 -0.5363
  152TMC2    O2 2375   4.333   4.428  13.329  0.0574 -0.1213 -0.3048
  152TMC2    O5 2376   4.487   4.593  13.291 -0.0454  0.4392 -0.7161
  152TMC2    H5 2377   4.501   4.663  13.224 -1.6494  0.4589 -1.0278
  153MPD2     C 2378   3.749   4.595  13.106  0.1528 -0.1395  0.1691
  153MPD2    C1 2379   3.814   4.535  13.001  0.2775  0.6804 -0.2858
  153MPD2    C2 2380   3.741   4.486  12.890 -0.0912  0.1440 -0.6473
  153MPD2    C3 2381   3.607   4.508  12.885 -0.1134  0.2811 -0.0447
  153MPD2    C4 2382   3.541   4.575  12.985 -0.0001  0.5935  0.1397
  153MPD2    C5 2383   3.615   4.628  13.090 -0.4233 -0.3235  0.4017
  153MPD2     H 2384   3.786   4.425  12.813 -1.6133 -1.0359 -0.5966
  153MPD2    H1 2385   3.437   4.606  12.977  0.5587  2.0427 -1.6829
  153MPD2    H2 2386   3.798   4.639  13.193 -1.3354 -0.2913  1.0949
  153MPD2    H3 2387   3.564   4.692  13.162 -2.4490 -0.5030 -0.8693
  153MPD2     N 2388   3.541   4.458  12.773  0.6690 -0.2201  0.0854
  153MPD2    H5 2389   3.596   4.423  12.696  1.5374 -0.3201  0.7576
  153MPD2    N1 2390   3.956   4.523  13.015  0.9540  0.4101  0.1204
  153MPD2    H7 2391   3.994   4.564  13.100 -1.4626  0.5823  1.1173
  154TMC2    C1 2392   0.072   4.182  17.621 -0.1184 -0.1645  0.1851
  154TMC2    C2 2393   0.036   4.165  17.492  0.5838  0.0657  0.6456
  154TMC2    C3 2394   0.067   4.046  17.439  0.5632 -0.2039 -0.1981
  154TMC2    C4 2395   0.146   4.086  17.682 -0.1446  0.5828  0.3929
  154TMC2    C5 2396   0.162   3.958  17.626 -0.4566 -0.2830  0.3878
  154TMC2    C6 2397   0.118   3.936  17.500 -0.6815 -0.3537 -0.1311
  154TMC2     C 2398   0.041   4.304  17.695  0.2238 -0.4150  0.2251
  154TMC2     O 2399   0.030   4.296   0.071  0.0829 -0.2295 -0.4449
  154TMC2     H 2400   4.725   4.242  17.432 -0.3328 -1.0420 -0.0442
  154TMC2    H1 2401   0.180   4.094   0.042  0.0857  0.2566  0.3408
  154TMC2    H2 2402   0.136   3.849  17.437 -1.0645  0.7484 -1.7447
  154TMC2    C7 2403   0.246   3.852  17.699  0.1564  1.0850 -0.2561
  154TMC2    C8 2404   0.021   4.030  17.302 -1.2597  0.0311  0.3446
  154TMC2    O1 2405   0.305   3.891   0.056  0.3373 -0.0259 -0.1287
  154TMC2    O2 2406   4.679   4.107  17.250  0.6121  0.0669  0.0839
  154TMC2    O5 2407   0.132   3.998  17.234  0.4113  0.5460  0.1414
  154TMC2    H5 2408   0.207   3.981  17.294  1.5949 -1.0445 -1.7867
  155MPD2     C 2409   4.735   4.629  17.549  0.0911 -0.1664  0.3656
  155MPD2    C1 2410   4.733   4.543  17.645  0.0949 -0.2035  0.5388
  155MPD2    C2 2411   4.718   4.586   0.036  0.2909 -0.0568  0.6914
  155MPD2    C3 2412   4.711   4.720   0.074 -0.5804  0.7043 -0.1182
  155MPD2    C4 2413   4.711   0.074  17.711  0.7413 -0.4822  0.3132
  155MPD2    C5 2414   4.719   0.028  17.582 -0.5999  0.1678  0.1734
  155MPD2     H 2415   4.715   4.508   0.112 -0.6586 -1.9378 -1.2779
  155MPD2    H1 2416   4.705   0.181  17.726 -1.6278 -0.3650 -1.3861
  155MPD2    H2 2417   0.000   4.607  17.443 -1.9337  1.4291  0.0059
  155MPD2    H3 2418   4.705   0.099  17.502  1.0358  0.3612  0.0761
  155MPD2     N 2419   4.705   0.018   0.214  0.2879 -0.6104  0.3578
  155MPD2    H5 2420   4.712   4.684   0.286 -0.3136 -1.5396 -0.4927
  155MPD2    N1 2421   0.025   4.408  17.613 -0.7784 -0.2805 -0.3209
  155MPD2    H7 2422   0.034   4.387  17.514  1.3459 -1.8023  0.1976
  156TMC2    C1 2423   4.158   1.883  12.244  0.1354  0.1067 -0.7702
  156TMC2    C2 2424   4.035   1.814  12.237  0.3065  0.3748  0.5012
  156TMC2    C3 2425   3.926   1.867  12.175  0.3659  0.2180 -0.3360
  156TMC2    C4 2426   4.168   1.994  12.165 -0.0842 -0.5426  0.2559
  156TMC2    C5 2427   4.052   2.050  12.114 -0.0549 -0.2613 -0.0523
  156TMC2    C6 2428   3.928   1.992  12.123 -0.0855 -0.2234  0.5322
  156TMC2     C 2429   4.284   1.804  12.280  0.0389 -0.4631  0.4917
  156TMC2     O 2430   4.382   1.835  12.211 -0.0183 -0.0218 -0.1810
  156TMC2     H 2431   4.029   1.714  12.280  0.1349 -0.5099 -1.5612
  156TMC2    H1 2432   4.265   2.035  12.139 -0.0391 -0.6549  0.2478
  156TMC2    H2 2433   3.839   2.044  12.090  1.8731  2.7326 -0.0295
  156TMC2    C7 2434   4.068   2.185  12.060  0.4856 -0.5282  0.8798
  156TMC2    C8 2435   3.801   1.799  12.173 -0.8206  0.1581 -0.4769
  156TMC2    O1 2436   4.170   2.243  12.098 -0.5350 -0.2838 -0.2048
  156TMC2    O2 2437   3.695   1.863  12.170 -0.5554  0.7133  0.0701
  156TMC2    O5 2438   3.832   1.699  12.088 -0.1389 -0.3306 -0.1367
  156TMC2    H5 2439   3.925   1.671  12.076 -0.7266 -2.6729  0.8735
  157MPD2     C 2440   4.343   1.518  12.504  0.6012  0.4292  0.0728
  157MPD2    C1 2441   4.373   1.627  12.424  0.4041  0.6590  0.6681
  157MPD2    C2 2442   4.509   1.661  12.400  0.1882  0.1429 -0.1754
  157MPD2    C3 2443   4.605   1.594  12.465  0.5648 -0.5984  0.1476
  157MPD2    C4 2444   4.575   1.491  12.552 -0.0439  0.0476 -0.0659
  157MPD2    C5 2445   4.443   1.453  12.567 -0.4796  0.1829  0.2156
  157MPD2     H 2446   4.537   1.745  12.337  1.6878  0.9523  1.5736
  157MPD2    H1 2447   4.649   1.435  12.609 -0.6168 -0.0946  0.5427
  157MPD2    H2 2448   4.242   1.493  12.536  0.8644 -0.7079  0.0280
  157MPD2    H3 2449   4.434   1.352  12.605 -0.5042  1.2101  2.9225
  157MPD2     N 2450   0.003   1.634  12.443  0.0067  0.6453  0.2616
  157MPD2    H5 2451   0.011   1.714  12.381  1.0394  1.3894  1.3622
  157MPD2    N1 2452   4.268   1.700  12.371  0.0357 -0.2266 -0.2288
  157MPD2    H7 2453   4.177   1.671  12.407 -0.6166  0.3595 -1.3882
  158TMC2    C1 2454   4.569   0.934  13.509  0.0261  0.3506  0.0532
  158TMC2    C2 2455   4.614   1.047  13.448  0.4195 -0.3863  0.3617
  158TMC2    C3 2456   4.531   1.108  13.355  0.4322 -0.3362 -0.0005
  158TMC2    C4 2457   4.453   0.877  13.469  0.5565  0.5995 -0.5012
  158TMC2    C5 2458   4.362   0.938  13.383  0.1349  0.2017 -0.0465
  158TMC2    C6 2459   4.403   1.059  13.331 -0.6843  0.3827 -0.3606
  158TMC2     C 2460   4.651   0.881  13.619 -0.1572  0.1454  0.5016
  158TMC2     O 2461   0.029   0.924  13.611 -0.2377 -0.6395 -0.5680
  158TMC2     H 2462   4.719   1.076  13.452  0.0075  1.0098  1.3805
  158TMC2    H1 2463   4.438   0.777  13.509  2.3250  0.7168  0.4707
  158TMC2    H2 2464   4.329   1.111  13.271 -1.8680  0.0527  0.7985
  158TMC2    C7 2465   4.299   0.846  13.287 -0.3107  0.2619  0.7827
  158TMC2    C8 2466   4.563   1.242  13.299 -0.2528  0.3512 -0.0479
  158TMC2    O1 2467   4.293   0.885  13.167  0.1243 -0.2399 -0.3086
  158TMC2    O2 2468   4.681   1.274  13.304 -0.5522 -0.0699 -0.0159
  158TMC2    O5 2469   4.462   1.326  13.342 -0.2078 -0.2643  0.3045
  158TMC2    H5 2470   4.378   1.285  13.370  0.1593 -0.7141  0.7525
  159MPD2     C 2471   4.696   0.806  14.128  0.2372  0.6672 -0.6644
  159MPD2    C1 2472   4.581   0.736  14.085  0.1818 -0.5475  1.2769
  159MPD2    C2 2473   4.549   0.744  13.953 -0.0180  0.4125  0.3148
  159MPD2    C3 2474   4.628   0.805  13.854 -0.4549 -0.2579  0.3278
  159MPD2    C4 2475   0.012   0.861  13.892  0.1555  0.2210 -0.0023
  159MPD2    C5 2476   0.041   0.860  14.026 -0.0021 -0.0747  0.3144
  159MPD2     H 2477   4.448   0.719  13.925 -0.0166  0.4714  0.2546
  159MPD2    H1 2478   0.083   0.894  13.817 -0.6778  0.3628 -0.7265
  159MPD2    H2 2479   4.728   0.797  14.231  0.2748 -1.6210 -0.8860
  159MPD2    H3 2480   0.137   0.901  14.056  0.6959 -0.6263 -1.1438
  159MPD2     N 2481   4.585   0.813  13.720  0.0559 -0.2020 -0.1727
  159MPD2    H5 2482   4.491   0.777  13.704 -0.7677  0.7144  2.5730
  159MPD2    N1 2483   4.501   0.661  14.182 -0.0681 -0.2966 -0.3620
  159MPD2    H7 2484   4.537   0.675  14.276  0.7629 -1.8167 -0.4579
  160TMC2    C1 2485   3.411   3.218   1.460  0.4722 -0.2230 -0.6042
  160TMC2    C2 2486   3.282   3.188   1.425  0.5323  0.8151  0.1174
  160TMC2    C3 2487   3.264   3.102   1.324  0.5253  0.6166  0.0386
  160TMC2    C4 2488   3.524   3.153   1.400 -0.5252  0.0429  0.0537
  160TMC2    C5 2489   3.497   3.065   1.305  0.5415 -0.0550  0.4387
  160TMC2    C6 2490   3.370   3.038   1.267 -0.0457  0.4332 -0.3224
  160TMC2     C 2491   3.438   3.347   1.518  0.2396  0.3771  0.2898
  160TMC2     O 2492   3.545   3.356   1.578  0.1047  0.2080  0.0797
  160TMC2     H 2493   3.206   3.255   1.465  0.6494  0.3502  1.1269
  160TMC2    H1 2494   3.626   3.165   1.434  0.0052  0.0880 -1.5997
  160TMC2    H2 2495   3.346   2.970   1.186  1.8631  0.6975 -1.1169
  160TMC2    C7 2496   3.593   3.039   1.206  0.1302  0.1570 -0.3419
  160TMC2    C8 2497   3.130   3.078   1.274  0.0409 -0.3740  0.2153
  160TMC2    O1 2498   3.576   2.927   1.155  0.0891 -0.0727 -0.2555
  160TMC2    O2 2499   3.098   2.977   1.221 -0.2154 -0.4634 -0.4222
  160TMC2    O5 2500   3.067   3.195   1.248 -0.0776 -0.4608 -0.7403
  160TMC2    H5 2501   3.130   3.267   1.223 -1.7220  1.9205  1.8904
  161MPD2     C 2502   3.440   3.639   1.591  0.5582  0.5691 -0.4746
  161MPD2    C1 2503   3.364   3.586   1.483 -1.0442 -0.1245  0.0903
  161MPD2    C2 2504   3.299   3.666   1.388 -0.6280  0.2733  0.6159
  161MPD2    C3 2505   3.293   3.801   1.405  0.5212  0.0097  0.9251
  161MPD2    C4 2506   3.355   3.847   1.520 -0.0842 -0.5924 -0.1796
  161MPD2    C5 2507   3.424   3.774   1.606  0.2215  0.0767  0.5564
  161MPD2     H 2508   3.253   3.625   1.298 -0.9657  1.3013  0.3176
  161MPD2    H1 2509   3.357   3.953   1.543 -0.1848 -0.5304 -0.4586
  161MPD2    H2 2510   3.499   3.575   1.656  1.0941  1.4821 -0.0636
  161MPD2    H3 2511   3.472   3.827   1.687 -1.3637 -0.4147  1.8148
  161MPD2     N 2512   3.229   3.897   1.318 -0.1371  0.4835 -0.2978
  161MPD2    H5 2513   3.227   3.997   1.333 -2.2044  0.7938 -2.5606
  161MPD2    N1 2514   3.363   3.447   1.460 -0.0120 -0.0823  0.1869
  161MPD2    H7 2515   3.298   3.416   1.388 -0.1900  1.3140 -0.2624
  162TMC2    C1 2516   1.521   0.909   1.191  0.6519 -1.0687 -0.9523
  162TMC2    C2 2517   1.414   0.825   1.220 -0.9595  0.2744 -0.4081
  162TMC2    C3 2518   1.432   0.719   1.301  0.2935  0.5924 -0.2074
  162TMC2    C4 2519   1.635   0.881   1.258  0.1372 -0.1993  0.2911
  162TMC2    C5 2520   1.656   0.762   1.326 -0.5063 -0.7715 -0.5884
  162TMC2    C6 2521   1.551   0.678   1.347  0.2580  0.5061  0.5803
  162TMC2     C 2522   1.532   0.954   1.055 -0.4524 -0.3893 -0.4398
  162TMC2     O 2523   1.454   0.910   0.971 -0.0544 -0.1255 -0.2926
  162TMC2     H 2524   1.316   0.840   1.175 -0.9262 -0.8399 -0.8547
  162TMC2    H1 2525   1.729   0.922   1.224 -0.3198  0.0734 -0.6531
  162TMC2    H2 2526   1.572   0.593   1.412  0.9228  0.9934  1.0070
  162TMC2    C7 2527   1.777   0.742   1.391 -0.4145 -0.6705 -0.5262
  162TMC2    C8 2528   1.341   0.603   1.301  0.5012  0.8681 -0.0910
  162TMC2    O1 2529   1.839   0.842   1.422 -0.3031  0.1210  0.0317
  162TMC2    O2 2530   1.375   0.490   1.339  0.0826 -0.7682  0.1252
  162TMC2    O5 2531   1.226   0.667   1.305  0.0670 -0.4703  0.4737
  162TMC2    H5 2532   1.225   0.764   1.320 -0.0552 -0.5062  0.7094
  163MPD2     C 2533   1.799   1.169   0.668 -0.3642 -0.2135  0.0025
  163MPD2    C1 2534   1.719   1.057   0.678  0.1102  0.8707  0.1076
  163MPD2    C2 2535   1.641   1.027   0.788  0.7591 -0.5572 -0.7855
  163MPD2    C3 2536   1.673   1.092   0.905  0.2695 -0.1684 -0.3214
  163MPD2    C4 2537   1.755   1.201   0.905 -0.1015  0.2291  0.1492
  163MPD2    C5 2538   1.809   1.239   0.785  0.2212  0.7285 -0.0168
  163MPD2     H 2539   1.563   0.952   0.787 -0.8968  1.1719  0.1820
  163MPD2    H1 2540   1.780   1.254   0.996 -1.3476 -3.2696  2.5448
  163MPD2    H2 2541   1.846   1.196   0.574  0.6124 -2.3543 -0.1346
  163MPD2    H3 2542   1.872   1.327   0.791 -0.0254  0.8980  0.1228
  163MPD2     N 2543   1.630   1.051   1.036  0.1257 -0.1345  0.6792
  163MPD2    H5 2544   1.665   1.089   1.123  3.5522  0.0599 -0.8116
  163MPD2    N1 2545   1.716   0.977   0.565 -0.1609 -0.5211 -0.3870
  163MPD2    H7 2546   1.790   0.999   0.498 -0.4548 -1.3141 -0.9678
  164TMC2    C1 2547   3.079   0.430  11.470  0.2905 -0.2348 -0.3929
  164TMC2    C2 2548   3.157   0.419  11.581  0.9884 -0.0862 -0.0198
  164TMC2    C3 2549   3.126   0.503  11.684 -0.2264  0.1580 -0.1139
  164TMC2    C4 2550   2.975   0.523  11.466 -0.2552 -0.1561 -0.4334
  164TMC2    C5 2551   2.953   0.610  11.566  0.3324  0.2119 -0.3286
  164TMC2    C6 2552   3.030   0.603  11.677 -0.2100  0.2753  0.2157
  164TMC2     C 2553   3.088   0.322  11.374 -0.2900  0.4893  0.4134
  164TMC2     O 2554   2.983   0.286  11.318  0.1053 -0.2514  0.2616
  164TMC2     H 2555   3.225   0.335  11.589 -0.0677 -1.1993 -2.7021
  164TMC2    H1 2556   2.931   0.515  11.367  1.4468 -0.2118 -1.1921
  164TMC2    H2 2557   3.007   0.658  11.768 -2.8956 -0.2556 -0.1547
  164TMC2    C7 2558   2.870   0.732  11.532  0.2061 -0.1045 -0.0196
  164TMC2    C8 2559   3.196   0.476  11.808  0.1017  0.2975 -0.0220
  164TMC2    O1 2560   2.838   0.758  11.418  0.0962  0.3076 -0.3560
  164TMC2    O2 2561   3.291   0.402  11.815 -0.2452 -0.7024 -0.7021
  164TMC2    O5 2562   3.102   0.483  11.900  0.1917  0.3274  0.3170
  164TMC2    H5 2563   3.019   0.523  11.867  1.9258  0.7359 -3.5758
  165TMC2    C1 2564   2.821   2.661   0.904 -0.5306 -0.1014 -0.3331
  165TMC2    C2 2565   2.827   2.654   0.769 -0.2677  0.4318 -0.4692
  165TMC2    C3 2566   2.960   2.663   0.718  0.3682  0.1369 -0.6143
  165TMC2    C4 2567   2.932   2.667   0.993  0.3507 -0.4960  0.4790
  165TMC2    C5 2568   3.053   2.658   0.936  0.4980  0.4983 -0.0368
  165TMC2    C6 2569   3.068   2.650   0.800  0.0012 -0.1788 -0.2499
  165TMC2     C 2570   2.692   2.683   0.968 -0.7710  0.4414 -0.1221
  165TMC2     O 2571   2.684   2.664   1.090 -0.1400 -0.3292 -0.2912
  165TMC2     H 2572   2.740   2.632   0.709 -1.3153  1.3870  0.7090
  165TMC2    H1 2573   2.912   2.671   1.099  1.1045 -1.0059  0.6433
  165TMC2    H2 2574   3.171   2.651   0.766 -0.2448  1.4943 -0.9611
  165TMC2    C7 2575   3.173   2.650   1.016 -0.9433 -0.6078 -0.8148
  165TMC2    C8 2576   2.980   2.703   0.575 -0.5073  0.2274 -0.0749
  165TMC2    O1 2577   3.278   2.644   0.955  0.0143 -0.3283 -0.9955
  165TMC2    O2 2578   2.896   2.686   0.490  0.3320 -0.3690 -0.2517
  165TMC2    O5 2579   3.023   2.829   0.594  0.1330  0.4145  0.1706
  165TMC2    H5 2580   3.061   2.841   0.683  0.2759 -0.3647  0.2115
  166MPD2     C 2581   2.180   2.735   0.954  0.4951 -0.4554  0.5242
  166MPD2    C1 2582   2.270   2.680   1.042 -0.1514 -0.5523  0.1965
  166MPD2    C2 2583   2.401   2.677   1.010  0.0791  0.1456 -0.2474
  166MPD2    C3 2584   2.461   2.741   0.902 -0.1061  0.1521 -0.0793
  166MPD2    C4 2585   2.369   2.800   0.818  0.3022 -0.7159  0.0119
  166MPD2    C5 2586   2.233   2.803   0.841  0.0245  0.5632 -0.4414
  166MPD2     H 2587   2.466   2.635   1.085  0.4455 -0.7624 -1.0617
  166MPD2    H1 2588   2.407   2.837   0.724 -0.8504  0.9654  0.2079
  166MPD2    H2 2589   2.072   2.727   0.964  0.2447  0.8661 -1.0706
  166MPD2    H3 2590   2.162   2.846   0.771  0.7609  0.3434 -1.3164
  166MPD2     N 2591   2.602   2.736   0.880  0.7504 -0.5623 -0.0897
  166MPD2    H5 2592   2.628   2.769   0.788  0.4355  0.0547  0.0398
  166MPD2    N1 2593   2.233   2.609   1.161  0.5226  0.6853  0.1883
  166MPD2    H7 2594   2.312   2.573   1.213  0.0467  0.3708  0.7078
  167TMC2    C1 2595   2.213   0.644  12.792 -0.1850  0.3023  1.0090
  167TMC2    C2 2596   2.102   0.694  12.845  0.3082 -0.5408 -0.3920
  167TMC2    C3 2597   2.007   0.613  12.903 -0.5486  0.3668 -0.0911
  167TMC2    C4 2598   2.244   0.515  12.822 -0.4883 -0.2899  0.1011
  167TMC2    C5 2599   2.151   0.434  12.893  0.3931  0.1423 -0.2569
  167TMC2    C6 2600   2.029   0.479  12.927 -0.6613  0.1324  0.0122
  167TMC2     C 2601   2.297   0.730  12.717  0.0445 -0.0316  0.2303
  167TMC2     O 2602   2.279   0.851  12.735  0.1832  0.4965  0.6733
  167TMC2     H 2603   2.077   0.799  12.843 -0.2994 -0.6019  3.1958
  167TMC2    H1 2604   2.344   0.478  12.803  0.3505  1.4438  1.1079
  167TMC2    H2 2605   1.965   0.416  12.987  0.0362  0.1406  0.7769
  167TMC2    C7 2606   2.157   0.286  12.888  0.0866 -0.3728  0.1174
  167TMC2    C8 2607   1.902   0.677  12.981  0.3137  0.0573 -0.2558
  167TMC2    O1 2608   2.050   0.230  12.919 -0.8773  0.0431  0.4967
  167TMC2    O2 2609   1.790   0.625  12.989  0.0604 -0.1410 -0.5212
  167TMC2    O5 2610   1.951   0.775  13.061  0.1805  0.9804 -0.2421
  167TMC2    H5 2611   2.040   0.811  13.041  0.7325 -1.3084 -1.8721
  168MPD2     C 2612   2.520   0.871  12.583  0.5650 -0.3808  0.3949
  168MPD2    C1 2613   2.491   0.737  12.568 -0.1623 -0.5446  0.3749
  168MPD2    C2 2614   2.577   0.659  12.494  0.1942  0.4137 -0.0319
  168MPD2    C3 2615   2.688   0.708  12.428  0.0169 -0.8891 -0.6479
  168MPD2    C4 2616   2.712   0.848  12.439 -0.2546 -0.3240 -0.3920
  168MPD2    C5 2617   2.628   0.927  12.518 -0.1838  0.3514 -0.0966
  168MPD2     H 2618   2.554   0.553  12.498  0.1451  0.3632 -1.5884
  168MPD2    H1 2619   2.790   0.892  12.378  1.1463 -1.5580  0.5015
  168MPD2    H2 2620   2.455   0.943  12.632  0.3827  1.9680 -3.2618
  168MPD2    H3 2621   2.658   1.031  12.526 -3.0770  1.0684  1.4950
  168MPD2     N 2622   2.765   0.623  12.352  0.2080  0.3116 -0.1658
  168MPD2    H5 2623   2.832   0.669  12.291 -0.8656  1.3233 -0.5808
  168MPD2    N1 2624   2.380   0.671  12.625  0.2643 -0.2607  0.4035
  168MPD2    H7 2625   2.366   0.572  12.612 -1.7586  0.3589 -2.2666
  169MPD1     C 2626   4.209   0.519   9.003  0.0589  0.6043  0.5849
  169MPD1    C1 2627   4.195   0.383   9.016 -0.0727  0.0926  0.0431
  169MPD1    C2 2628   4.290   0.307   9.076  0.2135 -0.1866  1.2272
  169MPD1    C3 2629   4.394   0.363   9.143  0.2417 -0.5158 -0.5755
  169MPD1    C4 2630   4.402   0.501   9.133 -0.1653 -0.5431 -0.0994
  169MPD1    C5 2631   4.316   0.576   9.061 -0.0617 -0.4716 -0.0625
  169MPD1     H 2632   4.283   0.199   9.068 -1.6638  0.1036 -0.7948
  169MPD1    H1 2633   4.480   0.555   9.185 -0.2974 -1.3718  0.9393
  169MPD1    H2 2634   4.130   0.584   8.967 -0.8874 -0.0789  1.4092
  169MPD1    H3 2635   4.335   0.682   9.046 -1.6603 -0.1565  0.1355
  169MPD1     N 2636   4.481   0.286   9.218  0.6387  0.4209  0.1417
  169MPD1    H5 2637   4.459   0.188   9.228 -1.9135  1.0231  0.5953
  169MPD1    N1 2638   4.089   0.327   8.945  0.4417 -0.4112 -0.0511
  169MPD1    H6 2639   4.017   0.398   8.933 -1.0089 -1.8467  0.2436
  169MPD1    H7 2640   4.052   0.242   8.986  0.5299  0.1938  1.2685
  170MPD1     C 2641   3.371   2.882  12.648 -0.6966 -0.1307  0.0996
  170MPD1    C1 2642   3.430   2.759  12.661  0.1586  1.0800 -0.7834
  170MPD1    C2 2643   3.391   2.670  12.758 -0.0651  0.3283 -0.6999
  170MPD1    C3 2644   3.309   2.702  12.864  0.7162 -0.5028  0.2994
  170MPD1    C4 2645   3.242   2.824  12.853  0.3984 -0.2723 -0.0744
  170MPD1    C5 2646   3.278   2.906  12.741 -0.7500 -0.0734 -0.2251
  170MPD1     H 2647   3.439   2.573  12.761 -0.8237 -0.0153  0.3652
  170MPD1    H1 2648   3.173   2.859  12.928 -0.4574 -0.5643 -0.7261
  170MPD1    H2 2649   3.392   2.956  12.572 -0.2291 -0.1921  0.1677
  170MPD1    H3 2650   3.227   3.002  12.742 -1.8006 -0.6431  0.1008
  170MPD1     N 2651   3.286   2.611  12.973 -0.2430  0.2661  0.2788
  170MPD1    H5 2652   3.351   2.533  12.977 -0.7857 -0.1640  0.8613
  170MPD1    N1 2653   3.534   2.727  12.570  0.0401  0.5894  0.1369
  170MPD1    H6 2654   3.618   2.681  12.607 -0.2339 -1.4560 -1.8075
  170MPD1    H7 2655   3.569   2.817  12.537 -0.6651  0.1471 -1.7976
  171MPD1     C 2656   1.153   3.809  15.336 -0.5302 -0.0579 -0.0481
  171MPD1    C1 2657   1.219   3.714  15.270  0.7753 -0.0538 -0.1415
  171MPD1    C2 2658   1.297   3.624  15.336 -0.2033  0.1335 -0.2275
  171MPD1    C3 2659   1.297   3.623  15.476 -0.0674 -0.2899 -0.3301
  171MPD1    C4 2660   1.235   3.727  15.543  0.3998 -0.4323  0.3086
  171MPD1    C5 2661   1.167   3.820  15.470  0.4874  0.1387  0.1773
  171MPD1     H 2662   1.355   3.553  15.279  0.0735  1.1480 -1.2061
  171MPD1    H1 2663   1.241   3.729  15.651 -0.2244 -0.3305  0.3384
  171MPD1    H2 2664   1.081   3.875  15.289 -3.1195 -2.4792  0.5717
  171MPD1    H3 2665   1.107   3.893  15.523 -0.5709 -0.4098 -0.2578
  171MPD1     N 2666   1.365   3.527  15.559  0.0413 -0.0874 -0.6470
  171MPD1    H5 2667   1.349   3.540  15.658  1.1193  1.3331 -0.6662
  171MPD1    N1 2668   1.222   3.715  15.126 -0.0538 -0.3220  0.3750
  171MPD1    H6 2669   1.228   3.625  15.079 -1.3170  1.4376 -3.1130
  171MPD1    H7 2670   1.137   3.760  15.093  0.3743  0.5030  0.3871
  172MPD1     C 2671   0.917   2.336   0.202  0.7419  0.1894 -0.2603
  172MPD1    C1 2672   0.827   2.390   0.288 -0.1585 -0.1271 -1.0371
  172MPD1    C2 2673   0.856   2.505   0.358  0.2854  0.4326  0.4217
  172MPD1    C3 2674   0.972   2.577   0.319  0.4458  0.2034 -0.2513
  172MPD1    C4 2675   1.060   2.518   0.224  0.1679  0.2019  1.0283
  172MPD1    C5 2676   1.034   2.395   0.166  0.2640 -0.4125 -0.3420
  172MPD1     H 2677   0.783   2.545   0.427 -1.8774 -0.8713 -1.1103
  172MPD1    H1 2678   1.141   2.577   0.183 -0.9398  0.1453 -1.2756
  172MPD1    H2 2679   0.897   2.240   0.155 -1.3932  0.7309 -0.4457
  172MPD1    H3 2680   1.119   2.350   0.116  0.5843 -0.8269  0.5724
  172MPD1     N 2681   1.006   2.703   0.364  0.7779  0.2270  0.3737
  172MPD1    H5 2682   1.076   2.748   0.306 -0.3096  0.2996 -0.8875
  172MPD1    N1 2683   0.710   2.316   0.326 -0.8302 -0.0695 -0.1784
  172MPD1    H6 2684   0.656   2.290   0.243  0.9448 -1.1290 -1.0068
  172MPD1    H7 2685   0.649   2.366   0.390  0.9757  1.3696  0.3947
  173MPD1     C 2686   2.193   2.633  13.317  0.2219  0.0386 -0.6825
  173MPD1    C1 2687   2.234   2.697  13.427 -0.5408  0.2140 -0.6063
  173MPD1    C2 2688   2.187   2.654  13.550  0.3758  0.2844  0.5671
  173MPD1    C3 2689   2.107   2.546  13.558 -0.0527 -0.1035  0.6838
  173MPD1    C4 2690   2.070   2.475  13.444 -0.3190 -0.1851  0.3213
  173MPD1    C5 2691   2.111   2.520  13.322 -0.0088  0.5714 -0.4366
  173MPD1     H 2692   2.224   2.704  13.638  0.7096  0.4272  0.3473
  173MPD1    H1 2693   2.009   2.386  13.459 -2.8855  1.7170  1.1295
  173MPD1    H2 2694   2.224   2.668  13.219  0.6961  2.0307  0.1807
  173MPD1    H3 2695   2.086   2.464  13.232 -2.0572  0.5642  0.1398
  173MPD1     N 2696   2.071   2.496  13.689  0.3377  0.7273  0.6662
  173MPD1    H5 2697   2.105   2.545  13.770  1.2183  0.1112  0.6732
  173MPD1    N1 2698   2.307   2.818  13.422 -0.2438  0.2891 -0.3096
  173MPD1    H6 2699   2.402   2.818  13.457 -0.0642 -1.4568 -0.8035
  173MPD1    H7 2700   2.316   2.845  13.324  0.9801  0.3224 -0.1829
  174MPD1     C 2701   2.238   1.675  14.362 -1.2443 -0.1353 -0.1524
  174MPD1    C1 2702   2.253   1.697  14.225 -0.0549 -0.8987 -0.1957
  174MPD1    C2 2703   2.204   1.820  14.177  0.2586  0.4119 -0.4254
  174MPD1    C3 2704   2.153   1.920  14.262  0.3991  0.0719  0.2107
  174MPD1    C4 2705   2.156   1.896  14.399  0.7736 -0.2505  0.1516
  174MPD1    C5 2706   2.206   1.773  14.449 -0.6875  0.5134 -0.0957
  174MPD1     H 2707   2.198   1.824  14.069  0.8333  0.3624 -0.4623
  174MPD1    H1 2708   2.142   1.978  14.468  5.5206 -0.6550  1.6002
  174MPD1    H2 2709   2.270   1.579  14.402  0.9733  0.2192 -1.0842
  174MPD1    H3 2710   2.212   1.752  14.555  1.9902 -2.5234 -0.8643
  174MPD1     N 2711   2.088   2.039  14.212  0.0794 -1.0706 -0.0526
  174MPD1    H5 2712   2.061   2.105  14.285 -0.3680 -1.5501  0.2176
  174MPD1    N1 2713   2.286   1.584  14.145 -0.3028 -0.5441 -0.9656
  174MPD1    H6 2714   2.377   1.549  14.173 -0.8851  0.2230  1.8861
  174MPD1    H7 2715   2.311   1.610  14.050  3.6588 -0.0876  0.2317
  175MPD1     C 2716   0.097   3.886  15.634 -0.5099  0.9501 -0.7719
  175MPD1    C1 2717   0.201   3.800  15.657 -0.1277 -0.9473  0.4965
  175MPD1    C2 2718   0.252   3.781  15.781 -0.0071  0.0373 -0.1210
  175MPD1    C3 2719   0.197   3.831  15.895  0.1851 -0.8026  0.3807
  175MPD1    C4 2720   0.089   3.921  15.871 -0.1738  0.3967  0.1559
  175MPD1    C5 2721   0.045   3.948  15.741  0.0570  0.5211 -0.6679
  175MPD1     H 2722   0.338   3.715  15.789 -0.6812 -1.0375 -1.9184
  175MPD1    H1 2723   0.041   3.971  15.954 -0.7055  0.6127 -0.2857
  175MPD1    H2 2724   0.058   3.905  15.535  0.0532 -1.2400 -1.4242
  175MPD1    H3 2725   4.693   4.010  15.724 -0.4183  0.2775  0.9805
  175MPD1     N 2726   0.239   3.797  16.030 -0.2363 -0.0232  0.5549
  175MPD1    H5 2727   0.189   3.842  16.106 -1.0080  1.2771 -0.7377
  175MPD1    N1 2728   0.279   3.757  15.543  0.7470 -1.1641  0.4225
  175MPD1    H6 2729   0.221   3.755  15.460 -1.5104 -0.2590  1.9756
  175MPD1    H7 2730   0.308   3.663  15.569  1.2338 -1.3099 -0.6439
  176MPD1     C 2731   0.790   0.713  17.230  0.4849  0.0836 -0.1923
  176MPD1    C1 2732   0.798   0.791  17.345 -0.2931  0.5665 -0.4885
  176MPD1    C2 2733   0.904   0.890  17.351 -0.3394  0.1174 -0.0723
  176MPD1    C3 2734   1.006   0.890  17.255  0.4491 -0.0070 -0.5295
  176MPD1    C4 2735   0.989   0.821  17.140  0.5240  0.2761 -0.2767
  176MPD1    C5 2736   0.887   0.727  17.132 -0.1872  0.0419  0.4833
  176MPD1     H 2737   0.928   0.953  17.436 -0.4785 -0.0794  0.1125
  176MPD1    H1 2738   1.059   0.837  17.059  0.4552  2.6555  0.1403
  176MPD1    H2 2739   0.721   0.630  17.216 -0.5712  1.0227 -0.5406
  176MPD1    H3 2740   0.887   0.662  17.046  0.0626 -0.1860  0.6536
  176MPD1     N 2741   1.120   0.966  17.290  0.2375 -0.2385 -0.3733
  176MPD1    H5 2742   1.107   1.020  17.375  1.7241 -0.2518 -0.1440
  176MPD1    N1 2743   0.701   0.791  17.440  0.0924  0.1027 -0.0793
  176MPD1    H6 2744   0.659   0.699  17.451  0.8879 -0.4090 -1.3486
  176MPD1    H7 2745   0.744   0.825  17.526  0.1159 -0.8401  0.2890
  177MPD1     C 2746   1.371   0.883  10.074  0.4566 -0.1150  0.3983
  177MPD1    C1 2747   1.287   0.835   9.979 -0.3809 -0.3575 -0.1840
  177MPD1    C2 2748   1.204   0.918   9.910 -0.5055 -0.1997 -0.0242
  177MPD1    C3 2749   1.214   1.058   9.917  0.3606 -0.3545 -0.7956
  177MPD1    C4 2750   1.305   1.103  10.009 -0.2194  0.6554  0.6175
  177MPD1    C5 2751   1.365   1.022  10.096 -0.0760 -0.3953  0.0059
  177MPD1     H 2752   1.141   0.880   9.831 -0.5745 -3.2568  1.5249
  177MPD1    H1 2753   1.321   1.210  10.013  3.4556 -0.0312  3.2688
  177MPD1    H2 2754   1.414   0.820  10.151 -2.4007 -1.7348  0.6485
  177MPD1    H3 2755   1.421   1.060  10.181  2.2327 -0.7122 -1.3605
  177MPD1     N 2756   1.153   1.143   9.814 -0.1779  0.3473  0.3612
  177MPD1    H5 2757   1.115   1.097   9.731 -2.6052  2.3210  0.3739
  177MPD1    N1 2758   1.261   0.697   9.960 -0.0320 -0.0983 -0.4490
  177MPD1    H6 2759   1.340   0.633   9.970 -0.4189 -0.2220  1.8963
  177MPD1    H7 2760   1.230   0.677   9.865 -3.4444 -1.5682  0.9576
  178MPD1     C 2761   2.170   2.055   0.005 -0.1073  0.1500 -0.6151
  178MPD1    C1 2762   2.263   1.952   0.019  0.3080  1.2375 -0.3563
  178MPD1    C2 2763   2.341   1.920  17.655  0.4841 -0.4122  0.1991
  178MPD1    C3 2764   2.331   1.993  17.536 -0.0079 -0.0497  0.3513
  178MPD1    C4 2765   2.239   2.091  17.523  0.2783 -0.2062 -0.3840
  178MPD1    C5 2766   2.160   2.120  17.630 -0.2133  0.0068 -0.0900
  178MPD1     H 2767   2.417   1.844  17.664 -0.2034 -1.2926 -1.4721
  178MPD1    H1 2768   2.235   2.155  17.435 -0.2210  0.1537 -0.0991
  178MPD1    H2 2769   2.107   2.087   0.088  2.4382 -3.3068  2.6796
  178MPD1    H3 2770   2.091   2.203  17.624 -0.0128  0.0825 -1.4117
  178MPD1     N 2771   2.409   1.962  17.418  0.4525  0.2817  0.0702
  178MPD1    H5 2772   2.376   1.996  17.328  0.5627 -0.1154 -0.1182
  178MPD1    N1 2773   2.284   1.885   0.135 -0.4114 -0.0969 -0.3820
  178MPD1    H6 2774   2.382   1.862   0.152 -0.7395 -2.3907 -1.6250
  178MPD1    H7 2775   2.264   1.946   0.215 -0.7575  0.7843 -1.1355
  179MPD1     C 2776   2.003   0.493  15.537  0.1147 -1.2242  0.4013
  179MPD1    C1 2777   1.909   0.399  15.491  0.1620  0.2929  0.3904
  179MPD1    C2 2778   1.916   0.271  15.549  0.4565  0.0114  0.2910
  179MPD1    C3 2779   2.003   0.237  15.647  0.2634 -0.2927  0.8090
  179MPD1    C4 2780   2.102   0.327  15.676 -0.9845  0.1851  0.5188
  179MPD1    C5 2781   2.096   0.449  15.621 -0.4546  0.0980 -0.1531
  179MPD1     H 2782   1.835   0.202  15.528 -0.8811  2.1709 -1.7740
  179MPD1    H1 2783   2.173   0.307  15.755 -1.7985  1.3419  1.5401
  179MPD1    H2 2784   1.995   0.598  15.510  1.9164 -0.5466  2.5600
  179MPD1    H3 2785   2.176   0.517  15.650  0.5506 -0.4858 -1.5357
  179MPD1     N 2786   2.024   0.102  15.698  0.8538 -0.4696  0.9066
  179MPD1    H5 2787   2.109   0.092  15.754  1.3424  0.3360  0.3157
  179MPD1    N1 2788   1.798   0.432  15.412 -0.7272  0.2919  0.8734
  179MPD1    H6 2789   1.781   0.355  15.347 -2.5198  0.5211  1.0930
  179MPD1    H7 2790   1.829   0.510  15.354 -2.6440  0.8853  0.6587
  180MPD1     C 2791   1.665   1.389  15.234 -0.3421  0.3225  0.3821
  180MPD1    C1 2792   1.793   1.440  15.238 -0.3900  0.3135 -0.6314
  180MPD1    C2 2793   1.859   1.460  15.114  0.2834 -0.1461  0.4516
  180MPD1    C3 2794   1.818   1.421  14.992 -0.0199  0.2999  0.3481
  180MPD1    C4 2795   1.692   1.360  14.995 -0.3117 -0.5543 -0.0359
  180MPD1    C5 2796   1.616   1.348  15.112  0.2782 -0.1195 -0.5772
  180MPD1     H 2797   1.957   1.506  15.123  0.3328 -0.2094  0.2430
  180MPD1    H1 2798   1.652   1.312  14.907  0.4737  0.3145 -0.8577
  180MPD1    H2 2799   1.609   1.375  15.326  0.6070 -1.6152  0.6643
  180MPD1    H3 2800   1.525   1.290  15.110  0.8926 -1.0784 -0.9037
  180MPD1     N 2801   1.902   1.438  14.884 -0.6980 -0.2375  0.0977
  180MPD1    H5 2802   1.987   1.490  14.902  0.6717 -1.6948 -2.0760
  180MPD1    N1 2803   1.843   1.483  15.359  0.1321  0.3599  0.1764
  180MPD1    H6 2804   1.789   1.451  15.439 -0.0502 -0.4428 -0.2749
  180MPD1    H7 2805   1.849   1.585  15.360  0.7719  0.3303 -0.9706
  181MPD1     C 2806   0.226   4.436   9.503  0.0045  0.1626 -0.2395
  181MPD1    C1 2807   0.324   4.495   9.571  0.7358 -0.5258  0.2824
  181MPD1    C2 2808   0.379   4.427   9.675  0.8973 -0.0462  0.2001
  181MPD1    C3 2809   0.346   4.290   9.711 -0.1841 -0.6330  0.0144
  181MPD1    C4 2810   0.258   4.235   9.624  0.4100  0.2402 -0.4701
  181MPD1    C5 2811   0.208   4.302   9.521  0.2805  0.3604 -0.2086
  181MPD1     H 2812   0.452   4.479   9.737  1.3774  0.2360 -0.6042
  181MPD1    H1 2813   0.219   4.135   9.640 -0.4627  0.6850  0.1618
  181MPD1    H2 2814   0.172   4.486   9.424 -0.5182  0.6531  0.4371
  181MPD1    H3 2815   0.125   4.264   9.463 -1.1576  0.5426  1.7527
  181MPD1     N 2816   0.406   4.209   9.810  0.4051 -0.3841  1.0135
  181MPD1    H5 2817   0.373   4.113   9.820  2.0680 -1.1217 -0.5850
  181MPD1    N1 2818   0.351   4.627   9.540  0.4694 -0.3020 -0.6105
  181MPD1    H6 2819   0.336   4.628   9.439  0.2637  1.5245 -0.5736
  181MPD1    H7 2820   0.450   4.650   9.543  0.1729  0.6478  1.4780
  182MPD1     C 2821   0.103   1.908   1.213  0.0837 -0.3223  0.3410
  182MPD1    C1 2822   0.092   1.831   1.101  0.9471 -0.1685 -1.0793
  182MPD1    C2 2823   4.733   1.852   0.998 -0.2871 -0.4559 -0.0722
  182MPD1    C3 2824   4.634   1.944   1.015 -0.2129  0.5221  0.0153
  182MPD1    C4 2825   4.640   2.017   1.133 -0.2592 -0.0610  0.6668
  182MPD1    C5 2826   0.007   2.005   1.224 -0.0542 -0.3784  0.3029
  182MPD1     H 2827   0.002   1.793   0.908 -0.6214 -0.7955  0.1332
  182MPD1    H1 2828   4.561   2.088   1.150 -0.7423 -0.9225  2.0367
  182MPD1    H2 2829   0.183   1.912   1.285  1.6252  3.8279 -1.5848
  182MPD1    H3 2830   0.008   2.067   1.313  1.1052  1.5694 -1.0853
  182MPD1     N 2831   4.535   1.979   0.916 -0.0480 -0.3076 -0.1375
  182MPD1    H5 2832   4.466   2.052   0.929 -0.0317 -0.1093 -1.1455
  182MPD1    N1 2833   0.191   1.736   1.081  0.3610  0.8596 -0.2715
  182MPD1    H6 2834   0.163   1.659   1.021  1.8110 -1.1965  1.6976
  182MPD1    H7 2835   0.233   1.688   1.161 -2.1216  0.9476  1.0688
  183MPD1     C 2836   0.966   2.286   8.867 -0.3429 -0.0081 -1.0105
  183MPD1    C1 2837   1.069   2.289   8.957 -0.6315 -0.4701  0.8518
  183MPD1    C2 2838   1.081   2.398   9.048 -0.3890  0.4107  0.5162
  183MPD1    C3 2839   0.988   2.497   9.056  0.2431 -0.1151 -0.1452
  183MPD1    C4 2840   0.881   2.490   8.968 -0.2464 -0.6364  0.1123
  183MPD1    C5 2841   0.876   2.388   8.871  0.2375  0.0931  0.8371
  183MPD1     H 2842   1.161   2.394   9.120 -0.8255 -1.1577  0.9026
  183MPD1    H1 2843   0.796   2.556   8.966  2.0813  2.3967  0.1155
  183MPD1    H2 2844   0.955   2.221   8.781 -1.4446 -1.2063  0.0472
  183MPD1    H3 2845   0.799   2.382   8.795 -0.5627 -1.5661  1.7692
  183MPD1     N 2846   1.004   2.609   9.144 -0.7394  0.5866 -0.1569
  183MPD1    H5 2847   1.097   2.601   9.182  0.1506 -1.8894 -2.8688
  183MPD1    N1 2848   1.172   2.189   8.956  0.1413  0.3114 -0.7631
  183MPD1    H6 2849   1.139   2.110   8.901  0.2952 -1.5134  1.7990
  183MPD1    H7 2850   1.210   2.161   9.046  2.1174  1.5592 -1.1880
  184MPD1     C 2851   4.627   0.572   9.991  0.2677 -0.2907  0.4444
  184MPD1    C1 2852   0.012   0.609  10.023 -0.5493  0.2956  0.1370
  184MPD1    C2 2853   0.073   0.710   9.943 -0.2570  0.0367  0.7177
  184MPD1    C3 2854   0.002   0.771   9.844  0.1069 -0.4579 -0.4862
  184MPD1    C4 2855   4.608   0.739   9.824  0.4083  0.0097  0.2134
  184MPD1    C5 2856   4.557   0.636   9.892 -0.5497 -0.3337 -0.0223
  184MPD1     H 2857   0.178   0.735   9.955 -0.2084  1.4625 -2.9176
  184MPD1    H1 2858   4.552   0.797   9.751  0.6730  0.3207  0.2557
  184MPD1    H2 2859   4.581   0.481  10.028 -2.7595  1.7557  1.7657
  184MPD1    H3 2860   4.465   0.593   9.854 -0.7703 -0.4052  0.5924
  184MPD1     N 2861   0.047   0.878   9.759  0.9635 -0.3603  0.1508
  184MPD1    H5 2862   4.704   0.927   9.719  1.2633 -0.9275 -1.1349
  184MPD1    N1 2863   0.084   0.533  10.120  0.5273  0.0570 -0.3905
  184MPD1    H6 2864   0.173   0.577  10.142  1.5616 -1.1959 -2.0930
  184MPD1    H7 2865   0.032   0.519  10.206  0.7265  1.6488 -0.0074
  185MPD1     C 2866   4.579   0.957   8.910  0.2348  0.4788  0.3256
  185MPD1    C1 2867   4.633   1.081   8.937 -0.4057 -0.0134  0.4134
  185MPD1    C2 2868   4.706   1.102   9.057 -0.2910 -0.4659  0.2785
  185MPD1    C3 2869   4.711   0.999   9.149 -0.4968 -0.3104 -0.1757
  185MPD1    C4 2870   4.661   0.872   9.124 -0.2599 -0.0039  0.4829
  185MPD1    C5 2871   4.600   0.857   9.003 -0.3316 -0.2902  1.3290
  185MPD1     H 2872   0.009   1.201   9.076 -1.7305  0.4586 -1.5643
  185MPD1    H1 2873   4.667   0.787   9.192 -1.8469  1.5871  2.6110
  185MPD1    H2 2874   4.518   0.940   8.822  0.9307  0.2886 -0.1172
  185MPD1    H3 2875   4.567   0.756   8.979 -1.0707  0.0308  0.9972
  185MPD1     N 2876   0.043   1.010   9.273  0.1575 -0.0583 -0.1464
  185MPD1    H5 2877   0.056   0.925   9.327 -0.9893  0.8734  1.6145
  185MPD1    N1 2878   4.603   1.194   8.857 -0.2332  0.1848  0.1913
  185MPD1    H6 2879   4.688   1.247   8.839  1.0930 -1.5474  1.3810
  185MPD1    H7 2880   4.566   1.162   8.767 -0.1580 -1.3980  0.7228
  186MPD1     C 2881   3.404   0.025  15.973 -0.0247 -0.0410  0.5781
  186MPD1    C1 2882   3.321   4.712  16.070  0.3999  0.4943  0.2949
  186MPD1    C2 2883   3.228   0.068  16.113 -0.0090 -0.0364  0.1171
  186MPD1    C3 2884   3.227   0.198  16.071 -0.4156 -0.6635 -0.1155
  186MPD1    C4 2885   3.318   0.247  15.983 -0.3544  0.2689 -0.2703
  186MPD1    C5 2886   3.409   0.158  15.941 -0.3995 -0.4155  0.6701
  186MPD1     H 2887   3.161   0.034  16.191  2.2212 -0.8346  1.6977
  186MPD1    H1 2888   3.322   0.351  15.953 -0.2840 -0.1505 -1.7215
  186MPD1    H2 2889   3.473   4.693  15.924  2.7251  2.2879  1.2346
  186MPD1    H3 2890   3.481   0.209  15.878 -0.7226 -2.5421 -1.4250
  186MPD1     N 2891   3.137   0.291  16.123  0.4035  0.0308  0.5741
  186MPD1    H5 2892   3.154   0.386  16.093  1.0761 -0.3177 -0.1708
  186MPD1    N1 2893   3.306   4.582  16.098 -0.1840 -0.4404 -0.0609
  186MPD1    H6 2894   3.258   4.559  16.185 -0.3196 -0.4442 -0.1372
  186MPD1    H7 2895   3.392   4.528  16.088  0.9823  1.4279 -0.0660
  187MPD1     C 2896   1.920   1.429   0.286  0.5171  0.3083  0.0169
  187MPD1    C1 2897   1.969   1.544   0.344 -0.0706 -0.8376  0.2209
  187MPD1    C2 2898   1.923   1.665   0.291  0.2082  0.3060 -0.0121
  187MPD1    C3 2899   1.853   1.666   0.169 -0.0860 -0.1864 -0.2745
  187MPD1    C4 2900   1.805   1.549   0.115 -0.4543 -0.4097 -0.0893
  187MPD1    C5 2901   1.837   1.434   0.171 -0.4565 -0.1958 -0.2055
  187MPD1     H 2902   1.957   1.759   0.333  2.9967 -0.7340  0.0623
  187MPD1    H1 2903   1.734   1.551   0.033  1.2133  1.2422 -1.4745
  187MPD1    H2 2904   1.939   1.328   0.321 -1.2444 -0.0492 -0.0099
  187MPD1    H3 2905   1.790   1.344   0.134 -0.5933 -0.1024 -0.2611
  187MPD1     N 2906   1.809   1.777   0.104  0.2444  0.2190  0.1444
  187MPD1    H5 2907   1.749   1.752   0.026 -0.0798  2.0084 -0.1611
  187MPD1    N1 2908   2.063   1.541   0.446 -0.7307 -0.4591 -0.6499
  187MPD1    H6 2909   2.097   1.633   0.475 -1.1736 -0.3936 -0.3437
  187MPD1    H7 2910   2.148   1.490   0.422 -0.7345 -1.5079  1.5374
  188MPD1     C 2911   2.795   2.286  10.780 -0.2218 -0.5944 -0.0076
  188MPD1    C1 2912   2.844   2.166  10.827  0.6198 -0.3508 -0.1774
  188MPD1    C2 2913   2.827   2.053  10.750 -0.0514  0.2755 -0.0859
  188MPD1    C3 2914   2.817   2.064  10.616  0.0471  0.2080  0.5676
  188MPD1    C4 2915   2.793   2.191  10.567  0.2508  0.7428 -0.2532
  188MPD1    C5 2916   2.768   2.300  10.643  0.2017  0.0624  0.3164
  188MPD1     H 2917   2.841   1.954  10.792 -1.7582  0.6277  1.3132
  188MPD1    H1 2918   2.771   2.198  10.461 -0.2651  0.1405 -0.1865
  188MPD1    H2 2919   2.797   2.378  10.837  1.0223  0.1657 -1.2607
  188MPD1    H3 2920   2.742   2.398  10.603 -0.7448  1.2929  4.0133
  188MPD1     N 2921   2.831   1.956  10.523  0.3471  0.4382  0.1710
  188MPD1    H5 2922   2.819   1.987  10.427 -2.6853 -0.3992  0.2875
  188MPD1    N1 2923   2.859   2.149  10.970 -0.2546 -0.2194 -0.4920
  188MPD1    H6 2924   2.932   2.079  10.983  0.0313  0.6177  2.3238
  188MPD1    H7 2925   2.894   2.234  11.014  1.4600 -1.7642  1.0873
  189MPD1     C 2926   3.475   2.658   0.297  0.4803  0.3168  0.1673
  189MPD1    C1 2927   3.352   2.667   0.237 -0.2048 -0.6012 -0.2482
  189MPD1    C2 2928   3.269   2.775   0.264  0.1642  0.6142 -0.7198
  189MPD1    C3 2929   3.320   2.882   0.341 -0.7074  0.1573 -0.6300
  189MPD1    C4 2930   3.439   2.865   0.401 -0.0044 -0.0723  0.2676
  189MPD1    C5 2931   3.514   2.754   0.378  0.1642 -0.1996  0.1712
  189MPD1     H 2932   3.167   2.787   0.229  0.2339 -0.5020 -1.2699
  189MPD1    H1 2933   3.473   2.943   0.468 -0.5708  2.0287 -1.8934
  189MPD1    H2 2934   3.536   2.569   0.285  0.1259  0.0790  0.1178
  189MPD1    H3 2935   3.607   2.743   0.433 -1.7812 -2.5257  3.0253
  189MPD1     N 2936   3.236   2.990   0.367 -0.2040 -0.5064 -0.5050
  189MPD1    H5 2937   3.141   2.983   0.333  0.6172 -2.4780 -2.4443
  189MPD1    N1 2938   3.294   2.551   0.185 -0.2451  0.0729 -0.4027
  189MPD1    H6 2939   3.216   2.579   0.127  0.2558 -1.1121 -1.6389
  189MPD1    H7 2940   3.366   2.491   0.145 -0.9425  0.7084 -2.5506
  190MPD1     C 2941   2.210   1.457  15.304 -0.5905  0.1965  0.0716
  190MPD1    C1 2942   2.339   1.436  15.255 -0.4664  0.1932  0.1265
  190MPD1    C2 2943   2.434   1.457  15.356  1.0773 -0.4611  0.1696
  190MPD1    C3 2944   2.406   1.485  15.489  0.1733 -0.1254  0.3207
  190MPD1    C4 2945   2.278   1.514  15.526  0.0517  0.7527 -0.0033
  190MPD1    C5 2946   2.178   1.501  15.427 -0.1581 -0.1671 -0.5285
  190MPD1     H 2947   2.537   1.442  15.327  0.9754  0.6469 -0.7533
  190MPD1    H1 2948   2.242   1.531  15.627 -0.2062  0.3631 -0.0290
  190MPD1    H2 2949   2.125   1.458  15.236 -0.4300 -2.7854 -0.1697
  190MPD1    H3 2950   2.075   1.523  15.453  0.1008 -1.9534  1.9575
  190MPD1     N 2951   2.516   1.482  15.579  0.2409  0.4069  0.0571
  190MPD1    H5 2952   2.608   1.480  15.536 -0.0010 -2.4074 -0.2830
  190MPD1    N1 2953   2.363   1.365  15.136  0.1164  0.8376 -0.1994
  190MPD1    H6 2954   2.302   1.378  15.056 -0.6704 -2.3603 -0.1375
  190MPD1    H7 2955   2.459   1.372  15.105  0.1453  1.8453  0.1070
  191MPD1     C 2956   1.516   3.401  12.444 -0.1055  0.3471 -0.0873
  191MPD1    C1 2957   1.551   3.376  12.310  0.1235 -0.4261  0.5794
  191MPD1    C2 2958   1.689   3.386  12.274  0.1476 -0.1457  0.4142
  191MPD1    C3 2959   1.785   3.397  12.369 -0.1940  0.2508  0.6809
  191MPD1    C4 2960   1.755   3.406  12.501 -0.0193  0.6604  0.1032
  191MPD1    C5 2961   1.619   3.409  12.536  0.3252 -0.3922  0.4447
  191MPD1     H 2962   1.718   3.398  12.171 -1.3052 -1.1008 -0.1176
  191MPD1    H1 2963   1.834   3.412  12.575  1.4978  0.9092 -1.5427
  191MPD1    H2 2964   1.419   3.427  12.483  0.2047 -0.2874  1.0985
  191MPD1    H3 2965   1.601   3.424  12.642 -3.8798 -0.8231 -0.2043
  191MPD1     N 2966   1.916   3.422  12.326  0.4748  0.0497 -0.0490
  191MPD1    H5 2967   1.940   3.417  12.227 -0.1455 -0.5156 -0.1770
  191MPD1    N1 2968   1.452   3.380  12.211 -0.4533  0.0845  0.7269
  191MPD1    H6 2969   1.483   3.339  12.123  0.5965  0.2721  1.0048
  191MPD1    H7 2970   1.363   3.339  12.238 -0.6588 -0.7401 -1.1955
  192MPD1     C 2971   2.293   4.135  11.744  0.3105 -0.5267 -0.7047
  192MPD1    C1 2972   2.175   4.059  11.755  0.6190 -0.1775 -0.1479
  192MPD1    C2 2973   2.157   3.984  11.864 -0.1152  0.3108  0.0532
  192MPD1    C3 2974   2.247   3.983  11.971 -0.3760  0.1247 -1.2194
  192MPD1    C4 2975   2.354   4.067  11.970 -0.2900  0.5234  0.0792
  192MPD1    C5 2976   2.370   4.135  11.852  0.1313 -0.1514 -0.0559
  192MPD1     H 2977   2.061   3.936  11.880  0.1213  0.3495  1.6258
  192MPD1    H1 2978   2.426   4.063  12.051  0.9643 -1.8027 -1.1703
  192MPD1    H2 2979   2.314   4.205  11.665  1.5018 -0.4814 -0.3524
  192MPD1    H3 2980   2.463   4.192  11.850 -1.4799  2.4451 -1.4596
  192MPD1     N 2981   2.256   3.880  12.068  0.0947 -0.0469  0.1112
  192MPD1    H5 2982   2.341   3.882  12.124 -0.9289 -0.2152  1.6890
  192MPD1    N1 2983   2.076   4.068  11.654 -0.5660  0.4742 -0.0059
  192MPD1    H6 2984   2.022   3.981  11.656 -0.1287  0.1763 -0.8232
  192MPD1    H7 2985   2.123   4.058  11.564  1.9996  0.4479  1.3523
  193MPD1     C 2986   1.271   3.356  16.050  0.7537 -0.1869  0.5079
  193MPD1    C1 2987   1.210   3.472  16.085  0.1900  0.2322 -0.0782
  193MPD1    C2 2988   1.276   3.548  16.184  0.2941 -0.0695  0.4019
  193MPD1    C3 2989   1.382   3.498  16.257  0.2614 -0.4931 -0.3767
  193MPD1    C4 2990   1.433   3.375  16.231  0.7698  0.2121 -0.2673
  193MPD1    C5 2991   1.373   3.307  16.126 -0.3109  0.2665 -0.3368
  193MPD1     H 2992   1.235   3.646  16.207  0.0173  0.5774 -2.8601
  193MPD1    H1 2993   1.526   3.341  16.275  0.6113 -1.8543 -1.5026
  193MPD1    H2 2994   1.228   3.289  15.977 -1.3409 -0.1603  1.7089
  193MPD1    H3 2995   1.410   3.207  16.107  0.2491  0.3613  0.2713
  193MPD1     N 2996   1.442   3.567  16.364  0.0390  0.0537  0.1039
  193MPD1    H5 2997   1.537   3.546  16.390  0.0188  3.0829  2.5208
  193MPD1    N1 2998   1.113   3.536  16.005 -0.0239 -0.0099  0.2148
  193MPD1    H6 2999   1.064   3.473  15.942 -0.6736  0.7122 -0.0013
  193MPD1    H7 3000   1.048   3.583  16.068  0.0832  0.2269  0.1480
  194MPD1     C 3001   3.942   0.636  16.526  0.4159 -0.3897  0.0587
  194MPD1    C1 3002   3.938   0.695  16.649 -0.0377  0.7328 -0.0637
  194MPD1    C2 3003   3.904   0.613  16.751  0.4241  0.5508 -0.5814
  194MPD1    C3 3004   3.896   0.474  16.741 -0.0645 -0.6424  0.2581
  194MPD1    C4 3005   3.910   0.415  16.617 -0.5943  0.4388  0.0583
  194MPD1    C5 3006   3.938   0.498  16.513  0.3682  0.8346  0.5163
  194MPD1     H 3007   3.890   0.661  16.847  0.3661  0.4798 -0.5542
  194MPD1    H1 3008   3.904   0.309  16.598 -1.7673 -0.2622  4.3816
  194MPD1    H2 3009   3.969   0.689  16.435  0.6650 -1.6496 -0.6029
  194MPD1    H3 3010   3.960   0.456  16.416  0.2673  1.1613  0.3531
  194MPD1     N 3011   3.882   0.389  16.854  0.0450 -0.1171 -0.1913
  194MPD1    H5 3012   3.891   0.291  16.827  3.4695  0.3288 -0.7004
  194MPD1    N1 3013   3.936   0.832  16.658 -0.1973 -0.5814 -0.5280
  194MPD1    H6 3014   3.992   0.869  16.582 -1.4969 -0.7014 -1.5351
  194MPD1    H7 3015   3.965   0.871  16.747 -0.0317 -1.5487 -0.1582
  195MPD1     C 3016   1.917   2.415   0.812  0.1431  0.0719  0.2814
  195MPD1    C1 3017   1.800   2.395   0.882 -0.4048 -0.2920  0.8994
  195MPD1    C2 3018   1.700   2.311   0.827  0.1570  0.7921 -0.2934
  195MPD1    C3 3019   1.740   2.229   0.715 -0.1368  0.0363  0.6476
  195MPD1    C4 3020   1.866   2.242   0.664 -0.2162  0.6070  0.1278
  195MPD1    C5 3021   1.949   2.337   0.709  0.0077  0.1759  0.5656
  195MPD1     H 3022   1.604   2.297   0.874  0.4165 -0.4805 -0.1364
  195MPD1    H1 3023   1.900   2.166   0.594  0.5773  0.8305  0.2632
  195MPD1    H2 3024   1.987   2.495   0.836 -0.8371  0.9713  0.1559
  195MPD1    H3 3025   2.046   2.348   0.661  0.0899 -2.6051  0.0993
  195MPD1     N 3026   1.661   2.130   0.652  0.6752 -0.3466  0.6897
  195MPD1    H5 3027   1.716   2.078   0.584  0.2430 -0.7224  0.6260
  195MPD1    N1 3028   1.764   2.497   0.970  0.6780  0.1981 -0.5379
  195MPD1    H6 3029   1.839   2.519   1.036  1.1989  1.9398 -1.7231
  195MPD1    H7 3030   1.686   2.475   1.032  2.3998 -2.3611  0.7074
  196MPD1     C 3031   0.335   1.239   0.702 -0.1846  0.4944  0.2033
  196MPD1    C1 3032   0.446   1.172   0.750 -0.3881  0.4039 -0.1020
  196MPD1    C2 3033   0.546   1.248   0.805 -0.5548  0.3768  0.7436
  196MPD1    C3 3034   0.553   1.382   0.797  0.1260 -0.0995  0.1426
  196MPD1    C4 3035   0.448   1.445   0.741  0.9106  0.0496 -0.2828
  196MPD1    C5 3036   0.339   1.373   0.698 -0.0915  0.9630  0.5344
  196MPD1     H 3037   0.626   1.191   0.851 -1.8489 -2.1479 -0.1453
  196MPD1    H1 3038   0.452   1.553   0.732  1.6031  0.1830  1.5845
  196MPD1    H2 3039   0.251   1.193   0.652  1.3677 -2.8640  0.6827
  196MPD1    H3 3040   0.262   1.424   0.640  1.9433  1.7205 -1.4944
  196MPD1     N 3041   0.653   1.458   0.856  0.2484  0.0024 -0.1757
  196MPD1    H5 3042   0.648   1.559   0.853  0.2963 -0.0777 -3.0644
  196MPD1    N1 3043   0.440   1.032   0.776 -0.4551 -0.2455  0.0327
  196MPD1    H6 3044   0.528   0.985   0.793 -0.2814  0.4144  0.9821
  196MPD1    H7 3045   0.387   0.981   0.706 -0.4741  1.8712 -1.4993
  197MPD1     C 3046   4.338   4.448  17.246 -0.4644 -0.0930  0.2663
  197MPD1    C1 3047   4.342   4.579  17.191 -0.0197 -0.5095  0.0235
  197MPD1    C2 3048   4.459   4.630  17.139  0.0997 -0.3864 -0.2270
  197MPD1    C3 3049   4.568   4.543  17.125  0.4129  0.0160 -0.3129
  197MPD1    C4 3050   4.563   4.418  17.183  0.0970 -0.0114 -0.5946
  197MPD1    C5 3051   4.451   4.367  17.243  0.3103 -0.4479  0.0455
  197MPD1     H 3052   4.469   4.729  17.095 -1.1390 -1.6674 -3.3730
  197MPD1    H1 3053   4.655   4.360  17.191  0.7558  1.3641  2.1751
  197MPD1    H2 3054   4.253   4.405  17.297 -0.2921  0.4684  1.0128
  197MPD1    H3 3055   4.452   4.274  17.300 -1.9894 -0.0341  0.7553
  197MPD1     N 3056   4.693   4.581  17.075 -0.7227 -0.5099 -0.6362
  197MPD1    H5 3057   0.030   4.511  17.067 -1.7927 -1.8225  0.8960
  197MPD1    N1 3058   4.235   4.665  17.215 -0.1478 -0.8823  0.0855
  197MPD1    H6 3059   4.150   4.614  17.192 -0.0818 -1.3202  0.7930
  197MPD1    H7 3060   4.235   0.015  17.161  0.2797 -0.7662  0.2673
  198MPD1     C 3061   1.809   2.275  15.416 -0.3032  0.6333 -0.5001
  198MPD1    C1 3062   1.819   2.371  15.509 -0.2127 -0.6170 -0.8891
  198MPD1    C2 3063   1.892   2.489  15.488  0.3123 -0.2225  0.4883
  198MPD1    C3 3064   1.946   2.515  15.364  0.2083 -0.4180  0.7765
  198MPD1    C4 3065   1.944   2.410  15.273 -0.2470  0.1620  0.5779
  198MPD1    C5 3066   1.874   2.292  15.299  0.2688  0.4359 -0.7436
  198MPD1     H 3067   1.896   2.561  15.569  0.7379  0.6420 -0.3003
  198MPD1    H1 3068   1.994   2.412  15.177 -1.5510  0.1269 -0.1113
  198MPD1    H2 3069   1.762   2.179  15.432  0.0532  0.8769  1.9879
  198MPD1    H3 3070   1.846   2.240  15.208 -2.3459 -2.7365  1.9292
  198MPD1     N 3071   2.007   2.637  15.347  0.0529 -0.4310 -0.1042
  198MPD1    H5 3072   1.999   2.704  15.423 -0.1149 -1.2754  0.6178
  198MPD1    N1 3073   1.773   2.333  15.632 -0.0217  0.1098 -0.2800
  198MPD1    H6 3074   1.774   2.410  15.699  0.3279 -1.5075  1.5999
  198MPD1    H7 3075   1.675   2.307  15.631  0.4345 -1.6403  0.3185
  199MPD1     C 3076   0.679   4.491  10.864 -0.6742 -0.6981  0.1482
  199MPD1    C1 3077   0.650   4.569  10.754  0.3369  0.2767  0.1470
  199MPD1    C2 3078   0.603   4.511  10.639 -0.7321  0.8163 -0.0882
  199MPD1    C3 3079   0.554   4.381  10.644 -0.1441  0.1073 -0.2544
  199MPD1    C4 3080   0.581   4.308  10.756  0.1396 -0.3833 -0.1305
  199MPD1    C5 3081   0.639   4.362  10.869  0.0496 -0.4772 -0.8990
  199MPD1     H 3082   0.594   4.562  10.544  0.1881 -0.8433 -1.0747
  199MPD1    H1 3083   0.548   4.205  10.762  0.1461 -0.2948  1.3912
  199MPD1    H2 3084   0.738   4.524  10.948  3.0253 -0.9345 -2.3534
  199MPD1    H3 3085   0.662   4.301  10.956  0.8676  1.6192  0.3580
  199MPD1     N 3086   0.483   4.309  10.536 -0.3073  0.2136 -0.2246
  199MPD1    H5 3087   0.442   4.224  10.572 -1.7575  1.4073  0.9546
  199MPD1    N1 3088   0.704   4.700  10.751  0.0981  0.1280 -0.2757
  199MPD1    H6 3089   0.795   4.703  10.706 -0.4709  1.0194 -1.3625
  199MPD1    H7 3090   0.706   0.014  10.840  1.6617 -0.1803 -0.1340
  200MPD1     C 3091   3.534   4.206  16.197  0.2510 -0.3394 -0.1867
  200MPD1    C1 3092   3.515   4.102  16.106 -0.8424 -0.6966 -0.4666
  200MPD1    C2 3093   3.532   4.132  15.977 -0.0579  0.0744 -0.4937
  200MPD1    C3 3094   3.543   4.260  15.932 -0.0915  0.3388  0.1377
  200MPD1    C4 3095   3.546   4.368  16.020 -0.9926 -0.1482  0.2112
  200MPD1    C5 3096   3.554   4.332  16.154 -0.3866  0.4203  0.4622
  200MPD1     H 3097   3.532   4.063  15.893 -0.5422 -1.9905  1.1837
  200MPD1    H1 3098   3.549   4.475  15.999  0.1779  0.0534  1.4244
  200MPD1    H2 3099   3.567   4.182  16.297 -0.2976  2.2074  0.6047
  200MPD1    H3 3100   3.562   4.407  16.232 -1.1264  0.9767 -0.0002
  200MPD1     N 3101   3.583   4.277  15.796  1.0170  0.1341 -0.1900
  200MPD1    H5 3102   3.595   4.189  15.748 -0.3568 -0.2694  0.2313
  200MPD1    N1 3103   3.518   3.966  16.149 -0.0512 -0.0002  0.1646
  200MPD1    H6 3104   3.456   3.917  16.085  0.0348  1.1667 -0.8321
  200MPD1    H7 3105   3.491   3.934  16.241  0.5522 -1.5080 -0.1837
  201MPD1     C 3106   1.392   3.346  12.990  0.3169  0.0067  0.0172
  201MPD1    C1 3107   1.464   3.317  13.106  0.6814 -0.6431 -0.5111
  201MPD1    C2 3108   1.491   3.182  13.128 -0.3454 -0.1108 -0.2182
  201MPD1    C3 3109   1.493   3.081  13.031  0.5986 -0.5501 -1.1507
  201MPD1    C4 3110   1.432   3.116  12.913  0.3416  0.1464 -0.1247
  201MPD1    C5 3111   1.380   3.243  12.898 -0.1202 -0.0685 -0.6042
  201MPD1     H 3112   1.532   3.140  13.219 -0.3344 -2.0752 -1.1404
  201MPD1    H1 3113   1.434   3.051  12.826  0.9014 -0.3712  0.2764
  201MPD1    H2 3114   1.348   3.444  12.980 -1.2721 -0.8240 -1.0536
  201MPD1    H3 3115   1.341   3.268  12.800 -0.0432 -0.6646 -0.7851
  201MPD1     N 3116   1.538   2.955  13.058  0.6604  0.1071  0.5366
  201MPD1    H5 3117   1.579   2.931  13.148  0.0869 -1.1338  0.4701
  201MPD1    N1 3118   1.460   3.404  13.216  0.1856 -0.1858 -0.2827
  201MPD1    H6 3119   1.533   3.384  13.284  0.7551 -0.6028 -1.0089
  201MPD1    H7 3120   1.465   3.502  13.191  1.2290  0.1084  1.0971
  202MPD1     C 3121   1.633   1.883   8.830  0.4437 -0.4117 -0.0896
  202MPD1    C1 3122   1.534   1.948   8.902 -0.2237 -0.4340  0.2580
  202MPD1    C2 3123   1.568   1.992   9.025  0.2473 -0.4861  0.6183
  202MPD1    C3 3124   1.669   1.934   9.096 -0.2251  0.5203  0.1909
  202MPD1    C4 3125   1.750   1.842   9.027  0.3171 -0.1542 -0.1566
  202MPD1    C5 3126   1.730   1.818   8.890 -0.0867  0.7767  0.8160
  202MPD1     H 3127   1.490   2.052   9.070  1.6370  3.2104 -1.9204
  202MPD1    H1 3128   1.827   1.782   9.076 -0.5838 -0.4264  0.9352
  202MPD1    H2 3129   1.638   1.881   8.722  1.3212 -4.7858  0.0416
  202MPD1    H3 3130   1.806   1.765   8.834 -2.7377 -0.4839 -1.6059
  202MPD1     N 3131   1.697   1.953   9.233 -0.4068 -0.1977 -0.5350
  202MPD1    H5 3132   1.775   1.899   9.268  0.2566  1.7544  1.0413
  202MPD1    N1 3133   1.449   2.026   8.830 -0.4489 -0.7378 -0.5353
  202MPD1    H6 3134   1.367   2.057   8.881 -1.6581 -1.4160 -2.0769
  202MPD1    H7 3135   1.409   1.972   8.753 -1.2482 -0.3137 -0.4201
  203MPD1     C 3136   0.397   3.438  12.558  0.0338 -0.5000 -0.2266
  203MPD1    C1 3137   0.459   3.350  12.645  0.8461  0.2865 -0.0020
  203MPD1    C2 3138   0.461   3.216  12.611 -0.3696  1.0348  0.6729
  203MPD1    C3 3139   0.391   3.168  12.501  0.2730 -0.1549 -0.1929
  203MPD1    C4 3140   0.325   3.256  12.419  0.7669  0.4017  0.0347
  203MPD1    C5 3141   0.332   3.392  12.443  0.4314 -0.0096 -0.3155
  203MPD1     H 3142   0.509   3.139  12.671  1.1932  1.4507 -0.0482
  203MPD1    H1 3143   0.264   3.229  12.333  0.9483  0.8209 -0.2259
  203MPD1    H2 3144   0.401   3.546  12.564  0.7914 -0.5463  0.0745
  203MPD1    H3 3145   0.283   3.465  12.379  2.2639  0.7610 -0.8356
  203MPD1     N 3146   0.387   3.030  12.478 -0.3371 -0.3331  0.2631
  203MPD1    H5 3147   0.435   2.978  12.551  1.5041 -0.7302 -1.2344
  203MPD1    N1 3148   0.537   3.400  12.744  0.7183 -0.1783  0.3353
  203MPD1    H6 3149   0.488   3.471  12.797  2.7046  0.8363  0.8130
  203MPD1    H7 3150   0.575   3.330  12.809  1.9928  0.1237 -0.0925
  204MPD1     C 3151   3.365   4.137   0.053  0.4801  0.8163 -0.5045
  204MPD1    C1 3152   3.401   4.130  17.662 -1.1749  0.6392  0.5637
  204MPD1    C2 3153   3.496   4.035  17.627 -1.1683 -0.1142 -0.1957
  204MPD1    C3 3154   3.560   3.950  17.718  0.4553 -0.1706  0.0249
  204MPD1    C4 3155   3.515   3.955   0.107  0.4436 -0.2650  0.3311
  204MPD1    C5 3156   3.419   4.052   0.143  0.3371 -0.2619  0.5275
  204MPD1     H 3157   3.529   4.031  17.524  1.0490 -0.8022  0.5414
  204MPD1    H1 3158   3.567   3.900   0.184 -0.7267  1.7604  2.5555
  204MPD1    H2 3159   3.295   4.205   0.100  1.6974  0.9007  1.1709
  204MPD1    H3 3160   3.400   4.045   0.249 -1.7300  0.4850  0.2043
  204MPD1     N 3161   3.664   3.875  17.672 -0.7470  0.1777 -0.3653
  204MPD1    H5 3162   3.673   3.884  17.571 -0.3326  2.3317 -0.1487
  204MPD1    N1 3163   3.378   4.234  17.569  0.1711 -0.3914  0.0160
  204MPD1    H6 3164   3.289   4.279  17.589  0.8298  0.2647  1.5146
  204MPD1    H7 3165   3.380   4.199  17.473 -0.5651  0.1032 -0.1826
  205MPD1     C 3166   3.954   3.446  16.950  0.8284 -0.0313 -0.9855
  205MPD1    C1 3167   3.985   3.344  16.864  0.7255 -0.0918 -0.1741
  205MPD1    C2 3168   3.997   3.215  16.917 -0.2901  0.5471  0.5956
  205MPD1    C3 3169   3.968   3.191  17.053 -0.6864 -0.2797 -0.2984
  205MPD1    C4 3170   3.935   3.296  17.132 -0.0193 -0.0011 -0.6669
  205MPD1    C5 3171   3.936   3.424  17.082 -0.0239 -0.1489  0.0803
  205MPD1     H 3172   4.043   3.138  16.855 -1.6392  0.7517 -0.6451
  205MPD1    H1 3173   3.936   3.281  17.240  0.4076  0.2804 -0.6364
  205MPD1    H2 3174   3.944   3.546  16.909  0.3463  0.5342  0.5033
  205MPD1    H3 3175   3.933   3.504  17.156  0.0041 -0.2281  0.1679
  205MPD1     N 3176   3.976   3.068  17.117 -0.2186  0.0420  0.4621
  205MPD1    H5 3177   3.979   3.070  17.219  1.4254 -1.7423  0.4441
  205MPD1    N1 3178   4.036   3.379  16.739 -0.3511 -0.1461 -0.5398
  205MPD1    H6 3179   3.971   3.447  16.701 -1.1186 -0.3614  0.3806
  205MPD1    H7 3180   4.034   3.292  16.686 -3.3520 -1.3806  1.6070
  206MPD1     C 3181   4.429   0.563  17.054 -0.1507 -0.1485  0.3413
  206MPD1    C1 3182   4.322   0.516  16.989  0.0105 -1.2993  0.0612
  206MPD1    C2 3183   4.320   0.530  16.852  0.3307  0.3829  0.0486
  206MPD1    C3 3184   4.403   0.617  16.786 -1.0241 -0.5072 -0.5788
  206MPD1    C4 3185   4.518   0.664  16.856  0.8632  0.1184  0.4001
  206MPD1    C5 3186   4.535   0.630  16.987  0.0529 -0.2846  0.4437
  206MPD1     H 3187   4.238   0.488  16.794  0.4807  0.8993 -0.5372
  206MPD1    H1 3188   4.586   0.732  16.806 -0.0565  1.5368  1.0691
  206MPD1    H2 3189   4.434   0.546  17.161 -0.3521  0.1651  0.4014
  206MPD1    H3 3190   4.624   0.668  17.035 -0.4752 -0.4398  1.5444
  206MPD1     N 3191   4.384   0.663  16.657  0.0786 -0.0219  0.1178
  206MPD1    H5 3192   4.423   0.751  16.624  0.4929  0.4213  1.8126
  206MPD1    N1 3193   4.215   0.446  17.054  0.3369 -0.5320  0.2156
  206MPD1    H6 3194   4.122   0.478  17.027  0.2584 -1.1385 -0.2297
  206MPD1    H7 3195   4.210   0.464  17.154  0.7227  0.7634  0.0084
  207MPD1     C 3196   3.078   3.889   9.331 -0.6960  0.1246  0.5421
  207MPD1    C1 3197   3.002   3.790   9.392  0.5731  0.1324  0.3226
  207MPD1    C2 3198   3.018   3.752   9.523 -0.0698 -0.5599 -0.6072
  207MPD1    C3 3199   3.120   3.816   9.598 -0.2471  0.9263  0.4064
  207MPD1    C4 3200   3.204   3.908   9.540 -0.0586 -0.3732 -0.6336
  207MPD1    C5 3201   3.178   3.948   9.408  0.2933  0.2356 -0.4638
  207MPD1     H 3202   2.951   3.679   9.565  0.0340 -0.8369 -0.9247
  207MPD1    H1 3203   3.291   3.948   9.590 -0.4220  0.0064 -0.3071
  207MPD1    H2 3204   3.052   3.913   9.229  1.9719 -0.4359 -0.2409
  207MPD1    H3 3205   3.243   4.016   9.353  1.4607 -0.6552 -0.1741
  207MPD1     N 3206   3.144   3.804   9.737 -0.0320  0.2146  0.1174
  207MPD1    H5 3207   3.216   3.865   9.776 -0.4097 -0.3689  1.7024
  207MPD1    N1 3208   2.897   3.730   9.319  0.1134 -0.4310  0.0128
  207MPD1    H6 3209   2.931   3.724   9.223 -0.2698  1.6815 -0.2488
  207MPD1    H7 3210   2.881   3.633   9.345 -1.9317 -0.2526 -0.5644
  208MPD1     C 3211   4.404   1.075  17.076  0.5680  1.1024 -0.2311
  208MPD1    C1 3212   4.344   1.050  17.195  0.1519 -0.2769  0.0414
  208MPD1    C2 3213   4.264   1.147  17.252 -0.5492 -0.7056 -0.5876
  208MPD1    C3 3214   4.239   1.266  17.185 -0.0790  0.1250  0.4798
  208MPD1    C4 3215   4.280   1.286  17.059  0.1394  1.1693 -0.0209
  208MPD1    C5 3216   4.370   1.197  17.014  0.0712  0.7659  0.4880
  208MPD1     H 3217   4.233   1.135  17.356  1.5325 -1.4657 -0.0717
  208MPD1    H1 3218   4.270   1.381  17.008  0.5889  0.9962 -0.4328
  208MPD1    H2 3219   4.486   1.020  17.032  0.5603 -0.5802  1.8622
  208MPD1    H3 3220   4.419   1.215  16.919  0.9938 -0.3545  0.7511
  208MPD1     N 3221   4.164   1.365  17.254  0.0280 -0.4672  0.5387
  208MPD1    H5 3222   4.158   1.345  17.353 -1.5394 -0.9504  0.3573
  208MPD1    N1 3223   4.386   0.939  17.274 -0.3583 -0.1268  0.1835
  208MPD1    H6 3224   4.408   0.862  17.211  0.6479 -1.0754  1.6595
  208MPD1    H7 3225   4.303   0.911  17.326 -1.0809  2.0177  0.1736
  209MPD1     C 3226   2.158   2.835  11.062 -0.5314  0.1705 -0.8694
  209MPD1    C1 3227   2.141   2.918  10.953 -0.5780 -0.4580  0.4254
  209MPD1    C2 3228   2.250   2.993  10.928 -0.1922 -0.1090 -0.1399
  209MPD1    C3 3229   2.354   3.007  11.015  0.4597 -0.1251 -0.3059
  209MPD1    C4 3230   2.360   2.929  11.131  0.2699  0.0435  1.0370
  209MPD1    C5 3231   2.264   2.832  11.146  0.0439 -0.1066 -0.1170
  209MPD1     H 3232   2.248   3.051  10.837  1.1576  0.5251  0.2475
  209MPD1    H1 3233   2.436   2.929  11.208  1.8018  1.2134 -0.4742
  209MPD1    H2 3234   2.075   2.770  11.087  1.0790 -2.1148 -1.4586
  209MPD1    H3 3235   2.254   2.778  11.240  1.0997  1.0650  0.6780
  209MPD1     N 3236   2.456   3.095  10.985  0.2561  0.0575 -0.3404
  209MPD1    H5 3237   2.459   3.139  10.893  1.8567  0.8832  0.1149
  209MPD1    N1 3238   2.033   2.904  10.863  0.0999 -0.0176 -0.2555
  209MPD1    H6 3239   2.005   2.993  10.822  0.5762  0.1405 -0.2441
  209MPD1    H7 3240   1.954   2.842  10.881  0.2953  0.6999  3.0597
  210MPD1     C 3241   3.242   3.777  11.369 -0.1705  0.1706  0.1885
  210MPD1    C1 3242   3.132   3.718  11.431 -0.2033 -0.0201 -0.4288
  210MPD1    C2 3243   3.061   3.618  11.358  0.0815 -0.0151 -0.3130
  210MPD1    C3 3244   3.086   3.596  11.224  0.0568 -0.4937 -0.3222
  210MPD1    C4 3245   3.181   3.669  11.158 -0.5822  0.6079 -0.3682
  210MPD1    C5 3246   3.256   3.759  11.234 -0.4748 -0.2664 -0.9768
  210MPD1     H 3247   2.986   3.557  11.406 -0.8188  0.8330 -0.6370
  210MPD1    H1 3248   3.190   3.665  11.050 -0.8575  1.6548 -0.4347
  210MPD1    H2 3249   3.320   3.831  11.422 -0.9077 -0.0375  1.4819
  210MPD1    H3 3250   3.333   3.814  11.180  0.1258 -1.7128 -1.5825
  210MPD1     N 3251   2.998   3.513  11.144 -0.0655 -0.1651  0.1399
  210MPD1    H5 3252   3.021   3.500  11.046 -0.9305 -0.8865  0.0348
  210MPD1    N1 3253   3.123   3.730  11.568  0.6888 -0.4698 -0.7803
  210MPD1    H6 3254   3.171   3.653  11.615  0.1559  0.0495  0.6279
  210MPD1    H7 3255   3.168   3.816  11.599 -3.8931  1.4886  0.4220
  211MPD1     C 3256   4.367   2.614  17.219  0.0301 -0.0499  0.2297
  211MPD1    C1 3257   4.323   2.505  17.154 -0.2077 -0.4788  0.4575
  211MPD1    C2 3258   4.250   2.530  17.040 -0.0740  0.6431 -0.0654
  211MPD1    C3 3259   4.229   2.651  16.986 -0.1325 -0.1763  0.4120
  211MPD1    C4 3260   4.279   2.759  17.057  0.4509 -0.1514 -0.2241
  211MPD1    C5 3261   4.340   2.739  17.175  0.4175  0.4635 -0.4579
  211MPD1     H 3262   4.226   2.447  16.975 -0.8066  0.8695 -0.0772
  211MPD1    H1 3263   4.274   2.862  17.022 -0.6355  0.1445  0.8156
  211MPD1    H2 3264   4.427   2.603  17.308 -0.4308 -1.6340  0.3427
  211MPD1    H3 3265   4.372   2.830  17.225 -0.1480  0.5692 -0.2796
  211MPD1     N 3266   4.157   2.658  16.866 -0.5203  0.1540  0.0955
  211MPD1    H5 3267   4.122   2.569  16.831  0.6604 -0.1728 -0.2410
  211MPD1    N1 3268   4.360   2.373  17.186 -0.4115 -0.3528 -0.1200
  211MPD1    H6 3269   4.381   2.367  17.286  0.2956  2.7182 -0.0826
  211MPD1    H7 3270   4.295   2.298  17.164 -0.8035 -1.2952  4.2127
  212MPD1     C 3271   3.725   1.365  16.605  0.0918  0.3824  0.0267
  212MPD1    C1 3272   3.614   1.416  16.659  0.1680 -0.4130 -0.2487
  212MPD1    C2 3273   3.531   1.332  16.731 -0.1965  0.4223 -0.3160
  212MPD1    C3 3274   3.559   1.197  16.753  0.6085  0.3676  0.0156
  212MPD1    C4 3275   3.672   1.151  16.695  0.2216  0.1306  0.5645
  212MPD1    C5 3276   3.754   1.238  16.631  0.2822  0.2295 -0.0274
  212MPD1     H 3277   3.437   1.370  16.768 -0.2992 -2.0208  1.9686
  212MPD1    H1 3278   3.707   1.052  16.721 -0.1001  0.1851  1.2016
  212MPD1    H2 3279   3.790   1.426  16.545 -0.2671 -0.6417 -1.3963
  212MPD1    H3 3280   3.839   1.192  16.582  1.8896  3.3812 -0.1810
  212MPD1     N 3281   3.481   1.115  16.831  0.0162 -0.1381  0.0282
  212MPD1    H5 3282   3.524   1.024  16.842  0.1991  0.1694  1.9301
  212MPD1    N1 3283   3.578   1.550  16.625  0.4950  0.3598  0.0013
  212MPD1    H6 3284   3.525   1.597  16.699  1.1704 -0.5707  1.0754
  212MPD1    H7 3285   3.650   1.620  16.611 -0.0774  0.7873 -0.7543
  213MPD1     C 3286   1.281   1.287  15.582  0.1733  0.4084  0.6573
  213MPD1    C1 3287   1.148   1.332  15.587  0.1507  0.6519  0.0755
  213MPD1    C2 3288   1.115   1.416  15.482 -0.0256 -0.1129  0.1342
  213MPD1    C3 3289   1.211   1.472  15.396 -0.2579  0.6469  0.3624
  213MPD1    C4 3290   1.344   1.444  15.419 -0.0319  0.1340 -0.4655
  213MPD1    C5 3291   1.379   1.355  15.512 -0.6517  0.2229  0.0823
  213MPD1     H 3292   1.011   1.443  15.467  0.3709  2.2550  1.6370
  213MPD1    H1 3293   1.422   1.490  15.360  0.0313 -0.4111 -0.8170
  213MPD1    H2 3294   1.313   1.222  15.663 -0.7651  0.1195  0.7944
  213MPD1    H3 3295   1.483   1.349  15.541 -0.5697 -2.5238 -0.7545
  213MPD1     N 3296   1.168   1.576  15.304 -0.0483  0.9733  0.3085
  213MPD1    H5 3297   1.067   1.583  15.302 -0.1020 -0.7411 -3.1033
  213MPD1    N1 3298   1.051   1.244  15.645  0.1354 -0.4496 -0.2017
  213MPD1    H6 3299   1.086   1.202  15.731  1.1803  1.5185  0.3353
  213MPD1    H7 3300   0.968   1.291  15.679  0.0977 -1.3306  0.9245
  214MPD1     C 3301   1.090   1.242  14.455 -0.2353  0.1256  0.3102
  214MPD1    C1 3302   1.010   1.212  14.564  0.3410  0.4183  0.6323
  214MPD1    C2 3303   0.994   1.313  14.656 -0.3381 -0.1393 -0.2752
  214MPD1    C3 3304   1.069   1.436  14.659  0.5295  0.4565 -0.3874
  214MPD1    C4 3305   1.141   1.456  14.546 -0.1395  0.3136  0.1961
  214MPD1    C5 3306   1.154   1.362  14.449  0.9356 -0.4628  0.2216
  214MPD1     H 3307   0.914   1.287  14.725  1.4175 -1.8321  1.1169
  214MPD1    H1 3308   1.188   1.553  14.532  1.1134 -0.3790 -0.2940
  214MPD1    H2 3309   1.124   1.173  14.379 -0.7290 -0.7716  0.9120
  214MPD1    H3 3310   1.214   1.386  14.363 -1.9306  0.0541 -1.6198
  214MPD1     N 3311   1.063   1.538  14.752  0.0586  0.0413 -0.2273
  214MPD1    H5 3312   1.118   1.623  14.744  2.7948 -1.6538  0.5838
  214MPD1    N1 3313   0.936   1.092  14.572 -0.4287 -0.2921  0.0900
  214MPD1    H6 3314   0.959   1.049  14.661  1.8415 -1.0213 -0.8632
  214MPD1    H7 3315   0.947   1.031  14.491  0.9926 -0.1754  0.2061
  215MPD1     C 3316   1.465   3.212  10.892  0.3741 -0.0033  0.0531
  215MPD1    C1 3317   1.573   3.293  10.858  0.2206 -0.1942 -0.9356
  215MPD1    C2 3318   1.693   3.276  10.918 -0.2401 -0.1122 -0.8815
  215MPD1    C3 3319   1.708   3.184  11.018  0.1575  0.6820  0.3556
  215MPD1    C4 3320   1.596   3.115  11.056  0.2831  0.0118  0.1721
  215MPD1    C5 3321   1.474   3.120  10.992 -0.2317 -0.5983  0.2282
  215MPD1     H 3322   1.784   3.323  10.883 -0.5833 -0.0506 -1.6828
  215MPD1    H1 3323   1.595   3.055  11.146  1.0855  2.3269  1.6929
  215MPD1    H2 3324   1.370   3.227  10.842  1.0745  1.8314 -0.7477
  215MPD1    H3 3325   1.389   3.065  11.030  1.4076 -2.4394  1.2386
  215MPD1     N 3326   1.834   3.161  11.070  0.0465 -0.0673 -0.2367
  215MPD1    H5 3327   1.910   3.216  11.033  1.4162 -1.5029  0.4762
  215MPD1    N1 3328   1.567   3.376  10.748 -0.1006 -0.0340 -0.1263
  215MPD1    H6 3329   1.629   3.457  10.756  1.6372 -1.4466  0.6836
  215MPD1    H7 3330   1.475   3.416  10.730  0.3918  1.4436  0.5995
  216MPD1     C 3331   2.381   0.240   0.658 -0.2931 -0.5815 -0.8002
  216MPD1    C1 3332   2.425   0.155   0.560 -0.4237 -0.2949  0.6894
  216MPD1    C2 3333   2.542   0.084   0.575 -0.1192 -0.8869  0.7228
  216MPD1    C3 3334   2.628   0.112   0.679 -0.8773 -0.1781 -0.1354
  216MPD1    C4 3335   2.580   0.195   0.777  0.5976 -0.7307 -0.8737
  216MPD1    C5 3336   2.465   0.268   0.763 -0.0341 -0.3379  0.1411
  216MPD1     H 3337   2.584   0.026   0.492  2.0659  0.2899  1.0049
  216MPD1    H1 3338   2.647   0.223   0.857 -1.9468 -1.4289  1.4855
  216MPD1    H2 3339   2.286   0.293   0.659 -0.8570 -1.6024  0.1964
  216MPD1    H3 3340   2.430   0.330   0.845 -0.3769  0.2579 -0.4588
  216MPD1     N 3341   2.753   0.036   0.686  0.0408  0.5057 -0.0893
  216MPD1    H5 3342   2.774   4.719   0.602  0.7867  0.4820  0.1113
  216MPD1    N1 3343   2.341   0.124   0.449  0.0031 -0.6113 -0.4573
  216MPD1    H6 3344   2.396   0.080   0.376 -1.8419 -0.6258 -1.8212
  216MPD1    H7 3345   2.290   0.204   0.413  0.6801 -1.1319 -2.5304
  217MPD1     C 3346   3.962   2.833   9.104  0.6312 -0.0524  0.3248
  217MPD1    C1 3347   4.026   2.892   9.210  0.2497 -0.0056 -0.2020
  217MPD1    C2 3348   4.148   2.848   9.241 -0.0911 -0.4347  0.1809
  217MPD1    C3 3349   4.212   2.749   9.166  0.2060  0.0470  0.0665
  217MPD1    C4 3350   4.143   2.689   9.060  0.2931  0.2006  0.3626
  217MPD1    C5 3351   4.014   2.734   9.025  0.0505 -0.0718  0.4541
  217MPD1     H 3352   4.198   2.888   9.329  1.2353 -0.0429 -0.7527
  217MPD1    H1 3353   4.186   2.600   9.016  0.0693  0.1079  0.3312
  217MPD1    H2 3354   3.863   2.868   9.075 -0.4132 -3.0875  0.2130
  217MPD1    H3 3355   3.948   2.695   8.948 -0.1183  2.8494 -0.8825
  217MPD1     N 3356   4.342   2.715   9.202  0.4950  0.0710  0.3000
  217MPD1    H5 3357   4.373   2.760   9.288  0.0934  0.6645  0.1363
  217MPD1    N1 3358   3.952   2.973   9.297 -1.1233  0.0012  0.2954
  217MPD1    H6 3359   4.008   3.036   9.353 -1.8317  0.4652  0.4929
  217MPD1    H7 3360   3.879   3.029   9.253 -0.2256  1.3353  0.5298
  218MPD1     C 3361   1.841   3.333  12.984  0.4472 -0.2996 -0.2859
  218MPD1    C1 3362   1.891   3.339  12.864  0.1104 -0.2323  0.2300
  218MPD1    C2 3363   1.918   3.215  12.810  0.1873 -0.3398 -0.2078
  218MPD1    C3 3364   1.894   3.093  12.872 -1.1767 -0.0258  0.0089
  218MPD1    C4 3365   1.834   3.093  12.993 -0.0217  0.7037  0.3274
  218MPD1    C5 3366   1.815   3.216  13.045  0.2257  0.4406 -0.0143
  218MPD1     H 3367   1.960   3.220  12.710  1.4483 -0.7165  0.3162
  218MPD1    H1 3368   1.806   3.002  13.043 -0.1261  0.9627  0.7387
  218MPD1    H2 3369   1.818   3.420  13.046 -0.5751 -0.3101 -0.6421
  218MPD1    H3 3370   1.762   3.230  13.139 -0.7136  0.9476 -0.6093
  218MPD1     N 3371   1.905   2.973  12.794 -0.3385  0.4989 -0.4961
  218MPD1    H5 3372   1.938   2.980  12.698  0.2201 -4.1425 -0.6370
  218MPD1    N1 3373   1.936   3.452  12.800 -0.6041  0.1517 -0.5831
  218MPD1    H6 3374   1.878   3.534  12.820 -1.9147 -0.4833 -1.7991
  218MPD1    H7 3375   1.936   3.438  12.699 -2.5210  0.9100 -0.7020
  219MPD1     C 3376   1.825   2.596  11.909  0.9090 -0.6036 -0.7898
  219MPD1    C1 3377   1.910   2.682  11.972 -0.5407 -0.2537 -0.0399
  219MPD1    C2 3378   1.913   2.687  12.109  0.1512  0.0151  0.8012
  219MPD1    C3 3379   1.835   2.599  12.184  1.0274  0.0912 -0.3310
  219MPD1    C4 3380   1.748   2.515  12.119 -0.5911  0.0117  0.5399
  219MPD1    C5 3381   1.750   2.513  11.984 -0.7134 -0.1234 -0.1984
  219MPD1     H 3382   1.977   2.757  12.160  0.2670 -1.0030  2.0389
  219MPD1    H1 3383   1.676   2.444  12.157 -2.0309  0.5659 -1.1378
  219MPD1    H2 3384   1.811   2.599  11.802  2.0522  2.2312 -0.8522
  219MPD1    H3 3385   1.675   2.451  11.936 -1.0527 -1.1619  1.6800
  219MPD1     N 3386   1.839   2.588  12.325 -0.2638 -0.7938 -0.5697
  219MPD1    H5 3387   1.787   2.510  12.362 -1.9931  1.2836  1.3888
  219MPD1    N1 3388   1.999   2.759  11.895  0.0631  0.0441 -0.3373
  219MPD1    H6 3389   2.032   2.845  11.938 -1.5051 -0.4899  1.9482
  219MPD1    H7 3390   1.967   2.767  11.799  2.4877  1.0973 -1.0476
  220MPD1     C 3391   2.848   4.076   9.926 -0.1245  0.0665  0.3585
  220MPD1    C1 3392   2.803   3.974   9.850 -0.2050 -0.2798  0.0975
  220MPD1    C2 3393   2.732   3.877   9.915 -0.4101  0.2619 -0.4874
  220MPD1    C3 3394   2.709   3.881  10.057  0.3160 -0.0409 -0.2535
  220MPD1    C4 3395   2.758   3.983  10.128  0.0057  0.2255 -0.6734
  220MPD1    C5 3396   2.822   4.085  10.059  0.2525  0.2833 -0.1160
  220MPD1     H 3397   2.690   3.801   9.851  2.7214 -0.6892 -1.3871
  220MPD1    H1 3398   2.743   3.997  10.235  0.7383 -2.3505 -0.2370
  220MPD1    H2 3399   2.899   4.152   9.868  0.3207 -1.3135 -1.0518
  220MPD1    H3 3400   2.863   4.168  10.116  4.0278  0.2630 -2.7835
  220MPD1     N 3401   2.623   3.798  10.131  0.1151  0.4025 -0.0825
  220MPD1    H5 3402   2.599   3.823  10.227 -1.2712  1.3745 -0.6808
  220MPD1    N1 3403   2.785   3.991   9.712 -0.0045 -0.3851 -0.6013
  220MPD1    H6 3404   2.867   4.038   9.673 -0.3961 -0.5389 -1.6055
  220MPD1    H7 3405   2.772   3.904   9.661 -2.0157  0.9064 -2.3300
  221MPD1     C 3406   3.633   2.675  15.921 -0.4006  0.0608  0.1967
  221MPD1    C1 3407   3.616   2.625  16.048  0.1212  0.6557 -0.3241
  221MPD1    C2 3408   3.715   2.631  16.142 -0.4108  0.1754  0.3690
  221MPD1    C3 3409   3.836   2.680  16.108  0.5189 -0.2727 -1.0848
  221MPD1    C4 3410   3.859   2.716  15.973 -0.0747  0.3359  0.1490
  221MPD1    C5 3411   3.755   2.712  15.881  0.3059  0.6683  0.4826
  221MPD1     H 3412   3.691   2.626  16.248 -0.9088  0.2613  0.2635
  221MPD1    H1 3413   3.956   2.754  15.945 -0.0449 -0.2858 -0.5904
  221MPD1    H2 3414   3.549   2.674  15.851 -1.1832 -0.2497  1.1458
  221MPD1    H3 3415   3.765   2.746  15.778 -2.4736  0.9280  0.3090
  221MPD1     N 3416   3.941   2.680  16.200  0.2602 -0.3625 -0.7466
  221MPD1    H5 3417   4.018   2.735  16.164  0.1563  0.8291  0.8758
  221MPD1    N1 3418   3.490   2.585  16.082  0.5196 -0.2465 -0.0860
  221MPD1    H6 3419   3.490   2.505  16.146  0.5711  0.3108  0.6107
  221MPD1    H7 3420   3.440   2.557  15.998 -1.2396  0.9290  0.5619
  222MPD1     C 3421   2.329   4.655   0.060 -0.4421  0.5912 -0.3343
  222MPD1    C1 3422   2.454   4.710   0.075 -0.5469 -0.2045  0.3398
  222MPD1    C2 3423   2.467   0.108   0.106  0.0633  0.3203 -0.1876
  222MPD1    C3 3424   2.355   0.191   0.120  0.5142  0.4640  0.0085
  222MPD1    C4 3425   2.229   0.130   0.110 -0.0478 -0.6157 -0.1315
  222MPD1    C5 3426   2.214   4.731   0.092  0.3196 -0.1258  0.1807
  222MPD1     H 3427   2.565   0.147   0.130 -0.1103  0.0581  0.9473
  222MPD1    H1 3428   2.138   0.189   0.115  0.0945 -0.4931  0.9487
  222MPD1    H2 3429   2.314   4.549   0.041  0.2705  0.3938  0.2141
  222MPD1    H3 3430   2.115   4.687   0.094  0.0079  0.5573 -0.5294
  222MPD1     N 3431   2.357   0.330   0.167  0.5200 -0.3902  0.4570
  222MPD1    H5 3432   2.275   0.374   0.207  1.3400  1.1578  0.4451
  222MPD1    N1 3433   2.572   4.648   0.040 -0.1229 -0.8080 -0.1984
  222MPD1    H6 3434   2.566   4.550   0.064  0.2740 -0.9817 -0.8229
  222MPD1    H7 3435   2.657   4.679   0.086  0.0740 -1.8457  0.1289
  223MPD1     C 3436   2.019   0.435   0.883 -0.2405  0.0933  0.1687
  223MPD1    C1 3437   1.982   0.421   0.751 -0.4733 -0.6856  1.1153
  223MPD1    C2 3438   2.064   0.469   0.648  1.2653  0.4429  0.3354
  223MPD1    C3 3439   2.183   0.530   0.682 -0.4079 -0.6711  0.5539
  223MPD1    C4 3440   2.223   0.553   0.814  0.1865 -0.2716  0.1901
  223MPD1    C5 3441   2.136   0.506   0.912  0.2854 -0.0958 -0.7517
  223MPD1     H 3442   2.031   0.468   0.545  2.3407 -0.6838  0.0010
  223MPD1    H1 3443   2.315   0.594   0.854 -0.6917 -0.2400  2.1548
  223MPD1    H2 3444   1.963   0.395   0.967  0.5600  2.8597  1.9859
  223MPD1    H3 3445   2.167   0.511   1.016  1.6702 -4.6481 -0.9419
  223MPD1     N 3446   2.265   0.559   0.574  0.3333 -0.0196 -0.5525
  223MPD1    H5 3447   2.222   0.548   0.483  1.2184  1.8314 -1.2003
  223MPD1    N1 3448   1.860   0.357   0.720  0.3835 -0.1831  0.4372
  223MPD1    H6 3449   1.840   0.382   0.623  0.4233 -0.9194  0.2396
  223MPD1    H7 3450   1.789   0.403   0.777 -0.3173 -0.9506  0.1692
  224MPD1     C 3451   4.521   3.022   9.158  0.4550  0.5197 -0.3612
  224MPD1    C1 3452   4.522   3.114   9.262 -0.0456  0.5173 -0.1834
  224MPD1    C2 3453   4.642   3.137   9.328 -0.6042 -0.1461  0.0147
  224MPD1    C3 3454   0.016   3.058   9.300  0.2047 -0.2740  0.3196
  224MPD1    C4 3455   0.006   2.963   9.202  0.3847  0.2342 -0.1334
  224MPD1    C5 3456   4.629   2.947   9.133  0.4846 -0.5583  0.6087
  224MPD1     H 3457   4.646   3.212   9.406 -1.1470 -1.8638  1.6985
  224MPD1    H1 3458   0.097   2.906   9.184  1.8854  2.5215  0.2157
  224MPD1    H2 3459   4.432   3.010   9.096  0.8866 -1.3859 -0.6254
  224MPD1    H3 3460   4.640   2.884   9.046  0.3571 -3.1272  2.4435
  224MPD1     N 3461   0.140   3.064   9.361 -0.5032 -0.1286 -0.5006
  224MPD1    H5 3462   0.203   2.987   9.341  0.6250  1.1723 -1.9041
  224MPD1    N1 3463   4.406   3.197   9.278 -0.5631  0.3747 -0.4765
  224MPD1    H6 3464   4.319   3.146   9.260 -0.9160  0.1580  1.8743
  224MPD1    H7 3465   4.392   3.230   9.373  0.0027 -0.2094 -0.1913
  225MPD1     C 3466   1.839   3.857  12.550  0.6056 -0.2369  0.3692
  225MPD1    C1 3467   1.755   3.938  12.621  0.2326  0.1911  0.1035
  225MPD1    C2 3468   1.620   3.930  12.578  0.2433  0.1560  0.8732
  225MPD1    C3 3469   1.569   3.832  12.493 -0.4400  0.9890 -0.2619
  225MPD1    C4 3470   1.657   3.740  12.442  0.2087  0.3169 -0.1661
  225MPD1    C5 3471   1.791   3.758  12.466 -0.9683 -0.1298 -0.4287
  225MPD1     H 3472   1.562   4.012  12.618  2.2489  1.2868  1.4287
  225MPD1    H1 3473   1.615   3.674  12.368  0.2962 -1.1300  1.0824
  225MPD1    H2 3474   1.947   3.865  12.558  0.7376 -1.7318  0.1146
  225MPD1    H3 3475   1.861   3.685  12.427  0.5987  2.1934 -1.9906
  225MPD1     N 3476   1.433   3.809  12.470 -0.2850  0.1006 -0.3052
  225MPD1    H5 3477   1.408   3.725  12.420  2.5403  0.0210 -1.5265
  225MPD1    N1 3478   1.801   4.032  12.708 -0.3706  0.3960  0.1986
  225MPD1    H6 3479   1.894   4.016  12.746 -0.2661 -1.6305 -0.9564
  225MPD1    H7 3480   1.737   4.063  12.781 -0.1100 -1.0083  1.0133
  226MPD1     C 3481   0.680   4.710   9.456  0.3476 -0.1925  0.5038
  226MPD1    C1 3482   0.725   4.658   9.573  0.4842 -0.1661 -0.7063
  226MPD1    C2 3483   0.727   4.525   9.594  0.2460 -0.5073  0.4670
  226MPD1    C3 3484   0.686   4.434   9.500 -0.3020  0.3190  0.2666
  226MPD1    C4 3485   0.654   4.482   9.375  0.9259 -0.5079 -0.1322
  226MPD1    C5 3486   0.647   4.623   9.359  0.6932 -0.0167  0.7335
  226MPD1     H 3487   0.761   4.482   9.687 -2.0262 -2.5371  0.3415
  226MPD1    H1 3488   0.612   4.420   9.296  2.7342 -0.2842 -1.2742
  226MPD1    H2 3489   0.680   0.080   9.432 -1.1305  0.2140  2.2884
  226MPD1    H3 3490   0.614   4.662   9.264  0.4981  1.1766  1.2954
  226MPD1     N 3491   0.695   4.299   9.533  0.4890  0.2694  0.5166
  226MPD1    H5 3492   0.725   4.274   9.627 -0.2241 -0.3908  0.5606
  226MPD1    N1 3493   0.776   0.007   9.666 -0.6884 -0.1029  0.2910
  226MPD1    H6 3494   0.738   0.102   9.667 -3.6193 -1.2460 -3.0282
  226MPD1    H7 3495   0.772   4.704   9.760 -0.7255  0.4644  0.5264
  227MPD1     C 3496   1.368   3.607   9.826 -0.2471 -0.6289  0.3114
  227MPD1    C1 3497   1.313   3.563   9.709 -1.1515 -0.1682 -0.0309
  227MPD1    C2 3498   1.185   3.604   9.672  0.3286 -0.1918  0.0981
  227MPD1    C3 3499   1.136   3.718   9.723 -0.4834  0.8451  0.4477
  227MPD1    C4 3500   1.210   3.787   9.815 -0.6601 -0.5882  0.2313
  227MPD1    C5 3501   1.318   3.726   9.873 -0.1233  0.3227 -0.1915
  227MPD1     H 3502   1.126   3.543   9.606 -2.7604 -1.0852  3.6561
  227MPD1    H1 3503   1.169   3.874   9.865 -0.6262 -0.1745 -0.4462
  227MPD1    H2 3504   1.454   3.562   9.875  0.4488 -1.1664 -1.4031
  227MPD1    H3 3505   1.369   3.761   9.962  0.6074 -1.2320  0.0007
  227MPD1     N 3506   1.015   3.771   9.665  0.1170 -0.6655 -0.4956
  227MPD1    H5 3507   0.969   3.714   9.594 -0.1454  0.2176 -1.0335
  227MPD1    N1 3508   1.345   3.431   9.676  0.5764 -0.1317 -0.0668
  227MPD1    H6 3509   1.298   3.401   9.591 -0.7703 -1.7764  1.2628
  227MPD1    H7 3510   1.444   3.415   9.689  0.3996  1.2265  3.1578
  228MPD1     C 3511   3.983   0.827  13.006 -0.3745  0.8023 -0.2795
  228MPD1    C1 3512   3.958   0.961  13.030 -0.4486 -0.9870 -0.0484
  228MPD1    C2 3513   3.837   1.006  12.984  0.1209 -0.4043  0.1911
  228MPD1    C3 3514   3.730   0.923  12.951 -0.0189  0.2304 -0.0984
  228MPD1    C4 3515   3.755   0.789  12.946  0.4645 -0.0924 -0.4672
  228MPD1    C5 3516   3.885   0.746  12.958 -0.1157  0.6376 -0.3756
  228MPD1     H 3517   3.823   1.114  12.982 -0.4359 -0.4839 -0.0865
  228MPD1    H1 3518   3.679   0.712  12.936 -0.2826  0.5833 -0.0509
  228MPD1    H2 3519   4.084   0.791  13.021 -0.1247  1.8333  0.5619
  228MPD1    H3 3520   3.902   0.645  12.922  1.0824  1.0721 -1.0282
  228MPD1     N 3521   3.607   0.983  12.922  0.0945 -0.3677  0.2328
  228MPD1    H5 3522   3.608   1.083  12.905  2.4298 -0.7654 -1.9336
  228MPD1    N1 3523   4.078   1.033  13.049  0.0593 -0.5890  0.4760
  228MPD1    H6 3524   4.073   1.122  13.099  0.8226 -1.0726  1.4223
  228MPD1    H7 3525   4.149   0.973  13.090  1.3897  0.5414 -0.1637
  229MPD1     C 3526   2.388   0.598  14.125  0.4531  0.6563 -0.5563
  229MPD1    C1 3527   2.366   0.690  14.226 -0.2937  0.4465  0.2907
  229MPD1    C2 3528   2.398   0.652  14.361  0.4907 -0.1778  0.0026
  229MPD1    C3 3529   2.469   0.531  14.378  0.2660 -0.7033 -0.7934
  229MPD1    C4 3530   2.483   0.448  14.274 -0.2566  0.4574 -0.7155
  229MPD1    C5 3531   2.436   0.481  14.151 -0.2146  0.2172 -0.3280
  229MPD1     H 3532   2.365   0.715  14.442 -0.4927  0.3242 -0.7869
  229MPD1    H1 3533   2.523   0.348  14.284  2.4471  1.3585 -2.4368
  229MPD1    H2 3534   2.349   0.622  14.027 -0.1531  0.1676 -0.4386
  229MPD1    H3 3535   2.437   0.401  14.078 -4.2244 -0.4984  0.3714
  229MPD1     N 3536   2.526   0.483  14.506  0.3552  0.0647  0.7328
  229MPD1    H5 3537   2.596   0.411  14.492 -1.2440 -1.4561  0.5918
  229MPD1    N1 3538   2.289   0.806  14.200  0.3885  0.0973  0.1172
  229MPD1    H6 3539   2.304   0.871  14.277 -0.0684  0.5030 -0.1418
  229MPD1    H7 3540   2.320   0.856  14.117  2.2345  0.1801  0.8352
  230MPD1     C 3541   2.763   0.408  15.576 -0.7095  0.3921  1.0738
  230MPD1    C1 3542   2.741   0.289  15.515  0.5890  0.2733  0.3647
  230MPD1    C2 3543   2.716   0.285  15.378 -0.0900 -1.0237  0.5172
  230MPD1    C3 3544   2.726   0.394  15.300 -0.3132  0.2317  0.7433
  230MPD1    C4 3545   2.735   0.523  15.361  0.3676  0.2663 -0.3031
  230MPD1    C5 3546   2.746   0.526  15.498 -0.6723  0.0234  0.2612
  230MPD1     H 3547   2.705   0.186  15.334 -1.3660 -0.1297 -1.1657
  230MPD1    H1 3548   2.747   0.607  15.294  1.6371  1.0796  0.9355
  230MPD1    H2 3549   2.775   0.413  15.683 -0.0397 -0.4138  1.0421
  230MPD1    H3 3550   2.741   0.621  15.549 -0.1083 -0.2688  0.8610
  230MPD1     N 3551   2.730   0.383  15.161  0.1704  0.3038  0.2810
  230MPD1    H5 3552   2.747   0.288  15.128 -0.6775 -0.1257  1.0836
  230MPD1    N1 3553   2.719   0.180  15.603  0.0241 -0.0174 -0.6262
  230MPD1    H6 3554   2.746   0.088  15.569 -1.7935 -1.0762  0.7933
  230MPD1    H7 3555   2.771   0.191  15.690 -2.4109  2.0635  0.5708
  231MPD1     C 3556   1.010   2.048  15.241 -0.2615  0.0353  0.2367
  231MPD1    C1 3557   0.914   2.090  15.155 -0.0546 -0.2575  0.1864
  231MPD1    C2 3558   0.944   2.204  15.080 -0.2536 -0.1687  0.1030
  231MPD1    C3 3559   1.071   2.261  15.084 -0.1322  0.2953 -0.5931
  231MPD1    C4 3560   1.169   2.214  15.165 -0.1530  0.0774  0.3147
  231MPD1    C5 3561   1.141   2.103  15.243  0.2296  0.4306 -0.5487
  231MPD1     H 3562   0.871   2.248  15.013 -0.6400  0.3801  0.8783
  231MPD1    H1 3563   1.267   2.260  15.173 -1.5788  3.0779  0.3358
  231MPD1    H2 3564   0.987   1.972  15.314  1.6243  0.7586  1.5872
  231MPD1    H3 3565   1.207   2.067  15.322  0.3423  1.8370 -0.0021
  231MPD1     N 3566   1.100   2.352  14.987 -0.2895  0.5851  0.2505
  231MPD1    H5 3567   1.033   2.360  14.910 -0.3566 -1.8807  0.0570
  231MPD1    N1 3568   0.785   2.031  15.152 -1.1014  0.3225 -0.4624
  231MPD1    H6 3569   0.749   2.052  15.058 -0.6451 -0.1363 -0.7364
  231MPD1    H7 3570   0.791   1.930  15.157  0.6934  0.4506  0.0605
  232MPD1     C 3571   2.532   0.041  17.104 -0.1712 -0.6175 -0.4990
  232MPD1    C1 3572   2.513   0.105  17.226 -0.1146  0.2809  0.2292
  232MPD1    C2 3573   2.423   0.042  17.316  0.1652  0.2233 -0.3738
  232MPD1    C3 3574   2.374   4.648  17.298  0.5259 -0.7066 -0.5172
  232MPD1    C4 3575   2.417   4.577  17.190 -0.0950  0.3597 -0.8855
  232MPD1    C5 3576   2.484   4.652  17.093  0.5105 -0.3158 -0.9537
  232MPD1     H 3577   2.386   0.105  17.396  1.9328  0.4029  0.2944
  232MPD1    H1 3578   2.401   4.471  17.176 -2.2293  0.3818  1.4833
  232MPD1    H2 3579   2.577   0.087  17.017  0.6163 -1.5973 -0.6063
  232MPD1    H3 3580   2.515   4.600  17.003 -0.6576 -0.7862 -1.0861
  232MPD1     N 3581   2.283   4.600  17.386 -0.2210  0.2972 -0.0607
  232MPD1    H5 3582   2.234   4.666  17.446 -2.1133 -0.5071 -0.7124
  232MPD1    N1 3583   2.535   0.241  17.243  0.3300  0.0221 -0.3012
  232MPD1    H6 3584   2.541   0.264  17.342  2.0224  1.2669 -0.6876
  232MPD1    H7 3585   2.610   0.274  17.183  0.8360  0.4405  0.5621
  233MPD1     C 3586   2.814   2.209   0.850 -0.0133 -0.1610 -0.1682
  233MPD1    C1 3587   2.832   2.220   0.983  0.0075 -0.6670  0.0047
  233MPD1    C2 3588   2.963   2.231   1.031 -0.2223 -0.1257  0.0943
  233MPD1    C3 3589   3.062   2.259   0.944  0.3153 -0.0571  0.8410
  233MPD1    C4 3590   3.042   2.263   0.807  0.1138 -0.0435 -0.2219
  233MPD1    C5 3591   2.921   2.240   0.763 -0.3948 -0.2626 -0.4052
  233MPD1     H 3592   2.979   2.218   1.137  0.5606  0.5910  0.0716
  233MPD1    H1 3593   3.117   2.283   0.732 -0.9304 -0.6818 -1.4382
  233MPD1    H2 3594   2.719   2.187   0.802 -0.7714  2.2772  0.2280
  233MPD1    H3 3595   2.905   2.239   0.655 -0.6170  0.3894 -0.3764
  233MPD1     N 3596   3.197   2.295   0.981  0.2201  0.1350  0.6500
  233MPD1    H5 3597   3.257   2.322   0.904 -1.2058  1.9390  0.1836
  233MPD1    N1 3598   2.726   2.179   1.073 -0.1564  0.2509  0.6655
  233MPD1    H6 3599   2.729   2.213   1.169  3.9544  0.7232  0.3658
  233MPD1    H7 3600   2.631   2.188   1.037  0.1076  2.6773  0.5397
  234MPD1     C 3601   1.303   1.557   9.220  1.2279  0.3233  0.1652
  234MPD1    C1 3602   1.352   1.675   9.259  0.1405 -0.5829  0.2667
  234MPD1    C2 3603   1.265   1.783   9.263 -0.1956  0.8084  0.2569
  234MPD1    C3 3604   1.139   1.769   9.221 -0.4002 -0.1695 -0.2534
  234MPD1    C4 3605   1.102   1.648   9.160 -0.4595 -0.3440 -0.0221
  234MPD1    C5 3606   1.175   1.537   9.178  0.4124 -0.4824  0.1416
  234MPD1     H 3607   1.303   1.878   9.299  0.0904  1.4406 -1.7346
  234MPD1    H1 3608   1.003   1.635   9.118 -0.5927 -0.7707  0.4199
  234MPD1    H2 3609   1.367   1.470   9.227  0.4600 -0.3506 -1.1184
  234MPD1    H3 3610   1.126   1.444   9.153 -0.5578  0.6313 -2.0665
  234MPD1     N 3611   1.051   1.883   9.236 -0.1367  0.3633 -0.3691
  234MPD1    H5 3612   1.101   1.953   9.291 -1.6946  1.0849  0.1141
  234MPD1    N1 3613   1.484   1.679   9.293  0.5557 -0.1609  0.0323
  234MPD1    H6 3614   1.538   1.593   9.282 -1.0686 -1.0566 -1.0426
  234MPD1    H7 3615   1.526   1.758   9.245  0.6162  0.2460  0.7533
  235MPD1     C 3616   2.796   4.137  10.719  0.2603 -0.2498 -0.6776
  235MPD1    C1 3617   2.723   4.172  10.605  0.3825 -0.4765  0.2250
  235MPD1    C2 3618   2.717   4.305  10.584 -0.1012  0.3713 -0.9985
  235MPD1    C3 3619   2.780   4.404  10.663  0.0233  0.6795 -0.4769
  235MPD1    C4 3620   2.849   4.361  10.772  0.5919  0.4332  0.4489
  235MPD1    C5 3621   2.860   4.231  10.795 -0.7128 -0.2442  0.2126
  235MPD1     H 3622   2.674   4.339  10.490  0.7574 -0.2380 -1.6133
  235MPD1    H1 3623   2.894   4.417  10.853  0.6680  0.1405  0.6082
  235MPD1    H2 3624   2.808   4.037  10.759  1.9612 -1.3019 -3.8266
  235MPD1    H3 3625   2.917   4.195  10.880  2.5480  0.1061 -1.8319
  235MPD1     N 3626   2.758   4.542  10.631  0.5864  0.2796  0.4918
  235MPD1    H5 3627   2.701   4.565  10.550  1.4828  1.0425  0.0777
  235MPD1    N1 3628   2.650   4.082  10.527 -0.3178  0.8018 -0.1115
  235MPD1    H6 3629   2.685   3.987  10.541 -0.6817  0.9702  1.9133
  235MPD1    H7 3630   2.613   4.122  10.441 -1.4372 -0.3113 -0.1418
  236MPD1     C 3631   2.165   0.507   9.451 -0.2188 -0.0050  1.5002
  236MPD1    C1 3632   2.039   0.526   9.500  0.1082 -0.1565  0.0216
  236MPD1    C2 3633   2.033   0.522   9.638 -0.2043  0.2998 -0.1384
  236MPD1    C3 3634   2.145   0.541   9.718 -0.6137 -1.0228  0.2156
  236MPD1    C4 3635   2.277   0.536   9.664  0.0707 -0.0104  0.5814
  236MPD1    C5 3636   2.278   0.517   9.531  0.0903 -0.1585  0.0903
  236MPD1     H 3637   1.934   0.534   9.681 -1.3267  0.6729 -2.7977
  236MPD1    H1 3638   2.373   0.540   9.715 -0.3403  1.6097  1.2521
  236MPD1    H2 3639   2.176   0.493   9.344  0.2737  3.7051  1.0551
  236MPD1    H3 3640   2.371   0.496   9.479 -1.1421 -1.5421 -1.5542
  236MPD1     N 3641   2.134   0.559   9.864 -0.2638 -0.0514  0.4819
  236MPD1    H5 3642   2.221   0.571   9.915  0.3760  1.3812 -0.9159
  236MPD1    N1 3643   1.926   0.496   9.424 -0.3301 -0.1369  0.8399
  236MPD1    H6 3644   1.945   0.525   9.328 -0.9413 -0.5635  0.5892
  236MPD1    H7 3645   1.843   0.545   9.456 -0.4610  1.4835 -1.9983
  237MPD1     C 3646   1.185   3.115  13.987 -0.2258  0.3084  0.0715
  237MPD1    C1 3647   1.280   3.165  14.067  0.9923  0.1474 -0.9071
  237MPD1    C2 3648   1.253   3.176  14.207 -0.0793 -0.0759  0.5458
  237MPD1    C3 3649   1.122   3.157  14.254 -0.2476  0.1887  0.4699
  237MPD1    C4 3650   1.023   3.112  14.166 -0.5799 -1.1707 -0.3206
  237MPD1    C5 3651   1.061   3.080  14.041  0.0030 -0.0863  1.0633
  237MPD1     H 3652   1.331   3.211  14.274 -0.1155  1.5063 -0.2251
  237MPD1    H1 3653   0.924   3.091  14.205 -0.9029 -0.2387 -0.6487
  237MPD1    H2 3654   1.205   3.081  13.886  0.9169 -0.5344  0.5825
  237MPD1    H3 3655   0.982   3.041  13.979 -1.3984  0.7951  2.3075
  237MPD1     N 3656   1.082   3.178  14.386 -0.8351 -0.2843 -0.1754
  237MPD1    H5 3657   0.984   3.171  14.412 -0.1599 -3.8307  1.4666
  237MPD1    N1 3658   1.409   3.185  14.013  0.1543 -0.1762  0.5001
  237MPD1    H6 3659   1.467   3.256  14.057 -1.3561  1.4020 -0.0309
  237MPD1    H7 3660   1.422   3.185  13.913 -0.3799 -1.0766  0.4261
  238MPD1     C 3661   2.631   1.950  15.928 -0.1269  0.6486 -0.4836
  238MPD1    C1 3662   2.498   1.942  15.945  0.4700  0.6425  0.7370
  238MPD1    C2 3663   2.412   1.923  15.836  0.0199  0.2737  0.1247
  238MPD1    C3 3664   2.476   1.891  15.712 -0.5618 -0.0299  0.2808
  238MPD1    C4 3665   2.614   1.889  15.695  0.3024  0.8655  0.2557
  238MPD1    C5 3666   2.688   1.920  15.804 -0.6297  0.0720  0.1401
  238MPD1     H 3667   2.304   1.927  15.848 -0.2346 -0.6293 -1.9241
  238MPD1    H1 3668   2.659   1.848  15.606 -0.3267  1.2640 -0.2460
  238MPD1    H2 3669   2.699   1.962  16.011 -0.0626 -0.2273 -0.4103
  238MPD1    H3 3670   2.795   1.915  15.788 -0.7186  0.8413 -0.6521
  238MPD1     N 3671   2.402   1.850  15.597 -0.1407  0.1089  0.2161
  238MPD1    H5 3672   2.461   1.819  15.520 -0.0092 -1.3815  0.9203
  238MPD1    N1 3673   2.438   1.959  16.070  0.1374 -0.4976  0.2960
  238MPD1    H6 3674   2.506   1.992  16.138 -0.1235  3.3370 -1.3453
  238MPD1    H7 3675   2.347   2.003  16.081  0.3066  0.4615 -2.0601
  239MPD1     C 3676   3.328   2.240  14.937 -0.0681  0.2759  0.3223
  239MPD1    C1 3677   3.201   2.269  14.961 -0.2479  0.4436 -0.3722
  239MPD1    C2 3678   3.127   2.341  14.865  0.0538 -0.5652 -0.1243
  239MPD1    C3 3679   3.185   2.376  14.745 -0.3336  0.4039 -0.5714
  239MPD1    C4 3680   3.312   2.335  14.723 -0.1175  0.1488  0.1675
  239MPD1    C5 3681   3.387   2.284  14.826  0.0558 -0.1234 -0.1530
  239MPD1     H 3682   3.021   2.354  14.885  0.2481 -0.8197  1.0957
  239MPD1    H1 3683   3.354   2.365  14.628  0.9062 -3.0605 -0.3947
  239MPD1    H2 3684   3.396   2.194  15.008  0.0806  2.1933  1.4106
  239MPD1    H3 3685   3.494   2.295  14.810  0.0363  2.3350  1.5194
  239MPD1     N 3686   3.110   2.448  14.649 -0.1041  0.5762  0.1009
  239MPD1    H5 3687   3.151   2.457  14.557  0.4265  0.3381  0.3166
  239MPD1    N1 3688   3.145   2.219  15.081 -0.1176 -0.0624 -0.3405
  239MPD1    H6 3689   3.066   2.265  15.125 -0.3595  1.0258 -1.9177
  239MPD1    H7 3690   3.215   2.203  15.153 -1.5452 -1.3984  0.7457
  240MPD1     C 3691   2.893   2.174  14.487 -0.5620 -0.0460  0.3923
  240MPD1    C1 3692   2.871   2.132  14.612 -1.2951 -0.9906 -0.3107
  240MPD1    C2 3693   2.753   2.164  14.676  0.0184  0.5812 -0.6174
  240MPD1    C3 3694   2.660   2.239  14.608  0.1880 -0.4887 -0.7639
  240MPD1    C4 3695   2.702   2.295  14.488  0.1800  0.0084 -0.2774
  240MPD1    C5 3696   2.818   2.266  14.427  0.3223  0.5505 -0.2708
  240MPD1     H 3697   2.731   2.111  14.768 -1.5553  2.9591  0.3839
  240MPD1    H1 3698   2.635   2.362  14.435  1.5922  0.8672 -0.9527
  240MPD1    H2 3699   2.986   2.145  14.441 -1.5387 -1.3701 -0.7655
  240MPD1    H3 3700   2.839   2.304  14.328  1.8677 -0.2836 -0.2637
  240MPD1     N 3701   2.539   2.259  14.678  0.2434  0.3948 -0.3658
  240MPD1    H5 3702   2.520   2.199  14.758  1.8662 -0.5841 -0.7273
  240MPD1    N1 3703   2.954   2.036  14.664 -0.0769  0.0118 -0.4705
  240MPD1    H6 3704   2.958   2.031  14.765  1.4890  0.9838 -0.4754
  240MPD1    H7 3705   3.051   2.051  14.635  0.5912 -1.7052  0.8853
  241MPD1     C 3706   2.373   2.174  15.491 -0.1494 -0.3748 -0.2121
  241MPD1    C1 3707   2.244   2.207  15.446 -0.7035 -0.5290  0.1674
  241MPD1    C2 3708   2.227   2.194  15.309  0.2079 -0.3394  0.9211
  241MPD1    C3 3709   2.323   2.149  15.218  0.4042 -0.4642  0.3388
  241MPD1    C4 3710   2.446   2.115  15.260  0.4467 -0.2315 -0.0542
  241MPD1    C5 3711   2.465   2.130  15.398  0.3729  0.2798 -0.4864
  241MPD1     H 3712   2.140   2.238  15.260  1.7121  0.5958 -0.8966
  241MPD1    H1 3713   2.533   2.087  15.202 -0.6209  0.5290 -1.9986
  241MPD1    H2 3714   2.407   2.185  15.593 -0.9365 -0.8068  0.1040
  241MPD1    H3 3715   2.564   2.112  15.439  0.5821  0.4204 -0.9327
  241MPD1     N 3716   2.294   2.144  15.078  0.4194  0.3331  0.7097
  241MPD1    H5 3717   2.377   2.149  15.020  0.3265  0.1070  0.5572
  241MPD1    N1 3718   2.148   2.269  15.529 -0.4776 -0.0347  0.2271
  241MPD1    H6 3719   2.141   2.230  15.623  0.5987  0.2407  0.4256
  241MPD1    H7 3720   2.056   2.270  15.486 -0.1534 -1.5644 -0.5034
  242MPD1     C 3721   1.480   0.941  15.710  0.3297 -0.6808  0.7464
  242MPD1    C1 3722   1.611   0.947  15.760  0.3026  0.7474  0.5730
  242MPD1    C2 3723   1.709   1.000  15.675 -0.0259  0.1750 -0.5217
  242MPD1    C3 3724   1.675   1.051  15.552  0.4325 -0.1248 -0.2928
  242MPD1    C4 3725   1.545   1.046  15.505  0.2664 -1.1577 -0.5364
  242MPD1    C5 3726   1.455   0.986  15.590 -0.3009  0.4394  0.8396
  242MPD1     H 3727   1.813   1.006  15.705 -0.2157  1.5371 -0.1413
  242MPD1    H1 3728   1.514   1.090  15.410  1.7217  0.2238 -0.3828
  242MPD1    H2 3729   1.407   0.896  15.777 -0.6474 -0.4668 -0.1872
  242MPD1    H3 3730   1.351   0.984  15.560 -0.0572  0.1729  0.0074
  242MPD1     N 3731   1.770   1.113  15.468  0.2830  0.0438 -0.5402
  242MPD1    H5 3732   1.740   1.118  15.371  1.5812  0.6902 -0.9120
  242MPD1    N1 3733   1.642   0.884  15.879  0.3344 -0.4723 -0.1788
  242MPD1    H6 3734   1.567   0.899  15.946 -1.4435  0.8869 -2.4264
  242MPD1    H7 3735   1.725   0.917  15.928 -0.8150 -0.0045  1.4695
  243MPD1     C 3736   2.859   3.849   0.090  0.5755 -0.3718 -0.3320
  243MPD1    C1 3737   2.970   3.834   0.171  0.2326 -0.3101 -0.5725
  243MPD1    C2 3738   3.095   3.814   0.120  0.4798 -0.3801  0.1093
  243MPD1    C3 3739   3.108   3.816  17.726 -0.6559 -0.2506  0.0311
  243MPD1    C4 3740   3.006   3.832  17.640 -0.5875  0.0308 -1.1407
  243MPD1    C5 3741   2.880   3.846  17.693 -0.4412 -1.0342  0.4577
  243MPD1     H 3742   3.179   3.815   0.188  1.4170 -3.0865 -1.0097
  243MPD1    H1 3743   3.014   3.836  17.532 -4.5768 -1.8028 -1.5208
  243MPD1    H2 3744   2.757   3.852   0.127  1.0039  1.9915  0.6771
  243MPD1    H3 3745   2.792   3.867  17.634  0.5670  2.3608  0.2020
  243MPD1     N 3746   3.237   3.775  17.675 -0.1153 -0.3559  0.1895
  243MPD1    H5 3747   3.302   3.731  17.741  0.1686  0.5502  0.5153
  243MPD1    N1 3748   2.954   3.826   0.310  0.2861 -0.4259  0.2651
  243MPD1    H6 3749   2.873   3.869   0.354 -0.7810 -1.1320 -1.0120
  243MPD1    H7 3750   3.040   3.840   0.364 -0.0029  0.8441  0.3971
  244MPD1     C 3751   3.314   2.951  17.683  0.6199  0.2582  0.5921
  244MPD1    C1 3752   3.240   3.019  17.581  0.0718 -0.1006 -0.1634
  244MPD1    C2 3753   3.303   3.132  17.523 -0.0211  0.4034  0.8682
  244MPD1    C3 3754   3.420   3.187  17.577  0.3244  0.4866 -0.0939
  244MPD1    C4 3755   3.480   3.124  17.684 -0.7513  0.7162  1.3566
  244MPD1    C5 3756   3.431   3.005  17.731 -0.9237 -0.3598 -0.5781
  244MPD1     H 3757   3.256   3.186  17.441  1.0073 -0.1920 -0.1000
  244MPD1    H1 3758   3.572   3.160  17.729  1.5029 -1.9101 -1.2465
  244MPD1    H2 3759   3.292   2.856  17.728  0.7370  0.4657  1.0885
  244MPD1    H3 3760   3.470   2.959   0.079 -1.8209  0.8169  0.4043
  244MPD1     N 3761   3.464   3.312  17.524 -0.4960 -0.5335 -0.2761
  244MPD1    H5 3762   3.434   3.340  17.431  0.9960  1.3562 -0.2041
  244MPD1    N1 3763   3.134   2.952  17.515 -0.4941  0.2284  0.1504
  244MPD1    H6 3764   3.077   2.908  17.588 -1.5129 -0.0849 -0.8463
  244MPD1    H7 3765   3.078   3.015  17.458  0.0283 -1.1473 -1.8523
  245MPD1     C 3766   0.564   4.512  12.750  0.5437 -0.0582  0.6820
  245MPD1    C1 3767   0.688   4.544  12.706 -0.2776 -0.3397  0.0193
  245MPD1    C2 3768   0.768   4.596  12.804 -0.1540  0.0275 -0.3637
  245MPD1    C3 3769   0.728   4.621  12.937 -0.1563 -0.2916 -0.1697
  245MPD1    C4 3770   0.603   4.587  12.973  0.3020  0.4498  0.1874
  245MPD1    C5 3771   0.525   4.528  12.877  0.3954  0.2162  0.1827
  245MPD1     H 3772   0.866   4.627  12.772 -0.2225 -0.6859 -1.2660
  245MPD1    H1 3773   0.563   4.605  13.072 -0.2348  1.0043 -0.1327
  245MPD1    H2 3774   0.491   4.476  12.679  0.6947 -1.0267  1.0230
  245MPD1    H3 3775   0.423   4.497  12.898 -0.0411  1.3377 -0.3209
  245MPD1     N 3776   0.811   4.700  13.020  0.2161 -0.5757 -0.2296
  245MPD1    H5 3777   0.899   4.729  12.979 -0.4083 -0.7210 -1.6731
  245MPD1    N1 3778   0.731   4.536  12.573 -0.0462 -0.1363  0.3540
  245MPD1    H6 3779   0.671   4.473  12.519  0.0878 -1.5001  1.8057
  245MPD1    H7 3780   0.829   4.509  12.564 -0.4578 -0.8043 -2.1265
  246MPD1     C 3781   2.115   2.546  10.088 -0.1342  0.8247 -0.6997
  246MPD1    C1 3782   2.201   2.493  10.184  0.3783 -0.7404  0.6412
  246MPD1    C2 3783   2.305   2.414  10.146  0.2178  0.5633 -0.0105
  246MPD1    C3 3784   2.331   2.387  10.015 -0.1941  0.6815  0.1433
  246MPD1    C4 3785   2.248   2.435   9.915 -0.3621  0.6031  0.3138
  246MPD1    C5 3786   2.141   2.518   9.955  0.6096 -0.4307 -0.1542
  246MPD1     H 3787   2.367   2.380  10.228  2.8760  0.4049 -2.0687
  246MPD1    H1 3788   2.261   2.438   9.808 -2.3490 -1.4376  0.0111
  246MPD1    H2 3789   2.032   2.610  10.117  0.0017  1.2716 -1.2942
  246MPD1    H3 3790   2.087   2.577   9.882 -0.4180 -0.8338  0.2950
  246MPD1     N 3791   2.444   2.312   9.992 -0.2291 -0.4959  0.2472
  246MPD1    H5 3792   2.492   2.284  10.077  0.6927  0.6467  0.1127
  246MPD1    N1 3793   2.184   2.547  10.319 -0.5173  0.2036  0.2455
  246MPD1    H6 3794   2.091   2.584  10.338  0.0111  0.4488  2.3016
  246MPD1    H7 3795   2.225   2.494  10.395  0.3383  1.3648  0.5947
  247MPD1     C 3796   0.160   1.030  15.609 -0.2406 -0.3841  0.3804
  247MPD1    C1 3797   0.102   0.976  15.724  0.2495 -0.1216  0.2001
  247MPD1    C2 3798   0.088   0.840  15.732 -0.0806  0.3815  0.2234
  247MPD1    C3 3799   0.126   0.755  15.627  0.0268 -0.5120 -0.7648
  247MPD1    C4 3800   0.185   0.815  15.515 -0.0865 -0.5979 -0.0539
  247MPD1    C5 3801   0.198   0.951  15.505  0.2763 -0.2957  0.0592
  247MPD1     H 3802   0.049   0.806  15.827  2.4677 -2.1599  0.3214
  247MPD1    H1 3803   0.219   0.763  15.427  1.8715 -0.0323  0.3740
  247MPD1    H2 3804   0.155   1.137  15.598 -1.2789 -0.4800 -0.1020
  247MPD1    H3 3805   0.234   0.998  15.414  0.3438 -2.3741 -0.9873
  247MPD1     N 3806   0.117   0.608  15.626 -0.2189  0.1926  0.1298
  247MPD1    H5 3807   0.170   0.551  15.561 -0.4233 -2.6887  2.4943
  247MPD1    N1 3808   0.073   1.056  15.838 -0.1408 -0.1636 -0.0090
  247MPD1    H6 3809   0.077   1.156  15.818  1.6329 -0.5064 -1.4638
  247MPD1    H7 3810   4.720   1.036  15.883 -1.2923  0.7627 -1.8735
  248MPD1     C 3811   0.431   3.391   0.107 -0.1789  0.4799 -0.3750
  248MPD1    C1 3812   0.317   3.379   0.032 -0.4771  0.6007 -0.3684
  248MPD1    C2 3813   0.252   3.486  17.714  0.2900 -0.1135  0.0870
  248MPD1    C3 3814   0.301   3.612  17.729  0.3862 -0.0127 -0.3470
  248MPD1    C4 3815   0.409   3.628   0.069  0.1349  0.0720 -0.6821
  248MPD1    C5 3816   0.480   3.523   0.119 -1.0647 -0.1704  0.9795
  248MPD1     H 3817   0.162   3.482  17.653 -0.7373 -2.0109  1.6992
  248MPD1    H1 3818   0.441   3.725   0.106  1.3855 -1.2390  1.7184
  248MPD1    H2 3819   0.487   3.309   0.151 -1.6560 -0.1091  0.4208
  248MPD1    H3 3820   0.566   3.554   0.176 -0.1301  0.7558 -0.9576
  248MPD1     N 3821   0.230   3.717  17.661 -0.2543 -1.0435 -0.2722
  248MPD1    H5 3822   0.164   3.697  17.587  0.5098  0.4310 -1.3627
  248MPD1    N1 3823   0.252   3.253   0.029 -0.5024 -0.3983 -0.5923
  248MPD1    H6 3824   0.179   3.243  17.702  0.5668  0.3904 -1.8340
  248MPD1    H7 3825   0.328   3.193  17.741 -0.2235  0.1975 -1.0774
  249MPD1     C 3826   4.150   4.735  10.209  0.1330 -0.3791 -0.7434
  249MPD1    C1 3827   4.023   4.716  10.264  0.0656  0.5765  0.0124
  249MPD1    C2 3828   3.961   0.085  10.328  0.0899 -0.0016  0.5347
  249MPD1    C3 3829   4.042   0.199  10.359 -0.2889 -0.2432  0.1833
  249MPD1    C4 3830   4.170   0.213  10.313 -0.2284 -0.4250 -0.7243
  249MPD1    C5 3831   4.220   0.111  10.238 -0.4283 -0.8257 -0.1783
  249MPD1     H 3832   3.860   0.084  10.368  0.2161 -0.5483  0.8407
  249MPD1    H1 3833   4.238   0.293  10.338  1.0955 -1.9512  0.5530
  249MPD1    H2 3834   4.193   4.653  10.152  0.6833 -0.1154 -0.7132
  249MPD1    H3 3835   4.322   0.116  10.201 -0.4018 -0.1059  0.0054
  249MPD1     N 3836   3.979   0.303  10.435 -0.3925 -0.3285  0.0770
  249MPD1    H5 3837   3.881   0.290  10.459 -0.3105 -0.2602  0.4506
  249MPD1    N1 3838   3.945   4.603  10.229 -0.1301 -0.1614  0.1722
  249MPD1    H6 3839   3.861   4.597  10.286  1.1684  0.9288  2.1987
  249MPD1    H7 3840   3.993   4.515  10.248  0.3971  0.6271  2.4943
  250MPD2     C 3841   4.727   2.921  13.422 -0.0424  0.1846  0.3227
  250MPD2    C1 3842   4.718   2.996  13.301 -1.3010  0.3969  0.2033
  250MPD2    C2 3843   4.726   2.924  13.181  0.1721  0.0360 -0.3991
  250MPD2    C3 3844   0.016   2.789  13.178 -0.5933  0.4686  0.0233
  250MPD2    C4 3845   0.046   2.731  13.296  0.6461  0.1561 -0.6997
  250MPD2    C5 3846   0.030   2.794  13.413  0.1898 -0.4817 -0.5642
  250MPD2     H 3847   4.708   2.984  13.093  2.3255  0.4702 -0.5494
  250MPD2    H1 3848   0.067   2.626  13.310 -0.3791  0.4534  3.0657
  250MPD2    H2 3849   4.705   2.958  13.522 -1.5938  1.5349 -0.5074
  250MPD2    H3 3850   0.022   2.731  13.501  0.9956 -1.0014 -0.8663
  250MPD2     N 3851   0.021   2.709  13.064 -0.4021  0.0845  0.4369
  250MPD2    H5 3852   0.017   2.607  13.063 -0.1907  0.1038 -1.9979
  250MPD2    N1 3853   4.687   3.135  13.291 -0.5222  0.7906 -0.1226
  250MPD2    H7 3854   4.707   3.179  13.202  2.2548 -1.0234 -0.4064
  251TMC3    C1 3855   4.614   3.355  13.360  0.6921 -0.0823 -0.3371
  251TMC3    C2 3856   4.488   3.403  13.382  0.3863 -0.0977  0.1894
  251TMC3    C3 3857   4.438   3.512  13.314  0.3123  0.5941 -0.0190
  251TMC3    C4 3858   4.699   3.420  13.274 -0.0650  0.6207  0.5932
  251TMC3    C5 3859   4.655   3.538  13.220 -0.0192  0.6664 -0.1015
  251TMC3    C6 3860   4.528   3.587  13.230  0.2427  0.2995  0.0890
  251TMC3     C 3861   4.638   3.214  13.391  0.8787 -0.4594  0.1426
  251TMC3     O 3862   4.602   3.175  13.502 -0.4127 -0.1349  0.5959
  251TMC3     H 3863   4.428   3.355  13.459 -2.2806  1.0651 -1.1852
  251TMC3    H1 3864   0.063   3.382  13.253 -0.3986 -1.2200  2.3572
  251TMC3    H2 3865   4.497   3.679  13.182 -0.5584  0.4173  0.8304
  251TMC3    C7 3866   0.030   3.622  13.185  0.3215  0.2807 -0.0102
  251TMC3    C8 3867   4.308   3.561  13.343  0.1239 -0.1387  0.6224
  251TMC3    O1 3868   0.141   3.602  13.238  0.1439 -0.1263  0.2514
  251TMC3    O2 3869   4.267   3.558  13.461  0.2874  0.1479  0.5302
  252TMC3    C1 3870   4.678   0.224   9.328 -0.4595 -0.1007 -0.4785
  252TMC3    C2 3871   0.076   0.244   9.344  0.5089  0.3980 -0.0295
  252TMC3    C3 3872   0.137   0.166   9.441 -0.1736 -0.5174 -0.3364
  252TMC3    C4 3873   4.613   0.129   9.402  0.2485  0.0781  0.1019
  252TMC3    C5 3874   4.682   0.056   9.495  0.4928  0.2445 -0.2367
  252TMC3    C6 3875   0.076   0.075   9.525  0.2386 -0.0048 -0.5840
  252TMC3     C 3876   4.603   0.324   9.261  0.0603  0.4060 -0.2639
  252TMC3     O 3877   4.650   0.436   9.273  0.3446  0.3862  0.0208
  252TMC3     H 3878   0.127   0.327   9.297 -1.4625  0.8493 -1.4018
  252TMC3    H1 3879   4.505   0.120   9.399  0.2121  0.6757 -0.5428
  252TMC3    H2 3880   0.129   0.014   9.597  1.2353  1.9231  0.3136
  252TMC3    C7 3881   4.604   4.689   9.549 -0.1209 -0.2193 -0.0620
  252TMC3    C8 3882   0.271   0.208   9.459 -0.0580  0.8854 -0.0644
  252TMC3    O1 3883   4.504   4.656   9.487  0.0118  0.6461 -0.0681
  252TMC3    O2 3884   0.327   0.269   9.365 -0.4093  0.2428  0.6170
  253MPD2     C 3885   0.838   3.564  15.385 -1.2144  1.0714  0.1461
  253MPD2    C1 3886   0.718   3.512  15.357 -0.3853 -0.3901  0.1719
  253MPD2    C2 3887   0.627   3.475  15.458 -0.3786  0.0949  0.1273
  253MPD2    C3 3888   0.677   3.477  15.585  0.4062  0.0514 -0.4045
  253MPD2    C4 3889   0.805   3.505  15.610 -0.0861 -0.3527 -0.1623
  253MPD2    C5 3890   0.886   3.555  15.508 -0.1932 -0.7327  0.3145
  253MPD2     H 3891   0.526   3.450  15.428 -0.1097 -2.4638  1.3748
  253MPD2    H1 3892   0.850   3.501  15.709  2.5885  1.5918 -1.3153
  253MPD2    H2 3893   0.906   3.603  15.310  0.3943 -1.0018  0.5219
  253MPD2    H3 3894   0.989   3.582  15.532 -1.3464  2.8411  1.1924
  253MPD2     N 3895   0.595   3.441  15.694  0.1263 -0.8254  0.3163
  253MPD2    H5 3896   0.646   3.435  15.782 -0.0662  1.0551  0.5524
  253MPD2    N1 3897   0.662   3.513  15.225  0.0626 -0.2271 -0.7831
  253MPD2    H7 3898   0.570   3.472  15.216 -1.0961  2.2634 -0.1766
  254TMC3    C1 3899   0.397   3.394  15.814 -1.3352  0.4421  0.4094
  254TMC3    C2 3900   0.260   3.402  15.814 -0.0782  0.4069  0.0022
  254TMC3    C3 3901   0.198   3.308  15.897 -1.0585  0.6220 -0.5722
  254TMC3    C4 3902   0.472   3.298  15.881 -0.3192 -1.0768  0.1511
  254TMC3    C5 3903   0.404   3.216  15.968 -0.6389  0.7539 -1.1385
  254TMC3    C6 3904   0.267   3.206  15.960  0.3376 -0.1705  0.9066
  254TMC3     C 3905   0.457   3.456  15.696  0.0152  0.4117 -0.1059
  254TMC3     O 3906   0.378   3.499  15.615 -0.4173  0.6801  0.0806
  254TMC3     H 3907   0.205   3.488  15.776  0.8144  1.5379  1.2605
  254TMC3    H1 3908   0.580   3.303  15.880 -0.3780  0.1883 -0.2458
  254TMC3    H2 3909   0.215   3.135  16.023  0.0642 -0.3167  0.5108
  254TMC3    C7 3910   0.465   3.173  16.089  0.6760  0.9322  0.7712
  254TMC3    C8 3911   0.097   3.354  15.989  0.7859 -1.1081  0.6721
  254TMC3    O1 3912   0.403   3.078  16.145  0.3118  0.2908  0.0467
  254TMC3    O2 3913   0.081   3.303  16.096  0.5914 -0.7013 -0.2013
  255MPD2     C 3914   4.112   2.551  11.033  0.3308  0.2710 -0.2458
  255MPD2    C1 3915   4.149   2.586  10.902  0.9806  0.3598  0.3778
  255MPD2    C2 3916   4.227   2.497  10.834 -0.8471  0.0769 -0.3146
  255MPD2    C3 3917   4.253   2.369  10.879  0.3051 -0.5545 -0.5286
  255MPD2    C4 3918   4.214   2.336  11.011  0.1902 -0.3749 -0.1648
  255MPD2    C5 3919   4.148   2.430  11.083 -0.3958 -0.2359  0.3360
  255MPD2     H 3920   4.251   2.520  10.731 -0.4079  3.1555  0.4612
  255MPD2    H1 3921   4.247   2.250  11.069 -1.0725 -0.4892  0.3697
  255MPD2    H2 3922   4.057   2.613  11.103 -0.8206 -2.2526  1.0577
  255MPD2    H3 3923   4.125   2.419  11.188 -0.4737  1.9313  0.5546
  255MPD2     N 3924   4.303   2.280  10.783 -0.7999 -0.5383 -0.2844
  255MPD2    H5 3925   4.323   2.322  10.693 -0.8243 -1.4812 -0.7337
  255MPD2    N1 3926   4.084   2.694  10.834  0.0345 -0.4395  0.5360
  255MPD2    H7 3927   4.004   2.737  10.879  0.9534  1.2498  0.5641
  256TMC3    C1 3928   4.013   2.762  10.614  0.0195  0.0993 -0.5260
  256TMC3    C2 3929   4.050   2.842  10.512 -0.2446  0.3507  0.5771
  256TMC3    C3 3930   3.960   2.849  10.412  0.0402 -0.2298 -0.8058
  256TMC3    C4 3931   3.908   2.682  10.618  0.3205 -0.1409  0.8595
  256TMC3    C5 3932   3.823   2.685  10.518  0.6774  0.8723  0.3811
  256TMC3    C6 3933   3.847   2.772  10.413 -0.5231 -0.4476 -0.3311
  256TMC3     C 3934   4.123   2.723  10.705 -0.2883 -0.2416  0.1818
  256TMC3     O 3935   4.235   2.736  10.659  0.1315  0.3825 -0.5632
  256TMC3     H 3936   4.133   2.909  10.532 -0.2818 -0.2940  2.9180
  256TMC3    H1 3937   3.893   2.611  10.699 -1.6544  0.9755  1.4777
  256TMC3    H2 3938   3.784   2.760  10.325 -0.1829  3.1105 -1.0581
  256TMC3    C7 3939   3.763   2.559  10.474 -0.2304 -0.1053  0.3496
  256TMC3    C8 3940   3.961   2.955  10.315  0.3511  0.7531  0.1119
  256TMC3    O1 3941   3.779   2.538  10.354 -0.3212  0.0275 -0.3619
  256TMC3    O2 3942   3.867   2.981  10.251  0.3430 -0.2645 -0.3855
  257MPD2     C 3943   2.609   2.771  13.585  0.1179  0.1658  0.8380
  257MPD2    C1 3944   2.646   2.815  13.463 -0.1581  0.1234 -0.1322
  257MPD2    C2 3945   2.683   2.723  13.366 -0.3045  0.0452  0.9382
  257MPD2    C3 3946   2.721   2.597  13.408 -0.3051  0.3971  0.7264
  257MPD2    C4 3947   2.696   2.549  13.537  0.6352 -0.0653  0.8915
  257MPD2    C5 3948   2.639   2.641  13.620 -0.1873 -0.0490  0.6611
  257MPD2     H 3949   2.718   2.756  13.269 -1.8715  1.4797  0.8684
  257MPD2    H1 3950   2.716   2.445  13.560  0.3757 -0.4396 -0.5404
  257MPD2    H2 3951   2.571   2.833  13.665 -1.9439  2.0690 -1.5978
  257MPD2    H3 3952   2.606   2.608  13.718 -2.0170  1.5142  0.5778
  257MPD2     N 3953   2.815   2.527  13.333  0.1201  0.1335 -0.3566
  257MPD2    H5 3954   2.860   2.582  13.260  0.0391 -0.5233 -0.9026
  257MPD2    N1 3955   2.626   2.946  13.428  0.2303 -0.4398 -0.6379
  257MPD2    H7 3956   2.592   3.008  13.500 -1.8564 -1.1454 -1.0136
  258TMC3    C1 3957   3.015   2.398  13.292  0.2722  1.1686  0.2863
  258TMC3    C2 3958   3.033   2.487  13.190  0.0902  0.6391 -0.0055
  258TMC3    C3 3959   3.161   2.516  13.149 -0.1295 -0.7260  0.4463
  258TMC3    C4 3960   3.120   2.335  13.353  0.5794  0.0126  0.2399
  258TMC3    C5 3961   3.241   2.351  13.301 -0.0191  0.1890 -0.9694
  258TMC3    C6 3962   3.267   2.448  13.209 -0.2015 -0.3059  0.1467
  258TMC3     C 3963   2.882   2.411  13.362  0.6535 -0.1215 -0.4500
  258TMC3     O 3964   2.863   2.331  13.458  0.1116 -0.4955 -0.3519
  258TMC3     H 3965   2.946   2.532  13.144 -1.1031 -0.6379  1.0167
  258TMC3    H1 3966   3.106   2.288  13.450 -0.1055 -0.3677 -0.0399
  258TMC3    H2 3967   3.368   2.472  13.178 -0.8941  0.3525 -1.5903
  258TMC3    C7 3968   3.351   2.343  13.404  0.3954  0.4616 -0.5102
  258TMC3    C8 3969   3.184   2.628  13.066  0.6094 -0.9755 -0.2821
  258TMC3    O1 3970   3.426   2.434  13.423  0.0219  0.1790 -0.5821
  258TMC3    O2 3971   3.099   2.713  13.078  0.5842 -0.1489 -0.4468
  259MPD2     C 3972   1.169   0.167   0.800 -0.0589 -0.3952  0.2243
  259MPD2    C1 3973   1.204   0.054   0.742 -0.0317 -0.6036  0.0030
  259MPD2    C2 3974   1.248   0.055   0.611 -0.2669 -0.1043 -0.6346
  259MPD2    C3 3975   1.231   0.165   0.532  0.5545  0.6283 -0.2751
  259MPD2    C4 3976   1.203   0.286   0.593  0.9362  0.1113  0.0353
  259MPD2    C5 3977   1.180   0.283   0.724 -0.3415 -0.5653 -0.5592
  259MPD2     H 3978   1.285   4.700   0.567  0.5149 -0.1762  0.1656
  259MPD2    H1 3979   1.208   0.379   0.537 -3.8863 -0.5476 -1.4794
  259MPD2    H2 3980   1.139   0.171   0.904  1.1125  0.7806  0.5253
  259MPD2    H3 3981   1.150   0.378   0.768  0.5356  0.5875 -2.4455
  259MPD2     N 3982   1.257   0.147   0.395  0.4168 -0.0825  0.0446
  259MPD2    H5 3983   1.286   0.060   0.352 -2.0708 -0.6863 -0.3815
  259MPD2    N1 3984   1.191   4.672   0.822  0.7461 -0.2822 -0.7902
  259MPD2    H7 3985   1.172   4.683   0.921  2.3573  0.1825 -0.5401
  260TMC3    C1 3986   1.270   0.192   0.163 -0.2628 -0.4467  0.2187
  260TMC3    C2 3987   1.227   0.265   0.060  0.3843  0.4340 -0.0067
  260TMC3    C3 3988   1.215   0.206  17.674  0.1075  0.1471 -0.5885
  260TMC3    C4 3989   1.300   0.061   0.131 -0.3300  0.1582  0.3708
  260TMC3    C5 3990   1.268   0.001   0.015 -0.2953 -0.2041 -0.5715
  260TMC3    C6 3991   1.235   0.074  17.654  1.2646  0.2235 -0.0572
  260TMC3     C 3992   1.259   0.247   0.299 -0.5554 -0.0479  0.2438
  260TMC3     O 3993   1.234   0.367   0.301 -0.1133  0.1900  0.0639
  260TMC3     H 3994   1.229   0.371   0.082 -1.7224  0.4034  0.2832
  260TMC3    H1 3995   1.341   0.007   0.215 -1.4253  1.2940  1.6462
  260TMC3    H2 3996   1.215   0.036  17.555 -0.8290 -0.8518  0.7585
  260TMC3    C7 3997   1.340   4.620  17.732  0.2729 -0.3475  0.3879
  260TMC3    C8 3998   1.293   0.290  17.585 -0.7618 -0.3344 -0.4853
  260TMC3    O1 3999   1.376   4.605  17.615  0.4611 -0.1284  0.1678
  260TMC3    O2 4000   1.290   0.412  17.588 -0.1232 -0.1790 -0.0051
  261MPD2     C 4001   4.092   2.574  12.677  0.1396 -0.1033  0.0656
  261MPD2    C1 4002   4.192   2.651  12.618  0.1951 -0.4019 -0.2848
  261MPD2    C2 4003   4.158   2.762  12.540 -0.1664  0.1839 -0.1237
  261MPD2    C3 4004   4.025   2.792  12.505  0.0830  0.0232  0.4472
  261MPD2    C4 4005   3.927   2.712  12.573 -0.2565 -0.3804  0.3329
  261MPD2    C5 4006   3.961   2.606  12.650  0.3676  0.0945 -0.5326
  261MPD2     H 4007   4.235   2.828  12.502 -0.2081  0.4060  0.1691
  261MPD2    H1 4008   3.819   2.720  12.570 -0.1646  0.8321  0.4901
  261MPD2    H2 4009   4.117   2.495  12.747  2.9634  0.6569 -0.0633
  261MPD2    H3 4010   3.882   2.557  12.707  0.9469  1.5220  1.5185
  261MPD2     N 4011   3.993   2.900  12.427 -0.0558  0.0048  1.0352
  261MPD2    H5 4012   4.072   2.936  12.374 -1.2749 -2.2831 -2.2806
  261MPD2    N1 4013   4.331   2.624  12.641 -0.7051  0.2895  0.7369
  261MPD2    H7 4014   4.399   2.696  12.617 -0.0714 -0.7122 -0.4482
  262TMC3    C1 4015   3.893   3.059  12.297  0.1174  0.4404 -0.5745
  262TMC3    C2 4016   3.813   3.054  12.186  0.6059 -0.3448 -0.1671
  262TMC3    C3 4017   3.867   3.099  12.066 -0.0996 -0.3648  0.5076
  262TMC3    C4 4018   4.022   3.115  12.294 -0.8690 -0.3495 -0.3557
  262TMC3    C5 4019   4.060   3.149  12.176 -0.1785 -0.3289 -0.2458
  262TMC3    C6 4020   3.996   3.135  12.060  0.5077 -0.0093 -0.2355
  262TMC3     C 4021   3.875   2.950  12.391 -0.3498 -1.0405  0.0639
  262TMC3     O 4022   3.765   2.908  12.421  0.1273 -0.1024  0.4771
  262TMC3     H 4023   3.707   3.032  12.190  0.3745  0.4610 -1.5208
  262TMC3    H1 4024   4.094   3.120  12.375  0.2612 -2.0555 -1.2533
  262TMC3    H2 4025   4.045   3.185  11.978  0.7623 -0.7534 -0.5432
  262TMC3    C7 4026   4.179   3.238  12.172 -0.1000 -0.2275  0.4932
  262TMC3    C8 4027   3.781   3.178  11.987 -0.1047  0.5425  0.0079
  262TMC3    O1 4028   4.239   3.238  12.065  0.7396 -0.4512  0.6463
  262TMC3    O2 4029   3.696   3.236  12.055 -0.8942 -0.6750 -0.2599
  263MPD2     C 4030   0.412   2.469  10.800 -0.1169 -0.0655  0.9260
  263MPD2    C1 4031   0.439   2.539  10.917 -0.1154  0.2015 -0.2268
  263MPD2    C2 4032   0.485   2.671  10.912 -0.4961 -0.5411  0.2697
  263MPD2    C3 4033   0.507   2.725  10.784 -0.5094 -0.3475 -0.4469
  263MPD2    C4 4034   0.474   2.662  10.665  0.0943 -0.6398  0.0472
  263MPD2    C5 4035   0.427   2.529  10.678  0.1175  0.3126 -0.0759
  263MPD2     H 4036   0.504   2.728  11.001 -3.2285 -0.1676  0.6010
  263MPD2    H1 4037   0.466   2.708  10.567  1.5918 -1.1208 -0.2844
  263MPD2    H2 4038   0.391   2.363  10.798  1.0691 -0.2996  1.0101
  263MPD2    H3 4039   0.399   2.479  10.586 -0.6950  0.3689  0.1398
  263MPD2     N 4040   0.570   2.849  10.776 -0.0661  0.6229  0.3587
  263MPD2    H5 4041   0.572   2.914  10.853 -0.2804  2.7589 -1.4596
  263MPD2    N1 4042   0.454   2.460  11.033 -0.2357 -0.2107  0.3418
  263MPD2    H7 4043   0.432   2.361  11.027  0.9218 -0.4525  0.1715
  264TMC3    C1 4044   0.691   3.017  10.647 -0.9986 -0.5089 -0.5094
  264TMC3    C2 4045   0.698   3.097  10.761 -0.6142  0.1186  0.3091
  264TMC3    C3 4046   0.776   3.209  10.753 -0.4959  0.0072 -0.2808
  264TMC3    C4 4047   0.757   3.052  10.531  0.2144  0.1853 -0.1397
  264TMC3    C5 4048   0.835   3.164  10.535  0.2137  0.9961 -0.0023
  264TMC3    C6 4049   0.852   3.242  10.645 -0.3148 -0.4461 -0.4073
  264TMC3     C 4050   0.642   2.883  10.661  0.1489  0.4554  0.6099
  264TMC3     O 4051   0.675   2.812  10.570 -0.7013 -0.1408  0.5689
  264TMC3     H 4052   0.646   3.075  10.854  2.3069  0.8151  2.1345
  264TMC3    H1 4053   0.749   2.993  10.440 -0.1617 -1.7973  1.1718
  264TMC3    H2 4054   0.906   3.336  10.641 -0.2156 -0.5260 -0.9261
  264TMC3    C7 4055   0.933   3.185  10.421 -0.6638  0.2313 -0.3904
  264TMC3    C8 4056   0.794   3.290  10.875 -0.1202 -0.4265  0.2120
  264TMC3    O1 4057   0.955   3.087  10.345 -0.2257  0.3545 -0.1333
  264TMC3    O2 4058   0.869   3.380  10.857 -0.1537 -0.3325 -0.6094
  265MPD2     C 4059   1.546   2.737  15.571  0.5133 -0.0428 -0.0194
  265MPD2    C1 4060   1.617   2.831  15.508  0.4029  0.6194  0.5293
  265MPD2    C2 4061   1.659   2.812  15.384 -0.1620  0.0276 -0.0938
  265MPD2    C3 4062   1.642   2.691  15.316  0.4230 -0.4377 -0.0031
  265MPD2    C4 4063   1.583   2.584  15.390  0.0197 -0.1020 -0.1811
  265MPD2    C5 4064   1.549   2.606  15.518 -0.3565  0.4616  0.1714
  265MPD2     H 4065   1.698   2.895  15.326  1.1149 -0.3490  0.2240
  265MPD2    H1 4066   1.571   2.483  15.351  0.9592 -0.4000  0.3225
  265MPD2    H2 4067   1.512   2.755  15.672 -1.1438  0.4437 -0.6603
  265MPD2    H3 4068   1.492   2.532  15.574  0.9338  0.6449  1.7488
  265MPD2     N 4069   1.681   2.672  15.178 -0.1085  0.1636  0.3531
  265MPD2    H5 4070   1.647   2.591  15.127 -2.2178  0.4820  1.2702
  265MPD2    N1 4071   1.640   2.965  15.556  0.1460  0.7198 -0.1360
  265MPD2    H7 4072   1.687   3.034  15.497 -1.1907  0.2994 -1.6983
  266TMC3    C1 4073   1.608   3.159  15.693  0.4201  0.2460 -0.1658
  266TMC3    C2 4074   1.612   3.197  15.822 -0.7470 -0.3654  0.4414
  266TMC3    C3 4075   1.573   3.326  15.849 -0.0582  0.2186 -0.0903
  266TMC3    C4 4076   1.558   3.230  15.589 -0.5196 -0.0150  1.1007
  266TMC3    C5 4077   1.512   3.353  15.620  0.8058  0.2894 -0.1978
  266TMC3    C6 4078   1.520   3.402  15.750 -0.1673 -0.2200 -0.5855
  266TMC3     C 4079   1.601   3.016  15.681  0.6171  0.3174  0.0450
  266TMC3     O 4080   1.547   2.959  15.776  0.5703 -0.2590  0.0624
  266TMC3     H 4081   1.646   3.129  15.900 -0.6857 -0.7752  0.0557
  266TMC3    H1 4082   1.554   3.181  15.492 -1.7483  1.3376  0.4577
  266TMC3    H2 4083   1.524   3.510  15.760 -2.1305 -0.0485 -1.6241
  266TMC3    C7 4084   1.440   3.422  15.514  0.0866  0.1625  0.1600
  266TMC3    C8 4085   1.641   3.387  15.962  0.2417 -0.0253 -0.0520
  266TMC3    O1 4086   1.452   3.384  15.400  0.1528  0.4861  0.0891
  266TMC3    O2 4087   1.718   3.316  16.024 -0.7417 -0.2765  0.6230
  267MPD2     C 4088   3.719   0.167   0.733 -0.3358 -1.0038 -0.3506
  267MPD2    C1 4089   3.680   0.031   0.726  0.2378  0.3074  0.3145
  267MPD2    C2 4090   3.558   4.721   0.773 -0.1167 -0.0872  0.4013
  267MPD2    C3 4091   3.472   0.078   0.837  0.2472 -0.6667  0.6208
  267MPD2    C4 4092   3.510   0.209   0.839  0.1561 -0.1531 -0.2211
  267MPD2    C5 4093   3.630   0.252   0.784 -0.0521  0.6978 -0.8133
  267MPD2     H 4094   3.519   4.621   0.760  1.7663 -0.6275 -1.0541
  267MPD2    H1 4095   3.438   0.286   0.864 -1.2052 -1.0501 -1.4036
  267MPD2    H2 4096   3.809   0.200   0.682  0.7718 -3.3980  0.0360
  267MPD2    H3 4097   3.650   0.358   0.792  0.2228  0.6850 -1.3553
  267MPD2     N 4098   3.340   0.052   0.878  0.6791  0.7258  0.1183
  267MPD2    H5 4099   3.272   0.126   0.889 -1.1297 -0.6123 -2.1396
  267MPD2    N1 4100   3.764   4.682   0.646  0.6469 -0.0607 -0.2779
  267MPD2    H7 4101   3.844   4.727   0.604  0.4712  1.3764  0.9387
  268TMC3    C1 4102   3.830   4.490   0.537  0.2069 -0.2035 -0.4741
  268TMC3    C2 4103   3.858   4.566   0.426 -0.7697 -0.1472 -0.1011
  268TMC3    C3 4104   3.974   4.536   0.358  0.4226  0.4901 -0.2251
  268TMC3    C4 4105   3.903   4.378   0.579  0.5116 -0.2739  0.0555
  268TMC3    C5 4106   4.016   4.356   0.502  0.1057  1.0353  0.1849
  268TMC3    C6 4107   4.056   4.429   0.399 -0.7796  0.6709  0.7505
  268TMC3     C 4108   3.745   4.546   0.639 -0.2733 -0.3873 -0.0002
  268TMC3     O 4109   3.681   4.472   0.710 -0.7165  0.3764  0.5862
  268TMC3     H 4110   3.814   4.660   0.396 -0.1812 -0.0092 -0.5388
  268TMC3    H1 4111   3.854   4.317   0.654  2.5823  0.9757  2.3735
  268TMC3    H2 4112   4.156   4.423   0.356 -0.9055  1.3905  0.3694
  268TMC3    C7 4113   4.085   4.225   0.521  0.9747 -0.3499  0.7236
  268TMC3    C8 4114   4.037   4.644   0.295 -0.3921  0.2905 -0.8635
  268TMC3    O1 4115   4.067   4.185   0.637  0.2208 -0.4077  0.0505
  268TMC3    O2 4116   4.151   4.668   0.334 -0.2259 -0.1200  0.9165
  269MPD2     C 4117   4.518   3.791  15.511  0.3546  0.2437 -0.1376
  269MPD2    C1 4118   4.423   3.823  15.601 -0.6081 -0.6076 -0.4823
  269MPD2    C2 4119   4.374   3.952  15.612 -0.2276 -1.3826  0.1745
  269MPD2    C3 4120   4.420   4.052  15.529 -0.4167 -0.3915  0.6510
  269MPD2    C4 4121   4.514   4.014  15.443 -0.0248 -0.3231 -0.2519
  269MPD2    C5 4122   4.567   3.889  15.431  0.5718 -0.1780 -0.0965
  269MPD2     H 4123   4.304   3.976  15.691 -0.4490 -1.9652  0.1523
  269MPD2    H1 4124   4.548   4.092  15.375 -1.0071 -1.1953 -1.7415
  269MPD2    H2 4125   4.564   3.693  15.501 -0.4894 -0.0681 -0.9215
  269MPD2    H3 4126   4.647   3.870  15.361  0.0808  0.0599 -0.7178
  269MPD2     N 4127   4.369   4.184  15.533  0.2695  0.5819  0.2974
  269MPD2    H5 4128   4.285   4.186  15.590  0.9231  2.6617  1.2045
  269MPD2    N1 4129   4.379   3.711  15.679 -0.1522 -0.0134  0.8615
  269MPD2    H7 4130   4.399   3.619  15.640  2.4546 -0.0879  2.3309
  270TMC3    C1 4131   4.238   3.574  15.783  0.2282 -0.0481 -0.3805
  270TMC3    C2 4132   4.132   3.529  15.715  0.1578  0.2500  0.2189
  270TMC3    C3 4133   4.112   3.395  15.690  0.0708  0.2441 -0.0289
  270TMC3    C4 4134   4.338   3.483  15.820  0.3815 -0.1842 -0.2830
  270TMC3    C5 4135   4.318   3.352  15.788 -0.0660 -0.6660 -0.3365
  270TMC3    C6 4136   4.202   3.303  15.731  0.2244 -0.2788  0.6889
  270TMC3     C 4137   4.274   3.713  15.765  0.4688 -0.1009  0.5364
  270TMC3     O 4138   4.197   3.802  15.810 -0.0757  0.0173  0.7857
  270TMC3     H 4139   4.061   3.599  15.673 -0.0884  0.1014  0.3901
  270TMC3    H1 4140   4.434   3.519  15.855  1.1645 -2.2922 -0.2632
  270TMC3    H2 4141   4.196   3.201  15.695 -2.0785  0.0523  0.1530
  270TMC3    C7 4142   4.438   3.281  15.747 -0.4666 -0.4175 -0.4133
  270TMC3    C8 4143   4.031   3.356  15.570 -0.3722  0.1926  0.2427
  270TMC3    O1 4144   4.541   3.292  15.816 -0.2994  0.5620 -0.0504
  270TMC3    O2 4145   4.019   3.441  15.482 -0.5977  0.1625  0.2518
  271MPD2     C 4146   3.366   2.891  14.045  0.5114  0.2694 -0.3473
  271MPD2    C1 4147   3.383   3.011  14.109  0.0271  0.2359  0.0353
  271MPD2    C2 4148   3.273   3.098  14.093  0.1541  0.4977 -0.3771
  271MPD2    C3 4149   3.160   3.061  14.025 -0.3273  0.7133  0.2671
  271MPD2    C4 4150   3.151   2.940  13.965 -0.5427 -0.4181  0.2736
  271MPD2    C5 4151   3.252   2.858  13.970  0.2538 -0.2334  0.6118
  271MPD2     H 4152   3.282   3.195  14.140  1.5045  0.2218 -0.0627
  271MPD2    H1 4153   3.071   2.915  13.896  0.9625  0.1716 -1.7062
  271MPD2    H2 4154   3.427   2.805  14.071 -0.5341 -0.6638 -0.9737
  271MPD2    H3 4155   3.243   2.763  13.918  1.6849  0.4099 -0.8110
  271MPD2     N 4156   3.040   3.144  14.022 -0.1362  0.1492  0.0436
  271MPD2    H5 4157   2.949   3.106  14.001 -0.6323  1.7346 -0.6872
  271MPD2    N1 4158   3.494   3.038  14.196 -0.3887  0.0906 -0.3833
  271MPD2    H7 4159   3.499   3.129  14.242  0.6057 -0.3419  0.3707
  272TMC3    C1 4160   3.708   3.013  14.299  0.7544  0.7512 -0.8383
  272TMC3    C2 4161   3.830   2.946  14.305  0.0498  0.2857 -0.2239
  272TMC3    C3 4162   3.897   2.936  14.421  0.0530  0.6096  0.2405
  272TMC3    C4 4163   3.663   3.077  14.408  0.2994 -0.6409  0.0482
  272TMC3    C5 4164   3.743   3.077  14.525 -0.3591 -0.1374  0.4151
  272TMC3    C6 4165   3.857   3.002  14.539  0.2215  0.2505 -0.0504
  272TMC3     C 4166   3.608   2.956  14.211 -0.6539  0.0126 -0.4913
  272TMC3     O 4167   3.636   2.850  14.155  1.0955  0.6497 -0.9903
  272TMC3     H 4168   3.856   2.888  14.217  2.5465 -0.9791  1.3529
  272TMC3    H1 4169   3.566   3.124  14.418 -0.4971 -1.7966 -2.1863
  272TMC3    H2 4170   3.914   3.007  14.632 -1.3375 -1.2453  0.9903
  272TMC3    C7 4171   3.676   3.117  14.647 -0.0837  0.2320  0.1152
  272TMC3    C8 4172   4.034   2.890  14.404  0.1796  0.1814 -1.2009
  272TMC3    O1 4173   3.556   3.090  14.654 -0.2507 -0.1208  0.5081
  272TMC3    O2 4174   4.064   2.834  14.300 -0.0513 -0.1436  0.3900
  273MPD2     C 4175   0.817   1.220  11.370  0.5504 -0.2070 -0.7446
  273MPD2    C1 4176   0.887   1.341  11.385 -0.3036  0.0551 -0.3501
  273MPD2    C2 4177   0.929   1.401  11.268 -0.5057 -0.9142 -0.0807
  273MPD2    C3 4178   0.891   1.356  11.141 -0.5567 -0.2191  0.4797
  273MPD2    C4 4179   0.813   1.243  11.130  0.9658 -0.4041  0.4679
  273MPD2    C5 4180   0.781   1.173  11.246 -0.4874 -0.2126  0.2185
  273MPD2     H 4181   0.994   1.487  11.259 -1.4003 -0.4579 -2.2742
  273MPD2    H1 4182   0.797   1.205  11.030 -2.7351  1.9970  0.1185
  273MPD2    H2 4183   0.793   1.173  11.465  0.5238 -1.2237 -1.2601
  273MPD2    H3 4184   0.720   1.084  11.234  1.8098 -1.3217 -3.3506
  273MPD2     N 4185   0.932   1.427  11.023 -0.6171 -0.3422  0.7561
  273MPD2    H5 4186   0.974   1.516  11.048  0.1966 -0.6840  0.6064
  273MPD2    N1 4187   0.925   1.386  11.513 -0.7619  0.4941  0.4259
  273MPD2    H7 4188   0.920   1.329  11.597  2.0884  0.1337  0.3515
  274TMC3    C1 4189   0.977   1.491  10.811 -0.3074  0.0221 -0.0803
  274TMC3    C2 4190   0.910   1.507  10.690 -0.3891 -0.4062  1.2159
  274TMC3    C3 4191   0.903   1.636  10.641  0.2374 -0.4252  0.0684
  274TMC3    C4 4192   1.052   1.594  10.874  0.1317  0.1975 -0.6273
  274TMC3    C5 4193   1.040   1.723  10.826 -0.5404  0.3179 -0.5832
  274TMC3    C6 4194   0.969   1.746  10.706 -0.7710  0.8817  0.3471
  274TMC3     C 4195   0.918   1.388  10.895  0.1298 -0.3537  0.4855
  274TMC3     O 4196   0.844   1.301  10.844 -0.3777  0.6653 -0.4621
  274TMC3     H 4197   0.842   1.428  10.658  0.2807  0.0481 -1.3456
  274TMC3    H1 4198   1.118   1.569  10.957  1.9581  0.4733 -2.0048
  274TMC3    H2 4199   0.947   1.846  10.670 -1.4429  0.5322 -0.1971
  274TMC3    C7 4200   1.052   1.838  10.918 -0.4333 -0.5679 -0.0836
  274TMC3    C8 4201   0.783   1.673  10.569  0.0869  0.4519  1.7994
  274TMC3    O1 4202   0.995   1.939  10.890 -0.2256  0.0613  0.6293
  274TMC3    O2 4203   0.702   1.579  10.574  0.0312 -0.0493 -0.2802
  275MPD2     C 4204   4.419   0.038  14.498 -0.2987 -0.0925 -0.7594
  275MPD2    C1 4205   4.464   4.650  14.506  0.1672 -0.0929  0.1959
  275MPD2    C2 4206   4.375   4.546  14.532  0.7118  0.4844  0.0056
  275MPD2    C3 4207   4.240   4.572  14.526  0.8708 -0.6458  0.7289
  275MPD2    C4 4208   4.196   4.701  14.504 -0.4308 -0.1265 -0.1348
  275MPD2    C5 4209   4.288   0.065  14.481 -0.5048 -0.4403  0.6616
  275MPD2     H 4210   4.412   4.446  14.554 -0.9900  0.3086  2.0736
  275MPD2    H1 4211   4.095   4.724  14.474 -0.9600 -1.3729  0.6975
  275MPD2    H2 4212   4.484   0.123  14.482  1.6001 -1.4871 -0.4693
  275MPD2    H3 4213   4.247   0.161  14.454  0.0541 -0.7827 -1.4305
  275MPD2     N 4214   4.143   4.469  14.532 -0.0019  0.2354 -0.0547
  275MPD2    H5 4215   4.052   4.512  14.544  0.4584  1.1386  0.1963
  275MPD2    N1 4216   4.604   4.616  14.504 -0.2179 -0.1338  0.0126
  275MPD2    H7 4217   4.616   4.521  14.538  0.7585 -0.1753 -0.4421
  276TMC3    C1 4218   0.095   4.640  14.504 -0.2589 -0.3237 -0.2618
  276TMC3    C2 4219   0.109   4.515  14.451 -0.0308  0.2619  0.3003
  276TMC3    C3 4220   0.203   4.439  14.509 -0.3125 -0.4327 -0.2889
  276TMC3    C4 4221   0.176   4.685  14.607 -0.1505 -0.3367 -0.2714
  276TMC3    C5 4222   0.275   4.604  14.661  0.5810  0.1618  0.3769
  276TMC3    C6 4223   0.290   4.479  14.613  0.2004 -0.0473  0.4708
  276TMC3     C 4224   4.711   4.702  14.487 -0.3166 -0.3298 -0.5844
  276TMC3     O 4225   4.701   0.088  14.462  0.3815  0.1394  0.1621
  276TMC3     H 4226   0.051   4.484  14.364  0.1626  2.3294 -0.5670
  276TMC3    H1 4227   0.152   0.049  14.640  1.3366 -0.5160  1.3896
  276TMC3    H2 4228   0.365   4.413  14.654 -0.4745 -0.2057  1.4441
  276TMC3    C7 4229   0.388   4.664  14.728 -0.2448 -0.0712  0.2975
  276TMC3    C8 4230   0.175   4.301  14.495  0.0617  0.5044  0.1720
  276TMC3    O1 4231   0.453   4.586  14.800  0.0520 -0.0733 -0.2316
  276TMC3    O2 4232   0.107   4.276  14.397 -0.2685  0.2671 -0.4003
  277MPD2     C 4233   2.155   3.357  13.206  0.2680 -0.2125  0.1836
  277MPD2    C1 4234   2.074   3.431  13.285 -0.5389 -0.2217 -0.6805
  277MPD2    C2 4235   2.076   3.422  13.423 -0.2113  0.4781  0.5961
  277MPD2    C3 4236   2.165   3.339  13.483  0.0574 -0.0735 -0.2541
  277MPD2    C4 4237   2.246   3.253  13.404 -0.5883  0.0108  0.2573
  277MPD2    C5 4238   2.237   3.264  13.270  0.0057  0.1974  0.1050
  277MPD2     H 4239   2.019   3.484  13.491 -2.2596  0.1024 -0.7876
  277MPD2    H1 4240   2.303   3.168  13.440  0.9972  1.4614  1.1950
  277MPD2    H2 4241   2.156   3.365  13.098  2.6711 -0.0921  0.2091
  277MPD2    H3 4242   2.281   3.185  13.210 -0.2763  1.2711 -1.5160
  277MPD2     N 4243   2.162   3.322  13.621  0.4650  0.3367  0.0418
  277MPD2    H5 4244   2.090   3.368  13.677  1.7186  0.8698  1.2188
  277MPD2    N1 4245   1.995   3.528  13.209  0.5586  0.0717  0.5605
  277MPD2    H7 4246   2.009   3.544  13.110  1.4729 -0.3819  0.6154
  278TMC3    C1 4247   2.158   3.216  13.821 -0.1473  0.5138 -0.9748
  278TMC3    C2 4248   2.098   3.098  13.841 -0.1655  0.0080  0.7615
  278TMC3    C3 4249   1.965   3.096  13.880 -0.1235  0.9808  0.5812
  278TMC3    C4 4250   2.096   3.335  13.845 -0.0177 -0.4937 -0.2655
  278TMC3    C5 4251   1.965   3.330  13.879 -0.0576  0.2910 -0.2216
  278TMC3    C6 4252   1.893   3.210  13.916  0.6280  0.3104  0.2155
  278TMC3     C 4253   2.224   3.221  13.693 -0.5531  0.4484 -0.3186
  278TMC3     O 4254   2.298   3.129  13.665  0.3308  1.0753 -0.5719
  278TMC3     H 4255   2.134   3.003  13.803 -1.8282 -0.5025  0.4648
  278TMC3    H1 4256   2.142   3.431  13.827  3.3065 -1.9002  0.6886
  278TMC3    H2 4257   1.786   3.200  13.931  1.0494 -1.3910  2.0095
  278TMC3    C7 4258   1.878   3.434  13.812 -0.2342 -0.2698 -0.5378
  278TMC3    C8 4259   1.905   2.971  13.881 -0.6464 -0.5295  0.2603
  278TMC3    O1 4260   1.938   3.503  13.732 -0.2772 -0.4021  0.2288
  278TMC3    O2 4261   1.830   2.947  13.970  0.2241  0.4656  0.3124
  279MPD2     C 4262   1.527   2.907   0.260 -0.3325 -0.5022 -0.1667
  279MPD2    C1 4263   1.428   3.001   0.287  0.8942 -0.8627 -0.0116
  279MPD2    C2 4264   1.393   3.089   0.179  0.0413 -0.3321 -0.2082
  279MPD2    C3 4265   1.448   3.071   0.057  0.2490 -0.2351 -0.1749
  279MPD2    C4 4266   1.553   2.985   0.033 -1.0581 -0.1243 -0.0169
  279MPD2    C5 4267   1.586   2.897   0.135 -0.5593 -0.4940  0.3625
  279MPD2     H 4268   1.301   3.144   0.196 -0.9894 -1.6831 -1.3813
  279MPD2    H1 4269   1.599   2.970  17.679 -1.9972  0.4039 -0.5398
  279MPD2    H2 4270   1.544   2.843   0.345 -0.9783  0.0472  0.3854
  279MPD2    H3 4271   1.665   2.827   0.111 -0.4701  0.1972 -1.3378
  279MPD2     N 4272   1.397   3.135  17.687  0.2178  0.2509 -0.8795
  279MPD2    H5 4273   1.437   3.118  17.595  0.4167 -0.8213 -0.5971
  279MPD2    N1 4274   1.362   2.999   0.412  0.5154  1.1661  0.7796
  279MPD2    H7 4275   1.383   2.925   0.478 -3.6873 -0.1918  0.6225
  280TMC3    C1 4276   1.169   3.042   0.534  0.6661 -0.3126 -0.6582
  280TMC3    C2 4277   1.123   2.921   0.481 -0.1142  0.2876  0.0515
  280TMC3    C3 4278   0.988   2.908   0.482  0.0099  0.1233 -0.8393
  280TMC3    C4 4279   1.085   3.139   0.584 -0.5925  0.3987  0.2252
  280TMC3    C5 4280   0.951   3.124   0.580  0.2052  0.4843 -0.2343
  280TMC3    C6 4281   0.903   3.006   0.527 -0.4455 -0.0201  0.5124
  280TMC3     C 4282   1.272   3.093   0.457 -0.3035  0.0684 -0.9680
  280TMC3     O 4283   1.263   3.204   0.413 -0.2650  0.7962  0.1266
  280TMC3     H 4284   1.192   2.845   0.445  0.4654  0.5008  0.6997
  280TMC3    H1 4285   1.136   3.224   0.627  1.2399 -1.7382  2.2441
  280TMC3    H2 4286   0.797   2.984   0.525 -0.3379 -0.7573  2.2620
  280TMC3    C7 4287   0.864   3.225   0.635 -0.5613 -0.0139  0.6750
  280TMC3    C8 4288   0.929   2.784   0.449  0.3713  0.3945 -0.2023
  280TMC3    O1 4289   0.928   3.305   0.698 -0.0738 -0.2722 -0.3091
  280TMC3    O2 4290   0.823   2.752   0.496 -0.4903  0.3577  0.4645
  281TMC3    C1 4291   0.334   3.777  13.474  0.1689 -0.1082  0.3559
  281TMC3    C2 4292   0.359   3.854  13.366 -0.8304 -0.9860  0.7476
  281TMC3    C3 4293   0.453   3.802  13.285 -0.4079 -0.7364  0.1241
  281TMC3    C4 4294   0.406   3.661  13.515 -0.1176 -0.6741 -0.2777
  281TMC3    C5 4295   0.495   3.618  13.421 -0.2964  0.0219  0.3323
  281TMC3    C6 4296   0.525   3.688  13.310 -0.0095  0.5036  0.3211
  281TMC3     C 4297   0.214   3.795  13.549  0.3177  0.3461 -0.1021
  281TMC3     O 4298   0.209   3.767  13.664 -0.1487 -0.6643 -0.2335
  281TMC3     H 4299   0.301   3.941  13.339  2.1589  0.6260 -0.5494
  281TMC3    H1 4300   0.374   3.610  13.606 -0.7251 -0.2278 -0.2431
  281TMC3    H2 4301   0.601   3.655  13.240 -0.0976 -0.6372  0.7661
  281TMC3    C7 4302   0.514   3.479  13.411  0.2973  0.2008 -0.7367
  281TMC3    C8 4303   0.503   3.888  13.176 -0.2829 -0.5328 -0.2390
  281TMC3    O1 4304   0.601   3.445  13.335  0.0649 -0.3701 -0.1547
  281TMC3    O2 4305   0.624   3.890  13.168 -0.0268  0.0512  0.3657
  282MPD2     C 4306   1.826   0.277  14.935 -0.2127  0.2877  0.3432
  282MPD2    C1 4307   1.698   0.322  14.909 -0.2242  0.2051  0.2043
  282MPD2    C2 4308   1.657   0.357  14.784  0.3239 -0.0526  0.4132
  282MPD2    C3 4309   1.744   0.341  14.678  0.1291  0.6253 -0.1596
  282MPD2    C4 4310   1.876   0.292  14.702 -0.4551 -0.1351  0.2761
  282MPD2    C5 4311   1.912   0.262  14.833  0.4027  0.2069 -0.9341
  282MPD2     H 4312   1.555   0.395  14.774 -0.4004 -2.1588 -0.2854
  282MPD2    H1 4313   1.944   0.281  14.619  0.5396 -4.6104  1.6575
  282MPD2    H2 4314   1.860   0.244  15.032 -1.0872  2.3507  1.3349
  282MPD2    H3 4315   2.015   0.241  14.859  0.0309  0.5876  0.8641
  282MPD2     N 4316   1.710   0.380  14.548  0.1638 -0.5878 -0.6463
  282MPD2    H5 4317   1.625   0.434  14.537 -0.7323 -1.8673 -0.0132
  282MPD2    N1 4318   1.605   0.336  15.010  0.1378  0.5683 -0.2464
  282MPD2    H7 4319   1.514   0.377  14.992 -0.7404 -1.5451 -0.6390
  283TMC3    C1 4320   1.510   0.315  15.228 -1.0012 -0.2817  0.0977
  283TMC3    C2 4321   1.456   0.436  15.225  0.6530  0.4694  0.1554
  283TMC3    C3 4322   1.380   0.475  15.337 -0.5620 -0.1374  0.0578
  283TMC3    C4 4323   1.482   0.221  15.322  0.1719 -0.2613 -0.0741
  283TMC3    C5 4324   1.412   0.258  15.436  0.5362 -0.2715  0.4841
  283TMC3    C6 4325   1.363   0.388  15.441  0.3047 -0.3650 -0.9562
  283TMC3     C 4326   1.623   0.287  15.143  0.4375  0.2285  0.1105
  283TMC3     O 4327   1.706   0.219  15.197 -0.4797 -0.3116  0.4341
  283TMC3     H 4328   1.474   0.512  15.150 -1.4942  0.6660 -0.1695
  283TMC3    H1 4329   1.507   0.116  15.308 -1.3892 -0.4808 -1.2055
  283TMC3    H2 4330   1.298   0.409  15.526  1.7569 -0.2154  0.1199
  283TMC3    C7 4331   1.327   0.167  15.523 -1.1650 -0.2742 -0.4565
  283TMC3    C8 4332   1.313   0.611  15.361  0.1809 -0.4518  0.8306
  283TMC3    O1 4333   1.247   0.218  15.593  0.2842 -0.4247  0.8674
  283TMC3    O2 4334   1.292   0.630  15.480 -0.6293  0.3210 -0.0735
  284MPD2     C 4335   0.269   4.297  11.765  0.3683  0.5984 -0.2306
  284MPD2    C1 4336   0.390   4.322  11.818  0.0875  0.2870  0.0786
  284MPD2    C2 4337   0.451   4.229  11.900  0.3541  0.1755  0.0754
  284MPD2    C3 4338   0.386   4.116  11.941  0.0150 -0.5853 -0.0290
  284MPD2    C4 4339   0.256   4.092  11.892  0.7428  0.1495 -0.0725
  284MPD2    C5 4340   0.207   4.181  11.801 -0.4253 -0.6267 -0.0427
  284MPD2     H 4341   0.544   4.259  11.947 -0.6795  1.5308  1.2901
  284MPD2    H1 4342   0.200   4.001  11.904  1.0866 -0.0799 -0.2078
  284MPD2    H2 4343   0.218   4.365  11.698 -2.7765 -0.5927  0.9510
  284MPD2    H3 4344   0.102   4.163  11.782 -0.3758 -2.5521  1.6077
  284MPD2     N 4345   0.465   4.021  12.016 -0.4592  0.5996  0.0367
  284MPD2    H5 4346   0.553   4.057  12.053 -1.1649 -0.3966  2.7292
  284MPD2    N1 4347   0.477   4.428  11.781 -0.1968 -0.0957  0.2335
  284MPD2    H7 4348   0.573   4.423  11.813 -0.3193  0.3691  0.6635
  285TMC3    C1 4349   0.570   4.591  11.636 -0.2241 -0.1953 -0.4585
  285TMC3    C2 4350   0.681   4.504  11.626 -0.1081  0.5837  0.8427
  285TMC3    C3 4351   0.801   4.559  11.589  0.1277 -0.2594  0.0665
  285TMC3    C4 4352   0.591   4.729  11.616 -0.1614  0.2509  0.0837
  285TMC3    C5 4353   0.714   0.040  11.578  0.0461 -0.2734 -0.8022
  285TMC3    C6 4354   0.820   4.689  11.568 -0.5386 -0.0715  0.9330
  285TMC3     C 4355   0.447   4.533  11.692  1.0780  0.2450  0.0180
  285TMC3     O 4356   0.340   4.566  11.644  0.2144 -0.1636  0.1360
  285TMC3     H 4357   0.667   4.397  11.635 -2.2266  0.6460 -1.7042
  285TMC3    H1 4358   0.502   0.056  11.616 -0.6933 -0.5055  0.9082
  285TMC3    H2 4359   0.913   0.007  11.553 -1.3322  1.2437  0.6689
  285TMC3    C7 4360   0.735   0.187  11.589  0.4122 -0.4947 -0.6486
  285TMC3    C8 4361   0.890   4.465  11.525  0.2184 -0.1888  0.1776
  285TMC3    O1 4362   0.659   0.260  11.657 -0.0668 -0.0651  0.2720
  285TMC3    O2 4363   0.853   4.347  11.513 -0.1152 -0.7659 -0.4924
  286MPD2     C 4364   4.382   2.527   1.760  0.6417  1.0399  0.1864
  286MPD2    C1 4365   4.372   2.495   1.624  0.3469  0.1651 -0.8095
  286MPD2    C2 4366   4.495   2.457   1.566  0.4743  0.3976 -0.7075
  286MPD2    C3 4367   4.619   2.466   1.628 -0.1050 -1.0361  0.2039
  286MPD2    C4 4368   4.622   2.512   1.756  0.3053  0.0898  0.3713
  286MPD2    C5 4369   4.503   2.540   1.816  0.5535 -0.4717  0.2848
  286MPD2     H 4370   4.494   2.433   1.460 -0.5976 -2.5711 -0.0460
  286MPD2    H1 4371   4.715   2.524   1.810 -0.4255  1.1201  1.3870
  286MPD2    H2 4372   4.294   2.548   1.820  1.0116  0.4741  0.9334
  286MPD2    H3 4373   4.505   2.577   1.918  2.0750 -1.8923  0.7821
  286MPD2     N 4374   0.000   2.439   1.551  0.2012  0.3437  0.1341
  286MPD2    H5 4375   0.088   2.473   1.590  0.2487 -1.6298  1.7550
  286MPD2    N1 4376   4.258   2.503   1.546  0.9669 -0.7114  0.0235
  286MPD2    H7 4377   4.259   2.478   1.448 -0.6403  0.4620 -0.2994
  287TMC3    C1 4378   0.133   2.343   1.376  0.2597  0.1393  0.5500
  287TMC3    C2 4379   0.127   2.316   1.243  0.4774  0.0917 -0.2515
  287TMC3    C3 4380   0.243   2.280   1.179 -0.1346  0.9162  0.0255
  287TMC3    C4 4381   0.252   2.348   1.442  0.9254 -0.1347  0.0699
  287TMC3    C5 4382   0.371   2.307   1.373  0.2349  0.2006 -0.8693
  287TMC3    C6 4383   0.364   2.275   1.240  0.5484  0.0439 -0.1088
  287TMC3     C 4384   0.005   2.361   1.437 -0.1659 -0.0279 -0.0569
  287TMC3     O 4385   4.653   2.297   1.379  0.2518 -0.2489 -0.2989
  287TMC3     H 4386   0.027   2.301   1.203 -0.5615  0.7947  2.0835
  287TMC3    H1 4387   0.261   2.364   1.549  0.4420 -0.8967  0.2230
  287TMC3    H2 4388   0.447   2.225   1.190  0.2177 -1.1594  0.5544
  287TMC3    C7 4389   0.491   2.354   1.423 -0.1404 -0.2021  0.2327
  287TMC3    C8 4390   0.230   2.220   1.046 -0.3784 -0.7409 -0.3894
  287TMC3    O1 4391   0.477   2.436   1.512  0.6565  0.0320  0.0826
  287TMC3    O2 4392   0.324   2.154   1.001  0.1886  0.3587  0.3194
  288TMC3    C1 4393   2.034   2.191  14.050 -0.1207 -0.2832  0.4840
  288TMC3    C2 4394   2.053   2.299  14.139 -0.4484  0.0093 -0.2605
  288TMC3    C3 4395   2.042   2.428  14.090  1.2423  0.5118 -0.4784
  288TMC3    C4 4396   2.014   2.222  13.917 -0.3532  0.0054 -0.6284
  288TMC3    C5 4397   2.012   2.353  13.869 -0.1919 -0.2219 -0.0334
  288TMC3    C6 4398   2.028   2.459  13.957  0.7623 -0.6654  0.2082
  288TMC3     C 4399   2.053   2.057  14.083 -0.3457 -0.6411  0.1111
  288TMC3     O 4400   2.038   1.974  13.991 -0.4267 -0.3056 -0.2199
  288TMC3     H 4401   2.089   2.286  14.240 -0.7687 -0.2439 -0.1783
  288TMC3    H1 4402   2.001   2.141  13.846 -1.8969  1.2610 -1.7868
  288TMC3    H2 4403   2.004   2.558  13.921  2.5984 -0.0953  0.5469
  288TMC3    C7 4404   2.014   2.372  13.723  0.4290  0.1758  0.2972
  288TMC3    C8 4405   2.017   2.536  14.190  1.3505 -0.3760 -0.3538
  288TMC3    O1 4406   2.000   2.276  13.648 -0.2966 -0.1365 -0.1824
  288TMC3    O2 4407   2.057   2.648  14.164 -0.2435 -0.0572  0.0448
  289MPD2     C 4408   1.800   1.853  14.573 -1.4162 -0.5195 -0.1180
  289MPD2    C1 4409   1.835   1.982  14.528 -0.7070 -0.5098 -0.3296
  289MPD2    C2 4410   1.794   2.023  14.406 -0.0105  0.2441  0.3409
  289MPD2    C3 4411   1.726   1.939  14.318 -0.0407 -0.1080  0.1970
  289MPD2    C4 4412   1.685   1.818  14.368  0.1724 -0.6319  0.8819
  289MPD2    C5 4413   1.721   1.776  14.495  0.0795 -0.6051  0.6268
  289MPD2     H 4414   1.807   2.128  14.381  2.1306 -0.1844 -0.3079
  289MPD2    H1 4415   1.629   1.752  14.303  2.8602 -0.4141 -1.6289
  289MPD2    H2 4416   1.831   1.807  14.666  0.3234  0.0400 -0.4103
  289MPD2    H3 4417   1.687   1.678  14.528 -1.7954 -0.1345  0.1061
  289MPD2     N 4418   1.685   1.976  14.189 -0.2375 -0.2059  0.1848
  289MPD2    H5 4419   1.638   1.898  14.144  0.4095  1.7935 -3.9160
  289MPD2    N1 4420   1.928   2.056  14.606 -0.3733 -0.0416 -0.2692
  289MPD2    H7 4421   1.948   2.016  14.697 -1.3892 -0.5657 -0.2807
  290TMC3    C1 4422   1.619   2.111  14.011 -0.2284 -0.2742  0.5952
  290TMC3    C2 4423   1.575   2.234  13.970  0.1375  0.3584 -0.2603
  290TMC3    C3 4424   1.494   2.230  13.861  0.0608  0.5787  0.0547
  290TMC3    C4 4425   1.608   1.996  13.939 -0.5879 -0.7667  0.4861
  290TMC3    C5 4426   1.549   2.011  13.814  0.8183 -0.0011 -0.3248
  290TMC3    C6 4427   1.481   2.124  13.773 -0.5967  0.5082 -0.3487
  290TMC3     C 4428   1.686   2.099  14.135 -0.8825 -0.4189 -0.4004
  290TMC3     O 4429   1.726   2.205  14.184 -0.3083 -0.2067 -0.0747
  290TMC3     H 4430   1.587   2.322  14.031  1.0860 -0.3438  0.5701
  290TMC3    H1 4431   1.670   1.910  13.962  0.5434  0.4972  2.1089
  290TMC3    H2 4432   1.447   2.138  13.671 -0.9695  1.0996 -0.1396
  290TMC3    C7 4433   1.556   1.906  13.711  0.3699  0.8684 -0.0564
  290TMC3    C8 4434   1.443   2.354  13.804 -0.7749  0.5092 -0.2630
  290TMC3    O1 4435   1.533   1.942  13.599 -0.1010 -0.0199  0.2877
  290TMC3    O2 4436   1.417   2.361  13.683 -0.2081  1.0141 -0.3779
  291MPD2     C 4437   0.724   1.575   0.533 -0.3055 -0.1134  0.0158
  291MPD2    C1 4438   0.822   1.482   0.526  0.0845 -0.5352 -0.4294
  291MPD2    C2 4439   0.957   1.517   0.534  0.3750 -0.1326 -0.3326
  291MPD2    C3 4440   0.988   1.649   0.544 -0.0125  0.3699  0.6123
  291MPD2    C4 4441   0.889   1.745   0.556 -0.1132  0.1487 -0.3798
  291MPD2    C5 4442   0.759   1.701   0.559  0.2014  0.4056 -0.3115
  291MPD2     H 4443   1.045   1.455   0.529 -0.5754 -1.6025  1.1939
  291MPD2    H1 4444   0.913   1.850   0.562 -1.6587  0.4060  0.9646
  291MPD2    H2 4445   0.622   1.547   0.512 -0.7917  2.5592 -1.0928
  291MPD2    H3 4446   0.684   1.780   0.563  1.3508  1.5568 -1.5951
  291MPD2     N 4447   1.121   1.689   0.536  0.2962  0.6620  0.0745
  291MPD2    H5 4448   1.199   1.628   0.513 -1.9788 -1.8311 -0.9458
  291MPD2    N1 4449   0.795   1.337   0.506  0.6071  1.1798 -0.2840
  291MPD2    H7 4450   0.879   1.280   0.502 -0.2330 -0.2539  2.5379
  292TMC3    C1 4451   0.703   1.134   0.425  0.4915 -0.3145 -0.2711
  292TMC3    C2 4452   0.815   1.067   0.466 -0.3195 -0.6479 -0.2556
  292TMC3    C3 4453   0.861   0.965   0.389 -0.2107  0.7524 -0.1889
  292TMC3    C4 4454   0.632   1.090   0.322 -0.0101 -0.4952  0.0747
  292TMC3    C5 4455   0.668   0.976   0.253  0.1801 -0.0243 -0.0165
  292TMC3    C6 4456   0.796   0.922   0.274  0.0065  0.1821 -0.3798
  292TMC3     C 4457   0.678   1.277   0.471 -0.1875  0.3533 -0.4348
  292TMC3     O 4458   0.580   1.330   0.422  0.3602 -0.3705  0.6580
  292TMC3     H 4459   0.854   1.103   0.561 -2.2196  0.6922  0.0123
  292TMC3    H1 4460   0.537   1.137   0.297 -0.3439 -0.7812  0.8009
  292TMC3    H2 4461   0.825   0.839   0.210  1.4866  1.4569 -1.3745
  292TMC3    C7 4462   0.601   0.937   0.128 -0.9228  0.2738  0.0254
  292TMC3    C8 4463   0.961   0.878   0.445 -0.4113  0.3380  0.0792
  292TMC3    O1 4464   0.673   0.889   0.040  0.5403 -0.4026 -0.4479
  292TMC3    O2 4465   1.008   0.791   0.377 -0.1375 -0.3106  0.3952
  293MPD2     C 4466   2.809   3.161  12.700 -0.2551  0.2295  0.0735
  293MPD2    C1 4467   2.722   3.099  12.787 -0.2721  0.0251 -0.3879
  293MPD2    C2 4468   2.769   3.055  12.908 -0.2937  0.2707  0.0892
  293MPD2    C3 4469   2.900   3.092  12.945 -0.5495  0.2867 -0.0759
  293MPD2    C4 4470   2.984   3.148  12.854  0.3286  0.3290  0.0431
  293MPD2    C5 4471   2.941   3.183  12.735  0.1444 -0.5757 -0.0625
  293MPD2     H 4472   2.703   3.000  12.974 -0.3840 -0.7725 -0.8761
  293MPD2    H1 4473   3.086   3.180  12.869  1.0627 -1.3511 -1.3928
  293MPD2    H2 4474   2.783   3.179  12.596 -3.0844 -1.5914  0.4651
  293MPD2    H3 4475   3.012   3.212  12.658 -0.3722  0.4787 -0.1351
  293MPD2     N 4476   2.940   3.065  13.078 -0.6037 -0.5390 -0.2397
  293MPD2    H5 4477   2.876   3.018  13.141 -0.9358  0.4834  0.1924
  293MPD2    N1 4478   2.597   3.079  12.729  0.1360 -0.3763 -0.1988
  293MPD2    H7 4479   2.591   3.093  12.628 -2.1013 -1.3430 -0.1976
  294TMC3    C1 4480   2.369   2.999  12.707  0.0061  1.0556 -1.1281
  294TMC3    C2 4481   2.301   2.885  12.709 -0.4024 -0.3706  0.4559
  294TMC3    C3 4482   2.249   2.841  12.588 -0.1520  1.2136  0.6344
  294TMC3    C4 4483   2.362   3.082  12.598 -0.6186  0.3532 -0.6770
  294TMC3    C5 4484   2.303   3.047  12.480 -0.0141  0.0576 -0.2742
  294TMC3    C6 4485   2.250   2.918  12.473  0.0638  0.3435 -0.2713
  294TMC3     C 4486   2.486   3.024  12.795  0.2653  0.1844  0.0059
  294TMC3     O 4487   2.476   2.977  12.907  0.0567 -0.0052 -0.4378
  294TMC3     H 4488   2.295   2.834  12.805  0.4123  1.5355  1.5081
  294TMC3    H1 4489   2.407   3.179  12.617 -1.5379 -0.3237  4.8870
  294TMC3    H2 4490   2.196   2.892  12.383 -0.3134  1.9814 -0.5119
  294TMC3    C7 4491   2.288   3.138  12.371 -0.3268 -0.1329  0.2691
  294TMC3    C8 4492   2.268   2.702  12.567  0.0981  0.4075 -0.2210
  294TMC3    O1 4493   2.181   3.138  12.313 -0.6219 -0.0321 -0.1762
  294TMC3    O2 4494   2.247   2.628  12.660  0.3496 -0.4085  0.1380
  295MPD2     C 4495   2.550   1.946   0.495  0.1201  0.5225  0.3471
  295MPD2    C1 4496   2.636   1.840   0.485 -0.5429  0.2197 -0.5439
  295MPD2    C2 4497   2.697   1.792   0.597 -0.4447  0.3816  0.4942
  295MPD2    C3 4498   2.665   1.834   0.727  0.8109  0.2573 -0.1133
  295MPD2    C4 4499   2.576   1.938   0.732  0.1371 -0.3098 -0.4103
  295MPD2    C5 4500   2.510   1.994   0.617 -0.4621 -0.1421  0.0962
  295MPD2     H 4501   2.758   1.703   0.587 -1.2744 -0.5539  3.5757
  295MPD2    H1 4502   2.541   1.978   0.827  1.0966 -1.1523  0.2894
  295MPD2    H2 4503   2.501   2.001   0.416 -1.8992  0.3619  1.4759
  295MPD2    H3 4504   2.441   2.077   0.625  1.0908  0.9018  2.7050
  295MPD2     N 4505   2.713   1.781   0.849  0.0638 -0.3063  0.6416
  295MPD2    H5 4506   2.685   1.816   0.940  0.2295 -2.6657  1.5989
  295MPD2    N1 4507   2.673   1.789   0.359 -0.2034 -0.2977 -0.3613
  295MPD2    H7 4508   2.743   1.715   0.365  0.0092 -0.1420 -0.9385
  296TMC3    C1 4509   2.838   1.661   0.996 -0.2271  0.2022  0.1817
  296TMC3    C2 4510   2.782   1.734   1.096  0.3358  0.5059  0.1246
  296TMC3    C3 4511   2.802   1.679   1.220  0.4993  0.1469  0.4546
  296TMC3    C4 4512   2.906   1.544   1.017  0.0734  0.4480 -0.2158
  296TMC3    C5 4513   2.909   1.493   1.138  0.3200 -0.2292  0.4111
  296TMC3    C6 4514   2.851   1.556   1.242 -0.3437 -0.1053 -0.5032
  296TMC3     C 4515   2.806   1.683   0.856 -0.7790 -0.3262 -0.3422
  296TMC3     O 4516   2.868   1.619   0.773 -0.2456 -0.2788  0.2716
  296TMC3     H 4517   2.738   1.832   1.082  1.2502  1.0244  0.9295
  296TMC3    H1 4518   2.957   1.500   0.932 -0.7070 -0.9267  0.0342
  296TMC3    H2 4519   2.890   1.540   1.341 -3.0190  2.3801  0.9379
  296TMC3    C7 4520   3.003   1.383   1.144 -0.5469  0.8030 -0.5155
  296TMC3    C8 4521   2.764   1.754   1.341  0.4097 -0.3125 -0.2951
  296TMC3    O1 4522   3.100   1.373   1.068 -0.0727  0.3072 -0.3538
  296TMC3    O2 4523   2.815   1.712   1.445  0.5849 -0.2503 -0.6212
  297MPD2     C 4524   0.753   3.896  16.597  0.0255 -0.4480  0.0343
  297MPD2    C1 4525   0.702   3.904  16.470  1.1511  0.0722  0.3435
  297MPD2    C2 4526   0.738   4.013  16.397  0.9643  0.0796 -0.3400
  297MPD2    C3 4527   0.823   4.109  16.453  0.5384 -0.3047  0.2640
  297MPD2    C4 4528   0.863   4.106  16.584 -0.9769  0.0450 -0.2491
  297MPD2    C5 4529   0.826   4.000  16.655 -0.2438  0.3449  0.4294
  297MPD2     H 4530   0.696   4.018  16.298  1.1227  1.5359 -0.3234
  297MPD2    H1 4531   0.920   4.181  16.638 -1.9874 -0.0901  1.0107
  297MPD2    H2 4532   0.731   3.816  16.668 -0.1535  0.3118  0.8350
  297MPD2    H3 4533   0.851   4.002  16.760 -3.2307  0.6080  1.1405
  297MPD2     N 4534   0.860   4.206  16.360 -0.2768 -0.1198  0.1367
  297MPD2    H5 4535   0.841   4.187  16.262  0.0487 -1.1543  0.2664
  297MPD2    N1 4536   0.612   3.808  16.413 -0.0518  0.2138  0.2241
  297MPD2    H7 4537   0.566   3.838  16.328 -3.1736 -0.7021  1.6007
  298TMC3    C1 4538   0.449   3.634  16.405 -0.1815 -0.5331  0.7659
  298TMC3    C2 4539   0.448   3.655  16.266 -1.1683  0.0290  0.5554
  298TMC3    C3 4540   0.325   3.666  16.200 -0.3896  0.0169 -0.1488
  298TMC3    C4 4541   0.332   3.620  16.474  0.5887 -0.2188  1.0804
  298TMC3    C5 4542   0.214   3.640  16.411 -0.6988 -0.7063 -0.6414
  298TMC3    C6 4543   0.208   3.655  16.272  0.9762 -0.4168 -0.1103
  298TMC3     C 4544   0.559   3.700  16.482  1.2077  0.5854  0.3015
  298TMC3     O 4545   0.568   3.673  16.601  0.2829  0.6384 -0.4112
  298TMC3     H 4546   0.540   3.671  16.210 -0.6503 -2.2331  0.7277
  298TMC3    H1 4547   0.343   3.603  16.581 -1.0662 -0.2440  1.2465
  298TMC3    H2 4548   0.113   3.660  16.220  0.5517 -0.1303  0.6925
  298TMC3    C7 4549   0.111   3.699  16.491 -0.5486 -1.0318  0.1012
  298TMC3    C8 4550   0.333   3.703  16.062  0.0768 -0.5014  0.3102
  298TMC3    O1 4551   0.115   3.667  16.604  0.4305  0.0160  0.0946
  298TMC3    O2 4552   0.404   3.632  15.988  0.2856  0.5142 -0.0153
  299MPD2     C 4553   2.237   3.873  10.454  0.0246  0.9112  0.0294
  299MPD2    C1 4554   2.147   3.798  10.529 -0.6327  0.6820  0.1808
  299MPD2    C2 4555   2.057   3.722  10.459  0.8210 -0.1492 -0.3109
  299MPD2    C3 4556   2.056   3.708  10.321  0.0273 -0.2767 -0.5742
  299MPD2    C4 4557   2.143   3.785  10.249 -0.6360 -0.7093 -0.1497
  299MPD2    C5 4558   2.236   3.862  10.317  0.2350  0.7038 -0.2536
  299MPD2     H 4559   1.983   3.669  10.518 -0.8689  1.5594 -0.9277
  299MPD2    H1 4560   2.140   3.797  10.141 -2.0383  0.6994  0.0529
  299MPD2    H2 4561   2.314   3.933  10.501 -2.3411  2.2645  2.1506
  299MPD2    H3 4562   2.305   3.920  10.256 -2.0655  3.3055 -0.3260
  299MPD2     N 4563   1.951   3.631  10.259  0.3183  0.3433  0.3906
  299MPD2    H5 4564   1.882   3.581  10.314  0.7860 -1.4763 -0.6789
  299MPD2    N1 4565   2.145   3.816  10.669 -0.0524  0.0562  0.2821
  299MPD2    H7 4566   2.207   3.893  10.694 -1.4088  0.2633  2.9552
  300TMC3    C1 4567   1.771   3.637  10.120 -0.1405  0.9036  0.3279
  300TMC3    C2 4568   1.719   3.748  10.065  0.2354 -0.0389  0.3522
  300TMC3    C3 4569   1.599   3.792  10.109 -0.5268  0.4673 -0.1945
  300TMC3    C4 4570   1.708   3.563  10.219  0.6053 -0.1585 -0.8094
  300TMC3    C5 4571   1.584   3.599  10.251 -0.0069 -0.6387 -0.0628
  300TMC3    C6 4572   1.527   3.716  10.197  0.4251  0.3331 -0.5090
  300TMC3     C 4573   1.916   3.633  10.128  0.5814  0.4117  0.6789
  300TMC3     O 4574   1.977   3.691  10.038  0.2798  0.3937  0.0568
  300TMC3     H 4575   1.779   3.807   9.997 -0.3444 -1.3686 -1.3343
  300TMC3    H1 4576   1.759   3.478  10.262  0.5363  0.5426  0.6962
  300TMC3    H2 4577   1.432   3.750  10.237  0.7385 -0.8542  1.2409
  300TMC3    C7 4578   1.527   3.533  10.368 -0.2386  0.4853 -0.1736
  300TMC3    C8 4579   1.553   3.925  10.073  0.1491  0.3612  0.2545
  300TMC3    O1 4580   1.551   3.417  10.387  0.9732  0.4627 -0.7211
  300TMC3    O2 4581   1.609   3.958   9.969 -0.0654  0.6691 -0.3725
  301MPD2     C 4582   3.250   0.050   1.308 -0.5709 -0.1057  0.1844
  301MPD2    C1 4583   3.138   0.019   1.234  0.8023  0.8912  1.2132
  301MPD2    C2 4584   3.115   4.620   1.194 -0.4808 -0.0811  0.8234
  301MPD2    C3 4585   3.192   4.516   1.240  0.1306 -0.1641 -0.8962
  301MPD2    C4 4586   3.307   4.550   1.298  0.1154 -0.2041  0.0192
  301MPD2    C5 4587   3.335   4.679   1.329  0.1936 -0.5008 -0.0347
  301MPD2     H 4588   3.023   4.600   1.140 -0.4016 -0.3737  0.7984
  301MPD2    H1 4589   3.377   4.471   1.323  0.1009 -0.2471 -0.0728
  301MPD2    H2 4590   3.285   0.142   1.353  1.7606 -0.7343 -0.2981
  301MPD2    H3 4591   3.424   4.693   1.389  1.1870 -2.8510 -0.9867
  301MPD2     N 4592   3.166   4.385   1.206  0.0175 -0.0505  0.4107
  301MPD2    H5 4593   3.246   4.326   1.228  1.1199  1.2895 -0.0426
  301MPD2    N1 4594   3.042   0.113   1.199 -0.0407  0.6038 -0.9838
  301MPD2    H7 4595   2.961   0.072   1.153 -1.2533  2.5414 -0.5596
  302TMC3    C1 4596   3.050   4.197   1.112 -0.7282 -0.5726 -0.1034
  302TMC3    C2 4597   3.095   4.095   1.190  0.9501  0.1584  0.2249
  302TMC3    C3 4598   3.082   3.966   1.141  0.2297 -0.5627 -0.0601
  302TMC3    C4 4599   2.983   4.176   0.998 -0.5798 -0.1744 -0.4070
  302TMC3    C5 4600   2.966   4.056   0.955 -0.5140  0.8874 -0.5566
  302TMC3    C6 4601   3.018   3.949   1.019 -0.5945  0.3360 -0.3504
  302TMC3     C 4602   3.049   4.335   1.152 -0.0576 -0.1696  0.0098
  302TMC3     O 4603   2.948   4.386   1.109  0.0856 -0.2775  0.0181
  302TMC3     H 4604   3.128   4.127   1.288  3.5233 -0.8729 -0.2789
  302TMC3    H1 4605   2.955   4.262   0.938  1.0893  1.4787  1.1986
  302TMC3    H2 4606   3.016   3.851   0.972 -1.0368  0.5824 -0.8258
  302TMC3    C7 4607   2.893   4.034   0.831 -0.2988 -0.4602  0.2510
  302TMC3    C8 4608   3.153   3.860   1.208  0.5758  0.5211  0.1145
  302TMC3    O1 4609   2.916   3.929   0.769  0.1572  0.1386  0.8645
  302TMC3    O2 4610   3.126   3.747   1.167  0.1650  0.0764 -0.1027
  303MPD2     C 4611   4.216   3.046  11.153  0.0712  0.1797  0.0561
  303MPD2    C1 4612   4.103   3.024  11.077  0.0891  0.2006  0.5376
  303MPD2    C2 4613   4.101   3.077  10.947  0.8609 -0.1231  0.2977
  303MPD2    C3 4614   4.205   3.149  10.894  0.5516  0.2013 -0.3960
  303MPD2    C4 4615   4.319   3.178  10.972 -0.1086 -0.1943  0.0774
  303MPD2    C5 4616   4.318   3.126  11.105 -0.7930  0.2902 -0.3259
  303MPD2     H 4617   4.008   3.057  10.895  0.5349 -0.8143  1.1489
  303MPD2    H1 4618   4.407   3.235  10.944  0.9690 -2.1933 -0.5979
  303MPD2    H2 4619   4.232   3.020  11.257 -0.7895  0.4791  0.2620
  303MPD2    H3 4620   4.394   3.159  11.175 -2.0485 -0.3190  1.3367
  303MPD2     N 4621   4.208   3.212  10.766  0.4403  0.1641  0.5637
  303MPD2    H5 4622   4.283   3.279  10.754  0.7193 -0.9460 -3.7588
  303MPD2    N1 4623   3.987   2.968  11.131  0.0000 -0.0013 -0.5570
  303MPD2    H7 4624   3.995   2.971  11.232 -0.8368  0.9592 -0.5302
  304TMC3    C1 4625   3.757   2.919  11.141 -0.6427 -0.3452  1.0003
  304TMC3    C2 4626   3.738   3.029  11.211  0.4173  0.4859 -0.6587
  304TMC3    C3 4627   3.609   3.069  11.229  0.6350  0.0545  0.0890
  304TMC3    C4 4628   3.649   2.855  11.088  0.6059 -0.1658 -0.2914
  304TMC3    C5 4629   3.518   2.883  11.124  0.1554 -0.0777  0.7288
  304TMC3    C6 4630   3.498   2.993  11.201  0.0378 -0.6779 -0.0905
  304TMC3     C 4631   3.882   2.915  11.067 -0.4009  0.1030 -0.3865
  304TMC3     O 4632   3.878   2.867  10.954 -0.4107  0.4385 -0.4569
  304TMC3     H 4633   3.805   3.107  11.246  0.4319  0.7907 -1.3625
  304TMC3    H1 4634   3.668   2.775  11.016 -0.0071  0.5940 -1.2945
  304TMC3    H2 4635   3.396   3.023  11.220  0.0740  1.0121 -2.5639
  304TMC3    C7 4636   3.417   2.879  11.019 -0.8795  0.0991 -0.1917
  304TMC3    C8 4637   3.588   3.215  11.205  0.5722  0.4546  0.0167
  304TMC3    O1 4638   3.357   2.983  11.012 -0.1513  0.1686  0.2948
  304TMC3    O2 4639   3.683   3.288  11.222  0.0577 -0.0157 -0.0072
  305MPD2     C 4640   2.181   0.812  13.857  0.2314  0.2843 -0.1310
  305MPD2    C1 4641   2.126   0.688  13.879 -0.0578 -0.6638 -0.3558
  305MPD2    C2 4642   2.108   0.598  13.777 -0.0382  1.5554  0.7750
  305MPD2    C3 4643   2.167   0.624  13.654 -0.4842  0.1519  0.4026
  305MPD2    C4 4644   2.233   0.740  13.637  0.1790  0.0884 -0.2258
  305MPD2    C5 4645   2.233   0.835  13.737  0.6082  0.4198  0.0816
  305MPD2     H 4646   2.057   0.504  13.795 -1.4738  2.2858  0.5908
  305MPD2    H1 4647   2.283   0.761  13.543  1.2200 -1.7912 -0.0909
  305MPD2    H2 4648   2.186   0.898  13.922 -1.9200  1.1701 -1.1635
  305MPD2    H3 4649   2.275   0.934  13.724 -0.4994  0.9042  0.2117
  305MPD2     N 4650   2.166   0.545  13.539  0.1688 -0.2574  0.4309
  305MPD2    H5 4651   2.227   0.564  13.460 -0.0364  3.1859  1.0877
  305MPD2    N1 4652   2.085   0.666  14.017  0.3265 -0.6222  0.3235
  305MPD2    H7 4653   2.111   0.728  14.093  2.7160 -0.0649 -0.9390
  306TMC3    C1 4654   2.030   0.559  14.213  0.0300 -0.1134 -0.0684
  306TMC3    C2 4655   2.075   0.456  14.293 -0.4898  0.1640  0.0147
  306TMC3    C3 4656   2.108   0.480  14.420 -0.0482 -0.3650 -0.6955
  306TMC3    C4 4657   1.990   0.681  14.260  0.6336  0.1656 -1.2799
  306TMC3    C5 4658   2.006   0.695  14.401  0.0858  0.6832 -0.1141
  306TMC3    C6 4659   2.060   0.594  14.476 -0.6920  0.3213  0.2653
  306TMC3     C 4660   2.032   0.551  14.066 -0.7622  0.2227  0.6107
  306TMC3     O 4661   2.014   0.438  14.019 -0.1134  0.1877 -0.4962
  306TMC3     H 4662   2.105   0.363  14.246 -2.4063 -1.5961  2.2419
  306TMC3    H1 4663   1.934   0.754  14.203  1.8016  0.2770 -2.3070
  306TMC3    H2 4664   2.068   0.611  14.582  0.9641  0.5913  0.0877
  306TMC3    C7 4665   1.912   0.778  14.462 -0.0871 -0.3738 -0.0918
  306TMC3    C8 4666   2.193   0.381  14.493  0.0221  0.2522 -0.1526
  306TMC3    O1 4667   1.804   0.781  14.408  0.0292  0.1121  0.3058
  306TMC3    O2 4668   2.215   0.269  14.452 -0.1864 -0.1238  0.2411
  307MPD2     C 4669   4.061   2.759   0.481  0.2591 -0.3214 -0.1355
  307MPD2    C1 4670   4.015   2.869   0.423 -0.3361  0.8286  0.1273
  307MPD2    C2 4671   3.904   2.928   0.470 -0.5936 -0.5194 -0.4796
  307MPD2    C3 4672   3.828   2.879   0.575  0.2028  0.0697 -0.3388
  307MPD2    C4 4673   3.878   2.769   0.633  0.4976  0.2668  0.4627
  307MPD2    C5 4674   3.989   2.708   0.585  0.1445 -0.1157  0.2332
  307MPD2     H 4675   3.884   3.022   0.419 -2.4519 -0.4628  0.3510
  307MPD2    H1 4676   3.816   2.722   0.709  2.4184 -3.1633 -0.1062
  307MPD2    H2 4677   4.146   2.705   0.442  0.4030 -0.5680  0.5170
  307MPD2    H3 4678   4.033   2.619   0.629 -2.5945 -0.4133  2.4022
  307MPD2     N 4679   3.717   2.950   0.622  0.0301  0.1400  0.3463
  307MPD2    H5 4680   3.708   3.045   0.587 -0.2347 -0.1431 -0.3480
  307MPD2    N1 4681   4.079   2.944   0.322 -0.1412  0.0171  1.1334
  307MPD2    H7 4682   4.056   3.042   0.311 -0.1119 -0.0931  0.0669
  308TMC3    C1 4683   3.328   3.044   0.858  0.3318 -0.2931 -0.5485
  308TMC3    C2 4684   3.369   3.160   0.912 -0.2118 -0.1547  0.0075
  308TMC3    C3 4685   3.499   3.199   0.876 -0.9361 -0.5283 -0.1101
  308TMC3    C4 4686   3.406   2.962   0.774  0.2828  0.7706 -0.3631
  308TMC3    C5 4687   3.529   3.010   0.736 -0.3308  0.1737 -0.7903
  308TMC3    C6 4688   3.579   3.127   0.793  0.4696  0.0741  0.1070
  308TMC3     C 4689   3.186   3.035   0.844  0.1316 -0.1378  0.5890
  308TMC3     O 4690   3.139   2.924   0.807 -0.1078  0.8347  0.3196
  308TMC3     H 4691   3.313   3.211   0.989  0.4691  1.0651 -0.2946
  308TMC3    H1 4692   3.365   2.877   0.721 -1.1321  0.4468  1.2526
  308TMC3    H2 4693   3.677   3.159   0.758  1.0653 -2.3563 -0.4901
  308TMC3    C7 4694   3.623   2.909   0.717 -0.3820 -0.5339  0.0832
  308TMC3    C8 4695   3.548   3.319   0.942 -0.0611 -1.2444  0.0383
  308TMC3    O1 4696   3.598   2.795   0.754  0.3132 -0.2686 -0.1161
  308TMC3    O2 4697   3.505   3.348   1.050 -0.1265 -0.4533  0.0739
  309MPD2     C 4698   3.086   3.546  17.338 -0.1775  0.2505  0.7197
  309MPD2    C1 4699   3.033   3.629  17.238 -0.6234  0.7320  0.4696
  309MPD2    C2 4700   2.899   3.673  17.259 -0.4361  0.2030  0.1942
  309MPD2    C3 4701   2.824   3.644  17.373  0.5837  0.1422 -0.0822
  309MPD2    C4 4702   2.886   3.574  17.469 -0.1880  0.3147 -0.3514
  309MPD2    C5 4703   3.009   3.526  17.451  0.2140  0.0987  0.1170
  309MPD2     H 4704   2.853   3.714  17.170 -0.7957  0.1503  0.3556
  309MPD2    H1 4705   2.836   3.539  17.558  0.6545 -0.5653 -0.2235
  309MPD2    H2 4706   3.185   3.502  17.333 -0.9960 -1.5631  0.5474
  309MPD2    H3 4707   3.043   3.458  17.528  0.4400 -0.4721 -0.4903
  309MPD2     N 4708   2.695   3.693  17.410  0.2325 -0.2794  0.6015
  309MPD2    H5 4709   2.660   3.679  17.505 -0.1697  0.3409  0.5465
  309MPD2    N1 4710   3.102   3.655  17.118 -0.4024 -0.0039 -0.8140
  309MPD2    H7 4711   3.051   3.699  17.043 -1.2505  0.0323 -0.2080
  310TMC3    C1 4712   3.272   3.650  16.960  0.0345 -0.1838 -0.1025
  310TMC3    C2 4713   3.200   3.731  16.876 -0.2943  0.3487  0.7851
  310TMC3    C3 4714   3.220   3.717  16.741  0.1635  0.3585 -0.7410
  310TMC3    C4 4715   3.373   3.580  16.913  0.4135  0.6229 -0.5235
  310TMC3    C5 4716   3.407   3.578  16.782  0.1256 -0.8261 -0.7816
  310TMC3    C6 4717   3.328   3.648  16.692 -0.4875 -0.2121  0.3130
  310TMC3     C 4718   3.234   3.630  17.095  0.2096 -0.4576  0.4250
  310TMC3     O 4719   3.319   3.589  17.171 -0.5241  0.8162  0.2794
  310TMC3     H 4720   3.122   3.794  16.916 -0.6014  1.3372 -1.3902
  310TMC3    H1 4721   3.431   3.517  16.979 -0.2046  2.3418  1.6742
  310TMC3    H2 4722   3.346   3.642  16.586 -2.5647 -3.5371  0.1472
  310TMC3    C7 4723   3.521   3.487  16.748  0.5086  0.2009  0.2363
  310TMC3    C8 4724   3.147   3.804  16.642 -0.3674 -0.4722  0.0586
  310TMC3    O1 4725   3.580   3.434  16.836  0.1357  0.3039  0.2775
  310TMC3    O2 4726   3.202   3.828  16.537 -0.0431  0.6318  0.3173
  311MPD2     C 4727   1.245   0.211  12.498 -0.9532  0.3572 -0.4805
  311MPD2    C1 4728   1.255   0.304  12.597  0.3537 -0.5003  0.3951
  311MPD2    C2 4729   1.141   0.329  12.673  0.6803 -0.0149  0.1620
  311MPD2    C3 4730   1.025   0.266  12.651  0.2258  1.4182  0.4078
  311MPD2    C4 4731   1.017   0.174  12.551 -0.0294  0.0169 -1.0092
  311MPD2    C5 4732   1.124   0.149  12.476 -0.3303  0.5808  0.1875
  311MPD2     H 4733   1.144   0.398  12.756  1.7662 -2.6587  2.3221
  311MPD2    H1 4734   0.924   0.125  12.524  1.0083 -1.2349 -2.3736
  311MPD2    H2 4735   1.326   0.170  12.440 -0.9126 -0.1387 -0.0722
  311MPD2    H3 4736   1.122   0.067  12.406 -1.5158  0.5530  0.2613
  311MPD2     N 4737   0.912   0.295  12.737 -0.4475  1.1362  0.3340
  311MPD2    H5 4738   0.922   0.350  12.822  1.7104  1.4797 -0.1363
  311MPD2    N1 4739   1.375   0.364  12.636 -0.0338 -0.3588 -0.5750
  311MPD2    H7 4740   1.360   0.437  12.705  2.1168  0.3406 -0.8596
  312TMC3    C1 4741   0.695   0.269  12.820 -0.6689 -0.3832  0.6384
  312TMC3    C2 4742   0.581   0.193  12.801 -0.0122  0.0605  0.0573
  312TMC3    C3 4743   0.497   0.171  12.909  0.0642 -0.5601 -0.7317
  312TMC3    C4 4744   0.736   0.293  12.945 -0.2700 -0.4423 -0.2261
  312TMC3    C5 4745   0.650   0.270  13.046 -0.1022  0.0682  0.0984
  312TMC3    C6 4746   0.527   0.215  13.035  0.2746  0.2572  0.4321
  312TMC3     C 4747   0.785   0.253  12.704 -0.2835  0.2999  0.0225
  312TMC3     O 4748   0.742   0.207  12.602 -0.0096  0.6943 -0.2340
  312TMC3     H 4749   0.552   0.165  12.700 -0.2777  1.5068 -0.2746
  312TMC3    H1 4750   0.833   0.341  12.959  0.4012 -1.8888  0.1227
  312TMC3    H2 4751   0.467   0.189  13.122 -0.8381  0.9247 -0.1445
  312TMC3    C7 4752   0.702   0.329  13.171 -0.1551  0.0547 -0.4499
  312TMC3    C8 4753   0.360   0.117  12.900  0.1907  0.2125  0.1362
  312TMC3    O1 4754   0.797   0.408  13.156 -0.2927 -0.0731 -0.4596
  312TMC3    O2 4755   0.274   0.141  12.980  0.6264  0.0474  0.1827
  313MPD2     C 4756   0.182   4.053  11.506 -0.1590  0.0464 -0.1033
  313MPD2    C1 4757   0.275   4.097  11.415  0.2859  0.6517 -0.0895
  313MPD2    C2 4758   0.348   4.009  11.335  0.1290  0.1285  0.6021
  313MPD2    C3 4759   0.340   3.872  11.360  0.2701 -0.2085 -0.0375
  313MPD2    C4 4760   0.256   3.828  11.462  0.0988 -0.3528 -0.2108
  313MPD2    C5 4761   0.170   3.916  11.521  0.0398  0.6259  0.0977
  313MPD2     H 4762   0.421   4.057  11.271 -0.7048 -0.7022 -0.9531
  313MPD2    H1 4763   0.247   3.727  11.499  2.5269 -0.4072  0.2243
  313MPD2    H2 4764   0.109   4.109  11.563  0.6586  1.4214 -0.4034
  313MPD2    H3 4765   0.105   3.886  11.602  0.8013  1.6530  1.0909
  313MPD2     N 4766   0.430   3.785  11.288 -0.1750  0.3039 -0.1798
  313MPD2    H5 4767   0.490   3.840  11.227  1.8471  0.7633  2.1928
  313MPD2    N1 4768   0.288   4.233  11.377 -0.0092 -0.1124  0.9383
  313MPD2    H7 4769   0.355   4.248  11.303 -0.9857 -3.0965 -0.5611
  314TMC3    C1 4770   0.239   4.457  11.345  0.4128 -0.7564 -0.2302
  314TMC3    C2 4771   0.374   4.482  11.346  0.3646 -0.8911  0.1126
  314TMC3    C3 4772   0.422   4.594  11.289  0.4974  0.1105  0.1030
  314TMC3    C4 4773   0.151   4.529  11.279 -0.6269 -0.5449  0.4435
  314TMC3    C5 4774   0.197   4.643  11.213  0.5726  0.6012 -0.1627
  314TMC3    C6 4775   0.331   4.674  11.220  0.5147 -0.7183 -0.2017
  314TMC3     C 4776   0.198   4.333  11.406 -0.0675 -0.6023  0.4763
  314TMC3     O 4777   0.093   4.325  11.471 -0.2076  0.0768 -0.3666
  314TMC3     H 4778   0.429   4.422  11.418  1.0832 -1.5862 -1.0037
  314TMC3    H1 4779   0.052   4.490  11.260 -1.1972  1.0754  0.1129
  314TMC3    H2 4780   0.369   0.028  11.174  1.9704 -1.7112 -0.9314
  314TMC3    C7 4781   0.139   4.664  11.081 -0.2686  0.1279  0.3537
  314TMC3    C8 4782   0.560   4.603  11.264  0.4541  0.2092  0.4408
  314TMC3    O1 4783   0.028   4.622  11.058 -1.2157 -0.5483 -0.1208
  314TMC3    O2 4784   0.593   4.719  11.240  0.3998 -0.6865 -0.0510
  315MPD2     C 4785   4.687   2.765   0.151 -0.7717  0.2011  0.5708
  315MPD2    C1 4786   0.070   2.810   0.207  0.0598  0.2371  1.0503
  315MPD2    C2 4787   0.083   2.947   0.229 -0.0766 -0.3171 -0.0641
  315MPD2    C3 4788   4.718   3.037   0.206 -0.1786  0.7772  0.2507
  315MPD2    C4 4789   4.613   2.992   0.137  0.0317  0.0837  0.2095
  315MPD2    C5 4790   4.594   2.861   0.118 -0.4274  0.1706  0.5748
  315MPD2     H 4791   0.172   2.978   0.282  0.0228 -0.1933 -0.3045
  315MPD2    H1 4792   4.533   3.059   0.109  0.4516  0.4101 -0.2097
  315MPD2    H2 4793   4.667   2.660   0.134 -0.3592 -0.0723  1.7699
  315MPD2    H3 4794   4.501   2.828   0.074 -0.9876 -0.8310  2.4992
  315MPD2     N 4795   0.008   3.174   0.239  0.2111  0.4139 -0.0880
  315MPD2    H5 4796   0.102   3.192   0.273 -0.3762  0.3139  1.6145
  315MPD2    N1 4797   0.175   2.724   0.242 -0.5605 -0.7752  0.3738
  315MPD2    H7 4798   0.251   2.752   0.304  0.0171  0.9380 -1.0960
  316TMC3    C1 4799   4.720   3.407   0.246  0.9127  0.4993 -0.3162
  316TMC3    C2 4800   0.077   3.402   0.345  0.3344  0.0576 -0.9167
  316TMC3    C3 4801   0.138   3.521   0.375  0.2390  0.2428 -0.3974
  316TMC3    C4 4802   4.691   3.515   0.168  0.2355 -0.2458 -0.0074
  316TMC3    C5 4803   0.022   3.627   0.197 -0.0796  0.3081 -0.4362
  316TMC3    C6 4804   0.116   3.634   0.297 -0.0066  0.3071  0.1435
  316TMC3     C 4805   4.664   3.277   0.213 -0.4117 -0.3994 -0.2280
  316TMC3     O 4806   4.559   3.281   0.156  0.4230 -0.6445 -0.3677
  316TMC3     H 4807   0.087   3.317   0.412  0.5394  0.1871 -0.7856
  316TMC3    H1 4808   4.610   3.501   0.098 -1.7713 -3.1149  2.8534
  316TMC3    H2 4809   0.165   3.726   0.323 -1.5624  0.3127  3.1201
  316TMC3    C7 4810   4.691   3.761   0.183 -0.6416 -0.5322 -0.9360
  316TMC3    C8 4811   0.245   3.531   0.471 -0.1020  0.1055 -0.5410
  316TMC3    O1 4812   4.703   3.842   0.275 -0.0164  0.7235 -0.2703
  316TMC3    O2 4813   0.278   3.646   0.507  0.2858 -0.0462  0.0696
  317MPD2     C 4814   2.897   2.090  12.579  0.4476  0.5645 -0.2842
  317MPD2    C1 4815   3.007   2.016  12.626 -0.1244 -0.7429 -0.3911
  317MPD2    C2 4816   2.984   1.931  12.734  0.3375 -0.7155  0.1668
  317MPD2    C3 4817   2.858   1.912  12.787 -0.2529 -0.1174  0.0190
  317MPD2    C4 4818   2.757   1.997  12.743  0.3950 -0.2126 -0.4574
  317MPD2    C5 4819   2.781   2.078  12.639 -0.6317 -0.2917 -0.3073
  317MPD2     H 4820   3.061   1.865  12.772  0.5353 -0.8280 -0.4280
  317MPD2    H1 4821   2.659   1.988  12.787  0.3676  2.2510 -0.0266
  317MPD2    H2 4822   2.910   2.165  12.501  0.0204  1.0201  0.0910
  317MPD2    H3 4823   2.699   2.137  12.599 -1.4641 -1.8045 -0.8175
  317MPD2     N 4824   2.836   1.824  12.895 -0.1121  0.3088  0.0728
  317MPD2    H5 4825   2.909   1.773  12.945  0.6218 -0.9886 -2.3427
  317MPD2    N1 4826   3.143   2.018  12.577 -0.0243 -0.0428 -0.0545
  317MPD2    H7 4827   3.203   1.944  12.613 -0.2960 -0.8407 -1.2130
  318TMC3    C1 4828   2.743   1.718  13.081  0.7029 -0.1982  0.6259
  318TMC3    C2 4829   2.669   1.602  13.085 -0.2761  0.3164 -0.4327
  318TMC3    C3 4830   2.700   1.505  13.174 -0.2811  0.1562 -0.7276
  318TMC3    C4 4831   2.858   1.724  13.147  0.2815 -0.0576  0.2079
  318TMC3    C5 4832   2.887   1.629  13.242 -0.6329  0.1220  0.3781
  318TMC3    C6 4833   2.808   1.518  13.258 -0.4162 -0.3618 -0.8883
  318TMC3     C 4834   2.726   1.808  12.971 -0.4723 -0.1955  0.6552
  318TMC3     O 4835   2.611   1.843  12.949  0.0558  0.1696  0.1261
  318TMC3     H 4836   2.590   1.582  13.013  1.2087 -1.6647 -1.5177
  318TMC3    H1 4837   2.923   1.811  13.140  0.5697 -0.2526  0.4357
  318TMC3    H2 4838   2.836   1.445  13.332 -0.5179  3.3927  2.8708
  318TMC3    C7 4839   2.998   1.652  13.331  0.2939  0.8665  0.4100
  318TMC3    C8 4840   2.602   1.395  13.200  0.8460  0.3715  0.4103
  318TMC3    O1 4841   3.047   1.763  13.330 -0.9801  0.0773  0.2955
  318TMC3    O2 4842   2.644   1.292  13.250  0.4990  0.7902  0.6381
  319MPD2     C 4843   3.095   3.235  16.339 -0.4438 -0.4022  0.1548
  319MPD2    C1 4844   3.024   3.200  16.452 -0.2989  0.1804  0.2208
  319MPD2    C2 4845   2.889   3.201  16.452 -0.4362 -0.0543  0.4686
  319MPD2    C3 4846   2.822   3.213  16.327 -1.2318  0.4066  0.4485
  319MPD2    C4 4847   2.895   3.252  16.216  0.6188 -0.5264  0.6540
  319MPD2    C5 4848   3.030   3.257  16.224 -0.4726  0.7475  0.3572
  319MPD2     H 4849   2.830   3.186  16.542  1.2168 -2.4358  1.1350
  319MPD2    H1 4850   2.838   3.268  16.125 -1.2573  0.6096  2.0260
  319MPD2    H2 4851   3.203   3.247  16.340 -0.6749  1.6440 -0.0365
  319MPD2    H3 4852   3.086   3.280  16.134  0.8199 -0.2662  0.9151
  319MPD2     N 4853   2.680   3.203  16.311 -0.0784  0.1746  0.1486
  319MPD2    H5 4854   2.648   3.227  16.218 -0.6192 -1.4905 -0.1072
  319MPD2    N1 4855   3.080   3.169  16.578  0.7451 -0.1107 -0.0159
  319MPD2    H7 4856   3.021   3.140  16.655  1.7698  0.0569  0.8226
  320TMC3    C1 4857   2.455   3.159  16.361 -0.2777 -0.0849 -0.2069
  320TMC3    C2 4858   2.412   3.222  16.243 -0.2451  0.0889  0.3969
  320TMC3    C3 4859   2.300   3.174  16.185  0.1049 -0.9283  0.5726
  320TMC3    C4 4860   2.371   3.069  16.430  0.4218 -0.1815 -1.0394
  320TMC3    C5 4861   2.258   3.034  16.372 -0.2032  0.5511  0.8028
  320TMC3    C6 4862   2.218   3.094  16.258 -1.0570  0.4163 -0.2698
  320TMC3     C 4863   2.591   3.159  16.408  0.2991 -0.2598  0.1933
  320TMC3     O 4864   2.610   3.113  16.521  0.2766 -0.2207  0.3676
  320TMC3     H 4865   2.474   3.302  16.203 -1.3247  1.4011  1.3273
  320TMC3    H1 4866   2.404   3.015  16.518  1.7777  2.6403  0.1797
  320TMC3    H2 4867   2.125   3.055  16.217  0.3055 -2.5718 -0.5405
  320TMC3    C7 4868   2.210   2.903  16.399 -0.0318  0.2568  0.5390
  320TMC3    C8 4869   2.229   3.263  16.093  0.6404 -0.1850 -0.6988
  320TMC3    O1 4870   2.131   2.867  16.315  0.0777  0.1930  0.4424
  320TMC3    O2 4871   2.260   3.381  16.103  0.2990 -0.4544 -0.4842
  321TMC3    C1 4872   3.241   3.159  16.751  0.0497 -0.3235 -0.9832
  321TMC3    C2 4873   3.135   3.199  16.830  0.0869 -0.1131 -0.6714
  321TMC3    C3 4874   3.169   3.216  16.962 -0.3334  0.6431  0.1643
  321TMC3    C4 4875   3.371   3.147  16.786 -0.3502 -0.2463 -0.8223
  321TMC3    C5 4876   3.385   3.174  16.919 -0.1166 -0.1521 -0.3780
  321TMC3    C6 4877   3.296   3.217  17.008 -0.1180  0.1247  0.3926
  321TMC3     C 4878   3.215   3.157  16.610  0.0074  0.3423  0.1374
  321TMC3     O 4879   3.308   3.169  16.528 -0.3409 -0.5296  0.2945
  321TMC3     H 4880   3.038   3.232  16.795 -1.1601 -3.9328 -0.8800
  321TMC3    H1 4881   3.450   3.111  16.721 -2.0492 -1.3298 -2.2750
  321TMC3    H2 4882   3.308   3.209  17.116  1.3221 -1.5643  0.0871
  321TMC3    C7 4883   3.463   3.076  16.986 -0.2441  0.3325 -0.2843
  321TMC3    C8 4884   3.110   3.109  17.038 -0.5222  0.0180  0.2032
  321TMC3    O1 4885   3.454   2.954  16.960  0.1043 -0.2498  0.3238
  321TMC3    O2 4886   3.111   3.119  17.160 -0.4014 -0.2286 -0.6744
  322MPD2     C 4887   1.816   4.632  13.559  0.2276  0.8440 -0.4720
  322MPD2    C1 4888   1.802   4.580  13.679 -0.8794 -0.1983 -0.1177
  322MPD2    C2 4889   1.807   4.443  13.686 -0.1907 -0.4744  0.1396
  322MPD2    C3 4890   1.811   4.366  13.573 -0.3300 -0.3922  0.3118
  322MPD2    C4 4891   1.799   4.423  13.445 -0.9841  0.3375 -0.5564
  322MPD2    C5 4892   1.818   4.557  13.444  0.4533  0.2842  0.8555
  322MPD2     H 4893   1.826   4.402  13.785 -2.4145 -0.5534  0.5539
  322MPD2    H1 4894   1.789   4.364  13.355  0.4872  0.4547 -0.7952
  322MPD2    H2 4895   1.823   0.004  13.556  2.1256  0.7317 -0.3598
  322MPD2    H3 4896   1.827   4.592  13.342  1.5122  3.3295  1.9914
  322MPD2     N 4897   1.808   4.222  13.579  0.6038  0.2331 -0.0860
  322MPD2    H5 4898   1.808   4.174  13.669  0.5428  1.2187  0.4356
  322MPD2    N1 4899   1.794   4.661  13.791  0.0186  0.3337  0.6300
  322MPD2    H7 4900   1.839   0.015  13.772  1.1129 -0.4985 -0.7565
  323TMC3    C1 4901   1.849   4.693  14.033 -0.9811  0.8056 -0.0830
  323TMC3    C2 4902   1.958   0.038  13.993 -0.2867  0.2566 -0.2613
  323TMC3    C3 4903   2.043   0.081  14.090  0.2896  0.0638 -0.2401
  323TMC3    C4 4904   1.836   4.654  14.168  0.4133  0.0245 -0.1859
  323TMC3    C5 4905   1.918   4.715  14.269  0.9834  0.0280  0.6085
  323TMC3    C6 4906   2.018   0.061  14.223 -0.2967  0.2293 -0.1299
  323TMC3     C 4907   1.781   4.616  13.924 -0.0938  0.8196  0.0394
  323TMC3     O 4908   1.724   4.522  13.970  0.4795  0.5392  0.2190
  323TMC3     H 4909   1.987   0.046  13.889  0.1377  1.6864 -0.0302
  323TMC3    H1 4910   1.763   4.583  14.205 -0.8836  1.2090 -0.4671
  323TMC3    H2 4911   2.094   0.087  14.295 -0.0048 -0.6262 -0.1218
  323TMC3    C7 4912   1.971   4.627  14.374  0.1098 -0.2220 -0.7332
  323TMC3    C8 4913   2.185   0.098  14.061  0.0229 -0.6939 -0.3607
  323TMC3    O1 4914   1.975   4.508  14.347  0.1390 -0.4780  0.2047
  323TMC3    O2 4915   2.253   0.054  14.153 -0.2157  0.2677  0.1358
  324MPD2     C 4916   3.605   0.571  14.477  0.4873 -0.4285 -1.4471
  324MPD2    C1 4917   3.545   0.693  14.458 -0.3038  0.5292  0.0194
  324MPD2    C2 4918   3.411   0.700  14.415  0.1710  0.1053  1.0949
  324MPD2    C3 4919   3.342   0.585  14.389  0.2505 -0.0097 -0.6348
  324MPD2    C4 4920   3.408   0.463  14.403 -0.4546  0.3130  0.4612
  324MPD2    C5 4921   3.534   0.457  14.452  0.2994 -0.6567  0.1555
  324MPD2     H 4922   3.355   0.792  14.417 -1.9300 -1.0850 -1.5006
  324MPD2    H1 4923   3.364   0.372  14.363 -0.9313  0.5069  0.5391
  324MPD2    H2 4924   3.703   0.556  14.521  0.3180  1.4019 -0.4294
  324MPD2    H3 4925   3.582   0.361  14.469  1.6700 -0.4027 -2.2796
  324MPD2     N 4926   3.204   0.575  14.357 -0.7106 -0.5081  0.9304
  324MPD2    H5 4927   3.160   0.485  14.350 -0.5436 -0.5892  0.9150
  324MPD2    N1 4928   3.608   0.816  14.498 -0.4327  0.2004 -0.0372
  324MPD2    H7 4929   3.550   0.899  14.496 -2.1970 -1.0555 -1.3740
  325TMC3    C1 4930   2.990   0.664  14.307  0.1818 -0.2876 -0.5783
  325TMC3    C2 4931   2.935   0.693  14.190  0.2448 -0.2030 -0.1910
  325TMC3    C3 4932   2.808   0.744  14.189 -0.0961  0.5419  0.1670
  325TMC3    C4 4933   2.932   0.710  14.418 -0.0370 -0.1670 -0.2783
  325TMC3    C5 4934   2.813   0.770  14.420  0.7341 -0.6691  0.1260
  325TMC3    C6 4935   2.739   0.778  14.307  0.4080  0.1133 -0.1309
  325TMC3     C 4936   3.131   0.687  14.311  0.4333 -0.6874  0.3643
  325TMC3     O 4937   3.172   0.802  14.284  0.2929  0.0104  0.0380
  325TMC3     H 4938   2.996   0.663  14.106  0.4232 -1.2502  0.3149
  325TMC3    H1 4939   2.974   0.686  14.515 -1.2732 -1.0013  0.0422
  325TMC3    H2 4940   2.635   0.806  14.294 -0.5676 -2.5048  2.0103
  325TMC3    C7 4941   2.749   0.793  14.548 -0.3450  0.0753  0.2622
  325TMC3    C8 4942   2.735   0.762  14.066 -0.3348  0.0981  0.4055
  325TMC3    O1 4943   2.801   0.739  14.645  0.0366 -0.1287  0.3471
  325TMC3    O2 4944   2.650   0.849  14.059  0.5553 -0.2998 -0.0756
  326MPD2     C 4945   0.473   1.641  10.851 -0.4501 -0.5815  0.3924
  326MPD2    C1 4946   0.414   1.755  10.807 -0.2770 -0.1262 -0.0176
  326MPD2    C2 4947   0.485   1.871  10.799 -0.2696  0.0026 -0.0441
  326MPD2    C3 4948   0.613   1.879  10.845 -0.0572 -0.6103  0.0594
  326MPD2    C4 4949   0.662   1.771  10.915  0.3762  1.0605 -0.1312
  326MPD2    C5 4950   0.597   1.647  10.909 -0.2421  0.2173 -0.1791
  326MPD2     H 4951   0.441   1.954  10.744 -1.5440 -0.1545  0.7456
  326MPD2    H1 4952   0.753   1.769  10.973  1.2356  2.0236 -1.4423
  326MPD2    H2 4953   0.411   1.554  10.865 -0.5933 -0.4088  0.8533
  326MPD2    H3 4954   0.644   1.559  10.951  0.1302  0.0689 -0.9069
  326MPD2     N 4955   0.694   1.990  10.827  0.2024 -0.1896 -0.9239
  326MPD2    H5 4956   0.791   1.982  10.856 -0.6942  0.9295  2.3193
  326MPD2    N1 4957   0.276   1.761  10.774 -0.2314 -0.0449 -0.2992
  326MPD2    H7 4958   0.240   1.855  10.762 -0.2179 -0.2774 -2.2078
  327TMC3    C1 4959   0.076   1.719  10.681 -0.4462 -0.3929 -0.6952
  327TMC3    C2 4960   0.012   1.808  10.760  0.1725 -0.8588 -0.7802
  327TMC3    C3 4961   0.001   1.934  10.722 -0.5233 -0.1921  1.0970
  327TMC3    C4 4962   0.107   1.745  10.554 -0.4342  0.6257  0.3301
  327TMC3    C5 4963   0.090   1.871  10.511  0.4206 -0.3197  0.6136
  327TMC3    C6 4964   0.036   1.967  10.592  0.7329  0.3767  0.6334
  327TMC3     C 4965   0.199   1.662  10.731 -0.0754  0.5911 -0.6832
  327TMC3     O 4966   0.246   1.555  10.690 -0.0605  0.2944 -0.3397
  327TMC3     H 4967   4.724   1.785  10.863  2.2255 -0.0349 -0.1090
  327TMC3    H1 4968   0.157   1.669  10.495 -2.6344 -1.7337  1.5272
  327TMC3    H2 4969   0.026   2.070  10.559 -2.5674 -0.8648 -2.3055
  327TMC3    C7 4970   0.199   1.917  10.428  0.4013  0.0414  0.2443
  327TMC3    C8 4971   4.692   2.032  10.817 -0.7309 -1.4411 -0.2667
  327TMC3    O1 4972   0.194   2.034  10.400 -0.0351 -0.1737  0.2618
  327TMC3    O2 4973   4.659   1.993  10.931  0.3655 -0.1970 -0.1268
  328MPD2     C 4974   1.832   1.119  16.970  0.0004  0.3221  0.1099
  328MPD2    C1 4975   1.769   1.203  17.053 -0.2936 -0.1825  0.5009
  328MPD2    C2 4976   1.762   1.335  17.041 -0.0539 -0.1677  0.8605
  328MPD2    C3 4977   1.809   1.394  16.928 -0.4038 -0.3633 -0.4276
  328MPD2    C4 4978   1.871   1.311  16.836 -0.4153  0.3363  0.0712
  328MPD2    C5 4979   1.880   1.177  16.859 -0.3758  0.1402  0.0779
  328MPD2     H 4980   1.700   1.404  17.097 -0.5895 -1.4250  1.8086
  328MPD2    H1 4981   1.907   1.342  16.738  3.6851 -0.1909  1.4215
  328MPD2    H2 4982   1.834   1.011  16.986  0.1953  0.0976 -1.4794
  328MPD2    H3 4983   1.915   1.107  16.785 -1.4626  1.2147 -1.4368
  328MPD2     N 4984   1.784   1.531  16.904 -0.0892  0.2608  0.2360
  328MPD2    H5 4985   1.737   1.583  16.977 -0.1949 -0.5800  0.7691
  328MPD2    N1 4986   1.697   1.141  17.158 -1.0500  0.0575 -0.8456
  328MPD2    H7 4987   1.694   1.040  17.170  0.0062  0.1648  0.4233
  329TMC3    C1 4988   1.537   1.156  17.330  0.0448  0.3088 -0.2185
  329TMC3    C2 4989   1.493   1.232  17.437 -1.2554 -0.2183  0.6990
  329TMC3    C3 4990   1.358   1.236  17.458 -0.3311  0.1860  0.1571
  329TMC3    C4 4991   1.464   1.064  17.258  0.3537  0.1703 -0.4836
  329TMC3    C5 4992   1.325   1.065  17.291  0.5932 -0.0923  0.7595
  329TMC3    C6 4993   1.272   1.155  17.382 -0.2702 -0.3952 -0.3040
  329TMC3     C 4994   1.663   1.206  17.277  0.7161  0.5506 -0.2533
  329TMC3     O 4995   1.694   1.317  17.312  0.3248 -0.0081 -1.0877
  329TMC3     H 4996   1.556   1.305  17.485  0.4311 -0.7421 -0.6924
  329TMC3    H1 4997   1.494   1.008  17.171  0.7857  0.4439 -0.5098
  329TMC3    H2 4998   1.165   1.165  17.400 -0.1770  0.1666 -0.0480
  329TMC3    C7 4999   1.234   0.978  17.219  0.2697  0.2415  0.1528
  329TMC3    C8 5000   1.309   1.372  17.486 -0.1481  0.7040 -0.5771
  329TMC3    O1 5001   1.289   0.919  17.126 -0.1198  0.1472  0.5601
  329TMC3    O2 5002   1.246   1.420  17.395  0.3323  0.2361  0.1951
  330TMC3    C1 5003   1.066   1.517   9.550  0.1886 -0.2655  0.4976
  330TMC3    C2 5004   0.982   1.446   9.476  0.1513  0.2333 -0.0869
  330TMC3    C3 5005   0.947   1.322   9.511 -0.4724  0.3946 -0.3815
  330TMC3    C4 5006   1.134   1.467   9.657 -0.1896  0.0988 -0.6717
  330TMC3    C5 5007   1.104   1.336   9.684  0.6023 -1.2505 -0.7082
  330TMC3    C6 5008   1.004   1.265   9.621 -0.2032  1.0531  0.2293
  330TMC3     C 5009   1.050   1.659   9.545  1.0495  0.3022  0.0877
  330TMC3     O 5010   1.140   1.720   9.602 -0.2021 -0.2049  0.0796
  330TMC3     H 5011   0.953   1.476   9.376 -1.3585  0.9044  0.5618
  330TMC3    H1 5012   1.209   1.516   9.718 -1.9215  0.1980  1.3529
  330TMC3    H2 5013   0.966   1.171   9.658 -0.5460  0.3432 -1.9445
  330TMC3    C7 5014   1.154   1.284   9.812 -0.3669  0.4387  0.4382
  330TMC3    C8 5015   0.833   1.270   9.439  0.2157  0.3402  0.7808
  330TMC3    O1 5016   1.195   1.362   9.895  0.0175 -0.3235 -0.3570
  330TMC3    O2 5017   0.792   1.323   9.340 -0.1003 -0.2388  0.3942
  331MPD2     C 5018   3.173   0.304  12.218  0.0278 -0.0220  0.2211
  331MPD2    C1 5019   3.283   0.222  12.186  0.4251  0.3012 -0.9871
  331MPD2    C2 5020   3.280   0.090  12.212 -0.7225 -0.0380  0.5896
  331MPD2    C3 5021   3.178   0.038  12.281 -0.2444  0.3648 -0.1463
  331MPD2    C4 5022   3.070   0.114  12.312  0.3798 -0.1109  0.1566
  331MPD2    C5 5023   3.070   0.251  12.282  0.8183  0.0634  0.8199
  331MPD2     H 5024   3.368   0.032  12.185 -0.4206  0.6026  0.1762
  331MPD2    H1 5025   2.987   0.083  12.375 -0.1988 -0.4751 -0.7833
  331MPD2    H2 5026   3.178   0.409  12.191 -0.4310 -0.7390 -2.6779
  331MPD2    H3 5027   2.981   0.306  12.313  0.9027 -0.3437  1.7984
  331MPD2     N 5028   3.196   4.643  12.330  0.7696 -0.2816  0.3601
  331MPD2    H5 5029   3.284   4.595  12.313  2.2102  2.6239 -0.5272
  331MPD2    N1 5030   3.403   0.286  12.129 -0.1435  0.5200  0.8419
  331MPD2    H7 5031   3.396   0.382  12.097 -2.7912  0.5246  1.5146
  332TMC3    C1 5032   3.194   4.455  12.472 -0.0302  0.3207 -0.1618
  332TMC3    C2 5033   3.271   4.399  12.375 -0.1808 -0.0864  0.2230
  332TMC3    C3 5034   3.383   4.339  12.408 -0.3504  0.1253  0.2443
  332TMC3    C4 5035   3.233   4.460  12.595  0.3366  0.4760 -0.6677
  332TMC3    C5 5036   3.354   4.403  12.629 -1.2094  0.1354 -0.0110
  332TMC3    C6 5037   3.429   4.345  12.530 -0.2487 -0.0174  0.0898
  332TMC3     C 5038   3.120   4.568  12.423 -0.5251  0.2971  0.3361
  332TMC3     O 5039   3.012   4.597  12.477  0.6112  0.4412 -0.6386
  332TMC3     H 5040   3.238   4.397  12.272 -0.8145 -2.3383  0.4587
  332TMC3    H1 5041   3.167   4.515  12.662  0.0397 -0.0276 -0.5410
  332TMC3    H2 5042   3.521   4.293  12.556 -0.3963  0.3488  1.3340
  332TMC3    C7 5043   3.406   4.439  12.762  0.3152  0.4435 -0.4526
  332TMC3    C8 5044   3.458   4.276  12.309 -0.0820  0.8413 -0.3027
  332TMC3    O1 5045   3.325   4.470  12.848 -0.2581 -0.0275  0.1209
  332TMC3    O2 5046   3.397   4.239  12.207 -0.0764 -0.5412  0.4752
  333MPD2     C 5047   3.624   0.286  11.570 -0.5858 -0.5719 -0.5470
  333MPD2    C1 5048   3.687   0.208  11.479 -0.2771 -0.1268 -0.0387
  333MPD2    C2 5049   3.655   0.079  11.459  0.0073 -0.3090 -0.0975
  333MPD2    C3 5050   3.554   0.024  11.532  0.4812  0.0015 -0.4742
  333MPD2    C4 5051   3.494   0.095  11.632  0.3476 -0.6041 -0.2062
  333MPD2    C5 5052   3.523   0.232  11.646 -0.4385 -0.1384  0.0330
  333MPD2     H 5053   3.710   0.017  11.389 -0.2782 -0.2162 -0.4037
  333MPD2    H1 5054   3.423   0.053  11.703  1.2198 -1.5773  0.0971
  333MPD2    H2 5055   3.655   0.389  11.580 -1.5552 -0.2798 -0.5152
  333MPD2    H3 5056   3.475   0.293  11.721 -1.3268  0.1218 -0.7405
  333MPD2     N 5057   3.530   4.623  11.503 -0.4460 -0.1232 -0.5588
  333MPD2    H5 5058   3.611   4.579  11.461  0.8400 -1.0567  2.8974
  333MPD2    N1 5059   3.784   0.259  11.391  0.0799  0.1920  0.2124
  333MPD2    H7 5060   3.838   0.194  11.334  2.6899  2.7500 -0.1953
  334TMC3    C1 5061   3.901   0.429  11.270 -0.1141  0.8000 -0.1974
  334TMC3    C2 5062   3.996   0.336  11.240  0.3885  0.4282 -0.3859
  334TMC3    C3 5063   4.089   0.363  11.146 -0.1446 -0.1253  0.0260
  334TMC3    C4 5064   3.887   0.545  11.205  0.7709  0.6710  0.2696
  334TMC3    C5 5065   3.983   0.567  11.107  0.0465 -0.3820 -0.1385
  334TMC3    C6 5066   4.081   0.482  11.073 -0.7444 -0.8090  0.2886
  334TMC3     C 5067   3.798   0.395  11.362  0.1675  0.9404 -0.5785
  334TMC3     O 5068   3.730   0.488  11.404  0.2879 -0.0042 -0.4486
  334TMC3     H 5069   4.013   0.245  11.297 -2.3684  0.8810  1.1763
  334TMC3    H1 5070   3.806   0.613  11.230 -1.4931 -2.1793  0.8128
  334TMC3    H2 5071   4.142   0.489  10.984  0.4677 -1.1271  1.0842
  334TMC3    C7 5072   3.963   0.683  11.018  0.2615 -0.3990  0.7950
  334TMC3    C8 5073   4.210   0.289  11.162 -0.3947  0.4962  0.2791
  334TMC3    O1 5074   4.056   0.705  10.936 -0.6336 -0.4238  0.1734
  334TMC3    O2 5075   4.237   0.253  11.278 -0.1470 -0.2588  0.3708
  335TMC3    C1 5076   2.579   1.897  17.284 -0.1396 -0.2292 -0.0399
  335TMC3    C2 5077   2.515   1.863  17.163 -0.1378 -0.9127  0.4123
  335TMC3    C3 5078   2.593   1.823  17.057 -0.3391  0.4828 -0.6476
  335TMC3    C4 5079   2.714   1.876  17.293  0.3119 -0.9450  0.3700
  335TMC3    C5 5080   2.784   1.840  17.182  0.3696  0.3327 -0.1805
  335TMC3    C6 5081   2.726   1.810  17.062 -0.4977 -0.0983  0.0807
  335TMC3     C 5082   2.513   1.876  17.409  0.4304 -0.1151 -0.1752
  335TMC3     O 5083   2.571   1.815  17.499 -0.3926  0.4900 -0.2421
  335TMC3     H 5084   2.407   1.857  17.161 -0.1549 -0.3899 -0.2719
  335TMC3    H1 5085   2.772   1.900  17.381  0.8342  0.7657 -0.4416
  335TMC3    H2 5086   2.782   1.771  16.978 -0.9261 -0.7823  0.1159
  335TMC3    C7 5087   2.908   1.776  17.202  0.0890 -0.6003  1.0115
  335TMC3    C8 5088   2.527   1.764  16.950  0.2374 -1.1846  0.1957
  335TMC3    O1 5089   3.001   1.796  17.123  0.5921  0.2084 -0.2173
  335TMC3    O2 5090   2.566   1.776  16.837 -0.0201  0.0571  0.1249
  336MPD2     C 5091   2.224   4.361  16.252 -0.3302  0.0737  0.0657
  336MPD2    C1 5092   2.275   4.299  16.136  0.8091 -0.8412  0.3844
  336MPD2    C2 5093   2.356   4.193  16.162 -0.1195 -0.3253 -0.0471
  336MPD2    C3 5094   2.382   4.138  16.284  0.5438  0.1765  0.6902
  336MPD2    C4 5095   2.331   4.202  16.392  0.3212 -0.2192 -0.3790
  336MPD2    C5 5096   2.259   4.317  16.377  0.1381  0.3329  0.8363
  336MPD2     H 5097   2.397   4.139  16.078 -2.1732 -1.4921 -0.3009
  336MPD2    H1 5098   2.343   4.155  16.489 -3.0491  1.7460  0.9700
  336MPD2    H2 5099   2.155   4.445  16.248 -0.0714  0.2634 -0.4072
  336MPD2    H3 5100   2.220   4.360  16.468  0.5062  1.1383  0.6074
  336MPD2     N 5101   2.446   4.013  16.310  0.3168  0.0794 -0.0956
  336MPD2    H5 5102   2.444   3.980  16.406 -0.0215 -2.3489 -0.9213
  336MPD2    N1 5103   2.228   4.331  16.001  0.5382 -0.1304  0.1436
  336MPD2    H7 5104   2.254   4.264  15.929 -0.8828 -0.9301  0.3823
  337TMC3    C1 5105   2.116   4.437  15.819  0.3080 -0.0139  0.5648
  337TMC3    C2 5106   2.061   4.339  15.740 -0.1375 -0.8489  0.0843
  337TMC3    C3 5107   1.984   4.370  15.633  0.3112  0.8645 -0.1876
  337TMC3    C4 5108   2.092   4.569  15.782 -0.0083  0.2113 -0.5795
  337TMC3    C5 5109   2.009   4.594  15.680  0.2023 -0.7114 -0.9310
  337TMC3    C6 5110   1.967   4.497  15.591  0.4918  0.5390 -0.1375
  337TMC3     C 5111   2.140   4.426  15.965 -0.6917 -1.1691 -0.1636
  337TMC3     O 5112   2.085   4.513  16.030  0.2225  0.5671 -0.2886
  337TMC3     H 5113   2.056   4.240  15.785  1.0261 -0.2551  1.5048
  337TMC3    H1 5114   2.133   4.646  15.847  0.1510  0.8120 -1.3879
  337TMC3    H2 5115   1.906   4.523  15.506  0.1933  2.9373  0.8133
  337TMC3    C7 5116   1.958   4.730  15.652 -0.9804  0.2444  0.3170
  337TMC3    C8 5117   1.910   4.270  15.567 -0.6600 -0.5779 -0.4192
  337TMC3    O1 5118   1.843   4.730  15.608 -0.2924 -1.0671  0.1035
  337TMC3    O2 5119   1.950   4.160  15.605 -0.0041 -0.1567  0.5586
  338MPD2     C 5120   2.378   4.161   1.096 -0.1132  0.5834  0.2849
  338MPD2    C1 5121   2.344   4.139   0.965 -0.4551 -0.0648 -0.3500
  338MPD2    C2 5122   2.242   4.204   0.905 -0.5322  0.2378 -0.0426
  338MPD2    C3 5123   2.156   4.276   0.984  0.2941  0.2104 -0.9480
  338MPD2    C4 5124   2.193   4.304   1.110 -0.3354 -0.3467 -0.2806
  338MPD2    C5 5125   2.296   4.238   1.168  0.8052 -0.7347 -0.1823
  338MPD2     H 5126   2.221   4.191   0.800 -1.7647  1.6965  0.0196
  338MPD2    H1 5127   2.133   4.370   1.172 -0.5729  1.4491 -2.4583
  338MPD2    H2 5128   2.449   4.096   1.146  0.1172  1.2090  0.7655
  338MPD2    H3 5129   2.325   4.251   1.272 -1.3987 -0.0434  0.3433
  338MPD2     N 5130   2.039   4.326   0.923 -0.3281 -0.7303  0.4593
  338MPD2    H5 5131   2.038   4.320   0.822  1.2202 -0.3292  0.4198
  338MPD2    N1 5132   2.409   4.038   0.889 -0.2296 -0.2269 -0.5053
  338MPD2    H7 5133   2.385   4.025   0.791  0.0823  1.5444 -0.8221
  339TMC3    C1 5134   1.803   4.350   0.927 -1.4455 -0.5354 -0.4748
  339TMC3    C2 5135   1.714   4.263   0.989  0.0049  0.5186  0.2766
  339TMC3    C3 5136   1.639   4.178   0.912 -0.0205  0.1672 -0.1800
  339TMC3    C4 5137   1.810   4.361   0.792  0.5755  0.0782 -0.5357
  339TMC3    C5 5138   1.734   4.278   0.717 -0.0009  0.0901  0.1981
  339TMC3    C6 5139   1.648   4.189   0.778  0.3765 -0.2066 -0.3237
  339TMC3     C 5140   1.928   4.367   0.999  0.7486  0.2114 -0.4226
  339TMC3     O 5141   1.911   4.359   1.125  0.1849  0.3039 -0.0154
  339TMC3     H 5142   1.708   4.268   1.097 -1.1388  2.3127  0.1271
  339TMC3    H1 5143   1.884   4.425   0.745  1.4616 -0.7050 -0.1961
  339TMC3    H2 5144   1.593   4.120   0.714 -0.2407 -0.5211  0.5497
  339TMC3    C7 5145   1.754   4.279   0.577 -0.4220 -0.5639 -0.7672
  339TMC3    C8 5146   1.552   4.074   0.964 -0.3936  0.2656 -0.3609
  339TMC3    O1 5147   1.792   4.381   0.523 -0.0616 -0.1392 -0.0038
  339TMC3    O2 5148   1.453   4.036   0.901 -0.5058  0.0421  0.3925
  340MPD2     C 5149   3.567   2.093  10.557  0.3993 -0.5377  0.1408
  340MPD2    C1 5150   3.631   2.143  10.449  0.6318 -0.3632 -0.4268
  340MPD2    C2 5151   3.671   2.279  10.444 -0.3400  0.0311  0.1360
  340MPD2    C3 5152   3.645   2.359  10.560  0.3048  0.3022 -0.0333
  340MPD2    C4 5153   3.586   2.301  10.666  0.5937  0.6899  0.9375
  340MPD2    C5 5154   3.542   2.171  10.664 -0.3043  0.5753 -0.1288
  340MPD2     H 5155   3.734   2.321  10.367  2.1357 -1.4802  1.3525
  340MPD2    H1 5156   3.586   2.355  10.760 -0.3512  0.5896  0.9976
  340MPD2    H2 5157   3.548   1.986  10.557  0.2067 -0.5053  1.4060
  340MPD2    H3 5158   3.504   2.122  10.753 -0.7662  1.4979  0.1854
  340MPD2     N 5159   3.702   2.485  10.578 -0.1845  0.2975 -0.0555
  340MPD2    H5 5160   3.693   2.519  10.673 -0.9937 -0.0873  0.0058
  340MPD2    N1 5161   3.659   2.048  10.348 -0.0728 -0.3506  0.2910
  340MPD2    H7 5162   3.640   1.949  10.361 -1.2710  0.2597  3.3808
  341TMC3    C1 5163   3.746   1.962  10.151 -0.1741 -0.1048 -0.5026
  341TMC3    C2 5164   3.689   1.842  10.181 -0.3568  0.1814 -0.0780
  341TMC3    C3 5165   3.744   1.737  10.121  0.7838 -0.2765  1.1665
  341TMC3    C4 5166   3.852   1.979  10.063 -0.1656 -0.0515 -0.7000
  341TMC3    C5 5167   3.902   1.868  10.005  0.4126 -0.7248  1.2738
  341TMC3    C6 5168   3.848   1.745  10.039  1.0217  0.5594  0.6463
  341TMC3     C 5169   3.702   2.076  10.228 -0.1590  0.4831 -0.4510
  341TMC3     O 5170   3.734   2.185  10.177  0.1021  0.0138  0.5745
  341TMC3     H 5171   3.599   1.827  10.239  1.3289  2.1136  2.9909
  341TMC3    H1 5172   3.903   2.074  10.052  2.3984 -1.1162  1.9983
  341TMC3    H2 5173   3.889   1.654   9.996 -1.3317  0.0801 -0.6128
  341TMC3    C7 5174   4.035   1.860   9.955 -0.2077  0.3830  0.1332
  341TMC3    C8 5175   3.681   1.613  10.164  0.4512  1.5474  0.1481
  341TMC3    O1 5176   4.101   1.757   9.987 -0.0164  0.6941 -0.5724
  341TMC3    O2 5177   3.564   1.614  10.199 -0.3973 -0.1780 -0.0885
  342MPD2     C 5178   0.390   4.710  17.348  0.1400  0.0840 -0.4507
  342MPD2    C1 5179   0.476   0.008  17.253 -0.3742 -0.2316  0.8374
  342MPD2    C2 5180   0.492   0.139  17.208 -0.1037  0.4848  0.2266
  342MPD2    C3 5181   0.419   0.243  17.263 -0.0037 -0.2316 -0.3331
  342MPD2    C4 5182   0.332   0.203  17.364 -0.3876 -0.2506  0.4749
  342MPD2    C5 5183   0.326   0.072  17.403 -0.1341  0.3111 -0.1457
  342MPD2     H 5184   0.550   0.150  17.117 -0.1523 -0.2038  0.1101
  342MPD2    H1 5185   0.269   0.276  17.414  0.3776  0.3504  0.5729
  342MPD2    H2 5186   0.362   4.614  17.389 -3.4135  1.4220  0.2311
  342MPD2    H3 5187   0.269   0.058  17.494  1.0235  0.9760  0.6715
  342MPD2     N 5188   0.429   0.383  17.222  0.3911 -0.1135  0.0811
  342MPD2    H5 5189   0.371   0.454  17.266  1.4433 -0.2512  1.6817
  342MPD2    N1 5190   0.546   4.637  17.187 -0.0098  0.3932 -0.8152
  342MPD2    H7 5191   0.614   4.668  17.119  1.5200  1.5064  1.2390
  343TMC3    C1 5192   0.654   4.422  17.165 -0.1312  0.0678  0.0974
  343TMC3    C2 5193   0.776   4.476  17.128  0.0657 -0.2199  0.1640
  343TMC3    C3 5194   0.882   4.389  17.114  0.4829 -0.2984  0.3981
  343TMC3    C4 5195   0.639   4.286  17.191 -0.3760 -0.2457  1.1184
  343TMC3    C5 5196   0.751   4.205  17.189 -0.1415 -0.0818 -0.6144
  343TMC3    C6 5197   0.870   4.256  17.150 -0.2247  0.4698 -0.1339
  343TMC3     C 5198   0.542   4.504  17.227  0.4370  0.6943  0.1849
  343TMC3     O 5199   0.484   4.445  17.314  0.4458 -0.3386  0.4591
  343TMC3     H 5200   0.789   4.582  17.108  0.2609 -0.0702  1.0457
  343TMC3    H1 5201   0.549   4.245  17.234 -0.5966 -1.0183 -0.0581
  343TMC3    H2 5202   0.951   4.186  17.132  0.4608  0.7297  1.9379
  343TMC3    C7 5203   0.752   4.098  17.289  0.4491  0.3401  0.1749
  343TMC3    C8 5204   1.000   4.430  17.039 -0.3015 -0.1273  0.4178
  343TMC3    O1 5205   0.650   4.036  17.315 -0.4929  0.0238 -0.3344
  343TMC3    O2 5206   1.019   4.552  17.033 -0.2938 -0.5592 -0.0363
  344MPD2     C 5207   2.617   4.115  11.087  0.1280 -0.3643 -0.0533
  344MPD2    C1 5208   2.498   4.141  11.023  0.1176  0.4829 -0.6298
  344MPD2    C2 5209   2.473   4.261  10.965 -0.4184  0.2808 -0.6919
  344MPD2    C3 5210   2.570   4.354  10.979 -0.0666 -0.3447  0.7358
  344MPD2    C4 5211   2.689   4.332  11.043  0.0370  0.0774  0.1842
  344MPD2    C5 5212   2.706   4.209  11.103  0.1439  0.8035 -1.3424
  344MPD2     H 5213   2.379   4.280  10.914 -0.4610 -1.4364 -1.2818
  344MPD2    H1 5214   2.764   4.409  11.057 -0.1509  0.2423  0.2937
  344MPD2    H2 5215   2.632   4.022  11.139  2.3823  0.6144  1.0400
  344MPD2    H3 5216   2.800   4.200  11.156 -1.1926 -0.1629  0.8463
  344MPD2     N 5217   2.562   4.487  10.927  0.2986 -0.1329  0.6582
  344MPD2    H5 5218   2.637   4.551  10.949  1.4960 -2.1122  2.3472
  344MPD2    N1 5219   2.396   4.047  11.008  0.1742  0.2674 -0.2380
  344MPD2    H7 5220   2.314   4.071  10.954 -0.3026  1.3786  0.9780
  345TMC3    C1 5221   2.480   4.681  10.819 -0.8039 -0.2014 -0.6724
  345TMC3    C2 5222   2.497   0.011  10.935  1.1499  0.3677  0.4322
  345TMC3    C3 5223   2.462   0.140  10.946 -0.3149  0.9015  0.0941
  345TMC3    C4 5224   2.414   4.732  10.707 -0.1439 -0.2675 -0.1909
  345TMC3    C5 5225   2.391   0.133  10.718 -0.6821  0.0027 -0.2210
  345TMC3    C6 5226   2.418   0.203  10.832  0.7267 -0.6583 -0.4878
  345TMC3     C 5227   2.478   4.536  10.826 -0.2741  0.3196 -0.0750
  345TMC3     O 5228   2.394   4.472  10.759 -0.1728 -0.4747  0.4388
  345TMC3     H 5229   2.544   4.700  11.021  0.4441  0.8407  1.0810
  345TMC3    H1 5230   2.404   4.686  10.610  1.0889  1.7794 -1.2888
  345TMC3    H2 5231   2.375   0.302  10.841 -0.5970 -1.3093  0.4058
  345TMC3    C7 5232   2.372   0.220  10.598 -0.3924  0.0354  0.4381
  345TMC3    C8 5233   2.532   0.219  11.036  0.7127 -0.6426 -0.6053
  345TMC3    O1 5234   2.398   0.337  10.626 -0.1433 -0.6027  0.2469
  345TMC3    O2 5235   2.583   0.171  11.136  0.5469  0.1607 -0.1139
  346MPD2     C 5236   1.955   1.264  13.828  0.3558 -0.2716 -0.1356
  346MPD2    C1 5237   2.085   1.274  13.873 -0.1126 -0.3888 -0.2104
  346MPD2    C2 5238   2.109   1.328  13.997  0.3378 -0.2534  0.7522
  346MPD2    C3 5239   2.004   1.377  14.079 -0.0474  0.9456  0.3961
  346MPD2    C4 5240   1.879   1.377  14.027  0.0093  0.4368 -0.0205
  346MPD2    C5 5241   1.860   1.323  13.903  0.2632 -0.6462 -0.2925
  346MPD2     H 5242   2.205   1.314  14.046  0.4111  0.4004  0.7980
  346MPD2    H1 5243   1.795   1.418  14.083 -1.5659 -1.3386 -1.0788
  346MPD2    H2 5244   1.922   1.227  13.731  1.3088 -0.2761 -0.4519
  346MPD2    H3 5245   1.762   1.317  13.857 -0.2839  0.2515  0.7611
  346MPD2     N 5246   2.042   1.416  14.205  0.3641 -0.6058 -0.3544
  346MPD2    H5 5247   2.140   1.432  14.228 -0.8205  3.0475  2.1260
  346MPD2    N1 5248   2.206   1.242  13.801  0.1308 -0.0261  0.0675
  346MPD2    H7 5249   2.294   1.266  13.846  0.5918  1.1129 -1.4540
  347TMC3    C1 5250   2.021   1.446  14.433  0.1655  0.1948 -0.7898
  347TMC3    C2 5251   2.127   1.359  14.444  0.2074 -0.0114  0.0923
  347TMC3    C3 5252   2.144   1.310  14.565 -0.1124  0.0676  0.2292
  347TMC3    C4 5253   1.951   1.486  14.548  0.4179  0.2659 -0.1038
  347TMC3    C5 5254   1.983   1.436  14.672 -0.4129  0.0971 -0.3333
  347TMC3    C6 5255   2.073   1.336  14.683 -1.2399  0.2662 -0.1135
  347TMC3     C 5256   1.955   1.454  14.300 -0.4988  0.3203  0.5849
  347TMC3     O 5257   1.842   1.504  14.293 -0.2571  0.1781  0.2551
  347TMC3     H 5258   2.197   1.349  14.362  0.4725  0.6286  0.2415
  347TMC3    H1 5259   1.871   1.559  14.549  0.4340  0.2608  0.8444
  347TMC3    H2 5260   2.081   1.280  14.776  2.5452 -4.1693 -3.1345
  347TMC3    C7 5261   1.870   1.417  14.754  0.1641 -0.0887 -0.2598
  347TMC3    C8 5262   2.240   1.207  14.579  0.0727 -0.5100 -0.3462
  347TMC3    O1 5263   1.767   1.362  14.709 -1.1256  0.1854 -0.1975
  347TMC3    O2 5264   2.296   1.189  14.476 -0.1790  0.4717  0.5387
  348MPD2     C 5265   1.201   0.855  12.032  0.0749 -0.1864  0.0757
  348MPD2    C1 5266   1.296   0.956  12.023  0.8899 -0.1877 -0.3486
  348MPD2    C2 5267   1.291   1.037  11.919 -0.1219  0.1382 -0.5392
  348MPD2    C3 5268   1.213   1.005  11.807 -0.1390 -0.2383  0.5492
  348MPD2    C4 5269   1.112   0.910  11.818  0.2846 -0.5887  0.8691
  348MPD2    C5 5270   1.107   0.834  11.933 -0.1681  0.8429 -0.4664
  348MPD2     H 5271   1.363   1.118  11.918 -1.2467  1.0889 -3.6108
  348MPD2    H1 5272   1.051   0.890  11.732  1.2837 -2.0075  0.4780
  348MPD2    H2 5273   1.211   0.780  12.110  0.6323  2.0259  2.1169
  348MPD2    H3 5274   1.035   0.754  11.932  3.1406 -2.1216 -0.3608
  348MPD2     N 5275   1.217   1.089  11.691  0.8617 -0.3547  0.1873
  348MPD2    H5 5276   1.261   1.179  11.706  2.6603 -1.5495  2.0208
  348MPD2    N1 5277   1.406   0.968  12.112  0.5843  0.0288  0.3210
  348MPD2    H7 5278   1.466   1.046  12.089  0.2155  1.0947  3.0354
  349TMC3    C1 5279   1.569   0.887  12.250 -0.2793 -0.4015  0.3152
  349TMC3    C2 5280   1.608   0.768  12.302 -0.2460 -0.4904  0.1031
  349TMC3    C3 5281   1.712   0.697  12.237  0.0690 -0.0425  0.2783
  349TMC3    C4 5282   1.648   0.947  12.156 -0.7746  0.0834  0.4951
  349TMC3    C5 5283   1.738   0.874  12.090  0.3952 -0.2652 -0.1180
  349TMC3    C6 5284   1.780   0.749  12.134  0.2566 -0.3327  0.5753
  349TMC3     C 5285   1.428   0.891  12.217  0.3576  0.0175  0.5752
  349TMC3     O 5286   1.362   0.804  12.269 -0.3249  0.1815  0.3993
  349TMC3     H 5287   1.545   0.711  12.370  0.6568 -2.2598 -0.5458
  349TMC3    H1 5288   1.636   1.051  12.128  0.3107  0.3459  1.0193
  349TMC3    H2 5289   1.854   0.701  12.071 -0.7859  0.7785 -1.4943
  349TMC3    C7 5290   1.731   0.880  11.943 -0.5797  0.3481  0.3510
  349TMC3    C8 5291   1.713   0.553  12.245  0.4153  0.3776 -0.1083
  349TMC3    O1 5292   1.711   0.781  11.873  0.2512  0.4862  0.0989
  349TMC3    O2 5293   1.626   0.500  12.312 -0.5109  0.1309 -0.1785
  350MPD2     C 5294   0.834   4.140  10.588 -0.2243 -0.2865 -0.0987
  350MPD2    C1 5295   0.752   4.040  10.535  0.3556 -0.5263 -0.4063
  350MPD2    C2 5296   0.710   3.940  10.617 -0.5507  0.2972 -0.0634
  350MPD2    C3 5297   0.764   3.920  10.739 -0.1601  0.4377  0.3238
  350MPD2    C4 5298   0.856   4.009  10.791  0.4438 -0.0710 -0.4160
  350MPD2    C5 5299   0.894   4.116  10.712 -0.5476 -0.0228  0.2741
  350MPD2     H 5300   0.637   3.874  10.570 -0.8770  1.0231 -0.5734
  350MPD2    H1 5301   0.897   4.003  10.892  0.3105  1.6568 -0.2580
  350MPD2    H2 5302   0.858   4.236  10.544 -0.0479  0.8095  2.3809
  350MPD2    H3 5303   0.979   4.176  10.742 -0.6922  0.5015 -0.3623
  350MPD2     N 5304   0.713   3.807  10.810 -0.0756  0.1573  0.2973
  350MPD2    H5 5305   0.648   3.748  10.759  2.3038 -1.0740 -1.2864
  350MPD2    N1 5306   0.711   4.034  10.401  0.1116  0.1791 -0.3237
  350MPD2    H7 5307   0.666   3.947  10.374 -1.6231  1.1406 -0.4867
  351TMC3    C1 5308   0.672   4.095  10.175  0.1418  0.7589  0.2576
  351TMC3    C2 5309   0.698   3.973  10.127  0.4916  0.4206  0.0607
  351TMC3    C3 5310   0.635   3.944  10.011  0.1406 -0.3192  0.3808
  351TMC3    C4 5311   0.614   4.192  10.102  0.2655 -0.0643 -0.5146
  351TMC3    C5 5312   0.547   4.153   9.988 -0.3796 -0.7293  0.6973
  351TMC3    C6 5313   0.557   4.027   9.938  0.1369 -0.1584 -0.0552
  351TMC3     C 5314   0.732   4.133  10.302 -0.2452  0.6705 -0.7187
  351TMC3     O 5315   0.775   4.243  10.320 -0.0880 -0.3829  0.2218
  351TMC3     H 5316   0.749   3.896  10.184 -0.7385  0.3378  1.0609
  351TMC3    H1 5317   0.614   4.294  10.139 -0.9873  0.2662 -1.4234
  351TMC3    H2 5318   0.503   3.995   9.850  0.2869 -0.3612 -0.0753
  351TMC3    C7 5319   0.484   4.256   9.908  0.3271 -0.2372 -0.5724
  351TMC3    C8 5320   0.643   3.811   9.953  0.0707 -0.2122 -0.0886
  351TMC3    O1 5321   0.494   4.375   9.945  0.0731 -0.1298 -0.6522
  351TMC3    O2 5322   0.554   3.783   9.875 -0.3447  0.2612  0.4564
  352MPD2     C 5323   2.922   1.115   0.924  0.5964  0.1583 -0.1508
  352MPD2    C1 5324   2.818   1.085   1.006 -0.1865 -0.3496 -0.9528
  352MPD2    C2 5325   2.813   0.963   1.074 -0.1531  0.1391 -0.2253
  352MPD2    C3 5326   2.917   0.871   1.057  0.3192  0.0386  0.1234
  352MPD2    C4 5327   3.033   0.922   0.996 -0.4844  0.2533 -0.3846
  352MPD2    C5 5328   3.032   1.042   0.932 -0.1233 -0.5459  0.2218
  352MPD2     H 5329   2.722   0.927   1.122 -1.3064  0.1766 -2.3981
  352MPD2    H1 5330   3.127   0.868   0.988 -0.8567 -0.5423  0.6109
  352MPD2    H2 5331   2.920   1.202   0.859  0.0570  0.9428  0.9300
  352MPD2    H3 5332   3.125   1.071   0.883 -0.7101  0.3927 -0.3341
  352MPD2     N 5333   2.910   0.737   1.099  0.3383  0.0465  0.3177
  352MPD2    H5 5334   2.999   0.690   1.084 -0.5648 -1.3911 -0.5408
  352MPD2    N1 5335   2.712   1.181   1.032 -0.4827 -0.1041  0.1421
  352MPD2    H7 5336   2.727   1.262   0.973  2.4785 -0.3464  0.5187
  353TMC3    C1 5337   2.801   0.521   1.142  0.0727 -0.1149 -0.2786
  353TMC3    C2 5338   2.918   0.455   1.167 -0.1590 -0.1590 -0.6528
  353TMC3    C3 5339   2.926   0.319   1.178  0.1661 -0.1889 -0.0013
  353TMC3    C4 5340   2.693   0.442   1.143  0.2910  0.1373 -0.5654
  353TMC3    C5 5341   2.697   0.307   1.168 -0.3533  0.2178 -0.0061
  353TMC3    C6 5342   2.812   0.251   1.183 -0.1342  0.0702  0.8104
  353TMC3     C 5343   2.795   0.669   1.145  0.2035 -0.3213  0.0844
  353TMC3     O 5344   2.687   0.718   1.165  0.0343  0.0645  0.2011
  353TMC3     H 5345   3.015   0.503   1.169 -0.3174  0.1611 -0.6458
  353TMC3    H1 5346   2.597   0.489   1.126 -0.5964 -1.3512  0.3351
  353TMC3    H2 5347   2.818   0.147   1.211 -0.4767 -0.5231 -1.3358
  353TMC3    C7 5348   2.579   0.219   1.147 -0.3940 -0.4388  0.0104
  353TMC3    C8 5349   3.050   0.251   1.215 -0.5434 -0.8050 -0.2856
  353TMC3    O1 5350   2.603   0.104   1.129 -0.0215  0.3091  0.4903
  353TMC3    O2 5351   3.140   0.320   1.258 -0.0894 -0.1302 -0.0655
  354TMC3    C1 5352   0.654   1.934  13.187 -0.1512  0.8968  0.0965
  354TMC3    C2 5353   0.630   2.065  13.152  0.2662  0.0949 -0.1282
  354TMC3    C3 5354   0.687   2.106  13.033  0.5727 -0.3886 -0.2667
  354TMC3    C4 5355   0.725   1.839  13.111 -0.2046  0.3037 -0.4075
  354TMC3    C5 5356   0.786   1.885  13.002  0.4022 -0.5677  0.3020
  354TMC3    C6 5357   0.776   2.018  12.970  0.0710 -0.5305 -0.2122
  354TMC3     C 5358   0.615   1.900  13.322 -0.2494 -0.5575  0.1772
  354TMC3     O 5359   0.513   1.953  13.370  0.1445 -0.4999 -0.6280
  354TMC3     H 5360   0.541   2.108  13.197  0.3925 -1.1196  1.2481
  354TMC3    H1 5361   0.743   1.736  13.140 -0.2361  0.5300  0.4182
  354TMC3    H2 5362   0.828   2.062  12.886 -1.8011 -1.2771 -1.7526
  354TMC3    C7 5363   0.860   1.791  12.923 -0.2887 -0.5771 -0.4339
  354TMC3    C8 5364   0.638   2.223  12.970 -0.3069 -0.2362 -0.1242
  354TMC3    O1 5365   0.842   1.677  12.956  0.0640  0.6958  0.4606
  354TMC3    O2 5366   0.651   2.229  12.851  0.1190 -0.2821 -0.2860
  355MPD2     C 5367   0.915   2.438  11.468 -0.3832  0.5518 -0.2150
  355MPD2    C1 5368   0.870   2.533  11.561 -0.3395 -0.0941  0.2442
  355MPD2    C2 5369   0.898   2.511  11.699  0.5625 -0.4130 -0.1157
  355MPD2    C3 5370   0.978   2.403  11.737  0.1520 -0.5006 -0.6120
  355MPD2    C4 5371   1.008   2.307  11.646  0.6914  0.0417  0.4270
  355MPD2    C5 5372   0.977   2.326  11.508 -0.5103 -0.7670 -0.8236
  355MPD2     H 5373   0.869   2.584  11.772  0.7179 -1.8837  1.4200
  355MPD2    H1 5374   1.045   2.209  11.675 -1.1088 -0.3809  1.2677
  355MPD2    H2 5375   0.900   2.450  11.362  1.4357 -0.6406 -0.6022
  355MPD2    H3 5376   1.001   2.242  11.444  0.0925 -1.1126 -0.1460
  355MPD2     N 5377   1.021   2.382  11.874  0.5903 -0.0500 -0.1172
  355MPD2    H5 5378   1.048   2.285  11.887 -0.9649 -0.1497  2.3279
  355MPD2    N1 5379   0.802   2.651  11.513 -0.8784 -0.6998  0.2056
  355MPD2    H7 5380   0.804   2.660  11.412  2.5370 -1.4912  0.1870
  356TMC3    C1 5381   1.008   2.609  11.976 -0.4947 -0.1652  0.0263
  356TMC3    C2 5382   1.078   2.671  11.870 -0.4951 -0.3395 -1.1450
  356TMC3    C3 5383   1.102   2.806  11.869  0.1195 -0.1029 -0.2027
  356TMC3    C4 5384   0.979   2.686  12.078 -0.0185 -0.1232  0.3240
  356TMC3    C5 5385   1.004   2.819  12.075 -0.3272 -0.2303  0.5261
  356TMC3    C6 5386   1.064   2.893  11.973 -0.1195  0.4749  0.1472
  356TMC3     C 5387   0.992   2.464  11.987  0.0333  0.3806 -0.1440
  356TMC3     O 5388   0.995   2.432  12.104 -0.0710 -0.0854 -0.3042
  356TMC3     H 5389   1.121   2.615  11.788 -0.0921 -0.5326 -0.7971
  356TMC3    H1 5390   0.935   2.642  12.167 -0.5210 -1.0908 -0.4137
  356TMC3    H2 5391   1.080   3.000  11.966 -2.2269  0.7536 -0.4842
  356TMC3    C7 5392   1.027   2.862  12.209  1.0140  0.4975 -0.2088
  356TMC3    C8 5393   1.151   2.866  11.747  0.0642  0.6021 -0.4815
  356TMC3    O1 5394   1.066   2.771  12.285  0.1210 -0.4459 -0.0895
  356TMC3    O2 5395   1.130   2.799  11.651  0.5257  0.1154  0.1766
  357MPD2     C 5396   3.891   2.348   0.443  0.3538  0.2473  0.1908
  357MPD2    C1 5397   3.941   2.305   0.565  0.7588 -0.9785  1.1328
  357MPD2    C2 5398   3.870   2.331   0.684 -0.3308  0.1625  0.4918
  357MPD2    C3 5399   3.748   2.394   0.685  0.3254 -0.5220 -0.1135
  357MPD2    C4 5400   3.693   2.434   0.564  0.0454 -0.3588  0.3097
  357MPD2    C5 5401   3.768   2.414   0.449  0.3255  0.1596  0.1373
  357MPD2     H 5402   3.894   2.279   0.776 -0.8798  2.3518  1.8823
  357MPD2    H1 5403   3.597   2.483   0.556  1.0605  1.6444  0.2779
  357MPD2    H2 5404   3.947   2.332   0.352  1.9605  0.7407  1.0762
  357MPD2    H3 5405   3.728   2.444   0.353  0.4722  0.6689  0.2367
  357MPD2     N 5406   3.663   2.417   0.798  0.5052  0.2382 -0.3027
  357MPD2    H5 5407   3.568   2.448   0.780  0.5570 -0.3234 -1.5316
  357MPD2    N1 5408   4.068   2.247   0.559 -0.0207  0.7133 -0.4629
  357MPD2    H7 5409   4.118   2.263   0.472 -1.6403 -0.4820 -1.6200
  358TMC3    C1 5410   4.268   2.143   0.630  0.5782  0.5321 -0.7194
  358TMC3    C2 5411   4.266   2.071   0.512  0.3205 -0.4576 -0.8351
  358TMC3    C3 5412   4.337   1.956   0.489  0.1059  0.4713 -0.5347
  358TMC3    C4 5413   4.360   2.096   0.726 -0.0593 -0.9425 -0.2263
  358TMC3    C5 5414   4.433   1.980   0.698 -0.8730  0.5033 -0.2391
  358TMC3    C6 5415   4.414   1.897   0.587 -0.5731 -0.8710  0.4370
  358TMC3     C 5416   4.139   2.196   0.669  0.4630  0.2515  1.0178
  358TMC3     O 5417   4.102   2.170   0.782 -0.3726  0.0313 -0.4507
  358TMC3     H 5418   4.195   2.094   0.434  1.7770 -2.3415 -2.7196
  358TMC3    H1 5419   4.379   2.156   0.814  0.5048  1.6629 -2.1138
  358TMC3    H2 5420   4.474   1.809   0.570  2.8752  2.1763 -3.0165
  358TMC3    C7 5421   4.524   1.912   0.795 -0.2141  0.4459  0.5728
  358TMC3    C8 5422   4.303   1.877   0.377  0.0560 -0.1637  0.7382
  358TMC3    O1 5423   4.562   1.801   0.767  0.4574 -0.3434  0.0062
  358TMC3    O2 5424   4.281   1.940   0.275 -0.8733  0.2620 -0.1744
  359MPD2     C 5425   1.058   1.167  12.164  0.0473  0.1988 -0.3758
  359MPD2    C1 5426   0.968   1.222  12.079 -0.8731  0.2482 -0.0678
  359MPD2    C2 5427   0.830   1.191  12.097  0.0460 -0.5034 -0.0092
  359MPD2    C3 5428   0.795   1.099  12.192 -0.1591 -0.4387 -0.3522
  359MPD2    C4 5429   0.891   1.052  12.279  0.3257  0.2097  0.3801
  359MPD2    C5 5430   1.020   1.078  12.264 -0.3267  0.4623 -0.0917
  359MPD2     H 5431   0.756   1.246  12.040 -1.7812 -0.9799  1.9316
  359MPD2    H1 5432   0.863   0.985  12.360 -3.1560  2.9746  1.4868
  359MPD2    H2 5433   1.164   1.186  12.152  0.1459 -0.4683 -0.5616
  359MPD2    H3 5434   1.089   1.036  12.336 -0.0402  0.1730 -0.5313
  359MPD2     N 5435   0.656   1.064  12.217  0.0614 -0.6405  0.4677
  359MPD2    H5 5436   0.639   1.004  12.297  0.2104 -2.3491 -0.7710
  359MPD2    N1 5437   0.998   1.316  11.984  0.1340  0.4140 -0.7680
  359MPD2    H7 5438   0.916   1.342  11.929 -1.1855  0.9411  1.4387
  360TMC3    C1 5439   1.097   1.486  11.867 -1.0220 -0.0286  0.2061
  360TMC3    C2 5440   1.149   1.614  11.888 -0.4567 -0.2376  0.2308
  360TMC3    C3 5441   1.108   1.713  11.801  0.7667  0.2895 -0.3797
  360TMC3    C4 5442   1.021   1.449  11.756  0.2563  0.3535 -0.2025
  360TMC3    C5 5443   0.991   1.549  11.668  0.5007 -0.2569  0.4432
  360TMC3    C6 5444   1.023   1.682  11.692 -0.3245 -0.3012  0.2308
  360TMC3     C 5445   1.112   1.383  11.965 -0.9165 -0.1109  0.8024
  360TMC3     O 5446   1.205   1.404  12.041 -0.2863  0.1577  0.4100
  360TMC3     H 5447   1.190   1.625  11.987  2.3834 -2.0514 -0.7320
  360TMC3    H1 5448   1.012   1.343  11.736 -1.3770  0.6802 -1.1993
  360TMC3    H2 5449   0.992   1.755  11.619  0.4563  0.0368  0.2318
  360TMC3    C7 5450   0.947   1.521  11.531 -0.4362 -1.0145  0.1283
  360TMC3    C8 5451   1.203   1.819  11.777  0.5620  0.1093  0.1144
  360TMC3    O1 5452   0.908   1.614  11.461  0.2583  0.1355 -0.4380
  360TMC3    O2 5453   1.162   1.928  11.733  0.6354  0.7240 -0.0395
  361MPD2     C 5454   2.121   0.707  16.450  0.4238 -0.5203 -0.1900
  361MPD2    C1 5455   2.045   0.715  16.561 -0.0069 -0.4371 -0.1118
  361MPD2    C2 5456   2.072   0.634  16.670  0.4819  0.1760  0.8348
  361MPD2    C3 5457   2.169   0.535  16.663  0.5189 -0.8644 -0.1843
  361MPD2    C4 5458   2.257   0.539  16.558 -0.1162 -0.3247 -1.1659
  361MPD2    C5 5459   2.233   0.626  16.455 -0.2293 -0.5496 -0.1700
  361MPD2     H 5460   2.002   0.634  16.754  1.1471  0.4436  1.3878
  361MPD2    H1 5461   2.344   0.475  16.562 -1.0102 -1.5662 -1.8696
  361MPD2    H2 5462   2.102   0.762  16.359  1.5141  2.4618  1.3813
  361MPD2    H3 5463   2.290   0.626  16.363  1.3709 -0.8752  0.8232
  361MPD2     N 5464   2.203   0.441  16.762 -0.2029  0.1420 -0.6593
  361MPD2    H5 5465   2.248   0.354  16.735 -0.4216  0.3128 -1.5711
  361MPD2    N1 5466   1.940   0.803  16.555 -0.0432  0.2590 -0.4736
  361MPD2    H7 5467   1.920   0.828  16.458 -1.8224  0.4367 -0.0683
  362TMC3    C1 5468   1.730   0.884  16.613 -0.3472  0.0384 -0.0116
  362TMC3    C2 5469   1.644   0.929  16.712  0.4721  0.1691  0.4590
  362TMC3    C3 5470   1.523   0.978  16.680 -0.3816 -0.5886  0.7982
  362TMC3    C4 5471   1.690   0.895  16.481  0.3784  0.0381 -0.0000
  362TMC3    C5 5472   1.565   0.948  16.455  0.1266 -0.6090 -0.1393
  362TMC3    C6 5473   1.474   0.984  16.550  0.2397  0.4098  0.4531
  362TMC3     C 5474   1.857   0.837  16.658  0.0373  0.2324 -0.2922
  362TMC3     O 5475   1.878   0.822  16.776  0.6942  0.5370  0.5080
  362TMC3     H 5476   1.677   0.921  16.816  1.8535 -3.8124 -0.2765
  362TMC3    H1 5477   1.741   0.840  16.403  0.3299  0.4938 -0.3507
  362TMC3    H2 5478   1.382   1.030  16.516  0.1853  0.2061  0.3228
  362TMC3    C7 5479   1.533   1.012  16.318  0.5282  0.3273  0.4337
  362TMC3    C8 5480   1.481   1.076  16.776  0.6001 -0.3242  0.2516
  362TMC3    O1 5481   1.416   1.044  16.301 -0.2229 -0.3965  0.1774
  362TMC3    O2 5482   1.551   1.176  16.784  0.3666  0.2598  1.1385
  363TMC3    C1 5483   0.964   2.820   9.259 -0.1533  0.2072 -0.0363
  363TMC3    C2 5484   1.045   2.775   9.359 -0.3109  0.0545  0.7181
  363TMC3    C3 5485   1.074   2.861   9.464  0.2574 -0.0348  0.0075
  363TMC3    C4 5486   0.902   2.935   9.257 -0.0987 -0.0325 -0.1058
  363TMC3    C5 5487   0.929   3.019   9.363  0.6535  0.0676 -0.0604
  363TMC3    C6 5488   1.003   2.981   9.475 -0.5246  0.0769  0.6129
  363TMC3     C 5489   0.924   2.717   9.158  0.6185  0.5718 -0.1599
  363TMC3     O 5490   0.811   2.736   9.117  0.6015 -0.1590  0.3193
  363TMC3     H 5491   1.065   2.669   9.372  3.0912  0.9197  2.4802
  363TMC3    H1 5492   0.835   2.975   9.182 -1.0181  0.1821  0.8379
  363TMC3    H2 5493   1.031   3.050   9.554  0.3536  0.8216 -0.3522
  363TMC3    C7 5494   0.859   3.143   9.386 -0.3806  0.1082  0.0232
  363TMC3    C8 5495   1.152   2.813   9.580  0.0277 -0.9420 -0.2366
  363TMC3    O1 5496   0.895   3.219   9.475 -0.0506 -0.2698  0.9147
  363TMC3    O2 5497   1.145   2.876   9.685 -0.0994  0.2726 -0.1746
  364MPD2     C 5498   4.599   2.512  10.988  0.9277 -0.1595  0.1009
  364MPD2    C1 5499   4.688   2.517  10.880 -0.1418  0.8593  0.4287
  364MPD2    C2 5500   0.008   2.399  10.832 -0.5254 -0.2485  0.6389
  364MPD2    C3 5501   4.689   2.278  10.866  0.5113 -0.3324  0.0512
  364MPD2    C4 5502   4.587   2.267  10.967 -0.3721  0.3900  0.4735
  364MPD2    C5 5503   4.548   2.387  11.023 -0.0431  0.1241  0.3947
  364MPD2     H 5504   0.095   2.403  10.767 -0.4366  0.1426  0.7804
  364MPD2    H1 5505   4.543   2.177  11.010  1.1732  0.5691  2.4531
  364MPD2    H2 5506   4.570   2.589  11.058  1.4997 -1.2534  1.5332
  364MPD2    H3 5507   4.471   2.382  11.100 -2.3311 -1.4991 -2.0051
  364MPD2     N 5508   4.721   2.164  10.789 -0.1078  0.4585 -0.1224
  364MPD2    H5 5509   0.049   2.176  10.711  0.2225 -2.3609 -0.2934
  364MPD2    N1 5510   4.730   2.641  10.844  0.6356  0.4938  0.0136
  364MPD2    H7 5511   4.703   2.712  10.911  2.2935  1.7485 -0.6495
  365TMC3    C1 5512   0.131   2.798  10.742 -0.5418  0.2569  0.3515
  365TMC3    C2 5513   0.159   2.857  10.621 -0.6721  0.6799 -0.1440
  365TMC3    C3 5514   0.236   2.974  10.628 -0.9353 -0.1124  0.1673
  365TMC3    C4 5515   0.167   2.844  10.869  0.6170 -0.2154 -0.5531
  365TMC3    C5 5516   0.244   2.963  10.870  1.1646 -0.3328  0.2872
  365TMC3    C6 5517   0.282   3.022  10.753 -0.6569  0.7630 -0.7195
  365TMC3     C 5518   0.062   2.671  10.734 -0.4598  0.1060  0.8640
  365TMC3     O 5519   0.073   2.603  10.633  0.5810  0.1885 -0.2313
  365TMC3     H 5520   0.114   2.814  10.532 -0.2010  1.2656 -0.6619
  365TMC3    H1 5521   0.119   2.810  10.960 -2.2379  0.0263 -1.9777
  365TMC3    H2 5522   0.342   3.113  10.756  2.6973 -1.4744 -0.3330
  365TMC3    C7 5523   0.242   3.049  10.991 -0.1968  0.0512 -0.6167
  365TMC3    C8 5524   0.309   3.015  10.508 -0.1776 -0.4726  0.4856
  365TMC3    O1 5525   0.315   3.149  10.989  0.1046 -0.0282 -0.1190
  365TMC3    O2 5526   0.398   3.097  10.525 -0.0266 -0.2870 -0.0121
  366MPD2     C 5527   1.809   3.740  15.278 -0.3273 -0.0504 -0.1305
  366MPD2    C1 5528   1.938   3.778  15.300  0.2892  0.1306  0.0705
  366MPD2    C2 5529   2.032   3.693  15.359  0.4387  0.1082  0.7890
  366MPD2    C3 5530   2.004   3.565  15.391  0.2767 -0.4481  0.1361
  366MPD2    C4 5531   1.877   3.520  15.368  0.8771 -0.0070 -0.2903
  366MPD2    C5 5532   1.782   3.612  15.315 -0.1500  0.1400 -0.0768
  366MPD2     H 5533   2.136   3.723  15.372 -0.0967  2.4372 -0.1933
  366MPD2    H1 5534   1.852   3.418  15.396  1.2142 -0.0640 -0.1944
  366MPD2    H2 5535   1.728   3.805  15.247  0.3841  1.2161  0.6359
  366MPD2    H3 5536   1.680   3.581  15.299 -0.8514  1.7134  1.3014
  366MPD2     N 5537   2.115   3.483  15.430  0.3888 -0.5057  0.3888
  366MPD2    H5 5538   2.203   3.523  15.460  0.5227 -0.4530 -0.0793
  366MPD2    N1 5539   1.986   3.904  15.262 -0.8373  0.7886 -0.1878
  366MPD2    H7 5540   2.081   3.923  15.291 -1.4298  1.4460  1.3192
  367TMC3    C1 5541   1.999   4.119  15.168  0.1031 -0.4449 -0.2127
  367TMC3    C2 5542   2.121   4.124  15.222  0.1939  0.2075  0.4767
  367TMC3    C3 5543   2.166   4.254  15.262 -0.5701 -0.2311 -0.6750
  367TMC3    C4 5544   1.928   4.231  15.138  0.8661 -0.5179 -0.4583
  367TMC3    C5 5545   1.971   4.356  15.172 -0.1333  0.1296 -0.2987
  367TMC3    C6 5546   2.092   4.371  15.237 -0.8185  0.4264 -0.1745
  367TMC3     C 5547   1.916   4.007  15.193 -0.4816 -0.1034 -0.1362
  367TMC3     O 5548   1.808   3.998  15.136  0.0059 -0.1296  0.0642
  367TMC3     H 5549   2.176   4.032  15.234 -0.9920 -0.6440 -0.6910
  367TMC3    H1 5550   1.827   4.233  15.101  0.6137 -0.4133  0.2372
  367TMC3    H2 5551   2.126   4.466  15.278  1.0404  0.1486 -1.1079
  367TMC3    C7 5552   1.868   4.466  15.180 -0.2551  0.2553  0.0833
  367TMC3    C8 5553   2.284   4.252  15.353  0.7875 -0.2289  0.1650
  367TMC3    O1 5554   1.832   4.522  15.281 -0.6870  0.8607  0.1867
  367TMC3    O2 5555   2.321   4.142  15.390 -0.2382  0.7515  0.5985
  368MPD2     C 5556   3.853   0.197  12.420  0.2234  0.1068  0.3072
  368MPD2    C1 5557   3.901   0.300  12.502 -0.3727 -0.1597 -0.3863
  368MPD2    C2 5558   4.034   0.295  12.546  0.9142  0.0989 -0.5195
  368MPD2    C3 5559   4.123   0.199  12.500  0.2813  0.2216 -0.7844
  368MPD2    C4 5560   4.067   0.092  12.421  0.8677 -0.0263 -0.7354
  368MPD2    C5 5561   3.936   0.093  12.386  0.6944 -0.0012 -0.2019
  368MPD2     H 5562   4.069   0.371  12.614  1.5271 -0.3214 -0.3584
  368MPD2    H1 5563   4.131   0.015  12.380  1.1983 -0.3191  0.3220
  368MPD2    H2 5564   3.752   0.193  12.380 -0.1734 -1.3545  1.4730
  368MPD2    H3 5565   3.896   0.011  12.328  2.0820 -0.5219 -0.4258
  368MPD2     N 5566   4.256   0.179  12.539  0.1914  0.4835 -0.2932
  368MPD2    H5 5567   4.297   0.091  12.509  1.2726  0.9334 -0.1164
  368MPD2    N1 5568   3.816   0.409  12.525 -0.0826 -0.2095 -0.5761
  368MPD2    H7 5569   3.732   0.423  12.471 -2.1226  1.6378  3.0511
  369TMC3    C1 5570   3.734   0.617  12.581  0.0049 -0.2259 -0.3039
  369TMC3    C2 5571   3.750   0.746  12.576 -0.0842 -0.2331  0.3185
  369TMC3    C3 5572   3.645   0.834  12.596  1.2762  0.4560 -0.2554
  369TMC3    C4 5573   3.611   0.564  12.609  0.4450 -0.1680  0.3517
  369TMC3    C5 5574   3.508   0.654  12.626  0.3690 -0.6596 -0.1410
  369TMC3    C6 5575   3.516   0.790  12.613 -0.3609  0.0195  0.6140
  369TMC3     C 5576   3.847   0.519  12.590  0.5902  0.4000 -0.4607
  369TMC3     O 5577   3.951   0.566  12.629  0.3784 -0.0394 -0.6439
  369TMC3     H 5578   3.844   0.782  12.537 -0.9872  1.2497 -0.4964
  369TMC3    H1 5579   3.607   0.471  12.664  0.0550 -0.0468  0.5307
  369TMC3    H2 5580   3.431   0.856  12.623 -0.3480 -0.1232  1.6350
  369TMC3    C7 5581   3.385   0.604  12.688  0.3606  0.5411 -0.1252
  369TMC3    C8 5582   3.661   0.961  12.546 -0.3298 -0.0728  0.0639
  369TMC3    O1 5583   3.298   0.679  12.727 -0.1839  0.1898 -0.3054
  369TMC3    O2 5584   3.573   1.032  12.502  0.1813  0.8568 -0.0724
  370TMC3    C1 5585   2.963   1.364  16.326 -0.3269  0.3661  0.0266
  370TMC3    C2 5586   2.856   1.305  16.386  1.0569 -0.1557  0.9730
  370TMC3    C3 5587   2.791   1.198  16.324 -0.2625  0.4344  0.0952
  370TMC3    C4 5588   3.008   1.320  16.208 -0.2538 -0.2799 -0.4301
  370TMC3    C5 5589   2.958   1.205  16.159  0.9140 -0.1948  0.0977
  370TMC3    C6 5590   2.845   1.141  16.209  0.2510 -0.6627 -0.0981
  370TMC3     C 5591   3.032   1.457  16.414  0.0925  0.4270  0.5835
  370TMC3     O 5592   3.016   1.465  16.536  0.1154  0.0179  0.2236
  370TMC3     H 5593   2.821   1.342  16.482  1.1867 -0.8876  1.3075
  370TMC3    H1 5594   3.078   1.372  16.143  2.1793 -0.1641  2.2703
  370TMC3    H2 5595   2.815   1.042  16.176  3.4092 -1.5553 -0.2788
  370TMC3    C7 5596   3.020   1.128  16.052  0.2212  0.5053  0.4426
  370TMC3    C8 5597   2.740   1.094  16.419 -0.6629  0.1934  0.3100
  370TMC3    O1 5598   2.970   1.152  15.939  0.4709  0.0001 -0.0309
  370TMC3    O2 5599   2.771   0.979  16.399  0.0460 -0.1759  0.1776
  371TMC3    C1 5600   4.330   4.408  15.482  0.9964  0.0060 -0.0075
  371TMC3    C2 5601   4.200   4.396  15.522  0.0952  0.6065  0.0866
  371TMC3    C3 5602   4.121   4.507  15.540 -0.0960  0.3451  0.3521
  371TMC3    C4 5603   4.381   4.534  15.451 -0.3268  0.4680 -0.3773
  371TMC3    C5 5604   4.295   4.644  15.468 -0.2898 -0.0177 -0.3705
  371TMC3    C6 5605   4.169   4.634  15.517 -0.3572 -0.3177  1.0136
  371TMC3     C 5606   4.423   4.299  15.469 -0.1848 -0.7088 -0.0988
  371TMC3     O 5607   4.529   4.319  15.414 -0.1081 -0.5535  0.0822
  371TMC3     H 5608   4.149   4.301  15.511  0.2608  0.3500  1.5568
  371TMC3    H1 5609   4.486   4.533  15.426 -0.3246  0.7515 -0.3794
  371TMC3    H2 5610   4.115   4.728  15.526  1.1845  0.8493 -2.1037
  371TMC3    C7 5611   4.341   0.044  15.443  0.2700 -0.1072 -0.1317
  371TMC3    C8 5612   4.037   4.496  15.656 -0.1277  0.0206 -0.5570
  371TMC3    O1 5613   4.266   0.139  15.459 -0.1880 -0.0171 -0.0402
  371TMC3    O2 5614   4.030   4.380  15.694 -0.3782 -0.5710  0.0768
  372MPD2     C 5615   4.180   0.606  13.153  0.0724 -0.1295 -0.1012
  372MPD2    C1 5616   4.158   0.637  13.286 -0.3478  0.5978  0.4337
  372MPD2    C2 5617   4.061   0.564  13.345  0.4938  0.0950 -0.6376
  372MPD2    C3 5618   3.983   0.471  13.277  0.3293  0.1705  0.2441
  372MPD2    C4 5619   4.002   0.458  13.144 -1.2424  0.0031  1.0115
  372MPD2    C5 5620   4.114   0.510  13.082  0.6185  0.3526 -0.3401
  372MPD2     H 5621   4.043   0.588  13.449 -0.6324  0.4266 -0.9107
  372MPD2    H1 5622   3.942   0.395  13.079 -1.7807  2.2078 -0.6412
  372MPD2    H2 5623   4.258   0.659  13.098 -0.6179  0.7752 -0.2151
  372MPD2    H3 5624   4.146   0.493  12.979  0.6165  1.7498 -0.5766
  372MPD2     N 5625   3.870   0.412  13.343  0.2750  0.6593 -0.4702
  372MPD2    H5 5626   3.872   0.424  13.444 -1.7020 -0.7903 -0.2602
  372MPD2    N1 5627   4.234   0.741  13.349  0.1769  0.4470 -0.2265
  372MPD2    H7 5628   4.240   0.741  13.450 -1.6768  0.1009 -0.1238
  373TMC3    C1 5629   3.678   0.282  13.380  0.5439  0.2043 -0.0401
  373TMC3    C2 5630   3.652   0.367  13.482  0.3111  0.0579 -0.1473
  373TMC3    C3 5631   3.637   0.311  13.604  0.1796 -0.7466 -0.5445
  373TMC3    C4 5632   3.672   0.151  13.398  0.0146 -0.6457  0.3559
  373TMC3    C5 5633   3.649   0.101  13.523 -0.1773  0.8092 -0.3182
  373TMC3    C6 5634   3.638   0.177  13.636  0.3740  0.2858 -0.4144
  373TMC3     C 5635   3.778   0.323  13.292 -0.3183  0.3085 -0.5263
  373TMC3     O 5636   3.785   0.262  13.191 -0.0732  0.1177 -0.2582
  373TMC3     H 5637   3.660   0.474  13.467 -1.0269  0.2128  0.2930
  373TMC3    H1 5638   3.703   0.088  13.315  2.6954  0.3415  0.5837
  373TMC3    H2 5639   3.609   0.138  13.733 -2.1264 -0.9883 -1.6639
  373TMC3    C7 5640   3.688   4.697  13.538 -1.0703 -0.7684 -0.1007
  373TMC3    C8 5641   3.606   0.404  13.713 -0.8931 -0.4137  0.5614
  373TMC3    O1 5642   3.680   4.626  13.438 -0.1855 -0.6968 -0.0450
  373TMC3    O2 5643   3.568   0.515  13.680 -0.1514  0.0250 -0.5318
  374TMC3    C1 5644   0.188   1.037   9.656 -0.0260  0.4585 -0.1315
  374TMC3    C2 5645   0.282   1.130   9.695  0.3970 -0.4970 -0.2483
  374TMC3    C3 5646   0.312   1.226   9.601  0.2808  0.6044  0.0973
  374TMC3    C4 5647   0.132   1.026   9.537 -0.2910 -0.3639 -0.1842
  374TMC3    C5 5648   0.163   1.124   9.447 -0.3731  0.6839  0.3770
  374TMC3    C6 5649   0.245   1.233   9.480 -0.3576  0.3507  0.8373
  374TMC3     C 5650   0.168   0.935   9.755 -0.4831  1.0367 -0.0634
  374TMC3     O 5651   0.264   0.907   9.825 -0.1285 -0.5720  0.0906
  374TMC3     H 5652   0.325   1.145   9.793  0.1838  3.1947 -0.6850
  374TMC3    H1 5653   0.075   0.940   9.504  1.0773 -0.2846 -2.7502
  374TMC3    H2 5654   0.271   1.309   9.408  1.1305 -0.3086  0.6837
  374TMC3    C7 5655   0.122   1.120   9.304 -0.4070  0.0382  0.3081
  374TMC3    C8 5656   0.423   1.321   9.615  0.2841 -0.2887 -0.6820
  374TMC3    O1 5657   0.156   1.213   9.234  0.1056 -0.0649  0.5152
  374TMC3    O2 5658   0.430   1.416   9.534 -0.1860  0.5923  0.7174
  375MPD2     C 5659   4.035   0.966  16.966  0.1262  0.3567  0.4690
  375MPD2    C1 5660   4.003   1.082  16.899  0.0011  0.5068  0.0648
  375MPD2    C2 5661   4.085   1.126  16.800  0.3027 -0.5427 -1.0438
  375MPD2    C3 5662   4.192   1.050  16.752 -0.3963 -0.2033 -0.1778
  375MPD2    C4 5663   4.215   0.933  16.820 -0.4257 -0.1472 -0.2757
  375MPD2    C5 5664   4.146   0.895  16.928 -0.1157  0.3314 -0.2855
  375MPD2     H 5665   4.072   1.233  16.785  0.4239 -0.3016  0.5045
  375MPD2    H1 5666   4.299   0.872  16.791 -1.8190 -2.1966 -0.0378
  375MPD2    H2 5667   3.972   0.940  17.050 -1.0127  0.5172 -0.3465
  375MPD2    H3 5668   4.171   0.807  16.986  2.3995  1.1774 -0.0737
  375MPD2     N 5669   4.280   1.090  16.651  0.3185 -0.4653 -0.0455
  375MPD2    H5 5670   4.363   1.033  16.642  0.7978  0.2477 -0.1268
  375MPD2    N1 5671   3.898   1.161  16.943  0.3750  0.5686  0.3591
  375MPD2    H7 5672   3.869   1.239  16.885 -1.3180 -1.4256 -1.4635
  376TMC3    C1 5673   4.383   1.237  16.496 -0.8222 -0.8096 -0.3218
  376TMC3    C2 5674   4.508   1.210  16.545  0.4817 -0.1807  0.2941
  376TMC3    C3 5675   4.617   1.263  16.474 -0.3359 -0.2432  0.5490
  376TMC3    C4 5676   4.362   1.321  16.392  0.1388  0.5475 -0.0183
  376TMC3    C5 5677   4.468   1.364  16.317 -1.0593 -0.2997 -0.2708
  376TMC3    C6 5678   4.599   1.337  16.362  0.2282 -0.7099  0.4513
  376TMC3     C 5679   4.269   1.208  16.581 -0.0783 -0.1405 -0.3219
  376TMC3     O 5680   4.168   1.280  16.577 -0.3811  0.2098  0.3669
  376TMC3     H 5681   4.518   1.152  16.636  0.1595 -1.3532 -0.4119
  376TMC3    H1 5682   4.259   1.338  16.361 -0.1010  0.8385  0.9440
  376TMC3    H2 5683   4.679   1.382  16.304 -0.7694  1.0529  0.4332
  376TMC3    C7 5684   4.451   1.494  16.262  0.7156 -0.2096  0.3277
  376TMC3    C8 5685   0.014   1.266  16.537  0.2468 -0.3081 -0.8921
  376TMC3    O1 5686   4.534   1.583  16.280  0.2720 -0.0622 -0.7661
  376TMC3    O2 5687   0.033   1.204  16.639 -0.1825 -0.5919  0.0802
  377MPD2     C 5688   3.254   0.995  12.414 -0.0759  0.5015 -0.8571
  377MPD2    C1 5689   3.204   1.121  12.430  0.6307  0.1754  0.6612
  377MPD2    C2 5690   3.098   1.145  12.515 -0.1166 -0.3425 -0.2489
  377MPD2    C3 5691   3.040   1.045  12.586 -0.2758 -0.3138  0.8814
  377MPD2    C4 5692   3.110   0.926  12.581 -0.3927 -0.2437 -0.4822
  377MPD2    C5 5693   3.217   0.897  12.501  0.7865  0.0127 -0.3799
  377MPD2     H 5694   3.064   1.246  12.534 -0.3521 -0.5738  0.5779
  377MPD2    H1 5695   3.085   0.840  12.643  2.5382  0.1498  1.2363
  377MPD2    H2 5696   3.339   0.984  12.347  0.0286 -0.1175 -0.6252
  377MPD2    H3 5697   3.260   0.799  12.490 -2.5545 -1.5515  0.4675
  377MPD2     N 5698   2.929   1.054  12.667  0.3160 -0.0192 -0.3006
  377MPD2    H5 5699   2.903   0.965  12.707 -0.8556 -0.0168 -1.0528
  377MPD2    N1 5700   3.260   1.225  12.350  0.2419 -0.0042 -0.1583
  377MPD2    H7 5701   3.346   1.202  12.301 -0.1674 -0.3086 -0.7357
  378TMC3    C1 5702   3.415   1.664  12.257  0.3562  0.5076 -0.3848
  378TMC3    C2 5703   3.338   1.573  12.325  0.2129  0.2135  0.0823
  378TMC3    C3 5704   3.333   1.441  12.296  0.2113  0.0714 -0.1225
  378TMC3    C4 5705   3.482   1.611  12.152  0.5159 -0.7938  0.0969
  378TMC3    C5 5706   3.476   1.476  12.127  0.6319  0.7123  0.0234
  378TMC3    C6 5707   3.397   1.392  12.189  0.3072  0.5332 -0.7309
  378TMC3     C 5708   3.334   1.779  12.232 -0.3603 -0.1871  0.3511
  378TMC3     O 5709   3.220   1.775  12.278 -0.0201 -0.4570  0.5765
  378TMC3     H 5710   3.289   1.609  12.415 -0.6193 -0.6683 -0.0169
  378TMC3    H1 5711   3.541   1.680  12.094  1.3838 -1.0405  0.6884
  378TMC3    H2 5712   3.371   1.292  12.156 -0.9744  0.5529  0.1980
  378TMC3    C7 5713   3.495   1.431  11.994 -0.0586  0.3202 -0.0077
  378TMC3    C8 5714   3.243   1.356  12.371 -0.1749  0.1474  0.1481
  378TMC3    O1 5715   3.490   1.310  11.969  0.8483  0.6042  0.4498
  378TMC3    O2 5716   3.183   1.403  12.464  0.3434  0.4095 -0.8802
  379MPD2     C 5717   2.725   4.039  16.486  0.4288  0.6158  0.9092
  379MPD2    C1 5718   2.828   3.988  16.414  0.0619 -0.4615  0.1614
  379MPD2    C2 5719   2.934   3.933  16.484  0.3922 -0.2299  0.0902
  379MPD2    C3 5720   2.927   3.908  16.621 -0.0481  0.6412  0.4523
  379MPD2    C4 5721   2.817   3.947  16.684 -0.2661 -0.3546  0.5712
  379MPD2    C5 5722   2.713   4.013  16.618  0.0966  0.1181  0.2617
  379MPD2     H 5723   3.017   3.891  16.428  0.1939  1.9428 -1.8163
  379MPD2    H1 5724   2.801   3.934  16.790  0.8438 -1.0154  0.6613
  379MPD2    H2 5725   2.637   4.085  16.442  0.7281  1.5918  1.3291
  379MPD2    H3 5726   2.626   4.037  16.678 -1.0275 -2.8009 -0.1929
  379MPD2     N 5727   3.024   3.844  16.688 -0.6182  0.1155 -0.1425
  379MPD2    H5 5728   3.007   3.808  16.782  0.6946  0.3329  0.1788
  379MPD2    N1 5729   2.831   4.024  16.277 -0.5350  0.1763 -0.2661
  379MPD2    H7 5730   2.753   4.078  16.241 -0.6923  0.3093  0.2700
  380TMC3    C1 5731   2.901   4.038  16.055 -0.4058  1.0958  0.7342
  380TMC3    C2 5732   2.946   3.961  15.956  0.0837  0.5929 -0.7207
  380TMC3    C3 5733   2.886   3.971  15.832  0.1309  0.2145 -0.1276
  380TMC3    C4 5734   2.810   4.139  16.041  0.5685 -0.8056 -0.5166
  380TMC3    C5 5735   2.759   4.142  15.912 -0.0917  0.3736  0.5516
  380TMC3    C6 5736   2.782   4.055  15.807  0.3022 -0.4243 -0.0266
  380TMC3     C 5737   2.938   4.004  16.192  0.4484 -0.0941  0.5216
  380TMC3     O 5738   3.046   3.968  16.221  0.3215  0.2245  0.0289
  380TMC3     H 5739   3.026   3.890  15.970 -0.4728 -0.1072 -1.0932
  380TMC3    H1 5740   2.797   4.215  16.117  0.3227  0.6643 -2.0084
  380TMC3    H2 5741   2.751   4.080  15.706  1.8127  2.0656  0.1181
  380TMC3    C7 5742   2.665   4.243  15.893 -0.2677  0.2833 -0.0138
  380TMC3    C8 5743   2.937   3.869  15.730 -0.5585 -0.8431 -0.8380
  380TMC3    O1 5744   2.658   4.339  15.976  0.5149  0.2093 -0.2372
  380TMC3    O2 5745   3.057   3.840  15.732 -0.0665  0.1374  0.3262
  381TMC3    C1 5746   2.962   0.392  16.245 -0.7344  0.1284  0.1186
  381TMC3    C2 5747   3.037   0.504  16.267 -0.1581  0.0575  0.1992
  381TMC3    C3 5748   2.990   0.611  16.343  0.6794  0.4450 -0.8334
  381TMC3    C4 5749   2.843   0.376  16.305 -0.1105 -0.2046  0.5683
  381TMC3    C5 5750   2.805   0.478  16.394  0.2682  0.1252 -0.4199
  381TMC3    C6 5751   2.875   0.593  16.414 -0.0684 -0.2102 -0.1704
  381TMC3     C 5752   3.031   0.268  16.210  0.0382  0.0997  0.4369
  381TMC3     O 5753   2.992   0.166  16.262  0.9289  0.3967  0.1736
  381TMC3     H 5754   3.132   0.507  16.214 -0.1984  3.4924  0.3330
  381TMC3    H1 5755   2.781   0.289  16.291 -1.7951  0.8604  1.4618
  381TMC3    H2 5756   2.844   0.671  16.483 -0.1800  1.6070 -2.2578
  381TMC3    C7 5757   2.721   0.426  16.501 -0.4619 -0.8724 -0.0901
  381TMC3    C8 5758   3.062   0.737  16.326 -0.2276 -0.1004 -0.4068
  381TMC3    O1 5759   2.700   0.306  16.498  0.9848  0.0598  0.3710
  381TMC3    O2 5760   3.118   0.754  16.220  0.3071  0.7846 -0.2128
  382MPD2     C 5761   1.927   2.789   0.194  0.2945  0.0165 -0.0483
  382MPD2    C1 5762   1.920   2.763   0.057 -0.4850 -0.3364  0.0523
  382MPD2    C2 5763   1.877   2.640   0.016 -0.5586  0.0446 -0.2164
  382MPD2    C3 5764   1.834   2.542   0.105  0.2441 -0.8219  0.2348
  382MPD2    C4 5765   1.859   2.566   0.237 -0.0833  0.5292 -0.0497
  382MPD2    C5 5766   1.909   2.684   0.283  0.0811  0.1210 -0.1771
  382MPD2     H 5767   1.857   2.625  17.653  0.4137 -1.0663 -0.2396
  382MPD2    H1 5768   1.838   2.488   0.309 -2.0877 -0.7533 -2.0089
  382MPD2    H2 5769   1.954   2.882   0.242 -0.8691  1.5391 -2.3594
  382MPD2    H3 5770   1.927   2.693   0.390  3.7710 -1.1821 -0.6810
  382MPD2     N 5771   1.790   2.411   0.075 -0.4127  0.0827  0.7956
  382MPD2    H5 5772   1.777   2.341   0.148 -1.9499 -0.3805  0.0763
  382MPD2    N1 5773   1.952   2.863  17.699 -0.0830  0.2466 -0.1368
  382MPD2    H7 5774   1.929   2.847  17.601  0.6245  2.1085 -0.6187
  383TMC3    C1 5775   1.762   2.221  17.684 -0.8677  1.5651  0.2855
  383TMC3    C2 5776   1.705   2.169  17.573 -0.0930 -0.3013  0.7132
  383TMC3    C3 5777   1.687   2.035  17.556  0.4517 -0.1463 -0.3915
  383TMC3    C4 5778   1.804   2.139   0.045  0.2718  0.2232  0.1899
  383TMC3    C5 5779   1.772   2.005   0.032  0.0083 -0.0089 -0.1079
  383TMC3    C6 5780   1.708   1.947  17.662 -0.0698  0.1712 -0.4991
  383TMC3     C 5781   1.771   2.366  17.687  0.2965 -0.0090  0.5329
  383TMC3     O 5782   1.736   2.432  17.589 -0.1895  0.0379 -0.0458
  383TMC3     H 5783   1.678   2.233  17.491 -3.7486 -3.9320 -0.9471
  383TMC3    H1 5784   1.850   2.176   0.136 -1.3297  2.8733 -0.1084
  383TMC3    H2 5785   1.671   1.846  17.661  2.0895 -0.6203 -0.7680
  383TMC3    C7 5786   1.821   1.912   0.141  0.6317 -0.5889  0.5662
  383TMC3    C8 5787   1.596   1.995  17.455  0.5672  0.7475 -0.1058
  383TMC3    O1 5788   1.881   1.956   0.241  0.2835 -0.0803 -0.3349
  383TMC3    O2 5789   1.504   2.075  17.437  0.1000 -0.5531  0.4098
  384MPD2     C 5790   3.647   3.021  12.932  0.4457  0.6742 -0.0337
  384MPD2    C1 5791   3.730   3.127  12.925  0.7392  0.1515  0.4765
  384MPD2    C2 5792   3.859   3.099  12.880  0.4068 -0.1349  0.5086
  384MPD2    C3 5793   3.903   2.969  12.848 -0.0928  0.1728 -0.1787
  384MPD2    C4 5794   3.810   2.868  12.855 -0.7696  0.4253  0.5971
  384MPD2    C5 5795   3.689   2.893  12.906  0.2226  0.0563 -0.1959
  384MPD2     H 5796   3.929   3.180  12.865 -3.0024  2.1728 -2.9942
  384MPD2    H1 5797   3.832   2.765  12.830 -3.2204  0.2867 -0.9899
  384MPD2    H2 5798   3.541   3.022  12.956  0.4670  0.5642  0.0640
  384MPD2    H3 5799   3.619   2.810  12.904  0.7147 -0.3563 -0.1683
  384MPD2     N 5800   4.029   2.952  12.793 -0.3078  0.1936  0.2801
  384MPD2    H5 5801   4.047   2.854  12.774  0.9447  0.9121 -2.2347
  384MPD2    N1 5802   3.691   3.257  12.971 -0.3756  0.4483  0.1852
  384MPD2    H7 5803   3.592   3.271  12.993 -0.2002 -3.1427  3.0914
  385TMC3    C1 5804   4.250   3.020  12.744 -0.6516  0.1225 -0.0978
  385TMC3    C2 5805   4.335   3.075  12.655 -0.2717 -0.1532 -0.2039
  385TMC3    C3 5806   4.461   3.118  12.692  0.6522  0.0948  0.1332
  385TMC3    C4 5807   4.297   2.993  12.869 -0.0530  0.6806 -0.2286
  385TMC3    C5 5808   4.421   3.046  12.906  0.6923  0.4688 -0.4619
  385TMC3    C6 5809   4.508   3.107  12.817 -0.2085  0.3833 -0.0076
  385TMC3     C 5810   4.112   3.051  12.739  0.1247 -0.2993 -0.5043
  385TMC3     O 5811   4.083   3.157  12.689 -0.5331 -0.1611 -0.4556
  385TMC3     H 5812   4.297   3.104  12.558 -2.1018 -0.1887  0.4852
  385TMC3    H1 5813   4.234   2.960  12.951 -0.1083 -1.6000 -1.1959
  385TMC3    H2 5814   4.584   3.179  12.845 -0.7898  1.0524 -0.1496
  385TMC3    C7 5815   4.389   3.138  13.004  0.4575  0.0151  0.3071
  385TMC3    C8 5816   4.540   3.194  12.594 -0.0505  0.2964  0.4271
  385TMC3    O1 5817   4.334   3.239  12.959  0.1384 -0.0111  0.2317
  385TMC3    O2 5818   4.630   3.270  12.635 -0.5797 -0.1351 -0.0248
  386TMC3    C1 5819   4.622   0.628  11.225  0.1873  0.3594  0.1251
  386TMC3    C2 5820   4.611   0.658  11.092  0.0410 -0.5211  0.5266
  386TMC3    C3 5821   4.487   0.690  11.040  0.2590  0.0574  0.0976
  386TMC3    C4 5822   4.517   0.627  11.311 -0.5995  0.0273  0.1735
  386TMC3    C5 5823   4.394   0.661  11.258 -0.7319  0.8122  0.4292
  386TMC3    C6 5824   4.378   0.687  11.127  0.1040  0.3336 -0.3878
  386TMC3     C 5825   0.009   0.556  11.266 -0.3329  0.7364  0.1582
  386TMC3     O 5826   0.115   0.593  11.220  0.0437 -1.2959  0.4389
  386TMC3     H 5827   4.690   0.672  11.019 -1.3186  0.6219 -0.7295
  386TMC3    H1 5828   4.540   0.629  11.416  0.5938 -0.0530 -0.0880
  386TMC3    H2 5829   4.275   0.708  11.101 -0.5427 -1.5510  0.6761
  386TMC3    C7 5830   4.282   0.701  11.343 -0.1370 -0.1455 -0.0646
  386TMC3    C8 5831   4.480   0.790  10.940 -0.2934  0.4952 -0.3156
  386TMC3    O1 5832   4.203   0.784  11.304  0.2587 -0.2799 -0.3151
  386TMC3    O2 5833   4.369   0.837  10.951 -0.3069 -0.3518  0.0978
  387MPD2     C 5834   2.508   1.578   9.944 -0.4785  0.1167 -0.1365
  387MPD2    C1 5835   2.630   1.526   9.990 -0.0931 -0.0410 -0.3890
  387MPD2    C2 5836   2.659   1.392   9.959  0.4219  0.2890  0.7160
  387MPD2    C3 5837   2.564   1.308   9.905  0.8983 -0.1263 -0.4070
  387MPD2    C4 5838   2.446   1.363   9.858 -0.1019  0.3929 -0.0527
  387MPD2    C5 5839   2.427   1.496   9.866 -0.5454  0.2518  0.8093
  387MPD2     H 5840   2.761   1.359   9.976  0.7327 -0.5300 -2.8788
  387MPD2    H1 5841   2.369   1.301   9.812  1.1773 -0.9944 -0.3417
  387MPD2    H2 5842   2.472   1.680   9.955  0.4065  0.1871  2.1189
  387MPD2    H3 5843   2.341   1.542   9.819  0.8311  2.4364  0.4081
  387MPD2     N 5844   2.587   1.170   9.941 -0.1515 -0.0669  0.3859
  387MPD2    H5 5845   2.684   1.149   9.965 -0.0317  1.4864  1.2973
  387MPD2    N1 5846   2.729   1.591  10.070  0.4241  0.1646  0.7417
  387MPD2    H7 5847   2.808   1.534  10.097  0.6012  0.6575  1.2771
  388TMC3    C1 5848   2.832   1.751  10.205 -0.6306  0.1326 -0.2958
  388TMC3    C2 5849   2.793   1.806  10.323 -0.2363  0.2637 -0.0012
  388TMC3    C3 5850   2.854   1.747  10.427  0.9268 -0.5582  0.5144
  388TMC3    C4 5851   2.939   1.665  10.190 -0.5511 -0.8352  0.3692
  388TMC3    C5 5852   2.995   1.609  10.301 -0.8433  0.7077 -0.1156
  388TMC3    C6 5853   2.960   1.656  10.422  0.3716 -0.6361  0.0065
  388TMC3     C 5854   2.718   1.723  10.114  0.1154 -0.5903  0.1985
  388TMC3     O 5855   2.612   1.780  10.125 -0.4049  0.1440  0.1856
  388TMC3     H 5856   2.698   1.857  10.332  0.7639  2.0174  0.5858
  388TMC3    H1 5857   2.969   1.640  10.089 -0.7333 -3.3475  0.9230
  388TMC3    H2 5858   3.022   1.630  10.507  0.0631  1.4834  0.8660
  388TMC3    C7 5859   2.998   1.465  10.288  0.4393 -0.0926 -0.3501
  388TMC3    C8 5860   2.852   1.824  10.550  0.5490 -0.1047  0.7383
  388TMC3    O1 5861   2.936   1.430  10.189 -0.3380  0.1910  0.2402
  388TMC3    O2 5862   2.866   1.769  10.657 -0.1604 -0.2761 -0.3173
  389MPD2     C 5863   1.850   4.390  11.241 -0.0139  1.2071 -1.3284
  389MPD2    C1 5864   1.735   4.344  11.184  0.2089  0.3244  0.0118
  389MPD2    C2 5865   1.671   4.240  11.251  0.0076  0.2125 -0.4718
  389MPD2    C3 5866   1.735   4.195  11.368  0.4019 -0.1342  0.0550
  389MPD2    C4 5867   1.853   4.242  11.416  0.8076  0.2466 -0.3758
  389MPD2    C5 5868   1.905   4.347  11.352  0.6671 -0.6292 -0.3635
  389MPD2     H 5869   1.585   4.191  11.206  0.2342 -0.6630  0.0603
  389MPD2    H1 5870   1.900   4.205  11.507  1.2651  0.0303 -0.7055
  389MPD2    H2 5871   1.914   4.464  11.194  0.0247  1.5559 -0.7328
  389MPD2    H3 5872   2.000   4.380  11.390 -0.8644 -1.4628  4.1052
  389MPD2     N 5873   1.687   4.087  11.453 -0.0651  1.4307  0.3130
  389MPD2    H5 5874   1.740   4.061  11.536 -1.4264 -1.4846  0.2773
  389MPD2    N1 5875   1.697   4.395  11.052  0.5143  0.0425  0.0148
  389MPD2    H7 5876   1.760   4.465  11.016  1.5666 -1.5564 -1.2719
  390TMC3    C1 5877   1.553   3.926  11.550 -0.0163 -0.9299  0.0357
  390TMC3    C2 5878   1.468   3.823  11.536 -0.5753  0.3751 -0.1709
  390TMC3    C3 5879   1.410   3.765  11.645  0.4226 -0.4068 -0.2526
  390TMC3    C4 5880   1.581   3.985  11.672 -0.7280  0.0250  0.1765
  390TMC3    C5 5881   1.523   3.932  11.781 -0.0271 -0.3237  0.2672
  390TMC3    C6 5882   1.445   3.815  11.770 -0.1137  0.0754  0.6049
  390TMC3     C 5883   1.575   4.007  11.431  0.9396 -0.6797  0.6367
  390TMC3     O 5884   1.512   3.982  11.331  0.7084  0.2550 -0.1296
  390TMC3     H 5885   1.434   3.797  11.437 -2.0389  0.0217  0.4159
  390TMC3    H1 5886   1.629   4.082  11.682 -1.8201  0.3479  2.2351
  390TMC3    H2 5887   1.403   3.767  11.859 -2.9118  0.0287 -0.7439
  390TMC3    C7 5888   1.484   4.027  11.881  0.2995  0.1128  0.1639
  390TMC3    C8 5889   1.312   3.662  11.632 -0.3495  0.0755 -0.2726
  390TMC3    O1 5890   1.543   4.134  11.872  0.0781  0.0579 -0.2800
  390TMC3    O2 5891   1.315   3.582  11.539  0.2385  0.2557  0.0626
  391MPD2     C 5892   0.985   0.855  10.969  0.6216 -0.2999  0.1686
  391MPD2    C1 5893   1.046   0.978  10.957  0.7009  0.7041 -0.8214
  391MPD2    C2 5894   1.070   1.039  10.831 -0.3232  0.3953  0.5370
  391MPD2    C3 5895   1.035   0.966  10.717  0.1671  0.5692 -0.0469
  391MPD2    C4 5896   0.982   0.835  10.722  0.1653  1.1578  0.2492
  391MPD2    C5 5897   0.939   0.793  10.854  0.5154 -0.1609 -0.2156
  391MPD2     H 5898   1.114   1.138  10.822  1.2832 -0.4996 -1.3716
  391MPD2    H1 5899   0.952   0.766  10.644  0.2564  1.5252 -0.1032
  391MPD2    H2 5900   0.965   0.802  11.061  0.3014  0.7782  0.7260
  391MPD2    H3 5901   0.909   0.690  10.862 -1.3855  0.4032 -0.1655
  391MPD2     N 5902   1.077   1.021  10.591 -0.1442 -0.6249 -0.3455
  391MPD2    H5 5903   1.111   1.116  10.597 -0.1119 -0.5631 -1.4712
  391MPD2    N1 5904   1.084   1.040  11.083 -0.0417  0.4690  0.1788
  391MPD2    H7 5905   1.039   0.995  11.162 -1.6942 -0.8638 -1.5174
  392TMC3    C1 5906   1.070   1.077  10.363  0.8716  0.3034  0.7128
  392TMC3    C2 5907   0.975   1.098  10.269 -1.2048 -0.4123  0.1245
  392TMC3    C3 5908   0.987   1.198  10.185  0.2630  0.2834 -0.8163
  392TMC3    C4 5909   1.187   1.144  10.368 -0.2225  0.3385 -1.0028
  392TMC3    C5 5910   1.192   1.252  10.283  0.2407  0.3043  0.3655
  392TMC3    C6 5911   1.095   1.284  10.192 -0.3969  0.4263 -0.0299
  392TMC3     C 5912   1.055   0.966  10.461  0.2197 -0.1805 -0.0903
  392TMC3     O 5913   0.999   0.863  10.427  0.3543  0.0918  0.0515
  392TMC3     H 5914   0.906   1.016  10.253 -1.6640  0.2065 -1.0339
  392TMC3    H1 5915   1.264   1.120  10.440 -1.5576 -0.0940  0.2863
  392TMC3    H2 5916   1.118   1.364  10.122  1.5480 -1.6009 -1.6982
  392TMC3    C7 5917   1.315   1.324  10.282 -0.1607 -0.3113  0.2606
  392TMC3    C8 5918   0.880   1.227  10.081  1.2225 -0.4244 -0.0466
  392TMC3    O1 5919   1.397   1.292  10.370  0.4752  0.2173  0.4988
  392TMC3    O2 5920   0.793   1.146  10.071 -0.3811  0.4451 -0.3397
  393TMC3    C1 5921   4.389   3.924  10.716  0.0064 -0.1474 -0.2476
  393TMC3    C2 5922   4.250   3.935  10.741  0.0160  0.0489  0.4215
  393TMC3    C3 5923   4.177   3.818  10.758 -0.7949  0.2117  0.4420
  393TMC3    C4 5924   4.450   3.801  10.719  0.2615 -0.4341  0.3397
  393TMC3    C5 5925   4.372   3.687  10.753 -0.3382  0.1818  0.1223
  393TMC3    C6 5926   4.235   3.698  10.763 -0.1947 -0.0975 -0.1262
  393TMC3     C 5927   4.438   4.016  10.617  0.1097  0.1189 -0.1087
  393TMC3     O 5928   4.355   4.030  10.529 -0.4482 -0.2872 -0.1954
  393TMC3     H 5929   4.207   4.032  10.719 -0.5910  0.1822  2.2112
  393TMC3    H1 5930   4.555   3.786  10.693 -0.3586 -0.9352 -1.9392
  393TMC3    H2 5931   4.174   3.608  10.766  0.1951 -0.3795 -0.6295
  393TMC3    C7 5932   4.439   3.563  10.788  0.2766 -0.3953  0.2871
  393TMC3    C8 5933   4.038   3.840  10.714  0.0613  0.1687 -0.0665
  393TMC3    O1 5934   4.381   3.456  10.770  0.2269  0.2315 -0.3991
  393TMC3    O2 5935   4.019   3.942  10.654 -0.2087  0.0308 -0.1441
  394TMC3    C1 5936   1.571   4.431  10.853  0.2348  0.3254  0.3168
  394TMC3    C2 5937   1.476   4.385  10.765 -0.1228 -0.2816 -0.1338
  394TMC3    C3 5938   1.469   4.442  10.642 -0.4265  0.5499  0.4008
  394TMC3    C4 5939   1.651   4.536  10.818 -0.9112  0.0054  0.4599
  394TMC3    C5 5940   1.644   4.583  10.685  0.1512  0.4981 -0.7671
  394TMC3    C6 5941   1.560   4.529  10.600 -0.3347  0.1031  0.3337
  394TMC3     C 5942   1.582   4.365  10.985 -0.3921  0.1180  0.0742
  394TMC3     O 5943   1.492   4.287  11.018  0.5171  0.0379 -0.2517
  394TMC3     H 5944   1.409   4.308  10.800 -0.0030 -0.6517 -0.7329
  394TMC3    H1 5945   1.725   4.582  10.883 -1.3352 -0.6654  1.4245
  394TMC3    H2 5946   1.550   4.581  10.506  0.4685  0.3378  0.3835
  394TMC3    C7 5947   1.717   4.697  10.643  0.7606  0.5446  0.3973
  394TMC3    C8 5948   1.427   4.353  10.539  0.4375  0.5778  0.2868
  394TMC3    O1 5949   1.655   0.036  10.569 -0.6533 -0.4398 -0.2232
  394TMC3    O2 5950   1.411   4.238  10.571 -0.2958  0.4652  0.0032
  395TMC3    C1 5951   0.608   1.532  14.713 -0.0345 -0.4709 -0.3953
  395TMC3    C2 5952   0.627   1.443  14.609  0.1817 -0.4279 -0.3943
  395TMC3    C3 5953   0.690   1.497  14.502  0.1213 -0.4570 -1.0902
  395TMC3    C4 5954   0.630   1.667  14.698  1.0318 -0.7423  0.5849
  395TMC3    C5 5955   0.675   1.720  14.578 -0.0757 -0.2681 -0.2507
  395TMC3    C6 5956   0.710   1.630  14.482 -0.2796 -1.1433 -0.3086
  395TMC3     C 5957   0.580   1.487  14.852  0.2004  0.1169  0.1174
  395TMC3     O 5958   0.574   1.579  14.927 -0.4669  0.0747 -0.1916
  395TMC3     H 5959   0.617   1.338  14.634 -0.3234 -0.8631 -2.4780
  395TMC3    H1 5960   0.611   1.734  14.782  1.3305  0.1764 -0.0764
  395TMC3    H2 5961   0.755   1.661  14.389 -1.9137  1.1906 -0.3212
  395TMC3    C7 5962   0.749   1.840  14.588 -0.2848  0.3534  0.5536
  395TMC3    C8 5963   0.746   1.410  14.398  0.2298 -0.6648  0.1777
  395TMC3    O1 5964   0.793   1.874  14.700 -0.0427 -0.1365  0.1213
  395TMC3    O2 5965   0.841   1.459  14.341  0.4689  0.5237 -0.0436
  396MPD2     C 5966   0.037   2.490  17.257  0.9558 -0.6934  0.2545
  396MPD2    C1 5967   0.176   2.490  17.283 -1.0375 -0.0421  0.0993
  396MPD2    C2 5968   0.252   2.583  17.224  0.3495 -0.4771  0.8876
  396MPD2    C3 5969   0.197   2.672  17.132  0.1163 -0.3792  0.6807
  396MPD2    C4 5970   0.059   2.663  17.102 -0.7974  0.2058 -0.6222
  396MPD2    C5 5971   4.712   2.561  17.158 -0.1701 -0.2711  0.5685
  396MPD2     H 5972   0.355   2.601  17.250  0.0578  0.6363  1.2661
  396MPD2    H1 5973   0.020   2.737  17.033 -1.0210  2.0202  1.4607
  396MPD2    H2 5974   4.709   2.414  17.302 -0.5177  0.3035 -0.1776
  396MPD2    H3 5975   4.606   2.560  17.140 -0.2387 -0.7131  0.9779
  396MPD2     N 5976   0.276   2.766  17.074  0.1955 -0.1027  0.6193
  396MPD2    H5 5977   0.372   2.776  17.108  1.0757  0.4384 -2.0153
  396MPD2    N1 5978   0.215   2.378  17.366 -0.7052 -0.1999  0.5297
  396MPD2    H7 5979   0.141   2.315  17.397  0.1153 -1.8496 -0.8490
  397TMC3    C1 5980   0.370   2.218  17.421 -0.2982  0.2507 -0.2010
  397TMC3    C2 5981   0.484   2.182  17.353 -0.0569 -0.8023 -1.2440
  397TMC3    C3 5982   0.476   2.115  17.230 -0.2076  0.0123 -0.3806
  397TMC3    C4 5983   0.256   2.154  17.383  0.2403  0.5211  0.5596
  397TMC3    C5 5984   0.258   2.063  17.281  0.3136 -0.1623 -0.0068
  397TMC3    C6 5985   0.364   2.050  17.196  0.1036 -0.6460 -0.1516
  397TMC3     C 5986   0.345   2.359  17.393  0.3424 -0.4970 -0.0839
  397TMC3     O 5987   0.439   2.434  17.387  0.3856 -0.2138  0.1324
  397TMC3     H 5988   0.568   2.250  17.361 -1.2985  0.4406  1.1552
  397TMC3    H1 5989   0.163   2.157  17.439 -0.5929 -0.8639 -0.7172
  397TMC3    H2 5990   0.365   1.993  17.104 -0.8680  0.2482 -0.7152
  397TMC3    C7 5991   0.211   1.926  17.309  0.2714 -0.7772 -0.0246
  397TMC3    C8 5992   0.564   2.157  17.122 -0.0582 -0.4681  0.1860
  397TMC3    O1 5993   0.234   1.842  17.226 -0.7483  0.3842  0.2899
  397TMC3    O2 5994   0.508   2.159  17.017  0.1216 -0.1362 -0.4688
  398MPD2     C 5995   3.138   3.814   0.570  0.1626  0.5475 -0.6887
  398MPD2    C1 5996   3.229   3.722   0.511 -0.4418  0.1047  0.6604
  398MPD2    C2 5997   3.360   3.761   0.490  0.4850  0.7221 -0.7450
  398MPD2    C3 5998   3.396   3.892   0.516  0.2905 -0.8760 -0.0699
  398MPD2    C4 5999   3.304   3.981   0.560 -0.3672  0.3936  0.0243
  398MPD2    C5 6000   3.178   3.939   0.588 -0.4504 -0.3809 -0.0091
  398MPD2     H 6001   3.424   3.696   0.432  1.2880  1.6734 -0.9260
  398MPD2    H1 6002   3.335   4.079   0.594 -0.5434  0.6352 -0.5085
  398MPD2    H2 6003   3.039   3.788   0.604  1.0919 -0.8030  1.0111
  398MPD2    H3 6004   3.118   4.016   0.636  0.2530  1.1276 -1.5395
  398MPD2     N 6005   3.529   3.931   0.467  0.1628 -0.6152  0.2107
  398MPD2    H5 6006   3.593   3.855   0.444  0.6413 -0.2663  0.3764
  398MPD2    N1 6007   3.192   3.588   0.483  0.2201 -0.1253  0.0130
  398MPD2    H7 6008   3.259   3.525   0.439  0.1658 -0.9148  1.0639
  399TMC3    C1 6009   3.062   3.395   0.482  0.7733  0.1849  0.0097
  399TMC3    C2 6010   3.166   3.313   0.477 -0.0746  0.6825 -0.2899
  399TMC3    C3 6011   3.145   3.178   0.455 -0.2816 -0.2958 -0.3057
  399TMC3    C4 6012   2.937   3.340   0.483 -0.5818  0.4627 -0.0970
  399TMC3    C5 6013   2.919   3.205   0.457 -0.0165  0.9770 -0.2150
  399TMC3    C6 6014   3.021   3.124   0.440 -0.4330  0.0607  0.2951
  399TMC3     C 6015   3.065   3.537   0.501 -0.5822 -0.6525  0.0975
  399TMC3     O 6016   2.968   3.592   0.549 -0.2905 -0.0288  0.0708
  399TMC3     H 6017   3.265   3.346   0.504 -0.3789  1.2057  0.1870
  399TMC3    H1 6018   2.858   3.409   0.510 -0.3635  0.1453  1.3826
  399TMC3    H2 6019   3.003   3.018   0.426 -0.6713  0.3278 -1.4620
  399TMC3    C7 6020   2.782   3.149   0.459 -0.3394 -0.8681  0.6390
  399TMC3    C8 6021   3.264   3.102   0.437  0.2960 -1.1321 -0.1091
  399TMC3    O1 6022   2.772   3.031   0.441  0.5416  0.3823  0.2560
  399TMC3    O2 6023   3.373   3.146   0.462  0.3144 -0.3058 -0.1526
  400TMC3    C1 6024   1.731   1.732  16.795  0.0113  0.0222  0.6182
  400TMC3    C2 6025   1.643   1.768  16.698  0.5625  0.1118  0.2361
  400TMC3    C3 6026   1.554   1.866  16.731  0.9573 -0.5707  0.3733
  400TMC3    C4 6027   1.755   1.802  16.910 -0.1506 -0.1995 -0.1932
  400TMC3    C5 6028   1.677   1.908  16.927 -0.0386 -0.1834 -0.0849
  400TMC3    C6 6029   1.579   1.942  16.832  0.4180  0.4857  0.8463
  400TMC3     C 6030   1.791   1.595  16.785 -0.4759 -0.5872 -0.2715
  400TMC3     O 6031   1.826   1.555  16.675 -0.1633  0.0516  0.7889
  400TMC3     H 6032   1.625   1.707  16.610 -0.5050  0.9864 -0.1413
  400TMC3    H1 6033   1.845   1.779  16.965 -0.1866  0.4961  0.1477
  400TMC3    H2 6034   1.517   2.031  16.844 -2.6979 -1.4451 -0.9793
  400TMC3    C7 6035   1.730   2.007  17.026  1.1134 -0.0978 -0.0399
  400TMC3    C8 6036   1.429   1.881  16.659  0.3660 -0.5174 -0.4885
  400TMC3    O1 6037   1.849   2.004  17.053  0.1080  0.1478 -0.2104
  400TMC3    O2 6038   1.348   1.967  16.690  0.0692  0.5678 -0.1109
  401MPD2     C 6039   0.321   0.716   0.986  0.6849  0.8217 -0.4691
  401MPD2    C1 6040   0.354   0.584   1.021 -0.1481 -0.2388  0.0048
  401MPD2    C2 6041   0.295   0.485   0.941 -0.3137 -0.4423  0.4349
  401MPD2    C3 6042   0.196   0.510   0.842  0.0221 -0.8657  0.4471
  401MPD2    C4 6043   0.161   0.648   0.823 -0.1619  0.2277 -0.6525
  401MPD2    C5 6044   0.225   0.743   0.893 -0.1660 -0.2671  0.1308
  401MPD2     H 6045   0.318   0.384   0.973 -1.2327 -0.7605  0.0925
  401MPD2    H1 6046   0.086   0.684   0.754 -1.0643 -0.8628 -0.2268
  401MPD2    H2 6047   0.364   0.802   1.037 -2.2408  1.8986  0.1907
  401MPD2    H3 6048   0.204   0.849   0.883  0.0346 -0.1243  1.2119
  401MPD2     N 6049   0.157   0.400   0.763  0.5193 -0.0447  0.1394
  401MPD2    H5 6050   0.184   0.307   0.792 -0.0127 -0.7552 -1.6402
  401MPD2    N1 6051   0.451   0.555   1.117 -0.1748 -0.5848 -0.4450
  401MPD2    H7 6052   0.495   0.464   1.106  1.7357  0.4294 -1.1708
  402TMC3    C1 6053   0.060   0.270   0.593 -0.2164  0.5308 -0.3682
  402TMC3    C2 6054   0.033   0.165   0.674 -0.0815 -0.1073  0.2411
  402TMC3    C3 6055   4.713   0.051   0.614 -0.7502  0.1994  0.1254
  402TMC3    C4 6056   0.043   0.261   0.459  0.4534  1.1367  0.0426
  402TMC3    C5 6057   4.723   0.147   0.405  0.2182 -0.3494 -0.4872
  402TMC3    C6 6058   4.685   0.039   0.478  0.2106 -0.1210  0.3968
  402TMC3     C 6059   0.080   0.403   0.646 -0.3056 -0.2193  0.4326
  402TMC3     O 6060   0.043   0.499   0.580  0.2826  0.7118 -0.0987
  402TMC3     H 6061   0.041   0.163   0.782 -4.3988 -0.4475  0.5797
  402TMC3    H1 6062   0.090   0.335   0.395 -0.8811  0.7733 -1.3593
  402TMC3    H2 6063   4.631   4.689   0.441 -0.6332  1.4555 -2.0277
  402TMC3    C7 6064   4.717   0.145   0.264  0.1012  0.8632  0.5319
  402TMC3    C8 6065   4.684   4.671   0.696 -0.3787 -0.2744  0.7298
  402TMC3    O1 6066   0.000   0.248   0.202 -0.7601  0.3673  0.2807
  402TMC3    O2 6067   0.023   4.648   0.794 -0.0835 -0.3888 -0.6073
  403MPD2     C 6068   3.668   3.043  13.295 -1.4562  0.3239 -0.3236
  403MPD2    C1 6069   3.596   3.014  13.405  0.4723  0.6427  0.2424
  403MPD2    C2 6070   3.652   2.975  13.520 -0.4396 -0.2462  0.0289
  403MPD2    C3 6071   3.788   2.985  13.527  0.0092 -0.7996  0.0934
  403MPD2    C4 6072   3.866   3.018  13.420  0.2707  0.4658 -0.9601
  403MPD2    C5 6073   3.806   3.049  13.300  0.0247  0.0455 -0.2323
  403MPD2     H 6074   3.596   2.951  13.610 -1.0549  2.0539  0.2799
  403MPD2    H1 6075   3.974   3.025  13.416  0.3442  0.1660  0.4303
  403MPD2    H2 6076   3.625   3.077  13.201  1.5166 -0.6173 -2.0338
  403MPD2    H3 6077   3.862   3.073  13.211 -1.0691  0.8902 -0.6911
  403MPD2     N 6078   3.836   2.968  13.655  0.1657  0.0431 -0.1040
  403MPD2    H5 6079   3.766   2.962  13.728  1.4230  0.0892  1.1113
  403MPD2    N1 6080   3.458   3.018  13.391 -0.1181 -0.1207 -0.2157
  403MPD2    H7 6081   3.418   3.027  13.298 -1.0874  2.1787  0.4171
  404TMC3    C1 6082   3.233   3.046  13.448 -0.5342 -0.1726  0.1424
  404TMC3    C2 6083   3.136   2.989  13.518  0.2206  0.1452  0.0521
  404TMC3    C3 6084   3.027   2.934  13.452 -0.2895 -0.4214 -0.1231
  404TMC3    C4 6085   3.217   3.073  13.319  0.1559 -0.6252 -0.3133
  404TMC3    C5 6086   3.095   3.038  13.263  0.3670 -0.1065 -0.3561
  404TMC3    C6 6087   3.005   2.951  13.320  0.1912  0.1605 -0.6065
  404TMC3     C 6088   3.366   3.017  13.490  0.2104  0.1331 -0.6849
  404TMC3     O 6089   3.384   3.007  13.613  0.0293  0.0955  0.4314
  404TMC3     H 6090   3.163   2.953  13.617  1.9149  1.5576  0.1158
  404TMC3    H1 6091   3.289   3.131  13.263  1.8089 -0.6183  1.8361
  404TMC3    H2 6092   2.921   2.897  13.277 -0.2700  1.1947 -0.9887
  404TMC3    C7 6093   3.070   3.084  13.126  0.2492  0.0014  0.5302
  404TMC3    C8 6094   3.018   2.799  13.494  0.0448  0.0387  0.6251
  404TMC3    O1 6095   3.152   3.160  13.079 -0.3069 -0.0666  0.3053
  404TMC3    O2 6096   3.056   2.716  13.415 -0.0069 -0.0466  0.1532
  405MPD2     C 6097   3.532   0.136  15.362 -0.4503 -0.9241 -0.3427
  405MPD2    C1 6098   3.615   0.043  15.287 -1.0631  0.6029  0.0806
  405MPD2    C2 6099   3.596   0.045  15.148 -0.2670  0.0875  0.0119
  405MPD2    C3 6100   3.500   0.124  15.087 -0.4386 -0.1396  0.3672
  405MPD2    C4 6101   3.416   0.207  15.160 -0.1305 -0.4268  0.4093
  405MPD2    C5 6102   3.430   0.209  15.297  0.0732 -0.9026 -1.1569
  405MPD2     H 6103   3.656   4.708  15.095 -1.7851 -0.0252 -1.5646
  405MPD2    H1 6104   3.334   0.262  15.116 -0.1352 -0.2291  0.6597
  405MPD2    H2 6105   3.528   0.150  15.469  0.8572 -0.4574 -0.3531
  405MPD2    H3 6106   3.364   0.265  15.361  2.0186 -0.8362  0.7702
  405MPD2     N 6107   3.479   0.094  14.950  0.1274  1.1570 -0.7641
  405MPD2    H5 6108   3.554   0.039  14.909 -0.8749 -0.8406  0.0508
  405MPD2    N1 6109   3.693   4.693  15.363  0.1928 -0.5378 -0.4413
  405MPD2    H7 6110   3.708   4.714  15.461  1.1584 -1.8183 -0.3146
  406TMC3    C1 6111   3.225   4.719  14.580  0.0443 -0.5848 -0.3056
  406TMC3    C2 6112   3.263   4.589  14.585  0.2642  0.1365 -0.2827
  406TMC3    C3 6113   3.352   4.548  14.681  0.1796  0.4219  0.0093
  406TMC3    C4 6114   3.258   0.078  14.675 -0.2222 -0.6574  0.1595
  406TMC3    C5 6115   3.347   0.039  14.771  0.3431  0.0498 -0.6974
  406TMC3    C6 6116   3.395   4.645  14.775 -0.5149 -0.3730 -0.3395
  406TMC3     C 6117   3.120   0.024  14.486  0.0072  0.3193 -0.3661
  406TMC3     O 6118   3.118   0.143  14.450 -0.7027 -0.1676 -0.6364
  406TMC3     H 6119   3.228   4.515  14.514  1.4074 -1.8935  1.2385
  406TMC3    H1 6120   3.217   0.179  14.679 -0.6452 -0.8635  0.9384
  406TMC3    H2 6121   3.436   4.608  14.868 -2.0855 -0.3775  0.3612
  406TMC3    C7 6122   3.359   0.123  14.886  0.1246  0.3668 -0.0075
  406TMC3    C8 6123   3.360   4.409  14.716 -0.1289  0.0706 -0.1245
  406TMC3    O1 6124   3.267   0.196  14.908  0.4104  0.2980 -0.2058
  406TMC3    O2 6125   3.265   4.341  14.687 -0.4881  0.0285  0.3024
  407MPD2     C 6126   2.055   0.893   9.532  0.1534 -0.6046 -0.3440
  407MPD2    C1 6127   2.131   0.922   9.646 -0.0898 -0.1117  0.3921
  407MPD2    C2 6128   2.081   0.916   9.769  0.7702 -0.4188  1.1301
  407MPD2    C3 6129   1.946   0.882   9.786 -0.3712 -0.2936 -0.4103
  407MPD2    C4 6130   1.876   0.849   9.671 -0.2415  0.4139 -0.4735
  407MPD2    C5 6131   1.925   0.858   9.544  0.0547  0.2480  0.0699
  407MPD2     H 6132   2.138   0.945   9.857  1.9136 -0.7634  0.4996
  407MPD2    H1 6133   1.770   0.824   9.666 -0.4201  1.0078  0.3578
  407MPD2    H2 6134   2.101   0.890   9.434  1.7936 -0.5336  0.4321
  407MPD2    H3 6135   1.858   0.838   9.461  1.0177 -0.7570 -0.4818
  407MPD2     N 6136   1.878   0.910   9.911 -0.4537  0.0323 -0.2414
  407MPD2    H5 6137   1.777   0.905   9.906 -0.4034 -1.0288 -0.1877
  407MPD2    N1 6138   2.273   0.951   9.640  0.1789 -0.4629  1.2512
  407MPD2    H7 6139   2.323   0.981   9.723  1.1960  0.2474  0.3905
  408TMC3    C1 6140   2.477   1.025   9.553  0.6941 -0.3797  0.2524
  408TMC3    C2 6141   2.557   0.950   9.630  0.0085 -0.1799  0.2526
  408TMC3    C3 6142   2.676   1.005   9.659 -0.6385 -0.3215 -0.4783
  408TMC3    C4 6143   2.520   1.150   9.512 -0.3422  0.6541  0.6335
  408TMC3    C5 6144   2.635   1.206   9.560  0.4355 -0.3910 -0.0260
  408TMC3    C6 6145   2.723   1.135   9.632  0.0644  0.1409  0.0506
  408TMC3     C 6146   2.341   0.985   9.521 -0.0100 -0.1906 -0.5108
  408TMC3     O 6147   2.291   1.009   9.412 -0.0593 -0.6856  0.6719
  408TMC3     H 6148   2.526   0.852   9.663  1.3928 -0.4107  0.8722
  408TMC3    H1 6149   2.444   1.206   9.459  0.7162 -2.2695 -3.9496
  408TMC3    H2 6150   2.803   1.194   9.674 -0.3305  0.4321  0.3903
  408TMC3    C7 6151   2.657   1.347   9.557 -0.9075  0.5296  0.4057
  408TMC3    C8 6152   2.781   0.914   9.709 -0.1709 -0.8997  0.0544
  408TMC3    O1 6153   2.717   1.394   9.656  0.0440 -0.6831 -0.0679
  408TMC3    O2 6154   2.752   0.806   9.760 -1.3782  0.0612  0.2463
  409MPD2     C 6155   0.389   1.590  16.815 -0.1441 -0.1901 -0.4384
  409MPD2    C1 6156   0.508   1.560  16.874 -0.0475 -0.2223 -0.0713
  409MPD2    C2 6157   0.599   1.668  16.895  0.2560  0.3530  0.0179
  409MPD2    C3 6158   0.583   1.795  16.848 -0.0880  0.7245  0.8802
  409MPD2    C4 6159   0.467   1.824  16.778 -0.1252 -0.2477  0.9926
  409MPD2    C5 6160   0.371   1.719  16.766 -0.0394  0.4583 -0.1967
  409MPD2     H 6161   0.694   1.638  16.936 -0.5296  1.3253  2.5368
  409MPD2    H1 6162   0.442   1.920  16.735  0.8963 -1.2524 -1.8590
  409MPD2    H2 6163   0.313   1.513  16.809  2.4462 -2.7334 -0.2762
  409MPD2    H3 6164   0.274   1.731  16.719 -0.1196 -0.2647 -0.2102
  409MPD2     N 6165   0.690   1.893  16.842 -0.8545 -0.4175  0.3845
  409MPD2    H5 6166   0.678   1.966  16.772 -0.2394  1.8222  2.6195
  409MPD2    N1 6167   0.542   1.438  16.928  0.4856 -0.4633 -0.3017
  409MPD2    H7 6168   0.629   1.435  16.979  0.8429 -0.5455 -0.9129
  410TMC3    C1 6169   0.908   1.982  16.910 -0.3517 -0.4033  0.0951
  410TMC3    C2 6170   1.010   1.966  16.994  0.7038 -0.7035  0.0706
  410TMC3    C3 6171   1.130   2.029  16.960  0.2178  0.0051 -0.6110
  410TMC3    C4 6172   0.908   2.066  16.800 -0.2538  0.5255 -0.0989
  410TMC3    C5 6173   1.023   2.141  16.786  0.2187  0.1224 -0.1539
  410TMC3    C6 6174   1.138   2.123  16.858  0.6187  0.3510  0.4522
  410TMC3     C 6175   0.802   1.884  16.928 -0.3304 -0.2952 -0.3189
  410TMC3     O 6176   0.815   1.804  17.025  0.0483 -0.3430  0.4276
  410TMC3     H 6177   1.013   1.884  17.065  0.3929  1.4193  2.5409
  410TMC3    H1 6178   0.823   2.077  16.734 -0.7276 -2.4992  0.0025
  410TMC3    H2 6179   1.226   2.179  16.830  0.2157 -0.1134 -1.7801
  410TMC3    C7 6180   1.030   2.231  16.672 -0.0681 -0.8486 -0.2960
  410TMC3    C8 6181   1.247   1.999  17.039 -0.0374  0.0733 -0.4218
  410TMC3    O1 6182   0.942   2.214  16.588 -0.0377  0.4001  0.2794
  410TMC3    O2 6183   1.334   2.086  17.041 -0.1027 -0.0958 -0.5622
  411MPD2     C 6184   0.755   2.448  14.143  0.1437 -0.6105  0.5095
  411MPD2    C1 6185   0.700   2.444  14.272  0.1519 -0.1624 -0.3841
  411MPD2    C2 6186   0.599   2.356  14.307  0.0114 -0.1409  0.2334
  411MPD2    C3 6187   0.533   2.289  14.203 -0.6547 -0.2871 -0.2087
  411MPD2    C4 6188   0.574   2.311  14.071  0.2455 -0.5270  0.1537
  411MPD2    C5 6189   0.688   2.381  14.045 -0.2033 -0.3135 -0.7698
  411MPD2     H 6190   0.580   2.332  14.412  3.3501  0.5185  0.9786
  411MPD2    H1 6191   0.539   2.254  13.986 -0.9840 -1.1104  1.0523
  411MPD2    H2 6192   0.853   2.490  14.122  0.0878 -1.0770 -0.6672
  411MPD2    H3 6193   0.734   2.376  13.947  0.2295 -1.4756 -0.5104
  411MPD2     N 6194   0.426   2.198  14.220 -0.3750 -0.1657 -0.0587
  411MPD2    H5 6195   0.391   2.164  14.131 -1.1451  2.3136 -0.7087
  411MPD2    N1 6196   0.775   2.519  14.367 -0.5048 -0.1381  0.3920
  411MPD2    H7 6197   0.848   2.574  14.324 -2.0897 -0.7596 -3.1566
  412TMC3    C1 6198   0.317   2.016  14.300  0.1103  0.2562  0.7016
  412TMC3    C2 6199   0.257   2.032  14.177  0.1329 -0.6167 -1.1113
  412TMC3    C3 6200   0.264   1.928  14.089  0.1169 -0.2924  0.5167
  412TMC3    C4 6201   0.385   1.908  14.331 -0.1927 -0.1170  0.2183
  412TMC3    C5 6202   0.372   1.800  14.241  0.7932  0.5780 -0.3222
  412TMC3    C6 6203   0.310   1.802  14.121  0.1736 -0.2047 -0.4064
  412TMC3     C 6204   0.384   2.137  14.341  0.2257  0.0707 -0.2098
  412TMC3     O 6205   0.439   2.143  14.455  0.3547 -0.1179 -0.3985
  412TMC3     H 6206   0.212   2.125  14.145  1.2981 -0.1906 -1.5150
  412TMC3    H1 6207   0.456   1.911  14.412  2.5992  0.7537 -2.2632
  412TMC3    H2 6208   0.317   1.727  14.043  0.2990 -1.0750  0.4451
  412TMC3    C7 6209   0.497   1.723  14.239 -0.2858 -0.4955  0.0563
  412TMC3    C8 6210   0.328   1.983  13.969 -0.2190 -0.4293  0.1685
  412TMC3    O1 6211   0.598   1.794  14.220 -0.1930  0.0431  0.1874
  412TMC3    O2 6212   0.295   2.098  13.941  0.2041 -0.0515  0.2956
  413MPD2     C 6213   2.564   1.127  15.675 -0.5825  0.0494  0.3626
  413MPD2    C1 6214   2.536   1.099  15.545 -0.0149  0.5382  0.4342
  413MPD2    C2 6215   2.625   1.038  15.466 -0.2355  0.0713  0.2604
  413MPD2    C3 6216   2.754   1.005  15.509 -0.3215 -0.3946 -0.1591
  413MPD2    C4 6217   2.786   1.034  15.639 -0.4090  0.1862  0.2633
  413MPD2    C5 6218   2.696   1.101  15.719  0.2412  0.1455 -0.5741
  413MPD2     H 6219   2.605   1.005  15.365 -1.9585  0.9203  0.3278
  413MPD2    H1 6220   2.880   1.008  15.687 -0.9762 -2.4986 -0.1072
  413MPD2    H2 6221   2.502   1.198  15.728 -0.3654  0.3013  0.2806
  413MPD2    H3 6222   2.731   1.132  15.817  2.0768  0.7072 -1.4092
  413MPD2     N 6223   2.832   0.922  15.427 -0.2013  0.0774  0.0960
  413MPD2    H5 6224   2.790   0.891  15.340  1.4869  0.4502 -0.8633
  413MPD2    N1 6225   2.409   1.122  15.492  0.8352  0.4640 -0.0457
  413MPD2    H7 6226   2.342   1.171  15.550  1.2536  1.5549 -0.4769
  414TMC3    C1 6227   2.986   0.758  15.348 -0.1444  0.4336 -0.2080
  414TMC3    C2 6228   3.020   0.633  15.379  0.4109 -0.4291 -0.6389
  414TMC3    C3 6229   3.041   0.545  15.280 -0.3529  0.2331 -0.0138
  414TMC3    C4 6230   2.967   0.801  15.217 -0.2974 -0.4521  0.0832
  414TMC3    C5 6231   2.991   0.706  15.114 -0.3829  0.2202 -0.4363
  414TMC3    C6 6232   3.016   0.574  15.149 -0.1048  0.3938 -0.1995
  414TMC3     C 6233   2.948   0.851  15.456  0.4870  0.8966  0.4139
  414TMC3     O 6234   3.004   0.827  15.561  0.0164  0.3817 -0.3185
  414TMC3     H 6235   3.028   0.606  15.484 -1.7518 -0.2016 -0.4229
  414TMC3    H1 6236   2.944   0.902  15.184  1.5442  0.1982  0.8163
  414TMC3    H2 6237   3.031   0.503  15.069 -0.1734 -0.1909  0.3064
  414TMC3    C7 6238   2.941   0.749  14.981 -0.6122 -0.5232 -0.1662
  414TMC3    C8 6239   3.078   0.409  15.313 -0.1553 -0.5209 -0.7928
  414TMC3    O1 6240   2.860   0.841  14.986  0.5253 -0.0731  0.2986
  414TMC3    O2 6241   3.115   0.337  15.224  0.1739  0.5924 -0.6476
  415TMC3    C1 6242   4.123   3.318  10.578 -0.2662 -0.8422  0.2045
  415TMC3    C2 6243   4.251   3.327  10.534  0.5163  0.4463 -0.1602
  415TMC3    C3 6244   4.290   3.409  10.435  0.3669 -0.7682 -0.4211
  415TMC3    C4 6245   4.020   3.385  10.512 -0.7732 -0.0664 -0.7549
  415TMC3    C5 6246   4.064   3.467  10.405  0.0754  0.7797  0.3208
  415TMC3    C6 6247   4.195   3.484  10.371  0.2539  0.0447 -0.1866
  415TMC3     C 6248   4.091   3.223  10.684 -0.1336 -0.2123 -0.5003
  415TMC3     O 6249   3.974   3.184  10.696 -0.7138 -0.4176 -0.2450
  415TMC3     H 6250   4.333   3.266  10.569  0.3943  0.4366  0.1118
  415TMC3    H1 6251   3.918   3.379  10.549  0.1883 -1.7037  1.6160
  415TMC3    H2 6252   4.229   3.538  10.284  0.0276 -0.3312 -0.5064
  415TMC3    C7 6253   3.977   3.509  10.302  0.6376 -0.0637  0.4017
  415TMC3    C8 6254   4.427   3.420  10.402  0.5402  0.1387  0.0043
  415TMC3    O1 6255   4.017   3.571  10.205  0.0584  0.0328  0.2292
  415TMC3    O2 6256   4.481   3.312  10.390 -0.0022 -0.2517 -0.0745
  416MPD2     C 6257   1.085   2.005  11.395 -0.5496  0.2524  0.0916
  416MPD2    C1 6258   0.979   2.012  11.301  0.8019 -0.5011 -0.3390
  416MPD2    C2 6259   0.991   1.948  11.185  0.3067  0.1568  0.2956
  416MPD2    C3 6260   1.111   1.889  11.147  0.3801  0.4958  0.7391
  416MPD2    C4 6261   1.211   1.866  11.240  0.4638  0.7865  0.4402
  416MPD2    C5 6262   1.205   1.936  11.360 -0.5545 -0.6527  0.3376
  416MPD2     H 6263   0.905   1.926  11.123  0.3727  0.5470  0.0629
  416MPD2    H1 6264   1.300   1.808  11.220 -1.4525 -1.1882 -2.2967
  416MPD2    H2 6265   1.086   2.053  11.491  1.5432 -2.2610  1.3329
  416MPD2    H3 6266   1.285   1.929  11.433 -0.9244  2.2560  1.0357
  416MPD2     N 6267   1.115   1.809  11.031  0.7135 -0.3871  0.1993
  416MPD2    H5 6268   1.200   1.754  11.022 -0.3526 -1.7844 -1.3341
  416MPD2    N1 6269   0.857   2.078  11.334  0.6193  0.2404  0.0984
  416MPD2    H7 6270   0.843   2.091  11.433  0.7725  0.8491  0.0373
  417TMC3    C1 6271   0.650   2.205  11.281  0.0213 -0.5388 -0.1792
  417TMC3    C2 6272   0.636   2.215  11.418 -0.0698 -0.5036 -0.1608
  417TMC3    C3 6273   0.581   2.329  11.470 -0.1232  0.3382 -1.4468
  417TMC3    C4 6274   0.591   2.292  11.193  0.0276 -0.4470  0.1001
  417TMC3    C5 6275   0.514   2.397  11.250  0.0661 -0.0380  0.4748
  417TMC3    C6 6276   0.522   2.419  11.388  0.3920  0.2753  0.3968
  417TMC3     C 6277   0.768   2.124  11.237 -0.5736  0.5355  0.5102
  417TMC3     O 6278   0.783   2.121  11.119  0.0471 -0.4493  0.1005
  417TMC3     H 6279   0.671   2.143  11.491 -1.9275 -1.5858 -0.3348
  417TMC3    H1 6280   0.600   2.268  11.088 -2.2621  2.4244 -0.7277
  417TMC3    H2 6281   0.464   2.497  11.436 -1.4968  0.2589 -1.8051
  417TMC3    C7 6282   0.466   2.507  11.162 -0.6572 -0.0682  0.5731
  417TMC3    C8 6283   0.563   2.349  11.611  0.2071 -0.5258 -0.4835
  417TMC3    O1 6284   0.448   2.618  11.209  0.0447 -0.0661  0.1367
  417TMC3    O2 6285   0.486   2.444  11.637  0.1805  0.1315 -0.1681
  418TMC3    C1 6286   3.916   3.983   0.354  0.7040 -0.0824 -0.5842
  418TMC3    C2 6287   3.795   4.050   0.357 -0.2122 -0.2089 -0.4844
  418TMC3    C3 6288   3.727   4.045   0.473  0.3913 -0.2091  0.5887
  418TMC3    C4 6289   3.958   3.919   0.472  0.4128 -0.3400 -0.6946
  418TMC3    C5 6290   3.893   3.925   0.587 -0.3254  0.5495 -0.1101
  418TMC3    C6 6291   3.771   3.995   0.592  0.4127  1.0891  0.4642
  418TMC3     C 6292   3.966   3.938   0.229 -1.2249 -0.0798  0.4295
  418TMC3     O 6293   3.911   3.988   0.133  0.1658 -0.1276  0.3850
  418TMC3     H 6294   3.740   4.088   0.272 -0.1765  0.3022 -0.2791
  418TMC3    H1 6295   4.048   3.859   0.470 -0.5629 -1.9011  3.0386
  418TMC3    H2 6296   3.706   4.001   0.678 -0.4364  1.4242 -0.1965
  418TMC3    C7 6297   3.892   3.800   0.669  0.4920 -0.1374  0.2723
  418TMC3    C8 6298   3.585   4.056   0.471  0.5990  0.5532 -0.0869
  418TMC3    O1 6299   3.900   3.695   0.605  0.0008  0.0056  0.8089
  418TMC3    O2 6300   3.528   4.161   0.475 -0.3489  0.2590 -0.2405
  419MPD2     C 6301   3.248   2.218  12.828  0.5315 -0.8016 -0.0910
  419MPD2    C1 6302   3.134   2.288  12.790  0.1111  0.5674  0.5097
  419MPD2    C2 6303   3.022   2.269  12.866  0.0027 -0.1660  0.4797
  419MPD2    C3 6304   3.023   2.189  12.986 -0.7297 -0.3980 -0.3452
  419MPD2    C4 6305   3.148   2.131  13.028 -0.8371 -0.0424  0.6112
  419MPD2    C5 6306   3.261   2.161  12.953 -0.2048  0.3062  0.1885
  419MPD2     H 6307   2.931   2.327  12.857 -0.1486 -0.8524 -2.4225
  419MPD2    H1 6308   3.147   2.071  13.118 -2.3802 -2.6257 -1.1264
  419MPD2    H2 6309   3.341   2.221  12.772  2.0118  1.2645  2.4804
  419MPD2    H3 6310   3.352   2.110  12.982 -0.9535 -0.6209  0.9041
  419MPD2     N 6311   2.903   2.182  13.058  0.8049 -0.3025 -0.7492
  419MPD2    H5 6312   2.830   2.238  13.015 -1.1381 -0.8894  1.7663
  419MPD2    N1 6313   3.125   2.373  12.677  0.0778 -0.1451 -0.5018
  419MPD2    H7 6314   3.031   2.408  12.664 -1.1376 -2.4280  2.1457
  420TMC3    C1 6315   2.744   2.095  13.215 -0.2934 -0.7768 -0.6865
  420TMC3    C2 6316   2.644   2.093  13.120  0.0359 -0.1563  0.4298
  420TMC3    C3 6317   2.520   2.107  13.170  0.3184 -0.3627  0.2425
  420TMC3    C4 6318   2.719   2.090  13.351 -0.0861  0.2818 -0.1042
  420TMC3    C5 6319   2.593   2.111  13.391 -0.8318 -0.6190 -0.2618
  420TMC3    C6 6320   2.491   2.121  13.303 -0.2284 -0.2259  0.3832
  420TMC3     C 6321   2.881   2.107  13.176  0.0837 -0.5669 -0.4996
  420TMC3     O 6322   2.960   2.070  13.262  0.1352 -0.3916  0.2639
  420TMC3     H 6323   2.660   2.086  13.013 -2.3539 -2.2457  0.1895
  420TMC3    H1 6324   2.797   2.098  13.427  0.8575  2.2815 -1.2813
  420TMC3    H2 6325   2.391   2.130  13.343  0.2273 -2.6377  2.0399
  420TMC3    C7 6326   2.564   2.114  13.535 -0.3673  0.1294  0.2732
  420TMC3    C8 6327   2.414   2.127  13.071  0.1698  0.2731 -0.6618
  420TMC3    O1 6328   2.623   2.033  13.605 -0.1801  0.5420  0.0621
  420TMC3    O2 6329   2.308   2.169  13.115  0.7236 -0.1882 -0.2808
  421TMC3    C1 6330   3.975   2.992  13.853 -0.2396  0.0425 -0.5790
  421TMC3    C2 6331   3.884   3.082  13.915 -0.0917 -0.0874 -0.4356
  421TMC3    C3 6332   3.927   3.129  14.035 -0.1587 -0.7538  0.5060
  421TMC3    C4 6333   4.086   2.947  13.914  0.1061  0.3265  0.6813
  421TMC3    C5 6334   4.110   2.991  14.035  0.0907  0.3303  0.0736
  421TMC3    C6 6335   4.039   3.087  14.098 -0.1411 -0.0996  0.4341
  421TMC3     C 6336   3.964   2.968  13.704  0.2930  0.2414 -0.1793
  421TMC3     O 6337   4.072   2.952  13.645 -0.6614 -1.0005 -0.8178
  421TMC3     H 6338   3.799   3.115  13.855  0.6389  0.4268 -1.1974
  421TMC3    H1 6339   4.142   2.880  13.851  0.4695  0.1525  1.1881
  421TMC3    H2 6340   4.075   3.115  14.196 -0.7346 -0.5321  0.7786
  421TMC3    C7 6341   4.248   2.993  14.078 -0.4623 -0.4163 -0.4300
  421TMC3    C8 6342   3.877   3.251  14.076  0.8060  0.6148 -0.4941
  421TMC3    O1 6343   4.288   3.098  14.126  0.2253 -0.0761 -0.2042
  421TMC3    O2 6344   3.949   3.309  14.152  0.2175  0.2728 -0.3211
  422TMC3    C1 6345   1.840   0.456  12.610  0.6302 -0.1970  0.1322
  422TMC3    C2 6346   1.819   0.594  12.614 -0.0529 -0.1594 -0.2970
  422TMC3    C3 6347   1.693   0.642  12.636  0.0349 -0.6220 -0.0080
  422TMC3    C4 6348   1.729   0.374  12.593 -0.1142 -0.0846 -0.1821
  422TMC3    C5 6349   1.604   0.424  12.619  0.3434 -0.0729  0.4012
  422TMC3    C6 6350   1.581   0.555  12.641  0.6184  0.1148  0.2652
  422TMC3     C 6351   1.963   0.415  12.542 -0.6317 -0.0671 -0.2344
  422TMC3     O 6352   2.037   0.498  12.499  0.0251  0.1281 -0.1580
  422TMC3     H 6353   1.901   0.665  12.616 -0.4735  0.2790  1.7400
  422TMC3    H1 6354   1.745   0.268  12.576  2.3836  0.5311 -1.6875
  422TMC3    H2 6355   1.484   0.594  12.668  0.3123  0.3490 -1.1838
  422TMC3    C7 6356   1.495   0.332  12.587  0.3579 -0.4165 -0.4070
  422TMC3    C8 6357   1.675   0.780  12.667 -0.3714 -0.0753 -0.7007
  422TMC3    O1 6358   1.528   0.231  12.521 -0.0214 -0.3807  0.2316
  422TMC3    O2 6359   1.774   0.847  12.691  0.1884  0.3843 -0.4845
  423MPD2     C 6360   2.375   1.620   0.587 -0.1339 -0.0317  0.1671
  423MPD2    C1 6361   2.414   1.490   0.622 -0.1182  0.0130 -0.1815
  423MPD2    C2 6362   2.418   1.395   0.521 -0.7839 -0.9546  0.1873
  423MPD2    C3 6363   2.390   1.428   0.388  0.4906  0.4525 -0.2216
  423MPD2    C4 6364   2.372   1.558   0.356  0.1189  0.1939  0.2050
  423MPD2    C5 6365   2.353   1.649   0.453  0.1816  0.4302  0.1706
  423MPD2     H 6366   2.441   1.292   0.546  1.4314 -0.6100 -0.4093
  423MPD2    H1 6367   2.354   1.589   0.254 -1.1245  3.2593  1.3724
  423MPD2    H2 6368   2.369   1.701   0.659  2.0374 -0.5978  0.9679
  423MPD2    H3 6369   2.321   1.746   0.417  1.1290  1.2266  1.4881
  423MPD2     N 6370   2.399   1.329   0.285  0.3599  0.2428 -0.1252
  423MPD2    H5 6371   2.401   1.364   0.190  1.7986  2.0744  0.5855
  423MPD2    N1 6372   2.442   1.448   0.761  0.5583  0.3336  0.6347
  423MPD2    H7 6373   2.475   1.352   0.768 -0.8965 -0.1696  0.4796
  424TMC3    C1 6374   2.469   1.468   0.991  0.0737  0.2092  0.0481
  424TMC3    C2 6375   2.536   1.346   0.992  0.7379  0.7188 -0.3452
  424TMC3    C3 6376   2.545   1.291   1.112 -0.2179 -0.3971  0.6578
  424TMC3    C4 6377   2.417   1.528   1.104 -0.5629 -0.1083 -0.6070
  424TMC3    C5 6378   2.448   1.466   1.221 -0.2004 -0.3990  0.3951
  424TMC3    C6 6379   2.505   1.344   1.225 -0.1802 -0.6669 -0.1920
  424TMC3     C 6380   2.436   1.534   0.868 -0.8817 -0.3451  0.1851
  424TMC3     O 6381   2.391   1.647   0.884 -1.0353 -0.0980  0.0427
  424TMC3     H 6382   2.564   1.304   0.896  0.9212 -0.6472  0.3164
  424TMC3    H1 6383   2.354   1.615   1.117 -1.7684 -1.2291  1.0264
  424TMC3    H2 6384   2.523   1.293   1.320  0.7886  0.3704  0.1843
  424TMC3    C7 6385   2.439   1.535   1.342  0.0716  0.3891 -0.2362
  424TMC3    C8 6386   2.617   1.166   1.125 -0.0104  0.2106 -0.3554
  424TMC3    O1 6387   2.533   1.532   1.420  0.4449  0.3028  0.0984
  424TMC3    O2 6388   2.591   1.088   1.214 -0.0924 -0.2413  0.8263
  425MPD2     C 6389   0.796   0.943  16.438 -0.0611  0.9056  0.0056
  425MPD2    C1 6390   0.828   0.821  16.488 -0.1007  0.2854 -0.4992
  425MPD2    C2 6391   0.751   0.765  16.592 -0.0658 -0.2599  0.1531
  425MPD2    C3 6392   0.642   0.835  16.651  0.7688  0.9235  0.3499
  425MPD2    C4 6393   0.617   0.960  16.605 -0.5233  0.8528  0.2712
  425MPD2    C5 6394   0.690   1.005  16.492 -0.6198 -0.4332  0.4722
  425MPD2     H 6395   0.759   0.662  16.625 -0.4646 -0.2256  0.3625
  425MPD2    H1 6396   0.542   1.022  16.652 -1.4519 -0.4597  0.5385
  425MPD2    H2 6397   0.843   0.980  16.347  0.6713  0.8345  0.3514
  425MPD2    H3 6398   0.655   1.097  16.447 -2.1960 -0.2920  1.9703
  425MPD2     N 6399   0.592   0.782  16.769  0.1052 -0.0439  0.4230
  425MPD2    H5 6400   0.640   0.697  16.799  0.3544  0.3502  1.1499
  425MPD2    N1 6401   0.940   0.753  16.430 -0.1416 -0.2797  0.0654
  425MPD2    H7 6402   1.013   0.805  16.382  0.9638 -1.7092  0.2138
  426TMC3    C1 6403   1.084   0.559  16.388  0.0358  0.2484 -0.4839
  426TMC3    C2 6404   1.081   0.430  16.329  0.4953 -0.4489 -0.2155
  426TMC3    C3 6405   1.209   0.384  16.305 -0.0348  1.2130 -0.7015
  426TMC3    C4 6406   1.194   0.642  16.397  0.2836  0.1626  0.6966
  426TMC3    C5 6407   1.309   0.587  16.367 -0.2826  0.0455  0.0454
  426TMC3    C6 6408   1.322   0.457  16.329  0.0817 -0.4525 -0.1632
  426TMC3     C 6409   0.952   0.614  16.436  0.6777 -0.7912  0.2004
  426TMC3     O 6410   0.864   0.530  16.457  0.4456 -1.1158  0.3840
  426TMC3     H 6411   0.987   0.376  16.317 -0.0048  0.3248  0.2765
  426TMC3    H1 6412   1.189   0.740  16.442 -0.0675  1.2041 -1.6148
  426TMC3    H2 6413   1.418   0.410  16.311  0.6684  0.1055  1.5384
  426TMC3    C7 6414   1.430   0.609  16.446  0.1912  0.2171  0.1889
  426TMC3    C8 6415   1.226   0.237  16.304  0.4166  0.1597 -0.0076
  426TMC3    O1 6416   1.539   0.566  16.408 -0.4071  0.0198 -0.3255
  426TMC3    O2 6417   1.321   0.188  16.236 -0.0960 -0.5169 -0.1803
  427MPD2     C 6418   0.571   2.522  14.873  0.4548 -0.5732  0.7777
  427MPD2    C1 6419   0.539   2.546  15.007 -0.3528 -0.3646  0.1199
  427MPD2    C2 6420   0.430   2.618  15.041  0.6060  0.6172  0.2535
  427MPD2    C3 6421   0.329   2.645  14.947  0.3914  0.3819 -0.5459
  427MPD2    C4 6422   0.354   2.611  14.817 -0.1993  1.0211 -0.3553
  427MPD2    C5 6423   0.473   2.560  14.786  0.9700 -0.7197 -0.5787
  427MPD2     H 6424   0.404   2.635  15.145  1.0556 -1.5340  0.7135
  427MPD2    H1 6425   0.276   2.622  14.743  1.6258  0.7537 -2.3032
  427MPD2    H2 6426   0.657   2.470  14.833 -0.7288  0.7569 -3.4498
  427MPD2    H3 6427   0.490   2.538  14.682  1.2817 -2.1733 -0.2159
  427MPD2     N 6428   0.202   2.705  14.976  0.1117 -0.0726  0.0446
  427MPD2    H5 6429   0.128   2.711  14.907 -0.1776 -1.6100  0.2281
  427MPD2    N1 6430   0.632   2.516  15.112  0.2373  0.5052 -0.2201
  427MPD2    H7 6431   0.599   2.534  15.206  0.3750  1.9925 -0.4665
  428TMC3    C1 6432   0.826   2.476  15.224  0.1200  0.5673  0.1332
  428TMC3    C2 6433   0.760   2.414  15.320  0.0981 -0.2127  0.7909
  428TMC3    C3 6434   0.815   2.395  15.437  0.1092  0.4337  0.3811
  428TMC3    C4 6435   0.955   2.515  15.237  0.0106  0.4498  0.0465
  428TMC3    C5 6436   1.018   2.477  15.357 -0.6816 -0.2682  0.4427
  428TMC3    C6 6437   0.949   2.416  15.453 -0.0828  0.5124 -0.4955
  428TMC3     C 6438   0.763   2.485  15.100  0.8822 -1.2466 -0.0424
  428TMC3     O 6439   0.827   2.478  14.995 -0.4742  0.3761  0.7149
  428TMC3     H 6440   0.655   2.386  15.321  1.0905 -4.0221 -2.1040
  428TMC3    H1 6441   1.006   2.568  15.157 -1.5732  1.0702 -0.5698
  428TMC3    H2 6442   0.989   2.412  15.554 -0.8368  0.5646 -0.1946
  428TMC3    C7 6443   1.131   2.553  15.407 -0.0600 -0.1261 -0.8101
  428TMC3    C8 6444   0.735   2.372  15.557  0.0620 -0.3704 -0.0074
  428TMC3    O1 6445   1.155   2.571  15.528 -0.0017 -0.1780  0.2612
  428TMC3    O2 6446   0.780   2.428  15.662  0.0052  0.2846 -0.1115
  429MPD2     C 6447   0.584   2.145   0.004 -0.5901 -0.1070  0.4517
  429MPD2    C1 6448   0.712   2.095   0.003 -0.4366  0.0789 -0.2527
  429MPD2    C2 6449   0.813   2.168  17.687  0.3771  0.0918  0.1436
  429MPD2    C3 6450   0.786   2.294  17.628 -0.2701  0.1333 -0.0745
  429MPD2    C4 6451   0.660   2.347  17.635  0.6859 -0.1436  0.3635
  429MPD2    C5 6452   0.562   2.268  17.696 -0.3324 -0.3098  0.1606
  429MPD2     H 6453   0.913   2.131  17.671 -0.3932 -1.5265 -0.9540
  429MPD2    H1 6454   0.637   2.443  17.591  0.4664 -0.2578  0.2273
  429MPD2    H2 6455   0.500   2.097   0.053 -0.6677  0.1696  0.5929
  429MPD2    H3 6456   0.459   2.301  17.700 -0.3205 -0.4699  1.7251
  429MPD2     N 6457   0.896   2.365  17.579  0.4909  0.8051 -0.3242
  429MPD2    H5 6458   0.990   2.327  17.587 -0.0500 -1.1215 -3.1294
  429MPD2    N1 6459   0.746   1.967   0.055  0.9530  0.6284  0.4298
  429MPD2    H7 6460   0.840   1.934   0.035 -0.5307 -1.5157 -3.0196
  430TMC3    C1 6461   1.023   2.549  17.493 -0.0724  0.4966  0.2816
  430TMC3    C2 6462   1.038   2.683  17.498 -0.2074  0.9717 -0.0768
  430TMC3    C3 6463   1.167   2.728  17.474 -0.6439 -0.1494  0.2533
  430TMC3    C4 6464   1.118   2.458  17.452  0.2638 -0.7839 -0.2090
  430TMC3    C5 6465   1.238   2.510  17.402  0.0541 -0.3141 -0.1306
  430TMC3    C6 6466   1.267   2.641  17.420  0.1256  0.0760  0.0650
  430TMC3     C 6467   0.888   2.495  17.529  0.0142  0.4220 -0.1810
  430TMC3     O 6468   0.796   2.577  17.528  0.0603 -0.0391 -0.5288
  430TMC3     H 6469   0.959   2.751  17.527  0.1145  1.6373 -0.7657
  430TMC3    H1 6470   1.092   2.353  17.444 -0.3747 -0.6457  0.1059
  430TMC3    H2 6471   1.363   2.683  17.394 -1.1259  2.0028 -1.4785
  430TMC3    C7 6472   1.318   2.427  17.322  0.1324  0.5371  0.1876
  430TMC3    C8 6473   1.178   2.857  17.408  0.8613 -0.0582 -0.2611
  430TMC3    O1 6474   1.262   2.331  17.273  0.3674  0.3046 -0.1645
  430TMC3    O2 6475   1.289   2.913  17.408 -0.2959  0.4685  0.4223
  431MPD2     C 6476   2.407   2.440  12.498  0.7461 -0.0655 -0.2590
  431MPD2    C1 6477   2.449   2.570  12.468 -0.1036  0.5824 -0.3552
  431MPD2    C2 6478   2.580   2.592  12.419  0.1422  0.7016  0.9375
  431MPD2    C3 6479   2.658   2.479  12.389 -0.6544 -1.0474  0.0129
  431MPD2    C4 6480   2.614   2.354  12.413 -0.4238 -0.2953  0.3021
  431MPD2    C5 6481   2.491   2.341  12.465 -0.2140  0.3398 -0.6177
  431MPD2     H 6482   2.608   2.690  12.381 -2.5496  1.8333  1.8780
  431MPD2    H1 6483   2.665   2.267  12.372  1.5479  0.7093  0.5994
  431MPD2    H2 6484   2.303   2.424  12.524  0.1127  0.9484 -2.1736
  431MPD2    H3 6485   2.455   2.239  12.476  0.0470  0.1621 -1.4598
  431MPD2     N 6486   2.787   2.485  12.353  0.2283  0.6504 -0.3283
  431MPD2    H5 6487   2.837   2.397  12.346 -1.7810 -0.3877 -1.4326
  431MPD2    N1 6488   2.370   2.687  12.474 -0.0453  0.1644  0.3899
  431MPD2    H7 6489   2.397   2.763  12.413  2.3738  0.9131  2.3541
  432TMC3    C1 6490   3.003   2.573  12.347  0.6838 -0.6312 -0.9912
  432TMC3    C2 6491   3.088   2.659  12.279  0.7885  0.0462 -0.8150
  432TMC3    C3 6492   3.217   2.651  12.315 -0.2663  0.2890 -0.3954
  432TMC3    C4 6493   3.042   2.475  12.440 -0.1341  0.4235  0.3526
  432TMC3    C5 6494   3.180   2.475  12.472 -0.1145  0.5402 -0.2422
  432TMC3    C6 6495   3.272   2.557  12.407 -0.4118  0.4321  0.0780
  432TMC3     C 6496   2.860   2.598  12.330  1.0349 -0.3122  0.4061
  432TMC3     O 6497   2.823   2.711  12.312 -0.2658 -0.4961  0.0615
  432TMC3     H 6498   3.052   2.735  12.211 -0.4142 -0.0380 -0.2709
  432TMC3    H1 6499   2.965   2.438  12.506 -0.3455  1.5718  0.7547
  432TMC3    H2 6500   3.372   2.551  12.448  0.4586  1.2095 -1.9272
  432TMC3    C7 6501   3.232   2.406  12.596 -0.1133  0.4834 -0.8225
  432TMC3    C8 6502   3.316   2.698  12.221 -0.3212 -0.1629 -0.1318
  432TMC3    O1 6503   3.351   2.383  12.608  0.3865 -0.3256 -0.2511
  432TMC3    O2 6504   3.281   2.748  12.117 -0.3663 -0.1547  0.2896
  433MPD2     C 6505   1.857   1.367  10.757 -0.1430 -0.1051  0.0474
  433MPD2    C1 6506   1.807   1.273  10.848  0.3850 -0.0262  0.4487
  433MPD2    C2 6507   1.839   1.290  10.979  0.0388 -0.6960  0.4410
  433MPD2    C3 6508   1.907   1.404  11.024 -0.3023 -0.6103 -0.6269
  433MPD2    C4 6509   1.937   1.505  10.938  0.2416 -0.0872  0.0660
  433MPD2    C5 6510   1.919   1.475  10.801  0.4475  0.4562  0.8240
  433MPD2     H 6511   1.831   1.213  11.055  0.9422 -0.0868  1.1578
  433MPD2    H1 6512   1.984   1.598  10.969 -0.9192  0.8307 -0.8924
  433MPD2    H2 6513   1.860   1.337  10.653 -0.4093 -1.4234  0.4190
  433MPD2    H3 6514   1.942   1.553  10.730  1.1560  0.1624  0.7374
  433MPD2     N 6515   1.931   1.404  11.163 -0.1764 -0.1153 -0.5105
  433MPD2    H5 6516   1.900   1.321  11.213 -0.0946  0.4522  0.4829
  433MPD2    N1 6517   1.754   1.157  10.803 -0.1394 -0.8486 -0.4099
  433MPD2    H7 6518   1.769   1.132  10.705  1.5978  2.1175 -0.9043
  434TMC3    C1 6519   1.694   0.932  10.838  0.4601 -0.7392  1.0390
  434TMC3    C2 6520   1.733   0.833  10.921 -0.2965  0.2756  0.1055
  434TMC3    C3 6521   1.818   0.734  10.869 -0.3609 -0.1651 -0.8021
  434TMC3    C4 6522   1.720   0.924  10.703  0.0461  0.0372 -0.3187
  434TMC3    C5 6523   1.800   0.820  10.658 -0.5195  0.0742 -0.0714
  434TMC3    C6 6524   1.863   0.731  10.746 -0.5450  0.7788 -0.6891
  434TMC3     C 6525   1.699   1.067  10.892  0.2092  0.4080 -0.4795
  434TMC3     O 6526   1.651   1.081  11.003  0.3165 -0.2761  0.2694
  434TMC3     H 6527   1.724   0.854  11.027  0.1580  1.9775 -0.1853
  434TMC3    H1 6528   1.669   0.991  10.635 -1.6741  0.6817  1.6088
  434TMC3    H2 6529   1.925   0.647  10.715  0.1292  0.3495  1.8682
  434TMC3    C7 6530   1.840   0.823  10.517 -0.2066 -0.1950  0.0228
  434TMC3    C8 6531   1.909   0.678  10.966  0.0093 -0.5988  0.0806
  434TMC3    O1 6532   1.922   0.912  10.487  0.1245  0.4540 -0.4160
  434TMC3    O2 6533   1.861   0.656  11.078  0.2487  0.2334  0.1576
  435MPD2     C 6534   3.264   1.348  15.589 -0.0750  0.0091 -0.0839
  435MPD2    C1 6535   3.207   1.304  15.710  0.1055  0.1205  0.0869
  435MPD2    C2 6536   3.296   1.245  15.804  0.8002 -0.0151 -0.0844
  435MPD2    C3 6537   3.426   1.224  15.781  0.6620  0.2650 -0.1351
  435MPD2    C4 6538   3.486   1.272  15.665 -0.4667 -0.2700  0.2697
  435MPD2    C5 6539   3.398   1.329  15.578 -0.4628  0.5533 -0.3916
  435MPD2     H 6540   3.257   1.222  15.903 -2.4959  1.1867 -1.1190
  435MPD2    H1 6541   3.593   1.275  15.648 -0.4176  0.5978  0.7053
  435MPD2    H2 6542   3.202   1.374  15.505  1.6259 -1.3767 -1.7671
  435MPD2    H3 6543   3.443   1.344  15.481  1.1977  1.0497  0.4621
  435MPD2     N 6544   3.499   1.179  15.898  0.6003  1.1433  0.5615
  435MPD2    H5 6545   3.445   1.134  15.972 -0.2862  1.8128  0.3197
  435MPD2    N1 6546   3.070   1.319  15.745 -0.2808  0.0073 -0.0881
  435MPD2    H7 6547   3.038   1.305  15.840  0.2566 -1.0749 -0.0678
  436TMC3    C1 6548   2.789   1.530  15.949  0.0619 -0.8239 -0.6319
  436TMC3    C2 6549   2.891   1.467  15.878 -0.5208 -0.0476 -0.4441
  436TMC3    C3 6550   2.860   1.405  15.759 -0.4119 -0.0402  0.2761
  436TMC3    C4 6551   2.662   1.539  15.899 -0.1857  0.3932  0.6057
  436TMC3    C5 6552   2.643   1.482  15.778  0.3652 -0.6342  0.2754
  436TMC3    C6 6553   2.736   1.415  15.705  0.1568  0.4574 -0.1598
  436TMC3     C 6554   2.831   1.617  16.056 -0.3588 -0.4644 -0.3158
  436TMC3     O 6555   2.950   1.632  16.080  0.9943  0.1521 -0.1098
  436TMC3     H 6556   2.991   1.460  15.919  0.3396  1.7908 -2.2103
  436TMC3    H1 6557   2.577   1.583  15.951  1.1548  3.5365  0.1229
  436TMC3    H2 6558   2.721   1.356  15.615  0.9297 -1.2076  0.7910
  436TMC3    C7 6559   2.511   1.492  15.716  0.7848 -0.2912  0.3948
  436TMC3    C8 6560   2.972   1.375  15.674 -0.4097  0.0756  0.2447
  436TMC3    O1 6561   2.425   1.514  15.800  0.2644  0.2564 -0.2892
  436TMC3    O2 6562   2.957   1.386  15.554 -0.0084  0.5744 -0.3663
  437TMC3    C1 6563   2.135   3.519  12.337 -0.8573  0.8629 -0.0673
  437TMC3    C2 6564   2.094   3.603  12.240  0.1559  0.7827 -0.6656
  437TMC3    C3 6565   2.194   3.684  12.186  0.1948 -0.3635  0.0875
  437TMC3    C4 6566   2.248   3.523  12.408 -0.6373 -0.2372  0.0114
  437TMC3    C5 6567   2.342   3.613  12.364 -0.1754 -0.1642  0.1480
  437TMC3    C6 6568   2.316   3.697  12.258 -0.0720 -0.0705  0.6443
  437TMC3     C 6569   2.024   3.443  12.406  0.2149  1.2674 -0.2514
  437TMC3     O 6570   2.038   3.425  12.524  0.1315  0.3409  0.4039
  437TMC3     H 6571   2.004   3.594  12.181  0.6277  2.2932 -1.6213
  437TMC3    H1 6572   2.265   3.460  12.495 -0.0792  0.7530  0.6216
  437TMC3    H2 6573   2.390   3.773  12.241  0.1565 -0.6784 -1.0699
  437TMC3    C7 6574   2.479   3.620  12.412 -1.1291 -0.3297 -0.3643
  437TMC3    C8 6575   2.163   3.778  12.078  0.0894 -0.6361 -0.1093
  437TMC3    O1 6576   2.567   3.672  12.340  0.1484  0.3893  0.4285
  437TMC3    O2 6577   2.060   3.756  12.013  0.1817 -0.5632 -0.0781
  438MPD2     C 6578   4.050   3.895  16.875 -1.1228 -0.2042 -0.2565
  438MPD2    C1 6579   4.136   3.808  16.947 -0.2940 -0.1216 -0.3271
  438MPD2    C2 6580   4.112   3.785  17.084 -0.1690 -0.5623  0.2787
  438MPD2    C3 6581   4.002   3.845  17.143 -0.4392  0.2634  0.2613
  438MPD2    C4 6582   3.927   3.939  17.077 -0.3497  0.1125 -0.2987
  438MPD2    C5 6583   3.948   3.956  16.946 -0.3751 -0.1988 -0.6417
  438MPD2     H 6584   4.186   3.730  17.141 -1.3075 -1.5152  0.8465
  438MPD2    H1 6585   3.845   3.985  17.131  0.4206  1.7974 -0.5515
  438MPD2    H2 6586   4.055   3.923  16.771  3.4598  1.5631  0.4772
  438MPD2    H3 6587   3.887   4.025  16.888  0.8559 -0.3337 -2.1145
  438MPD2     N 6588   3.966   3.814  17.274  0.1898 -0.1352  0.3123
  438MPD2    H5 6589   3.880   3.863  17.298  1.5876  3.0638 -1.1739
  438MPD2    N1 6590   4.251   3.754  16.882 -0.1383 -0.2536 -0.0625
  438MPD2    H7 6591   4.296   3.676  16.930 -1.1782 -1.8621 -1.7355
  439TMC3    C1 6592   4.399   3.682  16.713 -0.1865  0.3710  0.0657
  439TMC3    C2 6593   4.413   3.658  16.580 -0.0824 -0.6548  0.5930
  439TMC3    C3 6594   4.508   3.557  16.545 -0.2158  0.3589 -0.3329
  439TMC3    C4 6595   4.470   3.624  16.806  0.0369 -0.0702 -0.4466
  439TMC3    C5 6596   4.569   3.532  16.769 -0.3513 -0.1998  0.3296
  439TMC3    C6 6597   4.583   3.493  16.640  0.2838  0.0431  0.1805
  439TMC3     C 6598   4.296   3.783  16.749  0.3131 -0.5103  0.4109
  439TMC3     O 6599   4.242   3.838  16.656  0.1002 -0.3509  0.4678
  439TMC3     H 6600   4.348   3.714  16.514 -1.7710 -2.9434  0.3120
  439TMC3    H1 6601   4.465   3.655  16.910 -2.6972 -1.1590 -0.2404
  439TMC3    H2 6602   4.655   3.420  16.605  0.7030  0.0700  0.9748
  439TMC3    C7 6603   4.654   3.474  16.875 -0.3670  0.0002  0.5758
  439TMC3    C8 6604   4.531   3.505  16.412  0.1823  0.9851  0.1450
  439TMC3    O1 6605   4.694   3.556  16.961  0.7564  0.1650  0.0056
  439TMC3    O2 6606   4.603   3.407  16.399  0.0425  0.5843  0.2761
  440MPD2     C 6607   2.851   4.604  14.694 -0.6693 -0.0213  0.3798
  440MPD2    C1 6608   2.910   4.687  14.795  0.3331 -0.2294 -0.0420
  440MPD2    C2 6609   2.994   4.642  14.896 -0.0939 -0.7013  0.0161
  440MPD2    C3 6610   3.029   4.506  14.899 -0.8433 -0.1293 -0.0239
  440MPD2    C4 6611   2.980   4.425  14.795  0.3840  0.0665 -0.5250
  440MPD2    C5 6612   2.895   4.477  14.694  0.2264  0.0789  0.1016
  440MPD2     H 6613   3.040   4.717  14.959  1.6217 -1.0518 -0.7986
  440MPD2    H1 6614   3.023   4.327  14.778 -2.4065 -1.1029 -0.8949
  440MPD2    H2 6615   2.789   4.643  14.614  1.0977  0.7671 -0.6121
  440MPD2    H3 6616   2.848   4.411  14.622  2.6145  0.2860 -1.6252
  440MPD2     N 6617   3.112   4.447  14.996  0.5521  0.0755  0.1412
  440MPD2    H5 6618   3.122   4.347  14.987  1.5456  0.1003  1.0212
  440MPD2    N1 6619   2.866   0.086  14.803  0.5889 -0.6033  0.3892
  440MPD2    H7 6620   2.904   0.146  14.875  1.2204 -0.2395 -0.2466
  441TMC3    C1 6621   3.276   4.438  15.163  0.5632 -0.5527  0.4232
  441TMC3    C2 6622   3.344   4.517  15.258  0.2432 -0.1116  0.3600
  441TMC3    C3 6623   3.366   4.475  15.383 -0.7173  0.5898  0.1827
  441TMC3    C4 6624   3.236   4.313  15.195 -0.4910  0.2584 -0.1204
  441TMC3    C5 6625   3.272   4.262  15.318  0.0505 -0.2167 -0.3977
  441TMC3    C6 6626   3.343   4.339  15.409  0.5758 -1.4603 -0.4387
  441TMC3     C 6627   3.183   4.519  15.094  0.3835  0.4338  0.7560
  441TMC3     O 6628   3.171   4.633  15.132 -0.2107 -0.0195 -0.1217
  441TMC3     H 6629   3.376   4.616  15.227  0.6983  0.0393  1.3363
  441TMC3    H1 6630   3.159   4.265  15.135 -0.0363 -0.0015 -0.4977
  441TMC3    H2 6631   3.349   4.301  15.511  0.1700  0.5069  0.3234
  441TMC3    C7 6632   3.202   4.157  15.384 -0.2988 -0.3397  0.4132
  441TMC3    C8 6633   3.314   4.563  15.486 -0.3246 -0.0270  0.4519
  441TMC3    O1 6634   3.246   4.118  15.492 -0.3413 -0.6655 -0.2431
  441TMC3    O2 6635   3.337   4.533  15.600  0.0459  0.1775  0.3999
  442MPD2     C 6636   0.980   0.512  16.010 -0.8611  0.6472 -0.2136
  442MPD2    C1 6637   0.871   0.456  16.083  0.2427  0.5028  0.1651
  442MPD2    C2 6638   0.863   0.320  16.108 -0.5359 -0.4153  0.0108
  442MPD2    C3 6639   0.954   0.237  16.044  0.3437  0.4033  0.7222
  442MPD2    C4 6640   1.043   0.291  15.953 -0.0854  0.2932 -0.4129
  442MPD2    C5 6641   1.068   0.430  15.949 -0.1890  0.2615  0.0354
  442MPD2     H 6642   0.782   0.276  16.165 -0.5231  1.2926  1.3521
  442MPD2    H1 6643   1.112   0.228  15.898  1.9440 -1.5131  4.1932
  442MPD2    H2 6644   0.996   0.615  15.978  0.1168  0.9963  1.4079
  442MPD2    H3 6645   1.136   0.476  15.878  0.2752  0.1288  0.3997
  442MPD2     N 6646   0.972   0.105  16.080 -0.3503 -0.1873  0.0698
  442MPD2    H5 6647   1.041   0.059  16.022  0.1224  0.2978  0.2472
  442MPD2    N1 6648   0.772   0.534  16.145 -0.6916 -0.1787 -0.1341
  442MPD2    H7 6649   0.692   0.492  16.190 -2.4010  1.1273 -1.9297
  443TMC3    C1 6650   0.637   0.715  16.179  0.6843  0.0857  0.3576
  443TMC3    C2 6651   0.550   0.784  16.103  0.0838 -0.0528  0.5887
  443TMC3    C3 6652   0.413   0.767  16.137 -0.1576 -0.4875  0.7173
  443TMC3    C4 6653   0.602   0.655  16.292  0.3053 -0.5135  0.5766
  443TMC3    C5 6654   0.472   0.672  16.336  0.0484  0.7691  0.3049
  443TMC3    C6 6655   0.378   0.728  16.261 -0.1225  0.2458 -0.4150
  443TMC3     C 6656   0.756   0.666  16.115 -0.2922  0.5429  0.6854
  443TMC3     O 6657   0.813   0.741  16.036  0.0618 -0.1983 -0.1056
  443TMC3     H 6658   0.575   0.785  15.998  1.5907  2.3786  0.9854
  443TMC3    H1 6659   0.673   0.605  16.356  1.4819 -1.2704 -1.3268
  443TMC3    H2 6660   0.270   0.722  16.270  0.0144 -0.0335  0.9985
  443TMC3    C7 6661   0.441   0.612  16.461  0.4761 -0.1777  0.0591
  443TMC3    C8 6662   0.331   0.693  16.032 -0.3877 -0.2276  0.0085
  443TMC3    O1 6663   0.502   0.510  16.493  0.2175  0.1998  0.1721
  443TMC3    O2 6664   0.254   0.601  16.071 -0.0657 -0.0928 -0.0246
  444MPD2     C 6665   1.239   4.438  16.861 -0.1882 -0.1338 -0.1737
  444MPD2    C1 6666   1.168   4.324  16.881 -0.2419  0.3281 -0.4850
  444MPD2    C2 6667   1.216   4.204  16.833  0.0600 -0.1561  0.5733
  444MPD2    C3 6668   1.342   4.203  16.764  0.2244  0.5046 -0.1440
  444MPD2    C4 6669   1.412   4.317  16.749  0.1156 -1.0505 -0.6469
  444MPD2    C5 6670   1.361   4.436  16.793  0.6251 -0.0954  0.5721
  444MPD2     H 6671   1.159   4.115  16.856 -0.1027  0.2950  1.9141
  444MPD2    H1 6672   1.499   4.327  16.685  0.0565 -1.6191 -0.8253
  444MPD2    H2 6673   1.200   4.537  16.879  0.6577  0.2370 -0.3418
  444MPD2    H3 6674   1.412   4.528  16.767  1.4371 -0.8566 -0.5325
  444MPD2     N 6675   1.386   4.074  16.729 -0.4751 -0.5933 -0.1839
  444MPD2    H5 6676   1.327   3.993  16.746 -1.0892 -0.0147  0.4145
  444MPD2    N1 6677   1.050   4.328  16.963  0.2298  0.0639 -0.4871
  444MPD2    H7 6678   1.010   4.236  16.979  0.0252 -0.0061 -1.3756
  445TMC3    C1 6679   1.550   3.913  16.648 -0.4000 -0.2070  0.5571
  445TMC3    C2 6680   1.460   3.858  16.560 -0.5683 -0.3752 -0.0820
  445TMC3    C3 6681   1.497   3.739  16.505  0.5710 -0.1528  0.4039
  445TMC3    C4 6682   1.675   3.861  16.657 -0.1392  0.4308 -0.3330
  445TMC3    C5 6683   1.697   3.737  16.612  0.6086 -0.2395 -0.2366
  445TMC3    C6 6684   1.615   3.669  16.530 -0.6648  0.3416 -0.5935
  445TMC3     C 6685   1.515   4.055  16.683  0.3603  0.0663  0.0035
  445TMC3     O 6686   1.612   4.134  16.686  0.3145 -0.5070  0.1390
  445TMC3     H 6687   1.359   3.896  16.549 -0.8022 -0.1516  2.6673
  445TMC3    H1 6688   1.746   3.914  16.720  1.4311 -0.6583 -1.1754
  445TMC3    H2 6689   1.648   3.574  16.490  0.0787 -0.4987  2.0675
  445TMC3    C7 6690   1.841   3.694  16.612 -0.3412 -0.0317  0.6100
  445TMC3    C8 6691   1.391   3.679  16.425 -0.3577  0.3574  0.3716
  445TMC3    O1 6692   1.927   3.774  16.631 -0.0569 -0.4690  0.2411
  445TMC3    O2 6693   1.290   3.743  16.401 -0.0276  0.2748 -0.0651
  446MPD2     C 6694   1.551   0.543  11.527  0.1733  0.7261 -0.6009
  446MPD2    C1 6695   1.552   0.543  11.382  0.2797 -0.0250  0.7877
  446MPD2    C2 6696   1.649   0.632  11.323 -0.1884  0.3355  0.1644
  446MPD2    C3 6697   1.747   0.699  11.397  0.4957  0.3245 -0.1864
  446MPD2    C4 6698   1.739   0.689  11.534 -0.7317  0.2033  0.3888
  446MPD2    C5 6699   1.643   0.618  11.594 -0.1581 -0.1982  0.4012
  446MPD2     H 6700   1.652   0.642  11.215  2.0698  0.8492  0.2814
  446MPD2    H1 6701   1.803   0.753  11.594 -1.7715  1.3407  0.3031
  446MPD2    H2 6702   1.478   0.474  11.568 -1.1307  1.9232 -0.9213
  446MPD2    H3 6703   1.615   0.630  11.698 -0.0334 -1.1360  0.5404
  446MPD2     N 6704   1.840   0.785  11.333 -0.7279  0.2900  0.1475
  446MPD2    H5 6705   1.834   0.787  11.231  1.1043 -1.2227  0.0034
  446MPD2    N1 6706   1.467   0.462  11.301  0.1387  0.7115 -0.3753
  446MPD2    H7 6707   1.490   0.452  11.202 -2.8762 -3.1377 -0.7406
  447TMC3    C1 6708   2.062   0.888  11.303  0.0066 -0.2328 -0.3095
  447TMC3    C2 6709   2.024   0.949  11.184  1.2685 -0.0137  0.3113
  447TMC3    C3 6710   2.125   1.004  11.115  0.5298 -0.4787 -0.3052
  447TMC3    C4 6711   2.189   0.875  11.351  0.1846 -0.3150 -0.1440
  447TMC3    C5 6712   2.281   0.928  11.265  0.4212 -1.0455  1.0559
  447TMC3    C6 6713   2.258   0.990  11.147  0.0286  0.3514 -0.0857
  447TMC3     C 6714   1.963   0.819  11.387  0.1042 -0.1586 -0.5478
  447TMC3     O 6715   2.006   0.776  11.494 -0.3314 -0.0262  0.0816
  447TMC3     H 6716   1.922   0.962  11.148  0.5476  1.5443  2.8652
  447TMC3    H1 6717   2.215   0.828  11.445 -1.1672 -0.2559  0.2591
  447TMC3    H2 6718   2.338   1.026  11.084  2.1023 -1.7557  1.3693
  447TMC3    C7 6719   2.409   0.950  11.327 -0.0042  0.1079  0.1904
  447TMC3    C8 6720   2.098   1.036  10.974 -0.1768 -0.0466  0.3038
  447TMC3    O1 6721   2.506   0.940  11.254  0.2867  0.0137 -0.0922
  447TMC3    O2 6722   1.995   0.994  10.927 -0.2115 -0.0199 -0.5052
  448TMC3    C1 6723   3.850   0.300  17.076 -0.2039  0.2721 -0.3653
  448TMC3    C2 6724   3.878   0.175  17.033 -0.2575 -0.4716 -0.0354
  448TMC3    C3 6725   3.895   0.084  17.135 -0.3409  1.2781  0.0761
  448TMC3    C4 6726   3.829   0.330  17.207  0.0038 -0.1465  0.3702
  448TMC3    C5 6727   3.830   0.234  17.304 -0.0271 -0.3803  0.1325
  448TMC3    C6 6728   3.871   0.109  17.268  0.2038 -0.4806 -0.2956
  448TMC3     C 6729   3.866   0.417  16.989 -0.0984 -0.1387 -0.5054
  448TMC3     O 6730   3.852   0.529  17.029 -0.4151 -0.1207  0.2059
  448TMC3     H 6731   3.910   0.161  16.930  1.4949 -1.2968  0.6204
  448TMC3    H1 6732   3.816   0.432  17.243  0.1708 -0.9898  2.8211
  448TMC3    H2 6733   3.878   0.031  17.343 -1.3807  0.2727  0.6314
  448TMC3    C7 6734   3.891   0.272  17.424  0.9307 -0.2870 -0.5105
  448TMC3    C8 6735   3.942   4.690  17.101 -0.3438  0.0073  0.4519
  448TMC3    O1 6736   3.977   0.359  17.413  0.5821  0.7338 -0.2853
  448TMC3    O2 6737   3.975   4.615  17.192 -0.5031 -0.4234  0.3065
  449MPD2     C 6738   1.180   3.677  13.988 -0.5419  0.1772  0.1940
  449MPD2    C1 6739   1.081   3.770  13.961 -0.2714 -0.4542 -0.6457
  449MPD2    C2 6740   0.956   3.736  13.954 -0.4388 -0.5950  0.3502
  449MPD2    C3 6741   0.918   3.601  13.968  0.2607 -0.0168 -0.2916
  449MPD2    C4 6742   1.011   3.506  13.993 -0.1633  0.1351  0.0800
  449MPD2    C5 6743   1.150   3.542  13.996  0.1944 -0.2151  0.1727
  449MPD2     H 6744   0.885   3.817  13.937  0.6879  0.6798  1.6862
  449MPD2    H1 6745   0.986   3.402  14.008  0.7649 -0.1553 -0.3665
  449MPD2    H2 6746   1.285   3.704  13.989 -1.7822  4.9121  1.7535
  449MPD2    H3 6747   1.231   3.471  13.997  1.8446  1.6591  0.7675
  449MPD2     N 6748   0.781   3.566  13.948  0.6189 -0.0997  0.1548
  449MPD2    H5 6749   0.729   3.646  13.913  0.9444 -0.5510 -1.3544
  449MPD2    N1 6750   1.098   3.911  13.953  0.0461  0.0014 -0.2589
  449MPD2    H7 6751   1.014   3.960  13.925 -0.5366 -0.1326  1.2921
  450TMC3    C1 6752   1.194   4.121  13.951  0.0477 -0.3515  0.4557
  450TMC3    C2 6753   1.261   4.184  13.850 -0.7116 -0.6993  0.1610
  450TMC3    C3 6754   1.192   4.267  13.766 -1.1324  0.6385 -0.6874
  450TMC3    C4 6755   1.066   4.164  13.977 -0.2011  0.0660 -0.3463
  450TMC3    C5 6756   0.994   4.228  13.879  0.0024 -0.1499  0.7552
  450TMC3    C6 6757   1.059   4.293  13.775  0.8047 -0.2595 -0.0520
  450TMC3     C 6758   1.213   3.982  13.972  0.5940 -0.2192  0.1063
  450TMC3     O 6759   1.327   3.940  13.998 -0.7175  0.0137  0.2178
  450TMC3     H 6760   1.364   4.160  13.827 -0.8218 -2.3955  1.4569
  450TMC3    H1 6761   1.017   4.113  14.059 -0.3478  1.0023  0.1528
  450TMC3    H2 6762   1.010   4.349  13.697  1.6052  1.5461  0.7460
  450TMC3    C7 6763   0.866   4.161  13.848  0.5940  0.4591  0.2400
  450TMC3    C8 6764   1.256   4.332  13.655 -0.1526 -0.5905  0.3566
  450TMC3    O1 6765   0.853   4.057  13.915  0.0661 -0.3991  0.3246
  450TMC3    O2 6766   1.214   4.443  13.629 -0.2322  0.3268 -0.2102
  451MPD2     C 6767   1.430   2.437   1.523  0.0315  0.9290 -0.3457
  451MPD2    C1 6768   1.539   2.497   1.453  0.7916  0.4639  0.0192
  451MPD2    C2 6769   1.611   2.417   1.371  0.4952  0.0011 -0.8992
  451MPD2    C3 6770   1.576   2.287   1.351  0.8452 -0.3168  0.7363
  451MPD2    C4 6771   1.466   2.236   1.409 -0.1848 -0.2815  0.4237
  451MPD2    C5 6772   1.389   2.308   1.492  0.2379  0.3253 -0.1542
  451MPD2     H 6773   1.700   2.457   1.324  2.0699 -1.4441  0.8599
  451MPD2    H1 6774   1.446   2.130   1.396  0.5267 -0.8335  3.8455
  451MPD2    H2 6775   1.376   2.496   1.597  1.3878  0.0458  1.3353
  451MPD2    H3 6776   1.301   2.261   1.535 -0.7102  1.7975 -0.4537
  451MPD2     N 6777   1.645   2.201   1.263  0.3251  0.2051 -0.3729
  451MPD2    H5 6778   1.595   2.119   1.232  1.2390 -0.8997  1.0671
  451MPD2    N1 6779   1.555   2.639   1.468 -0.2325  0.4730  0.3321
  451MPD2    H7 6780   1.493   2.691   1.529  1.2746  1.1020  1.3481
  452TMC3    C1 6781   1.813   2.128   1.107  0.2808 -0.2163 -0.0605
  452TMC3    C2 6782   1.719   2.045   1.052  0.2752  1.1923  0.0177
  452TMC3    C3 6783   1.764   1.970   0.942 -0.0309  0.0502  0.0684
  452TMC3    C4 6784   1.944   2.140   1.062  0.1973 -0.4885  0.0835
  452TMC3    C5 6785   1.983   2.048   0.978 -0.0638  0.1649 -0.4535
  452TMC3    C6 6786   1.896   1.968   0.912 -0.5918 -0.4230 -0.5859
  452TMC3     C 6787   1.774   2.220   1.214  0.0171 -0.8504 -0.2839
  452TMC3     O 6788   1.845   2.311   1.229 -0.2740  0.2510  0.8089
  452TMC3     H 6789   1.622   2.021   1.095 -0.6167  0.8950 -2.1515
  452TMC3    H1 6790   2.016   2.204   1.111  0.9068 -1.7711  0.7136
  452TMC3    H2 6791   1.939   1.896   0.844  1.4819 -0.6193  0.9331
  452TMC3    C7 6792   2.096   2.091   0.903  0.0166  0.1469 -0.4390
  452TMC3    C8 6793   1.684   1.856   0.901 -0.5525  0.3446  0.1980
  452TMC3    O1 6794   2.084   2.071   0.782 -0.2933  0.0886 -0.4981
  452TMC3    O2 6795   1.583   1.831   0.971  0.0882  0.2620 -0.4075
  453TMC3    C1 6796   3.417   3.862  11.941 -0.0095 -0.3248 -0.6320
  453TMC3    C2 6797   3.439   3.763  11.848 -0.4691 -0.2183  0.3155
  453TMC3    C3 6798   3.487   3.799  11.727 -0.3677  0.0153 -0.3003
  453TMC3    C4 6799   3.462   3.993  11.929 -0.8112 -0.2403 -0.2631
  453TMC3    C5 6800   3.520   4.015  11.806 -0.4180  0.3399  0.5748
  453TMC3    C6 6801   3.523   3.925  11.702 -0.5227 -0.5463 -0.4753
  453TMC3     C 6802   3.417   3.807  12.074  0.8849  0.6053  0.1466
  453TMC3     O 6803   3.466   3.698  12.102  0.5961  0.5082 -0.1987
  453TMC3     H 6804   3.409   3.664  11.880  1.2353 -0.4857  1.1217
  453TMC3    H1 6805   3.451   4.067  12.007 -1.3923 -1.9963  1.3500
  453TMC3    H2 6806   3.574   3.944  11.608 -1.0546 -1.1769 -0.8915
  453TMC3    C7 6807   3.584   4.150  11.787 -0.1617 -0.2585 -0.7709
  453TMC3    C8 6808   3.533   3.686  11.643  0.0782 -0.2962  0.0846
  453TMC3    O1 6809   3.677   4.147  11.708  0.7537  0.1672  0.1487
  453TMC3    O2 6810   3.561   3.705  11.524 -0.0175  0.5332  0.8303
  454MPD2     C 6811   2.093   3.951  16.319 -1.0290 -0.3057  0.4369
  454MPD2    C1 6812   2.028   4.055  16.257 -0.0091 -0.3937  0.2917
  454MPD2    C2 6813   1.961   4.151  16.335  0.2251 -0.2634 -0.2044
  454MPD2    C3 6814   1.959   4.144  16.474  0.1842 -0.2587 -0.0052
  454MPD2    C4 6815   2.036   4.048  16.534 -0.1710  0.3243 -0.6452
  454MPD2    C5 6816   2.094   3.946  16.457 -0.0215  0.5574  0.4409
  454MPD2     H 6817   1.906   4.230  16.286 -1.0661  0.0403  1.7250
  454MPD2    H1 6818   2.035   4.042  16.643  2.9239  1.2778 -0.5627
  454MPD2    H2 6819   2.140   3.868  16.268 -2.9428 -0.5014 -0.9876
  454MPD2    H3 6820   2.128   3.860  16.514 -1.7432  0.5397  1.4383
  454MPD2     N 6821   1.884   4.230  16.557  0.6843  0.3950 -0.1488
  454MPD2    H5 6822   1.915   4.230  16.654  1.9379 -2.2060 -0.5717
  454MPD2    N1 6823   2.006   4.055  16.118  0.1752 -0.0487  0.0765
  454MPD2    H7 6824   1.960   4.135  16.075 -1.3887 -0.6433  0.6250
  455TMC3    C1 6825   1.695   4.291  16.422  0.1971  0.7104 -0.1687
  455TMC3    C2 6826   1.613   4.397  16.380 -0.2837  0.6086  0.4738
  455TMC3    C3 6827   1.510   4.370  16.292 -0.3501  0.0777  0.4650
  455TMC3    C4 6828   1.660   4.162  16.398 -0.4639 -0.3123 -0.3683
  455TMC3    C5 6829   1.562   4.139  16.300 -0.3352 -0.4314  0.4381
  455TMC3    C6 6830   1.484   4.241  16.249  0.1460 -0.2828 -0.4152
  455TMC3     C 6831   1.798   4.327  16.517  0.1485 -0.4789  0.2521
  455TMC3     O 6832   1.760   4.423  16.585 -0.7304  0.0994  0.3616
  455TMC3     H 6833   1.621   4.503  16.403  2.9695  0.4844 -0.0291
  455TMC3    H1 6834   1.719   4.084  16.445 -2.1727 -1.2009  0.3319
  455TMC3    H2 6835   1.407   4.224  16.174 -1.1592  1.0873  0.5991
  455TMC3    C7 6836   1.553   4.011  16.239  0.1477  0.1691 -0.3185
  455TMC3    C8 6837   1.408   4.470  16.276 -0.0511  0.4297 -0.6361
  455TMC3    O1 6838   1.453   3.985  16.174 -0.0497  0.3374 -0.3004
  455TMC3    O2 6839   1.452   4.577  16.238  0.2397  0.0427  0.3511
  456MPD2     C 6840   4.649   3.983  16.382  0.3930  0.2976 -0.3177
  456MPD2    C1 6841   4.698   3.899  16.475  0.0531  0.3080 -0.5747
  456MPD2    C2 6842   4.682   3.920  16.613  0.8992  0.4881  0.3582
  456MPD2    C3 6843   4.599   4.027  16.644  0.3454  0.3767  0.0058
  456MPD2    C4 6844   4.562   4.117  16.554  1.0796  0.4787 -0.5709
  456MPD2    C5 6845   4.586   4.095  16.425 -0.8585  0.4887  0.3940
  456MPD2     H 6846   4.713   3.845  16.686 -0.0853 -1.4519 -1.2129
  456MPD2    H1 6847   4.497   4.201  16.575  0.4849  0.1413 -1.0630
  456MPD2    H2 6848   4.663   3.983  16.275  0.6331 -1.6414 -0.2842
  456MPD2    H3 6849   4.559   4.167  16.349  0.7172 -1.1331 -1.7076
  456MPD2     N 6850   4.543   4.045  16.777 -0.3387  0.2363  0.0794
  456MPD2    H5 6851   4.476   4.120  16.792 -2.4571 -1.2538 -1.8328
  456MPD2    N1 6852   0.036   3.790  16.426 -0.0074  0.1799  0.2360
  456MPD2    H7 6853   0.042   3.796  16.325  3.0081 -1.0133  0.3243
  457TMC3    C1 6854   4.472   3.997  16.995  0.4588 -0.3758  0.3534
  457TMC3    C2 6855   4.376   4.098  16.976  0.6824  0.2875  0.2395
  457TMC3    C3 6856   4.283   4.106  17.077  1.0085 -0.2253 -0.5902
  457TMC3    C4 6857   4.470   3.912  17.098  0.8007  0.4455  0.8323
  457TMC3    C5 6858   4.384   3.940  17.201 -0.2609 -0.0504  0.2885
  457TMC3    C6 6859   4.288   4.033  17.196  0.4044  0.0472 -0.0103
  457TMC3     C 6860   4.567   3.971  16.890  1.0019  0.6334 -0.3077
  457TMC3     O 6861   4.663   3.895  16.908 -0.3841 -0.3719  0.4967
  457TMC3     H 6862   4.373   4.165  16.892  1.6010 -0.3502 -0.2953
  457TMC3    H1 6863   4.539   3.829  17.099 -1.4463 -1.4408 -1.1764
  457TMC3    H2 6864   4.200   4.035  17.258 -0.4648 -0.2066 -1.2418
  457TMC3    C7 6865   4.427   3.895  17.335  0.2515  0.1201 -0.1589
  457TMC3    C8 6866   4.177   4.204  17.066  0.1442  0.0158 -0.4521
  457TMC3    O1 6867   4.493   3.794  17.353  0.1482  0.0176 -0.3481
  457TMC3    O2 6868   4.105   4.231  17.163  0.0151  0.1037  0.3112
  458MPD2     C 6869   2.854   3.501  12.754 -0.3458  0.3254 -0.4687
  458MPD2    C1 6870   2.731   3.456  12.803 -0.8195  0.4900  0.6900
  458MPD2    C2 6871   2.618   3.477  12.728  0.4183  0.3859  0.7902
  458MPD2    C3 6872   2.610   3.541  12.607  0.4566  0.2110 -1.0264
  458MPD2    C4 6873   2.740   3.580  12.566 -0.7531  0.1507  0.0684
  458MPD2    C5 6874   2.858   3.563  12.639 -0.4113  0.4439 -0.3210
  458MPD2     H 6875   2.524   3.435  12.762 -0.2649  1.1011 -0.2197
  458MPD2    H1 6876   2.752   3.630  12.470  0.8696  0.5393  0.4707
  458MPD2    H2 6877   2.945   3.500  12.813 -1.0832 -1.4452  0.6377
  458MPD2    H3 6878   2.952   3.595  12.596 -1.6621  1.7078 -2.0991
  458MPD2     N 6879   2.486   3.567  12.543  0.1816  0.6012 -0.0590
  458MPD2    H5 6880   2.407   3.531  12.596  0.3733  0.6128  0.2343
  458MPD2    N1 6881   2.735   3.401  12.930 -0.1686  0.0783 -0.4214
  458MPD2    H7 6882   2.830   3.398  12.967 -0.2827  1.4861 -0.0026
  459TMC3    C1 6883   2.666   3.318  13.139  0.7608  0.4439 -0.2291
  459TMC3    C2 6884   2.769   3.375  13.204  0.3610 -0.2718  0.3515
  459TMC3    C3 6885   2.794   3.321  13.332 -0.1140  0.1620  0.2199
  459TMC3    C4 6886   2.592   3.208  13.183 -0.1566  0.5434 -0.4545
  459TMC3    C5 6887   2.631   3.151  13.304  1.0788 -0.0360 -0.7356
  459TMC3    C6 6888   2.726   3.210  13.383 -0.4453 -0.2297 -0.2527
  459TMC3     C 6889   2.629   3.363  13.008 -0.3992 -0.2248 -0.9284
  459TMC3     O 6890   2.508   3.369  12.980  0.0727  0.4079  0.5112
  459TMC3     H 6891   2.810   3.468  13.165 -2.0777  0.9483  0.7353
  459TMC3    H1 6892   2.527   3.166  13.107  0.8131 -1.2355 -0.2916
  459TMC3    H2 6893   2.753   3.178  13.483  0.5218 -1.3359 -0.8610
  459TMC3    C7 6894   2.647   3.006  13.302 -1.2105  0.8680 -0.6224
  459TMC3    C8 6895   2.930   3.350  13.375  0.6623  0.1573  0.0597
  459TMC3    O1 6896   2.701   2.960  13.204 -0.0439 -0.6444 -0.1174
  459TMC3    O2 6897   3.004   3.396  13.287 -0.2601 -0.2261 -0.5670
  460MPD2     C 6898   2.241   1.306  10.780  0.0693  0.9699  0.2299
  460MPD2    C1 6899   2.166   1.194  10.796 -0.2417  0.5544  0.2046
  460MPD2    C2 6900   2.093   1.146  10.685  0.8473 -1.0092 -0.3410
  460MPD2    C3 6901   2.091   1.214  10.567  0.2999 -0.5427  0.0968
  460MPD2    C4 6902   2.168   1.326  10.554  0.1709  0.0102 -0.8506
  460MPD2    C5 6903   2.249   1.364  10.657 -0.3490  0.4015  0.0356
  460MPD2     H 6904   2.025   1.061  10.685 -1.2933  0.6979  0.0082
  460MPD2    H1 6905   2.180   1.388  10.467  5.0460  1.6499  0.9913
  460MPD2    H2 6906   2.308   1.335  10.860 -0.8813 -0.7260  1.6288
  460MPD2    H3 6907   2.326   1.440  10.646 -0.6977  1.0840  2.2082
  460MPD2     N 6908   2.008   1.175  10.463 -0.4553  0.3551  0.4011
  460MPD2    H5 6909   1.978   1.078  10.461 -1.4235  0.6251  1.7898
  460MPD2    N1 6910   2.173   1.144  10.930  0.1526  0.2189 -0.2809
  460MPD2    H7 6911   2.226   1.189  11.004  1.2569  0.5649 -1.2802
  461TMC3    C1 6912   1.863   1.194  10.291  0.4604 -0.3208 -0.1509
  461TMC3    C2 6913   1.906   1.083  10.229 -0.3924  0.2743 -0.0993
  461TMC3    C3 6914   1.858   1.035  10.111  0.3196 -0.0592  0.2155
  461TMC3    C4 6915   1.773   1.274  10.226  0.2789  0.4529 -0.4307
  461TMC3    C5 6916   1.725   1.238  10.104 -0.4600 -0.0387  0.0864
  461TMC3    C6 6917   1.757   1.112  10.052 -0.3338 -0.4259  0.3619
  461TMC3     C 6918   1.954   1.265  10.377 -0.4976 -0.4153 -0.1283
  461TMC3     O 6919   1.956   1.384  10.363  0.3413 -0.3070 -0.8266
  461TMC3     H 6920   1.993   1.037  10.274  1.1905  2.0725 -1.2987
  461TMC3    H1 6921   1.748   1.371  10.266 -1.1315 -0.4134  0.7777
  461TMC3    H2 6922   1.716   1.076   9.958  1.6948 -3.0150  0.4847
  461TMC3    C7 6923   1.697   1.348  10.012  0.1415  0.5697 -0.5702
  461TMC3    C8 6924   1.941   0.955  10.024  0.0859  0.7393 -0.1064
  461TMC3    O1 6925   1.765   1.448  10.013 -0.1616 -0.3931  0.1387
  461TMC3    O2 6926   2.061   0.965  10.050  0.6312 -0.1743 -0.1548
  462TMC3    C1 6927   1.479   1.984   0.598 -0.2264 -0.1288  0.3787
  462TMC3    C2 6928   1.524   1.960   0.470 -0.3357  0.4245 -0.7033
  462TMC3    C3 6929   1.477   1.852   0.399 -0.0561 -0.1051  0.7703
  462TMC3    C4 6930   1.370   1.915   0.647 -0.7201  0.0454 -0.7400
  462TMC3    C5 6931   1.313   1.821   0.563  0.3708 -0.1314  0.3622
  462TMC3    C6 6932   1.366   1.790   0.442 -0.7352 -0.1340  0.0220
  462TMC3     C 6933   1.530   2.090   0.683 -0.0293 -0.7767  0.3646
  462TMC3     O 6934   1.455   2.134   0.769 -0.1979  0.4476 -0.6036
  462TMC3     H 6935   1.607   2.015   0.427  2.5265 -2.5901  1.0199
  462TMC3    H1 6936   1.331   1.937   0.745  2.2240  2.5834 -0.1544
  462TMC3    H2 6937   1.306   1.731   0.374 -2.0420  1.2642 -0.0302
  462TMC3    C7 6938   1.172   1.812   0.591  0.3855  0.5630 -0.5101
  462TMC3    C8 6939   1.477   1.870   0.254 -0.6806 -0.3581  0.8259
  462TMC3    O1 6940   1.120   1.902   0.654 -0.2168 -0.0519  0.2722
  462TMC3    O2 6941   1.493   1.987   0.218 -0.0807  0.3191 -0.2140
  463MPD2     C 6942   2.710   4.622   1.446 -0.0030 -0.1633 -0.6629
  463MPD2    C1 6943   2.603   4.705   1.474  0.0975 -0.1768  0.3525
  463MPD2    C2 6944   2.628   0.094   1.524 -0.3239  0.3060  0.8368
  463MPD2    C3 6945   2.765   0.134   1.532 -1.3639  0.0343  0.3144
  463MPD2    C4 6946   2.864   0.053   1.487  0.6009  0.4599 -0.2721
  463MPD2    C5 6947   2.837   4.661   1.440 -0.7443  0.1891  0.1206
  463MPD2     H 6948   2.546   0.158   1.553  0.3410  2.3578 -1.8098
  463MPD2    H1 6949   2.968   0.081   1.497  0.8914 -0.6390 -0.1789
  463MPD2    H2 6950   2.686   4.530   1.393 -0.4294  0.0857 -0.9025
  463MPD2    H3 6951   2.906   4.599   1.385 -3.4499 -1.6878 -1.1597
  463MPD2     N 6952   2.806   0.265   1.576  0.2000 -0.2830  0.4506
  463MPD2    H5 6953   2.904   0.291   1.570  0.1639 -0.2800 -0.0964
  463MPD2    N1 6954   2.464   4.671   1.453 -0.7229  0.5547 -0.1766
  463MPD2    H7 6955   2.398   0.003   1.488 -1.4368 -1.4213  2.2812
  464TMC3    C1 6956   2.260   4.575   1.394  0.2431  0.9189  0.0518
  464TMC3    C2 6957   2.213   4.705   1.396  0.2614  0.4314  0.3270
  464TMC3    C3 6958   2.077   4.731   1.412  0.1027 -0.0874  0.6533
  464TMC3    C4 6959   2.181   4.473   1.430 -0.0232  0.5045 -0.1551
  464TMC3    C5 6960   2.048   4.498   1.465  0.5051 -0.6543  0.0480
  464TMC3    C6 6961   1.995   4.624   1.448 -0.2656  0.0421  0.3281
  464TMC3     C 6962   2.405   4.558   1.396 -0.5824  0.4337 -0.0500
  464TMC3     O 6963   2.457   4.466   1.340  0.7525  0.0561 -0.2191
  464TMC3     H 6964   2.284   0.042   1.360  1.0828 -1.0218 -0.9937
  464TMC3    H1 6965   2.223   4.374   1.441  0.8694  0.7494 -1.3819
  464TMC3    H2 6966   1.891   4.647   1.468  0.0981  4.0916 -2.2828
  464TMC3    C7 6967   1.963   4.381   1.464  0.3881 -0.3405 -0.1313
  464TMC3    C8 6968   2.024   0.128   1.410  0.5160 -0.5648 -0.3199
  464TMC3    O1 6969   2.017   4.277   1.495 -0.1321  0.8389  0.2035
  464TMC3    O2 6970   1.905   0.140   1.406 -0.3453  0.2317 -0.4759
  465MPD2     C 6971   3.682   3.746  16.926  0.1131  0.6858  0.4510
  465MPD2    C1 6972   3.594   3.816  17.007  0.0042 -0.5327 -0.0846
  465MPD2    C2 6973   3.511   3.912  16.944  0.2056  0.4989  0.0801
  465MPD2    C3 6974   3.504   3.928  16.806 -0.1048 -0.2435  0.5000
  465MPD2    C4 6975   3.597   3.856  16.733 -0.2187 -0.1676 -0.4418
  465MPD2    C5 6976   3.690   3.770  16.793 -0.3235 -0.2953  0.1630
  465MPD2     H 6977   3.441   3.967  17.006  1.7563  2.7992 -0.2196
  465MPD2    H1 6978   3.610   3.865  16.625  0.8616 -0.6397 -0.3571
  465MPD2    H2 6979   3.754   3.679  16.972 -0.0126 -0.3454 -0.8331
  465MPD2    H3 6980   3.764   3.709  16.743  0.0165  0.7183 -0.5976
  465MPD2     N 6981   3.421   4.030  16.752  0.1444  0.4246  0.0751
  465MPD2    H5 6982   3.360   4.080  16.816 -0.1567  0.0623  0.0707
  465MPD2    N1 6983   3.561   3.788  17.143  0.5490 -0.6942  0.2856
  465MPD2    H7 6984   3.484   3.840  17.183  2.5968  1.1025  1.8885
  466TMC3    C1 6985   3.109   4.259  16.677 -0.6602 -0.2066 -0.1265
  466TMC3    C2 6986   3.112   4.356  16.587 -0.4103 -0.1636  0.6363
  466TMC3    C3 6987   3.221   4.364  16.502 -0.3307 -0.6739  0.4113
  466TMC3    C4 6988   3.204   4.167  16.689  0.4910 -0.1435  0.1839
  466TMC3    C5 6989   3.306   4.165  16.594 -0.2010  0.3427 -0.8331
  466TMC3    C6 6990   3.319   4.272  16.515  0.3690 -0.5059 -0.0897
  466TMC3     C 6991   2.998   4.248  16.777  1.1566 -0.4214 -0.8159
  466TMC3     O 6992   3.018   4.180  16.873  0.7722 -0.1125  0.2690
  466TMC3     H 6993   3.040   4.437  16.575  1.8279  1.8964  1.1019
  466TMC3    H1 6994   3.178   4.083  16.751  0.9181  0.8925  1.7623
  466TMC3    H2 6995   3.402   4.272  16.445  1.8018 -1.2977  1.6134
  466TMC3    C7 6996   3.413   4.071  16.623  0.3076  0.2823 -0.7766
  466TMC3    C8 6997   3.268   4.495  16.471 -0.0809 -0.4503 -0.1726
  466TMC3    O1 6998   3.490   4.047  16.529  0.2153 -0.0508  0.0123
  466TMC3    O2 6999   3.369   4.499  16.407 -0.0566  0.6686  0.1137
  467TMC3    C1 7000   0.236   2.774  13.922  0.1917  0.0751 -0.5311
  467TMC3    C2 7001   0.198   2.908  13.900  0.1899  0.4668  0.4752
  467TMC3    C3 7002   0.084   2.940  13.830 -0.3863  0.0564 -0.1978
  467TMC3    C4 7003   0.161   2.674  13.865  0.9043 -0.1711 -0.4751
  467TMC3    C5 7004   0.050   2.714  13.789 -0.1817 -0.0065  0.6550
  467TMC3    C6 7005   0.007   2.844  13.776  0.3900 -0.1411 -0.2338
  467TMC3     C 7006   0.381   2.769  13.929 -0.3721 -0.0064  0.6484
  467TMC3     O 7007   0.440   2.866  13.983 -0.5408  0.1158  0.2812
  467TMC3     H 7008   0.265   2.988  13.929  0.3031  1.3106 -2.1606
  467TMC3    H1 7009   0.199   2.572  13.871  0.0339 -0.4708  0.0214
  467TMC3    H2 7010   4.667   2.870  13.704 -1.6418 -2.0397  1.2267
  467TMC3    C7 7011   4.701   2.602  13.743 -0.5014 -0.4338 -0.0629
  467TMC3    C8 7012   0.130   3.040  13.739 -0.3003 -0.1566 -0.3503
  467TMC3    O1 7013   0.019   2.504  13.703  0.4499  0.0421 -0.4686
  467TMC3    O2 7014   0.129   3.156  13.779 -0.8927  0.0123  0.2028
  468MPD2     C 7015   3.715   1.097  10.830  0.5754 -0.1428  0.7585
  468MPD2    C1 7016   3.846   1.078  10.839  0.4332 -0.3962  0.4392
  468MPD2    C2 7017   3.891   0.966  10.909 -0.2384 -0.0087 -1.1823
  468MPD2    C3 7018   3.805   0.865  10.956  0.4373 -0.0640 -0.3450
  468MPD2    C4 7019   3.668   0.889  10.937 -0.7701  0.5274 -0.1303
  468MPD2    C5 7020   3.626   1.008  10.882 -0.1657 -0.6098 -0.1916
  468MPD2     H 7021   3.998   0.955  10.920 -0.3998 -2.2626 -1.7120
  468MPD2    H1 7022   3.599   0.819  10.982  0.8497 -0.8506  0.2353
  468MPD2    H2 7023   3.666   1.186  10.789  0.8372  0.2619  1.3259
  468MPD2    H3 7024   3.519   1.026  10.887  0.6076  3.6183  0.9716
  468MPD2     N 7025   3.838   0.739  11.024 -0.8188  0.2308 -0.4189
  468MPD2    H5 7026   3.765   0.677  11.058 -0.1632 -0.7621 -0.8058
  468MPD2    N1 7027   3.944   1.167  10.786 -0.2694  0.8933  0.0171
  468MPD2    H7 7028   4.041   1.143  10.800 -0.7264 -0.1885  1.3164
  469TMC3    C1 7029   4.022   1.332  10.639 -0.0894 -0.7263 -0.1214
  469TMC3    C2 7030   4.108   1.242  10.587  0.6873  0.0853  0.2685
  469TMC3    C3 7031   4.214   1.299  10.518  0.3210  0.2658  0.7036
  469TMC3    C4 7032   4.021   1.464  10.616  0.1079  0.1843  0.2090
  469TMC3    C5 7033   4.140   1.512  10.559  0.0540  0.1922  0.0804
  469TMC3    C6 7034   4.226   1.432  10.496  0.1784  0.1323 -0.9120
  469TMC3     C 7035   3.908   1.281  10.721  0.5032 -0.3691 -0.6177
  469TMC3     O 7036   3.808   1.354  10.734  0.1850  0.7854 -0.1791
  469TMC3     H 7037   4.106   1.136  10.610 -1.2500  0.1051  0.1684
  469TMC3    H1 7038   3.946   1.535  10.651 -0.0673  0.3604 -0.5202
  469TMC3    H2 7039   4.317   1.466  10.446  1.1223 -1.9228 -0.5883
  469TMC3    C7 7040   4.130   1.640  10.492 -0.1371  0.2587  0.2218
  469TMC3    C8 7041   4.333   1.221  10.481  0.0898  0.1511 -0.4618
  469TMC3    O1 7042   4.183   1.662  10.385 -0.3494  0.3248  0.4637
  469TMC3    O2 7043   4.398   1.241  10.382 -0.1109 -0.3180  0.6965
  470TMC3    C1 7044   0.839   1.519   0.997  0.7978 -0.7112 -0.2738
  470TMC3    C2 7045   0.894   1.616   0.917  0.5054 -0.2821  0.1715
  470TMC3    C3 7046   1.004   1.685   0.972 -0.0001  0.4027 -0.5203
  470TMC3    C4 7047   0.884   1.485   1.121  0.0232 -0.2549 -0.3666
  470TMC3    C5 7048   0.988   1.559   1.178 -0.9635 -0.2021 -0.4155
  470TMC3    C6 7049   1.045   1.660   1.100  0.3819  0.5145 -0.5677
  470TMC3     C 7050   0.757   1.413   0.934 -0.5333  0.2548 -0.3991
  470TMC3     O 7051   0.781   1.304   0.979 -0.5078 -0.1131  0.1146
  470TMC3     H 7052   0.848   1.639   0.822  1.5157  1.3443  0.0777
  470TMC3    H1 7053   0.828   1.404   1.167 -0.1776  0.4437  0.6255
  470TMC3    H2 7054   1.128   1.715   1.142  1.6244 -1.3985 -0.4955
  470TMC3    C7 7055   0.941   1.612   1.302  0.1189 -0.0695  0.1834
  470TMC3    C8 7056   1.005   1.828   0.931  0.9675  0.0784 -0.1798
  470TMC3    O1 7057   0.977   1.722   1.334  0.2889  0.3019  0.0744
  470TMC3    O2 7058   0.894   1.873   0.906  0.1054 -0.2876 -0.0849
  471MPD2     C 7059   1.033   3.142  17.019 -0.4196  0.5348 -0.3256
  471MPD2    C1 7060   1.158   3.097  17.054 -0.1711 -1.1087 -0.2413
  471MPD2    C2 7061   1.180   3.028  17.178  0.5959 -0.6375  0.4518
  471MPD2    C3 7062   1.066   2.995  17.250  0.2887  0.2502 -0.5699
  471MPD2    C4 7063   0.935   3.038  17.211 -0.2937  0.7015 -1.1829
  471MPD2    C5 7064   0.921   3.113  17.095 -0.7359  0.4383  0.1619
  471MPD2     H 7065   1.282   2.994  17.196  1.0960 -1.3216 -3.6507
  471MPD2    H1 7066   0.844   3.012  17.265 -1.4385  2.0206 -2.4525
  471MPD2    H2 7067   1.010   3.198  16.929 -0.6163  0.4506 -0.3285
  471MPD2    H3 7068   0.816   3.135  17.078  0.2454  2.6824 -2.9141
  471MPD2     N 7069   1.062   2.890  17.345  0.3763 -0.0495 -0.1690
  471MPD2    H5 7070   0.979   2.843  17.378 -0.0363 -0.1791 -1.3786
  471MPD2    N1 7071   1.271   3.103  16.971  0.2121  0.6698 -0.0281
  471MPD2    H7 7072   1.352   3.051  17.005 -2.0294 -1.9894  1.2466
  472TMC3    C1 7073   1.367   3.091  16.757  1.2366  0.1707 -0.3851
  472TMC3    C2 7074   1.368   3.141  16.636 -0.3671  0.3018 -0.3569
  472TMC3    C3 7075   1.429   3.074  16.530  0.3469  0.0375 -0.2665
  472TMC3    C4 7076   1.418   2.972  16.783  0.2820 -0.3425  1.0112
  472TMC3    C5 7077   1.460   2.898  16.678  0.4032  0.0552 -0.6445
  472TMC3    C6 7078   1.478   2.950  16.553  0.0345  0.3163  0.0006
  472TMC3     C 7079   1.262   3.147  16.846  0.8263 -0.1988 -0.0289
  472TMC3     O 7080   1.189   3.242  16.807  0.4357  0.0850 -0.0732
  472TMC3     H 7081   1.316   3.232  16.606  1.8304  1.9771  0.9522
  472TMC3    H1 7082   1.404   2.914  16.873 -1.1848  1.2339  1.8005
  472TMC3    H2 7083   1.523   2.898  16.469 -1.1143 -1.0995  0.2642
  472TMC3    C7 7084   1.404   2.764  16.684  0.7430 -0.7241  0.1448
  472TMC3    C8 7085   1.350   3.082  16.408 -0.4767  0.3675  0.0526
  472TMC3    O1 7086   1.441   2.692  16.775  0.3375  0.4216 -0.0732
  472TMC3    O2 7087   1.406   3.032  16.313 -0.2107  0.3318  0.7353
  473MPD2     C 7088   1.132   0.270  13.809 -0.1121 -0.1173 -0.4293
  473MPD2    C1 7089   1.150   0.341  13.692 -0.3472 -0.1878  0.4026
  473MPD2    C2 7090   1.226   0.454  13.699 -0.2458  0.9010  0.1459
  473MPD2    C3 7091   1.282   0.498  13.811  0.5443  0.2115 -0.4344
  473MPD2    C4 7092   1.275   0.418  13.928  0.4901  0.6576  0.3870
  473MPD2    C5 7093   1.193   0.311  13.924  0.0521  0.5319 -0.7097
  473MPD2     H 7094   1.245   0.507  13.606  0.0038 -1.7262 -1.3174
  473MPD2    H1 7095   1.329   0.444  14.018  1.3194  0.5699 -0.0774
  473MPD2    H2 7096   1.064   0.186  13.821  0.9567 -0.9578 -0.2785
  473MPD2    H3 7097   1.184   0.255  14.017  0.3661  3.6397  1.1892
  473MPD2     N 7098   1.350   0.621  13.832 -0.0688  0.5830  0.3165
  473MPD2    H5 7099   1.390   0.652  13.920  1.4667  0.6071 -0.3938
  473MPD2    N1 7100   1.088   0.302  13.570 -0.4897  0.3140 -0.2168
  473MPD2    H7 7101   1.096   0.368  13.494  1.3593 -0.6741 -0.8662
  474TMC3    C1 7102   1.422   0.844  13.779 -0.0350  0.5316 -0.2562
  474TMC3    C2 7103   1.371   0.957  13.724  0.0725 -0.2751 -0.4909
  474TMC3    C3 7104   1.426   1.078  13.759  0.0045 -0.5814 -0.1903
  474TMC3    C4 7105   1.532   0.839  13.864  0.1653  0.0074 -0.7881
  474TMC3    C5 7106   1.581   0.965  13.897 -0.4770  0.0243  0.1684
  474TMC3    C6 7107   1.526   1.080  13.854  0.2430  0.4635 -0.5069
  474TMC3     C 7108   1.354   0.724  13.734 -0.3722  0.1227  0.3436
  474TMC3     O 7109   1.297   0.721  13.627  0.1584 -0.4128 -0.4607
  474TMC3     H 7110   1.295   0.945  13.647  1.6420 -1.9832 -1.7591
  474TMC3    H1 7111   1.576   0.746  13.900  0.5316  0.9237  1.1055
  474TMC3    H2 7112   1.576   1.174  13.876 -0.6747  0.5155  1.2890
  474TMC3    C7 7113   1.673   0.974  13.999  0.3143 -0.3504 -0.0249
  474TMC3    C8 7114   1.412   1.194  13.670 -0.2062  0.3844  0.5179
  474TMC3    O1 7115   1.782   0.919  13.984 -0.1814  0.5900 -0.3483
  474TMC3    O2 7116   1.361   1.166  13.559  0.6665  0.0006  0.4151
  475MPD2     C 7117   0.168   3.350  10.740 -0.5466  0.6722 -0.0600
  475MPD2    C1 7118   0.172   3.463  10.818  0.1546 -0.9417 -0.5632
  475MPD2    C2 7119   0.058   3.537  10.841 -0.7191 -0.4806 -0.7971
  475MPD2    C3 7120   4.673   3.497  10.792 -0.4938 -0.6185  1.0866
  475MPD2    C4 7121   4.669   3.384  10.712  0.0435 -0.7313 -0.3941
  475MPD2    C5 7122   0.049   3.316  10.686  0.2212  0.2883 -0.1841
  475MPD2     H 7123   0.062   3.612  10.919  0.1195 -1.4903  0.1351
  475MPD2    H1 7124   4.580   3.357  10.656 -2.0438 -1.3144  3.2077
  475MPD2    H2 7125   0.258   3.296  10.711 -0.3493  0.8827  0.1630
  475MPD2    H3 7126   0.064   3.242  10.608  0.4769 -0.6157  0.7274
  475MPD2     N 7127   4.568   3.583  10.824  0.3409  0.8065  0.2765
  475MPD2    H5 7128   4.594   3.665  10.877  1.2052  0.3115  0.6193
  475MPD2    N1 7129   0.291   3.511  10.874  0.1782  1.0718  0.2563
  475MPD2    H7 7130   0.293   3.588  10.940  1.0425  0.1881  1.2461
  476TMC3    C1 7131   0.505   3.496  10.962 -0.6783  0.2224  0.2032
  476TMC3    C2 7132   0.618   3.569  10.921  0.4888 -0.7386  0.2390
  476TMC3    C3 7133   0.663   3.664  11.006 -0.6432 -0.3759 -0.5158
  476TMC3    C4 7134   0.439   3.518  11.086 -0.3998 -0.4296  0.1354
  476TMC3    C5 7135   0.495   3.619  11.162 -0.6085 -0.0200 -0.9225
  476TMC3    C6 7136   0.613   3.691  11.134 -0.5390 -0.1917 -0.0538
  476TMC3     C 7137   0.413   3.448  10.864  0.3422 -0.4970  0.4569
  476TMC3     O 7138   0.464   3.380  10.775  0.0036  0.2214  0.0823
  476TMC3     H 7139   0.668   3.551  10.826  0.9008  0.6489  0.1874
  476TMC3    H1 7140   0.357   3.461  11.128  0.0540 -1.2543 -0.0909
  476TMC3    H2 7141   0.649   3.772  11.195  0.1879 -0.6523  0.1334
  476TMC3    C7 7142   0.414   3.653  11.269 -0.5175  0.1392  0.2799
  476TMC3    C8 7143   0.730   3.782  10.944  0.3944 -0.1106  0.1991
  476TMC3    O1 7144   0.317   3.590  11.303  0.4895  0.2132  0.2757
  476TMC3    O2 7145   0.757   3.867  11.029  0.4988  0.6880 -0.3507
  477MPD2     C 7146   2.807   0.248  11.786  0.3610 -0.0952 -0.2135
  477MPD2    C1 7147   2.686   0.213  11.839  0.5070 -0.7270 -0.4043
  477MPD2    C2 7148   2.681   0.134  11.948 -0.7709  0.6477 -0.2033
  477MPD2    C3 7149   2.799   0.105  12.016  0.4576 -0.8431 -0.3512
  477MPD2    C4 7150   2.919   0.155  11.965 -0.1717 -0.1537  0.3866
  477MPD2    C5 7151   2.923   0.230  11.853 -0.1202 -0.0974 -0.1554
  477MPD2     H 7152   2.586   0.091  11.975 -1.0470  0.5856 -1.2673
  477MPD2    H1 7153   3.013   0.123  12.010 -0.6997  0.9288  2.2547
  477MPD2    H2 7154   2.824   0.312  11.700 -0.2989  0.7131  0.2482
  477MPD2    H3 7155   3.013   0.251  11.796  0.3954 -1.4523  0.1621
  477MPD2     N 7156   2.795   0.000  12.110  0.1475  0.2991 -0.2928
  477MPD2    H5 7157   2.885   4.694  12.131 -0.1292  0.5398  1.3491
  477MPD2    N1 7158   2.572   0.249  11.769 -0.4005 -0.1170 -0.1037
  477MPD2    H7 7159   2.592   0.308  11.689  1.3704 -0.4178  0.1270
  478TMC3    C1 7160   2.353   0.343  11.753  0.3075 -0.3868  0.3294
  478TMC3    C2 7161   2.246   0.399  11.827 -0.2792  0.4690  0.0223
  478TMC3    C3 7162   2.166   0.494  11.761 -0.5565 -0.2997  0.4294
  478TMC3    C4 7163   2.372   0.366  11.623 -0.1373  0.5861 -0.7446
  478TMC3    C5 7164   2.293   0.462  11.568 -0.6786  0.9612  0.0531
  478TMC3    C6 7165   2.191   0.525  11.627  0.2608 -0.4896  0.1430
  478TMC3     C 7166   2.445   0.261  11.824 -0.3467  0.0213 -0.7540
  478TMC3     O 7167   2.409   0.235  11.935  0.2223  0.3330  0.5929
  478TMC3     H 7168   2.229   0.385  11.933 -1.5066 -1.6273 -0.4615
  478TMC3    H1 7169   2.449   0.322  11.560  1.1163 -0.1626  1.3203
  478TMC3    H2 7170   2.125   0.590  11.569  0.4927  0.2719  0.7363
  478TMC3    C7 7171   2.334   0.512  11.437  1.1604 -0.4629  0.3607
  478TMC3    C8 7172   2.125   0.603  11.848 -0.0066  0.2454 -0.0661
  478TMC3    O1 7173   2.447   0.482  11.409  0.4834  0.2375  0.5862
  478TMC3    O2 7174   2.109   0.578  11.965 -0.0281 -0.3620  0.0624
  479MPD2     C 7175   1.300   2.806  15.205 -0.0661 -0.5796 -0.3687
  479MPD2    C1 7176   1.252   2.747  15.319 -0.5774 -0.2400 -0.0986
  479MPD2    C2 7177   1.232   2.822  15.437 -0.0654  0.2740 -0.7583
  479MPD2    C3 7178   1.269   2.957  15.446  0.3522 -0.1014  0.0578
  479MPD2    C4 7179   1.324   3.012  15.333 -0.5476 -0.0274 -0.1620
  479MPD2    C5 7180   1.341   2.936  15.213  0.8188  0.2804  0.2589
  479MPD2     H 7181   1.202   2.784  15.534  0.6968  2.3916  0.2886
  479MPD2    H1 7182   1.355   3.116  15.328  1.7211 -0.6976 -0.0797
  479MPD2    H2 7183   1.323   2.738  15.123 -0.1171  1.2109 -1.8539
  479MPD2    H3 7184   1.392   2.976  15.126  0.3001 -1.0509 -0.6639
  479MPD2     N 7185   1.252   3.046  15.557  0.3337 -0.0080  0.4906
  479MPD2    H5 7186   1.299   3.135  15.547  1.3310 -0.3900  1.7010
  479MPD2    N1 7187   1.188   2.621  15.309 -0.4107  0.0890  0.3726
  479MPD2    H7 7188   1.174   2.584  15.215  2.6757 -2.2031  0.7855
  480TMC3    C1 7189   0.936   2.791  15.826 -0.1383  0.6946 -0.0111
  480TMC3    C2 7190   0.873   2.735  15.715  0.1595 -0.0476  0.4926
  480TMC3    C3 7191   0.885   2.804  15.595 -0.1682  0.8917  0.1134
  480TMC3    C4 7192   1.044   2.876  15.803  0.3551 -0.1124 -0.0161
  480TMC3    C5 7193   1.066   2.927  15.679  0.4629  0.0998 -0.2197
  480TMC3    C6 7194   0.982   2.900  15.573  0.0007  0.2161  0.1324
  480TMC3     C 7195   0.942   2.714  15.946 -0.3188  0.2502 -0.6105
  480TMC3     O 7196   1.024   2.745  16.034 -0.3306 -0.8237  0.0176
  480TMC3     H 7197   0.793   2.663  15.720  0.0701  0.0050 -0.2068
  480TMC3    H1 7198   1.120   2.887  15.878  0.4525  0.8545 -0.2565
  480TMC3    H2 7199   1.001   2.959  15.484 -0.6450 -2.3676 -1.7280
  480TMC3    C7 7200   1.176   3.024  15.667  0.7377 -0.1800 -0.2490
  480TMC3    C8 7201   0.792   2.780  15.489  0.5611  0.4717  0.6692
  480TMC3    O1 7202   1.185   3.104  15.762  0.2357 -0.0996 -0.5810
  480TMC3    O2 7203   0.679   2.755  15.525 -0.6223  1.1037  0.0869
  481MPD2     C 7204   2.755   1.801  14.830 -0.0655  0.2429 -0.2970
  481MPD2    C1 7205   2.631   1.843  14.794 -0.3227  0.2680 -0.7144
  481MPD2    C2 7206   2.535   1.854  14.891  0.1241 -0.8649 -0.8447
  481MPD2    C3 7207   2.565   1.824  15.028 -0.2644  0.5519 -0.1270
  481MPD2    C4 7208   2.701   1.799  15.063  0.1025 -0.2368 -0.2086
  481MPD2    C5 7209   2.795   1.790  14.963  0.1093 -0.1498 -0.1639
  481MPD2     H 7210   2.432   1.871  14.863  0.0087  1.2091  0.8122
  481MPD2    H1 7211   2.735   1.771  15.162  2.8342  1.3156 -0.6756
  481MPD2    H2 7212   2.827   1.781  14.752  0.8336 -0.5073  0.7156
  481MPD2    H3 7213   2.893   1.762  15.000 -0.0592  0.7392  0.9278
  481MPD2     N 7214   2.471   1.820  15.128 -0.0826 -0.0730 -0.6173
  481MPD2    H5 7215   2.505   1.791  15.220  0.8558  1.7920 -0.3605
  481MPD2    N1 7216   2.609   1.865  14.655 -0.3226 -0.1461 -0.0168
  481MPD2    H7 7217   2.675   1.833  14.585 -1.3784 -2.5630  0.0981
  482TMC3    C1 7218   2.490   1.915  14.463  0.7365 -0.0943  0.4688
  482TMC3    C2 7219   2.570   1.820  14.405 -0.6855  0.3561  0.1416
  482TMC3    C3 7220   2.615   1.842  14.279  0.1823  0.3038 -0.2197
  482TMC3    C4 7221   2.449   2.029  14.393 -0.2252  0.2881 -0.9847
  482TMC3    C5 7222   2.485   2.036  14.256  0.3905 -0.0637 -0.0651
  482TMC3    C6 7223   2.588   1.957  14.205  1.0291 -0.1961  0.3836
  482TMC3     C 7224   2.500   1.923  14.606  0.3432 -0.6432  0.0662
  482TMC3     O 7225   2.414   1.986  14.663  0.2963  0.2097 -0.0631
  482TMC3     H 7226   2.600   1.727  14.453 -0.6456 -0.3876 -1.2964
  482TMC3    H1 7227   2.379   2.094  14.443  1.0389  0.0112  1.1398
  482TMC3    H2 7228   2.621   1.962  14.102  0.3489 -0.7099  0.1438
  482TMC3    C7 7229   2.422   2.143  14.179 -0.3060 -0.1614  0.8303
  482TMC3    C8 7230   2.650   1.724  14.203  0.9348  0.8646  0.4566
  482TMC3    O1 7231   2.354   2.233  14.225 -0.0589  0.3562 -0.8374
  482TMC3    O2 7232   2.604   1.611  14.217  0.2864 -0.3415 -0.2277
  483TMC3    C1 7233   0.658   0.622   1.223  0.1504 -0.4081 -0.0515
  483TMC3    C2 7234   0.742   0.731   1.211 -0.5060 -0.5718  0.5952
  483TMC3    C3 7235   0.875   0.708   1.194  0.5562 -0.3436 -1.2631
  483TMC3    C4 7236   0.700   0.490   1.207 -0.5818 -0.1351  0.3949
  483TMC3    C5 7237   0.835   0.472   1.195 -0.1992  0.2230 -0.8593
  483TMC3    C6 7238   0.924   0.577   1.196 -0.4781 -0.4378 -0.4787
  483TMC3     C 7239   0.514   0.650   1.205 -0.5738 -0.3854 -0.2304
  483TMC3     O 7240   0.470   0.765   1.228 -0.3389  0.0567  0.2064
  483TMC3     H 7241   0.703   0.832   1.209 -1.3292 -0.9033 -0.3219
  483TMC3    H1 7242   0.633   0.407   1.222 -0.8994  0.1272  0.4312
  483TMC3    H2 7243   1.027   0.546   1.186  0.0645  2.1100 -2.8267
  483TMC3    C7 7244   0.875   0.360   1.110  0.6053 -0.8993 -0.0316
  483TMC3    C8 7245   0.935   0.787   1.085 -0.4089  0.6186  0.0572
  483TMC3    O1 7246   0.940   0.396   1.013  0.0055  0.1455 -0.4322
  483TMC3    O2 7247   0.858   0.874   1.052  0.4140  0.1939  0.0170
  484MPD2     C 7248   3.107   3.298  13.692  0.1444 -0.2727  0.6019
  484MPD2    C1 7249   3.091   3.329  13.561  0.7097  0.4153 -0.5340
  484MPD2    C2 7250   3.204   3.351  13.481  0.1660  0.7817 -0.2076
  484MPD2    C3 7251   3.330   3.356  13.537  0.3506  0.0431  1.1835
  484MPD2    C4 7252   3.346   3.348  13.672  0.1180  0.3252 -0.4357
  484MPD2    C5 7253   3.237   3.305  13.742 -0.2202 -0.3781 -0.0939
  484MPD2     H 7254   3.200   3.367  13.373  2.1494  1.6707 -0.1499
  484MPD2    H1 7255   3.440   3.369  13.721 -1.2079 -1.3982  2.8191
  484MPD2    H2 7256   3.026   3.258  13.752  0.5671 -0.2807  1.1630
  484MPD2    H3 7257   3.259   3.273  13.843  0.2370 -0.0776 -0.0979
  484MPD2     N 7258   3.446   3.375  13.457  0.1236  0.2057 -0.1223
  484MPD2    H5 7259   3.536   3.365  13.503  0.5084  1.1432 -0.6895
  484MPD2    N1 7260   2.957   3.327  13.508 -0.1381 -0.6074 -0.2277
  484MPD2    H7 7261   2.879   3.318  13.573  0.6560  1.6578  1.0411
  485TMC3    C1 7262   3.586   3.439  13.274  0.3594 -0.7450  0.5278
  485TMC3    C2 7263   3.690   3.474  13.356 -0.1027 -0.3485 -0.4481
  485TMC3    C3 7264   3.812   3.495  13.301 -0.2656  0.4411 -0.8261
  485TMC3    C4 7265   3.604   3.422  13.140 -0.2441 -0.7451  0.0395
  485TMC3    C5 7266   3.723   3.456  13.083  0.2982  0.0163  0.2724
  485TMC3    C6 7267   3.823   3.508  13.171 -0.6458 -0.4243 -0.1297
  485TMC3     C 7268   3.452   3.403  13.321  0.7251  0.2208  0.5069
  485TMC3     O 7269   3.365   3.398  13.235 -0.0428 -0.6270  0.1501
  485TMC3     H 7270   3.672   3.478  13.463 -0.3664  0.6325 -0.5339
  485TMC3    H1 7271   3.520   3.394  13.077 -0.5090 -0.0380  0.0806
  485TMC3    H2 7272   3.918   3.546  13.136 -0.6562  1.5547  1.9818
  485TMC3    C7 7273   3.777   3.360  12.986  0.0041  0.5839  0.9565
  485TMC3    C8 7274   3.919   3.415  13.366 -0.3031  0.4643  0.2215
  485TMC3    O1 7275   3.896   3.368  12.967 -0.3635  0.0719  0.1029
  485TMC3    O2 7276   3.886   3.383  13.477  0.2376 -0.4587  0.7122
  486MPD2     C 7277   1.341   2.467  13.166  0.1137 -0.1381 -0.0755
  486MPD2    C1 7278   1.324   2.438  13.029  0.3338  0.2647 -0.6358
  486MPD2    C2 7279   1.256   2.530  12.959  0.0361 -0.5411 -0.3014
  486MPD2    C3 7280   1.201   2.647  13.014  0.6204 -0.2198 -0.4578
  486MPD2    C4 7281   1.217   2.671  13.146  0.3720  0.6976  0.5194
  486MPD2    C5 7282   1.299   2.584  13.219  0.3814 -0.0820  0.4310
  486MPD2     H 7283   1.255   2.525  12.850 -0.0532 -0.8861 -0.2844
  486MPD2    H1 7284   1.183   2.759  13.199  0.6073  0.2519  1.4250
  486MPD2    H2 7285   1.420   2.413  13.218  1.0730 -0.8168 -2.2499
  486MPD2    H3 7286   1.317   2.604  13.324 -0.4709 -2.8474  1.0968
  486MPD2     N 7287   1.128   2.750  12.953 -0.1759 -0.3981  0.2037
  486MPD2    H5 7288   1.100   2.831  13.007  2.4156 -0.0833  1.0710
  486MPD2    N1 7289   1.376   2.320  12.967 -0.2541 -0.3652 -0.6079
  486MPD2    H7 7290   1.409   2.247  13.029 -1.5991 -0.5719 -0.1411
  487TMC3    C1 7291   1.418   2.147  12.824  0.7433 -0.0057 -0.8902
  487TMC3    C2 7292   1.416   2.104  12.693  0.2717  0.5136 -0.0303
  487TMC3    C3 7293   1.417   1.963  12.671  0.0307  0.0055  0.1771
  487TMC3    C4 7294   1.425   2.055  12.925  0.4194 -0.2148  0.4754
  487TMC3    C5 7295   1.438   1.921  12.900 -0.0874  0.1757  0.2315
  487TMC3    C6 7296   1.429   1.881  12.777  0.3642 -1.1418  0.5371
  487TMC3     C 7297   1.356   2.280  12.843 -0.0690  0.8969  0.1966
  487TMC3     O 7298   1.303   2.341  12.748 -0.0299 -0.1633  0.0254
  487TMC3     H 7299   1.428   2.181  12.618 -0.4185  0.9836  0.3479
  487TMC3    H1 7300   1.402   2.081  13.028 -1.4410 -0.7724  0.2043
  487TMC3    H2 7301   1.453   1.776  12.762 -2.2273 -1.8039  1.0229
  487TMC3    C7 7302   1.416   1.836  13.017 -0.1078  0.1608  0.3547
  487TMC3    C8 7303   1.397   1.915  12.534 -0.2668 -0.2862  0.2660
  487TMC3    O1 7304   1.451   1.877  13.129  0.2246 -0.1788 -0.1425
  487TMC3    O2 7305   1.442   1.971  12.438  0.2338 -0.0108 -0.0954
  488MPD2     C 7306   0.554   4.371  16.309 -0.6175 -0.6611  0.0754
  488MPD2    C1 7307   0.503   4.497  16.282 -0.1636  0.0945 -0.6409
  488MPD2    C2 7308   0.446   4.572  16.388 -0.3450 -0.2857  0.7026
  488MPD2    C3 7309   0.417   4.512  16.512 -0.3912 -0.2170 -0.3544
  488MPD2    C4 7310   0.461   4.386  16.538  0.3877  0.2711 -0.1353
  488MPD2    C5 7311   0.521   4.314  16.435 -0.0270  0.3462 -0.5773
  488MPD2     H 7312   0.415   4.675  16.369  1.0011  0.0335  0.2503
  488MPD2    H1 7313   0.447   4.340  16.635  2.0235 -2.2068 -1.0615
  488MPD2    H2 7314   0.615   4.321  16.235  2.0589 -1.0825  2.5688
  488MPD2    H3 7315   0.558   4.215  16.461 -1.0347 -1.0351 -4.3937
  488MPD2     N 7316   0.350   4.593  16.608 -0.5322 -0.1753 -0.5366
  488MPD2    H5 7317   0.353   4.694  16.595  0.9931 -0.3596 -1.5430
  488MPD2    N1 7318   0.537   4.565  16.165 -0.1254 -0.0281 -0.4259
  488MPD2    H7 7319   0.524   4.666  16.166 -1.3333 -0.2119  2.5813
  489TMC3    C1 7320   0.274   4.647  16.815  0.0898  0.3958 -0.6905
  489TMC3    C2 7321   0.335   0.035  16.819  0.4788 -0.1191 -0.1659
  489TMC3    C3 7322   0.286   0.131  16.903 -0.2456 -0.8123 -0.3324
  489TMC3    C4 7323   0.168   4.622  16.900 -0.0350 -0.4763  0.0386
  489TMC3    C5 7324   0.123   4.721  16.987  0.1015  0.7890  0.2172
  489TMC3    C6 7325   0.178   0.112  16.983  0.7189  0.1697  0.6817
  489TMC3     C 7326   0.310   4.543  16.723 -0.1692  0.6179 -0.5008
  489TMC3     O 7327   0.284   4.427  16.762 -0.0364 -0.4221 -0.1144
  489TMC3     H 7328   0.413   0.068  16.751  0.4810 -0.1433 -0.1747
  489TMC3    H1 7329   0.122   4.524  16.903 -2.7483  0.8234  0.9067
  489TMC3    H2 7330   0.132   0.190  17.044 -0.4877  0.2098 -0.2766
  489TMC3    C7 7331   4.728   4.707  17.050 -0.0409  0.2595 -1.0237
  489TMC3    C8 7332   0.326   0.264  16.857  1.1175 -0.7543  0.1987
  489TMC3    O1 7333   4.684   0.071  17.100  0.2104 -0.6830  0.8740
  489TMC3    O2 7334   0.438   0.280  16.813 -0.5376 -0.1475  0.0544
  490MPD2     C 7335   1.581   3.443  17.015 -0.0789 -0.7028 -0.7257
  490MPD2    C1 7336   1.512   3.522  17.105 -0.4653 -0.7005 -0.1465
  490MPD2    C2 7337   1.521   3.658  17.097  0.0805 -0.4062  0.4332
  490MPD2    C3 7338   1.630   3.719  17.026 -0.2209 -0.1542 -0.9525
  490MPD2    C4 7339   1.707   3.639  16.954  0.5257  0.0325  0.6884
  490MPD2    C5 7340   1.678   3.504  16.937 -0.4561 -0.1426 -0.4731
  490MPD2     H 7341   1.454   3.721  17.154  1.4197  1.2229  0.2084
  490MPD2    H1 7342   1.796   3.676  16.904  0.1467 -1.2746 -0.9323
  490MPD2    H2 7343   1.548   3.341  17.001 -4.2656  0.4446  0.7738
  490MPD2    H3 7344   1.737   3.461  16.858 -1.5116  0.4523 -1.5948
  490MPD2     N 7345   1.661   3.860  17.035 -0.4108  0.1966 -0.1902
  490MPD2    H5 7346   1.750   3.888  16.993 -0.9424  2.1596  0.0190
  490MPD2    N1 7347   1.416   3.463  17.190 -0.1012  0.4289 -0.1593
  490MPD2    H7 7348   1.356   3.529  17.239 -1.4197 -2.3045  1.8886
  491TMC3    C1 7349   1.313   3.332  17.341 -0.2158  0.5428  0.0396
  491TMC3    C2 7350   1.357   3.301  17.466  0.0143 -0.1306  0.3296
  491TMC3    C3 7351   1.262   3.289  17.562  0.3252  0.1397 -0.5841
  491TMC3    C4 7352   1.187   3.355  17.313  0.8655 -0.2082 -0.0897
  491TMC3    C5 7353   1.098   3.355  17.416 -0.6091 -0.1055 -0.4151
  491TMC3    C6 7354   1.129   3.318  17.538  0.4101  0.5226 -0.6439
  491TMC3     C 7355   1.405   3.332  17.230 -0.4882 -0.3523 -0.0969
  491TMC3     O 7356   1.474   3.234  17.206 -0.0451 -0.0077 -0.5284
  491TMC3     H 7357   1.457   3.260  17.466 -0.1853 -0.6210 -1.3363
  491TMC3    H1 7358   1.158   3.383  17.213 -2.8960 -0.4664  0.9252
  491TMC3    H2 7359   1.056   3.323  17.618  2.5290  2.9630  1.1524
  491TMC3    C7 7360   0.961   3.359  17.377 -0.3800  0.3542  0.4325
  491TMC3    C8 7361   1.291   3.221  17.685 -0.5355 -0.1728 -0.7579
  491TMC3    O1 7362   0.882   3.280  17.432  0.0496  0.9166  0.2196
  491TMC3    O2 7363   1.214   3.255   0.029 -0.0976 -0.0231  0.1579
  492MPD2     C 7364   2.188   3.650  11.561 -1.0356 -0.2050  0.7000
  492MPD2    C1 7365   2.117   3.590  11.461  0.0986  0.2711  0.3949
  492MPD2    C2 7366   2.043   3.474  11.494 -0.0963  0.5054  0.0622
  492MPD2    C3 7367   2.044   3.424  11.621  0.9129 -0.6761  0.3407
  492MPD2    C4 7368   2.111   3.489  11.716  0.0318  0.1819  0.6991
  492MPD2    C5 7369   2.181   3.603  11.689  0.5336 -0.8773  0.9512
  492MPD2     H 7370   1.987   3.426  11.415  1.0456  1.0030 -1.0375
  492MPD2    H1 7371   2.104   3.463  11.821 -2.8870 -1.3696  0.1216
  492MPD2    H2 7372   2.236   3.744  11.533 -0.6207 -0.7022 -0.2641
  492MPD2    H3 7373   2.231   3.650  11.773  1.5579 -0.8140  0.3048
  492MPD2     N 7374   1.975   3.313  11.662 -0.2868 -0.1161 -0.1372
  492MPD2    H5 7375   1.989   3.275  11.755  1.7937 -4.1878 -2.1141
  492MPD2    N1 7376   2.136   3.640  11.330  0.0290  0.4222  0.2835
  492MPD2    H7 7377   2.198   3.721  11.323  0.5560  0.0737  0.9487
  493TMC3    C1 7378   2.130   3.686  11.109 -0.7786  0.3883 -0.2860
  493TMC3    C2 7379   2.242   3.762  11.144  0.6797 -0.2066 -0.2374
  493TMC3    C3 7380   2.278   3.849  11.049 -0.4638 -0.2978  0.2158
  493TMC3    C4 7381   2.051   3.704  11.001  0.0118  0.7550 -0.0218
  493TMC3    C5 7382   2.099   3.789  10.907 -0.0576 -0.0028 -0.6032
  493TMC3    C6 7383   2.202   3.873  10.932  0.5211  0.8068  0.2527
  493TMC3     C 7384   2.072   3.606  11.218 -0.0163  0.4687  0.8382
  493TMC3     O 7385   1.986   3.517  11.200 -0.5685 -0.6144 -0.1733
  493TMC3     H 7386   2.303   3.759  11.234  3.3640 -0.9381 -2.0784
  493TMC3    H1 7387   1.964   3.641  10.984  1.9607 -1.4473 -1.8191
  493TMC3    H2 7388   2.230   3.942  10.853  1.4429 -0.6019 -0.6439
  493TMC3    C7 7389   2.063   3.751  10.764  0.4053  0.0805  0.2167
  493TMC3    C8 7390   2.394   3.930  11.077  0.2925 -0.2486 -0.9921
  493TMC3    O1 7391   2.004   3.645  10.762 -0.3740 -0.5899 -0.1752
  493TMC3    O2 7392   2.473   3.881  11.156 -0.0907  0.0236  0.0164
  494TMC3    C1 7393   1.709   0.787   0.433 -0.2271  0.1865 -0.5486
  494TMC3    C2 7394   1.704   0.652   0.447  0.2987  0.5903 -0.0335
  494TMC3    C3 7395   1.756   0.578   0.336  0.1737  0.0462  0.0859
  494TMC3    C4 7396   1.769   0.855   0.331  0.0105 -0.8027 -0.3834
  494TMC3    C5 7397   1.810   0.775   0.222  0.6385 -0.0742 -0.4319
  494TMC3    C6 7398   1.809   0.638   0.221 -0.1032 -0.1017 -0.2153
  494TMC3     C 7399   1.661   0.855   0.550  0.2035  0.6083 -0.7415
  494TMC3     O 7400   1.589   0.792   0.628  0.0366  0.5205 -0.4400
  494TMC3     H 7401   1.670   0.590   0.530 -0.1491 -2.9303 -2.8606
  494TMC3    H1 7402   1.775   0.963   0.330  1.7376 -0.8971 -0.5320
  494TMC3    H2 7403   1.827   0.581   0.131 -1.9015  0.0042 -0.6372
  494TMC3    C7 7404   1.885   0.831   0.109 -0.3459  0.5733 -0.5164
  494TMC3    C8 7405   1.771   0.433   0.355 -0.5743 -0.0763 -0.6613
  494TMC3    O1 7406   1.857   0.773   0.003 -0.0416 -0.1137  0.5927
  494TMC3    O2 7407   1.834   0.391   0.447 -0.0136 -0.2825  0.3866
  495TMC3    C1 7408   0.875   2.596  14.561  0.3791  0.5996  0.1951
  495TMC3    C2 7409   0.984   2.631  14.477  0.1334 -0.1003  0.0669
  495TMC3    C3 7410   1.038   2.756  14.504 -0.2401 -0.3485 -0.3355
  495TMC3    C4 7411   0.839   2.675  14.664 -0.0831  0.3627  0.1753
  495TMC3    C5 7412   0.925   2.767  14.707 -0.6013  0.3866  0.1715
  495TMC3    C6 7413   1.018   2.812  14.624  0.3889  0.3050 -0.2474
  495TMC3     C 7414   0.769   2.520  14.502 -0.4793  0.2133  0.0740
  495TMC3     O 7415   0.682   2.481  14.578  0.7906  0.7606 -0.1882
  495TMC3     H 7416   1.021   2.568  14.396  1.9908  0.6527  0.3310
  495TMC3    H1 7417   0.759   2.645  14.730 -0.6586 -3.0716 -2.1133
  495TMC3    H2 7418   1.074   2.902  14.649 -0.1843  0.5044  0.3098
  495TMC3    C7 7419   0.910   2.824  14.837  0.9276  0.0253  0.6697
  495TMC3    C8 7420   1.149   2.820  14.431 -0.4680 -0.9030  1.0028
  495TMC3    O1 7421   1.002   2.881  14.885 -0.0532  0.0936  0.2048
  495TMC3    O2 7422   1.245   2.862  14.499  0.5495 -0.3381 -0.3055
  496MPD2     C 7423   2.803   2.939  14.779  0.1617 -0.7000  0.3905
  496MPD2    C1 7424   2.835   2.867  14.895 -0.2233  0.8505  0.2978
  496MPD2    C2 7425   2.736   2.857  14.996 -0.2689 -0.1675  0.8911
  496MPD2    C3 7426   2.603   2.906  14.970  0.0169  0.7006 -0.2044
  496MPD2    C4 7427   2.580   2.966  14.851  0.6487 -0.0273  0.1111
  496MPD2    C5 7428   2.679   2.989  14.757 -0.3528 -0.0874  0.2297
  496MPD2     H 7429   2.740   2.791  15.082 -0.1851 -1.8935 -0.4513
  496MPD2    H1 7430   2.481   3.009  14.835 -0.2859 -2.4787 -0.6911
  496MPD2    H2 7431   2.877   2.944  14.699  1.1911  1.9831  1.4869
  496MPD2    H3 7432   2.647   3.045  14.669 -1.9120 -1.1532  0.1170
  496MPD2     N 7433   2.497   2.888  15.060 -0.2555 -0.3472 -0.1610
  496MPD2    H5 7434   2.405   2.909  15.024  0.2346 -0.7597 -1.6472
  496MPD2    N1 7435   2.963   2.813  14.911 -0.1476  0.2288  0.0479
  496MPD2    H7 7436   3.030   2.836  14.838 -0.7154  0.6070 -0.3519
  497TMC3    C1 7437   2.378   2.845  15.256  0.4481 -0.5277 -1.2712
  497TMC3    C2 7438   2.269   2.803  15.186 -0.0476  0.1899  0.3656
  497TMC3    C3 7439   2.148   2.803  15.245  0.1519 -0.8181  0.3185
  497TMC3    C4 7440   2.366   2.900  15.382  0.1875 -0.6999  0.0887
  497TMC3    C5 7441   2.245   2.908  15.438  0.0194 -0.6746  0.0926
  497TMC3    C6 7442   2.135   2.857  15.372  0.3296 -0.5465 -0.6360
  497TMC3     C 7443   2.506   2.857  15.194  0.1052  0.2329 -0.1106
  497TMC3     O 7444   2.606   2.851  15.263 -0.0559 -0.7468 -0.1052
  497TMC3     H 7445   2.274   2.767  15.084 -0.7520  0.7376  0.1432
  497TMC3    H1 7446   2.455   2.940  15.429 -1.7069  2.5341  0.8719
  497TMC3    H2 7447   2.034   2.878  15.403  0.5258 -2.9377  1.5410
  497TMC3    C7 7448   2.223   2.917  15.580 -0.3102  0.0214  0.0208
  497TMC3    C8 7449   2.088   2.672  15.238 -0.4612 -0.6839  0.5118
  497TMC3    O1 7450   2.107   2.918  15.615 -0.0459  0.2792  0.3508
  497TMC3    O2 7451   2.137   2.594  15.156  0.2376 -0.0886 -0.2185
  498MPD2     C 7452   0.137   3.665  10.372 -0.0648  0.3242  0.6406
  498MPD2    C1 7453   0.043   3.761  10.338 -0.0735 -0.3075  0.3410
  498MPD2    C2 7454   4.641   3.723  10.338  0.6199  0.5892  0.1668
  498MPD2    C3 7455   4.602   3.591  10.367  0.5502  0.4611 -0.3807
  498MPD2    C4 7456   4.705   3.498  10.381  0.3232  0.6028  0.3179
  498MPD2    C5 7457   0.099   3.535  10.384  0.7985 -0.0181 -0.1453
  498MPD2     H 7458   4.561   3.793  10.317 -0.3699 -0.0649  1.8129
  498MPD2    H1 7459   4.686   3.393  10.400 -0.8328  0.7242 -0.1837
  498MPD2    H2 7460   0.243   3.683  10.381  0.1761 -0.0825 -1.2705
  498MPD2    H3 7461   0.176   3.460  10.393  1.2906  0.4850 -0.1664
  498MPD2     N 7462   4.468   3.552  10.381 -0.1181 -0.0789  0.0247
  498MPD2    H5 7463   4.397   3.624  10.374 -1.2386 -1.3338 -1.3474
  498MPD2    N1 7464   0.078   3.894  10.309 -0.3555 -0.6452  0.3735
  498MPD2    H7 7465   4.733   3.951  10.287  0.8655  1.4731  1.3249
  499TMC3    C1 7466   0.232   4.077  10.303 -0.8293  0.0282 -0.0529
  499TMC3    C2 7467   0.331   4.141  10.378 -0.9442  0.1422 -0.2938
  499TMC3    C3 7468   0.355   4.271  10.341 -0.1366 -0.2830  0.2149
  499TMC3    C4 7469   0.161   4.137  10.203  0.3517  0.0538 -0.5622
  499TMC3    C5 7470   0.194   4.266  10.170 -0.6082 -0.2990  0.5592
  499TMC3    C6 7471   0.290   4.334  10.237 -0.1919 -0.4512  0.2518
  499TMC3     C 7472   0.193   3.945  10.350  0.7431 -0.2541 -0.2918
  499TMC3     O 7473   0.273   3.895  10.431  0.1734  0.0060  0.2385
  499TMC3     H 7474   0.379   4.089  10.461  0.8619 -1.3077 -2.2419
  499TMC3    H1 7475   0.097   4.073  10.143  0.5724 -0.8814  0.1984
  499TMC3    H2 7476   0.305   4.439  10.215 -0.2516 -0.9045 -1.9935
  499TMC3    C7 7477   0.138   4.344  10.059  0.0311 -0.2309 -1.2534
  499TMC3    C8 7478   0.456   4.354  10.409  0.9794  0.0395 -0.3460
  499TMC3    O1 7479   0.193   4.450  10.024  0.3322 -0.2082 -0.4382
  499TMC3    O2 7480   0.499   4.457  10.364 -0.3113 -0.2489  0.1615
  500MPD2     C 7481   1.166   4.548  10.820  0.6421  0.2215  0.0080
  500MPD2    C1 7482   1.183   4.672  10.765 -0.1351 -0.6087  0.1581
  500MPD2    C2 7483   1.107   4.708  10.660 -0.0064 -0.0380 -0.0559
  500MPD2    C3 7484   1.004   4.631  10.616  0.1612  0.3479 -0.4532
  500MPD2    C4 7485   0.985   4.504  10.669 -0.6058 -0.1156  0.0074
  500MPD2    C5 7486   1.073   4.466  10.772 -0.1889  0.1676 -0.0417
  500MPD2     H 7487   1.117   0.073  10.622 -0.0280  0.0895  0.2698
  500MPD2    H1 7488   0.900   4.446  10.632 -2.8245  1.6702  2.3386
  500MPD2    H2 7489   1.228   4.502  10.896  0.7618  0.4739  0.0628
  500MPD2    H3 7490   1.057   4.369  10.818  0.4197  0.5198  0.8964
  500MPD2     N 7491   0.912   4.672  10.521  0.7840 -0.1945 -0.2642
  500MPD2    H5 7492   0.837   4.608  10.495 -0.4630  1.4400 -0.6347
  500MPD2    N1 7493   1.289   0.021  10.800 -0.1623 -0.2646 -0.3405
  500MPD2    H7 7494   1.321   0.086  10.729 -0.4650 -0.8619 -1.0268
  501TMC3    C1 7495   1.464   0.104  10.932 -0.2342  0.1513  0.1018
  501TMC3    C2 7496   1.493   0.195  10.831  0.4946  0.5710 -0.5530
  501TMC3    C3 7497   1.623   0.250  10.831 -0.1415  0.4789 -0.3521
  501TMC3    C4 7498   1.542   0.085  11.045  0.0944 -0.1073  0.5204
  501TMC3    C5 7499   1.661   0.148  11.048 -0.2685 -0.5730 -0.2121
  501TMC3    C6 7500   1.696   0.230  10.944 -0.3959 -0.2141 -0.6594
  501TMC3     C 7501   1.349   0.020  10.922  0.5551 -0.2300 -0.4803
  501TMC3     O 7502   1.313   4.704  11.025  0.6188 -0.6737 -0.4083
  501TMC3     H 7503   1.413   0.221  10.763  0.7869  0.6793 -0.8560
  501TMC3    H1 7504   1.517   0.019  11.128 -1.8434  0.0977  0.1022
  501TMC3    H2 7505   1.794   0.276  10.933  0.2521 -1.6838 -0.9806
  501TMC3    C7 7506   1.771   0.095  11.123 -0.3148 -0.1828  0.2051
  501TMC3    C8 7507   1.639   0.365  10.750 -0.6036  0.3407 -0.2015
  501TMC3    O1 7508   1.766   4.710  11.149 -0.4410  0.0946 -0.8057
  501TMC3    O2 7509   1.705   0.454  10.796  0.0619  0.3604  0.0726
  502TMC3    C1 7510   0.616   3.553  15.005  0.1255  0.0063  0.0661
  502TMC3    C2 7511   0.577   3.675  14.953  0.0892  0.2668 -0.4682
  502TMC3    C3 7512   0.441   3.699  14.946  0.5936 -0.5521 -0.4754
  502TMC3    C4 7513   0.523   3.455  15.034  0.0646 -0.1519  0.5550
  502TMC3    C5 7514   0.387   3.488  15.032  0.5608  0.6439 -0.1514
  502TMC3    C6 7515   0.347   3.607  14.987 -0.5626 -0.1449 -0.0552
  502TMC3     C 7516   0.706   3.575  15.111 -0.9081 -0.7029  0.0148
  502TMC3     O 7517   0.791   3.664  15.107 -0.2243 -0.3360  0.0030
  502TMC3     H 7518   0.647   3.749  14.917 -0.5503  0.9833 -0.2482
  502TMC3    H1 7519   0.561   3.356  15.058  4.0800  1.1295 -0.6164
  502TMC3    H2 7520   0.249   3.644  15.012 -0.5450  0.9772 -1.6922
  502TMC3    C7 7521   0.308   3.434  15.147 -0.2697  0.0728  0.3982
  502TMC3    C8 7522   0.397   3.812  14.872  0.0252 -0.1222  0.0222
  502TMC3    O1 7523   0.370   3.378  15.239 -0.0690  0.2027  0.0750
  502TMC3    O2 7524   0.479   3.900  14.855 -0.2170 -0.5253  0.2415
  503MPD2     C 7525   2.152   4.406  16.853  0.2227 -0.2985 -0.2413
  503MPD2    C1 7526   2.132   4.452  16.979 -0.3490 -0.1389 -0.3625
  503MPD2    C2 7527   2.146   4.355  17.080  0.8483 -1.1277 -0.5323
  503MPD2    C3 7528   2.185   4.219  17.056 -0.1913  0.0158  0.3349
  503MPD2    C4 7529   2.186   4.178  16.926  0.0934 -0.3707  0.0301
  503MPD2    C5 7530   2.176   4.273  16.829 -0.1563 -0.1280 -0.6141
  503MPD2     H 7531   2.123   4.382  17.183  0.7928 -1.5666 -0.4306
  503MPD2    H1 7532   2.212   4.077  16.895  0.6743  0.1184 -1.0922
  503MPD2    H2 7533   2.143   4.471  16.767  0.5763  0.6445  0.4354
  503MPD2    H3 7534   2.184   4.231  16.729  2.3554  1.9376 -1.3058
  503MPD2     N 7535   2.229   4.148  17.168 -0.0731  0.0677  0.2620
  503MPD2    H5 7536   2.235   4.208  17.250 -1.3022  1.6487 -0.8063
  503MPD2    N1 7537   2.138   4.585  17.014 -0.4286 -0.2306  0.1106
  503MPD2    H7 7538   2.120   4.610  17.110 -0.8151  0.6750 -0.1938
  504TMC3    C1 7539   2.334   3.964  17.292  0.3228  0.1010  0.7714
  504TMC3    C2 7540   2.349   4.041  17.405 -1.3095 -0.8576  0.5459
  504TMC3    C3 7541   2.442   4.003  17.499  1.0154  0.6214  0.0097
  504TMC3    C4 7542   2.404   3.847  17.275  0.0827 -0.1843  0.0750
  504TMC3    C5 7543   2.500   3.809  17.373  0.0968  0.0131  0.2589
  504TMC3    C6 7544   2.518   3.887  17.486  0.7296 -0.8379 -0.3231
  504TMC3     C 7545   2.257   4.012  17.174  0.2571 -0.2407  0.1502
  504TMC3     O 7546   2.250   3.928  17.082 -0.3936  0.0424 -0.0837
  504TMC3     H 7547   2.290   4.131  17.419  1.1598  0.8246  0.2297
  504TMC3    H1 7548   2.407   3.795  17.180  0.8447  0.7836 -0.4178
  504TMC3    H2 7549   2.578   3.861  17.573  0.4630  2.6399  0.8738
  504TMC3    C7 7550   2.617   3.747  17.318  0.1264  0.1781 -0.7262
  504TMC3    C8 7551   2.440   4.078  17.613  0.0251  0.5258 -1.2957
  504TMC3    O1 7552   2.623   3.766  17.196 -0.3918  0.4128  0.7449
  504TMC3    O2 7553   2.404   4.194  17.606 -0.5504 -0.2052  0.7566
  505MPD2     C 7554   3.365   3.565  10.890  0.3945 -0.1076 -0.6934
  505MPD2    C1 7555   3.298   3.447  10.873  0.1526  0.1814 -0.1989
  505MPD2    C2 7556   3.335   3.342  10.962 -0.6577  0.4856 -0.5885
  505MPD2    C3 7557   3.439   3.352  11.057  0.0715  0.7683 -0.5464
  505MPD2    C4 7558   3.503   3.474  11.068 -0.3348 -0.0708 -0.3610
  505MPD2    C5 7559   3.468   3.569  10.978  0.4209  0.5755  0.3889
  505MPD2     H 7560   3.286   3.245  10.963  0.1159  0.0952 -0.6967
  505MPD2    H1 7561   3.585   3.492  11.137 -1.7156  2.3330  0.6420
  505MPD2    H2 7562   3.347   3.648  10.822  0.0348  1.1213  0.9037
  505MPD2    H3 7563   3.514   3.667  10.982 -0.7214  1.1354 -0.2588
  505MPD2     N 7564   3.476   3.229  11.125 -0.4281  0.0207  0.8126
  505MPD2    H5 7565   3.411   3.151  11.115 -0.0740 -0.0789 -0.7316
  505MPD2    N1 7566   3.200   3.437  10.776 -0.4942  0.1408 -0.5342
  505MPD2    H7 7567   3.190   3.520  10.718 -1.6534  1.8888  2.1492
  506TMC3    C1 7568   3.088   3.324  10.602 -0.3214  0.0375  0.3088
  506TMC3    C2 7569   3.164   3.390  10.508 -0.2783 -0.2427 -0.8371
  506TMC3    C3 7570   3.170   3.334  10.384  0.7823 -0.1366 -0.1335
  506TMC3    C4 7571   3.034   3.204  10.574  0.2051 -0.1719 -0.4145
  506TMC3    C5 7572   3.058   3.141  10.452  0.0148  0.2056 -0.3482
  506TMC3    C6 7573   3.115   3.213  10.353  0.1429 -0.2304  0.2149
  506TMC3     C 7574   3.141   3.317  10.736 -0.2212  0.1607 -0.2637
  506TMC3     O 7575   3.130   3.208  10.796 -0.1397  0.8063 -0.0905
  506TMC3     H 7576   3.207   3.487  10.526 -0.3190 -0.4945  0.6216
  506TMC3    H1 7577   2.972   3.151  10.645  1.2900  0.1445  0.7749
  506TMC3    H2 7578   3.145   3.163  10.262  0.9003 -0.7543  0.7452
  506TMC3    C7 7579   3.112   3.004  10.460  0.2863  0.2909 -0.0660
  506TMC3    C8 7580   3.255   3.389  10.284  0.2396 -0.1754 -0.4044
  506TMC3    O1 7581   3.159   2.955  10.359  0.2939 -0.7392  0.5390
  506TMC3    O2 7582   3.224   3.385  10.167 -0.5861  0.5785  0.1041
  507TMC3    C1 7583   3.649   4.389  15.595  0.2009 -0.5220  0.7806
  507TMC3    C2 7584   3.661   4.261  15.541 -0.4966  0.0971 -0.0298
  507TMC3    C3 7585   3.730   4.259  15.424 -0.6616 -0.0073  0.1678
  507TMC3    C4 7586   3.713   4.498  15.540 -0.2196 -0.0124 -0.1404
  507TMC3    C5 7587   3.782   4.484  15.424  0.1106  0.9500  0.3502
  507TMC3    C6 7588   3.796   4.364  15.374  0.1646 -0.2753 -0.5518
  507TMC3     C 7589   3.609   4.404  15.734  0.7367 -0.2052 -0.5531
  507TMC3     O 7590   3.596   4.517  15.779  0.3330  0.0736  0.3512
  507TMC3     H 7591   3.605   4.173  15.571  0.3511 -1.8825 -4.2279
  507TMC3    H1 7592   3.717   4.590  15.598 -1.3059 -0.8987  1.3164
  507TMC3    H2 7593   3.866   4.337  15.296 -0.3888 -1.0442 -0.7792
  507TMC3    C7 7594   3.745   4.575  15.316  0.1270 -0.0883  0.4788
  507TMC3    C8 7595   3.664   4.179  15.324 -0.1684 -0.0279 -0.0259
  507TMC3    O1 7596   3.728   4.518  15.209 -0.0687  0.2274  0.4044
  507TMC3    O2 7597   3.621   4.068  15.354 -0.7622 -0.2199  0.1218
  508MPD2     C 7598   4.207   1.582  16.004 -0.1692 -0.4106 -0.9880
  508MPD2    C1 7599   4.313   1.609  16.092  0.3349  0.2506  0.6471
  508MPD2    C2 7600   4.358   1.741  16.095 -0.2371  0.1616 -0.4614
  508MPD2    C3 7601   4.313   1.843  16.008  0.0348 -0.0211 -1.0945
  508MPD2    C4 7602   4.207   1.816  15.919  0.5054 -0.4548 -0.8265
  508MPD2    C5 7603   4.163   1.683  15.924  0.1937 -0.5713  0.2899
  508MPD2     H 7604   4.426   1.775  16.172  0.6315 -1.0082 -0.7218
  508MPD2    H1 7605   4.163   1.895  15.859  0.6117  1.2913  1.4123
  508MPD2    H2 7606   4.160   1.486  16.023  0.7466 -0.3859  1.3843
  508MPD2    H3 7607   4.080   1.661  15.858 -0.0201 -1.9406  1.0237
  508MPD2     N 7608   4.352   1.970  16.043  0.5095  0.1209  0.0700
  508MPD2    H5 7609   4.417   1.976  16.121 -0.3040 -0.1177  0.7713
  508MPD2    N1 7610   4.346   1.501  16.173  0.5563  0.3017 -0.1488
  508MPD2    H7 7611   4.296   1.414  16.157  1.8046  0.0445 -2.7437
  509TMC3    C1 7612   4.326   2.438  15.997 -0.7995  0.1380 -1.1831
  509TMC3    C2 7613   4.455   2.461  16.016  0.3224 -0.3020  0.9914
  509TMC3    C3 7614   4.538   2.353  16.040  0.1134  0.1929  0.0977
  509TMC3    C4 7615   4.266   2.315  16.007 -0.1015  0.0877  0.8726
  509TMC3    C5 7616   4.351   2.213  16.047  0.0383 -0.4069 -0.2891
  509TMC3    C6 7617   4.485   2.229  16.058 -0.8998 -0.3578 -0.1778
  509TMC3     C 7618   4.252   2.541  15.924 -0.1002 -0.3350  0.2159
  509TMC3     O 7619   4.132   2.553  15.950  0.1329 -0.3100 -0.1221
  509TMC3     H 7620   4.492   2.563  16.019 -0.8153  0.0856  1.7708
  509TMC3    H1 7621   4.161   2.298  15.986  0.0783 -1.8927  1.6253
  509TMC3    H2 7622   4.541   2.139  16.078  2.4773  1.1495 -2.9896
  509TMC3    C7 7623   4.314   2.086  15.978 -0.4857  0.1762  0.5226
  509TMC3    C8 7624   4.683   2.374  16.056 -0.7747 -0.0355 -0.0764
  509TMC3    O1 7625   4.259   2.100  15.870 -0.0200 -0.0557  0.0257
  509TMC3    O2 7626   4.729   2.292  16.136  0.3146  0.3289  0.7391
  510MPD2     C 7627   2.213   2.958  14.602  0.3287  0.0193 -0.5685
  510MPD2    C1 7628   2.242   2.851  14.676 -0.4786  0.6399 -0.0507
  510MPD2    C2 7629   2.371   2.794  14.667  0.0253 -0.2449 -0.4099
  510MPD2    C3 7630   2.460   2.840  14.569  0.2988 -0.1053 -0.2124
  510MPD2    C4 7631   2.425   2.953  14.497  0.3492  0.0994  0.6794
  510MPD2    C5 7632   2.305   3.010  14.515 -0.6009 -0.3169  0.3539
  510MPD2     H 7633   2.402   2.709  14.726 -1.1366 -1.6091 -1.7808
  510MPD2    H1 7634   2.495   3.010  14.437 -0.1157  0.7838  0.7900
  510MPD2    H2 7635   2.119   3.012  14.607  0.3075  0.0388 -1.1221
  510MPD2    H3 7636   2.277   3.097  14.456  2.9437 -0.0766 -0.9622
  510MPD2     N 7637   2.581   2.773  14.554  0.1814 -0.4082 -0.3946
  510MPD2    H5 7638   2.605   2.709  14.629 -1.3722 -1.2401 -0.6323
  510MPD2    N1 7639   2.135   2.798  14.751 -0.2140 -0.2813 -0.1140
  510MPD2    H7 7640   2.051   2.853  14.737  1.5625  2.7817  1.1716
  511TMC3    C1 7641   1.990   2.643  14.847  0.0578  0.1161  0.2546
  511TMC3    C2 7642   1.925   2.732  14.931  0.2061  0.5013 -0.3840
  511TMC3    C3 7643   1.799   2.697  14.977 -0.2727  0.4329  0.4188
  511TMC3    C4 7644   1.929   2.525  14.814  0.0812  1.1067 -0.3749
  511TMC3    C5 7645   1.798   2.497  14.856  0.2176  0.4481  0.1055
  511TMC3    C6 7646   1.728   2.586  14.938  0.0370 -0.3971  0.8244
  511TMC3     C 7647   2.122   2.670  14.802 -0.1888  0.5971 -0.1654
  511TMC3     O 7648   2.211   2.591  14.819  0.2370 -0.3686 -0.3426
  511TMC3     H 7649   1.981   2.814  14.975 -0.0006  0.4125  0.0428
  511TMC3    H1 7650   1.979   2.460  14.744  0.1913  2.5725 -1.6609
  511TMC3    H2 7651   1.622   2.569  14.953 -0.5744  1.8534 -0.9885
  511TMC3    C7 7652   1.731   2.385  14.795 -0.0570  0.1237 -0.4520
  511TMC3    C8 7653   1.768   2.754  15.108 -0.2601 -0.0329  0.4944
  511TMC3    O1 7654   1.803   2.321  14.719 -0.2594 -0.4383 -0.5028
  511TMC3    O2 7655   1.842   2.844  15.146 -0.4381  0.1874 -0.5423
  512TMC3    C1 7656   1.593   2.721  13.025  0.5222  0.1866 -0.0072
  512TMC3    C2 7657   1.634   2.706  13.157 -0.4473  0.3577  0.6636
  512TMC3    C3 7658   1.699   2.592  13.187 -0.1435  0.2047 -0.2739
  512TMC3    C4 7659   1.613   2.618  12.936  0.6503  0.1422 -0.2608
  512TMC3    C5 7660   1.670   2.499  12.980  0.5949 -0.6114 -0.1936
  512TMC3    C6 7661   1.724   2.488  13.100 -0.3687 -0.1459  0.0170
  512TMC3     C 7662   1.533   2.844  12.973  0.1945 -0.2759 -0.0903
  512TMC3     O 7663   1.492   2.837  12.856  0.4399 -0.4158  0.6621
  512TMC3     H 7664   1.613   2.783  13.230 -0.0099 -0.0776  1.2501
  512TMC3    H1 7665   1.597   2.619  12.829 -0.6063  0.8495 -0.0652
  512TMC3    H2 7666   1.795   2.414  13.135 -0.4022 -0.2011 -0.0318
  512TMC3    C7 7667   1.688   2.401  12.888 -0.7574 -0.4369 -0.0286
  512TMC3    C8 7668   1.727   2.554  13.323 -0.0210  0.2580 -0.0951
  512TMC3    O1 7669   1.673   2.421  12.767  0.3341 -0.3981  0.3728
  512TMC3    O2 7670   1.721   2.435  13.363  0.0024  0.6589 -0.4545
  513MPD2     C 7671   3.816   2.136  13.075  0.0752  0.4750  0.6531
  513MPD2    C1 7672   3.795   2.004  13.095 -0.1895  0.3543 -0.3086
  513MPD2    C2 7673   3.854   1.945  13.205  0.1447 -0.5514 -0.3645
  513MPD2    C3 7674   3.942   2.019  13.285  0.3848  0.1397 -0.2391
  513MPD2    C4 7675   3.959   2.154  13.268 -0.6792  0.2434  0.8462
  513MPD2    C5 7676   3.894   2.215  13.158  0.0869  0.2688  0.0886
  513MPD2     H 7677   3.847   1.840  13.229 -0.1699 -0.1494  1.3051
  513MPD2    H1 7678   4.017   2.211  13.340 -0.8653  1.1851  0.2504
  513MPD2    H2 7679   3.766   2.191  12.997 -0.7916 -2.0491 -0.5880
  513MPD2    H3 7680   3.902   2.323  13.150 -1.0223  0.2928 -0.6472
  513MPD2     N 7681   4.000   1.953  13.398 -0.2401 -0.0587 -0.6826
  513MPD2    H5 7682   3.969   1.857  13.411 -1.4689  0.3172 -0.8000
  513MPD2    N1 7683   3.721   1.934  12.999 -0.2744  0.1464  1.0025
  513MPD2    H7 7684   3.690   1.988  12.918  1.1667  0.2002  0.5006
  514TMC3    C1 7685   3.645   1.731  12.895 -0.2727 -0.0359  0.7401
  514TMC3    C2 7686   3.749   1.746  12.807  0.5066  0.1128  0.7891
  514TMC3    C3 7687   3.812   1.634  12.750 -0.4484 -0.4135  0.0111
  514TMC3    C4 7688   3.598   1.609  12.926  1.4554 -0.0001 -0.4406
  514TMC3    C5 7689   3.663   1.504  12.874 -0.0353  0.3523  0.4860
  514TMC3    C6 7690   3.765   1.506  12.782 -0.4731 -0.0307 -0.2622
  514TMC3     C 7691   3.677   1.800  13.023  0.0430  0.6876 -0.2483
  514TMC3     O 7692   3.687   1.727  13.118 -0.7385 -0.1406  0.0958
  514TMC3     H 7693   3.783   1.848  12.793  0.9935 -0.1308  0.1941
  514TMC3    H1 7694   3.513   1.608  12.993  1.4449  0.9605 -0.4428
  514TMC3    H2 7695   3.812   1.413  12.753 -0.6924 -0.4438  0.6972
  514TMC3    C7 7696   3.677   1.397  12.967  0.2518  0.0981  0.1481
  514TMC3    C8 7697   3.938   1.646  12.691 -0.4871 -0.2921 -0.3021
  514TMC3    O1 7698   3.658   1.280  12.933  0.2678 -0.0553 -0.5966
  514TMC3    O2 7699   4.013   1.550  12.671 -0.0165  0.5808  0.9573
  515MPD2     C 7700   1.083   4.459  14.321 -0.2314 -1.2288 -0.5240
  515MPD2    C1 7701   1.024   4.361  14.394  0.2230  0.1829  0.0186
  515MPD2    C2 7702   1.057   4.351  14.530 -0.2766 -0.4579 -0.6725
  515MPD2    C3 7703   1.160   4.419  14.592 -0.6713  0.0664  1.0740
  515MPD2    C4 7704   1.217   4.512  14.508 -0.6314 -0.0979 -0.5295
  515MPD2    C5 7705   1.185   4.531  14.378 -0.3429  0.3266  0.2329
  515MPD2     H 7706   1.003   4.276  14.586 -1.3805  0.3761 -0.6254
  515MPD2    H1 7707   1.305   4.559  14.552 -0.6803  0.3506 -0.9097
  515MPD2    H2 7708   1.060   4.475  14.217 -1.0880 -1.4635 -0.3731
  515MPD2    H3 7709   1.231   4.611  14.322  2.8634 -2.4003 -0.9999
  515MPD2     N 7710   1.192   4.421  14.727  0.1473 -0.2647  0.2371
  515MPD2    H5 7711   1.271   4.469  14.770  0.8924 -1.3354  0.0518
  515MPD2    N1 7712   0.923   4.280  14.343  0.5790  0.2556 -0.4517
  515MPD2    H7 7713   0.887   4.210  14.408 -0.5907  1.0951 -0.1921
  516TMC3    C1 7714   0.773   4.181  14.195 -0.5914  0.0347 -0.2561
  516TMC3    C2 7715   0.654   4.207  14.124 -0.4768  0.0721 -0.7525
  516TMC3    C3 7716   0.569   4.101  14.103  0.3317 -0.3930 -0.1700
  516TMC3    C4 7717   0.806   4.055  14.237  0.3473 -0.0515 -0.1924
  516TMC3    C5 7718   0.715   3.959  14.207 -0.2608 -0.3202  0.5675
  516TMC3    C6 7719   0.599   3.974  14.139 -0.4055  0.5402 -0.3674
  516TMC3     C 7720   0.866   4.288  14.223 -0.3697 -0.1329 -0.2219
  516TMC3     O 7721   0.882   4.364  14.128 -0.0275 -0.4250  0.4236
  516TMC3     H 7722   0.635   4.308  14.092  1.1388  0.1337 -1.5032
  516TMC3    H1 7723   0.889   4.037  14.303 -1.2205 -0.7918  1.5743
  516TMC3    H2 7724   0.529   3.899  14.104  0.8440 -0.2048 -1.2327
  516TMC3    C7 7725   0.718   3.846  14.294 -0.4014  0.4612 -0.5319
  516TMC3    C8 7726   0.435   4.122  14.042 -0.0750  0.3211  0.5783
  516TMC3    O1 7727   0.827   3.804  14.330  0.8338 -0.4155 -0.3841
  516TMC3    O2 7728   0.358   4.035  14.074 -0.4856  0.1308  0.4316
  517MPD2     C 7729   0.194   0.860  17.558  0.1225 -0.0420  0.9072
  517MPD2    C1 7730   0.331   0.871  17.526  0.4907 -0.1358 -0.4242
  517MPD2    C2 7731   0.417   0.903  17.629  0.2910  0.1943 -0.2393
  517MPD2    C3 7732   0.378   0.935   0.017 -0.5904 -0.0190  0.2871
  517MPD2    C4 7733   0.243   0.940   0.034  0.5767 -0.1602 -0.8692
  517MPD2    C5 7734   0.153   0.900  17.678  0.0816 -0.4363 -0.3060
  517MPD2     H 7735   0.520   0.924  17.603  0.1274  0.8255 -0.3696
  517MPD2    H1 7736   0.194   0.975   0.124  0.4722  2.4852 -1.9546
  517MPD2    H2 7737   0.122   0.827  17.484  1.0275 -0.0894  0.0455
  517MPD2    H3 7738   0.046   0.910  17.691  0.4307 -0.2421  2.3219
  517MPD2     N 7739   0.466   0.951   0.126  0.2783 -0.1993 -0.4460
  517MPD2    H5 7740   0.409   0.977   0.205  2.2242 -1.2337  1.2923
  517MPD2    N1 7741   0.393   0.835  17.409  0.1055  0.1079  0.5551
  517MPD2    H7 7742   0.494   0.827  17.413  0.1666 -0.2095 -1.4383
  518TMC3    C1 7743   0.401   0.763  17.188 -0.0037  0.6685  0.2790
  518TMC3    C2 7744   0.434   0.637  17.207  0.4973 -0.4546  0.5040
  518TMC3    C3 7745   0.478   0.570  17.098 -0.2519  0.5887  0.5454
  518TMC3    C4 7746   0.405   0.827  17.065  0.7393  0.5978 -0.0054
  518TMC3    C5 7747   0.484   0.763  16.972  0.1113  0.3598 -0.8482
  518TMC3    C6 7748   0.514   0.629  16.982  0.2954  0.6347 -0.3304
  518TMC3     C 7749   0.315   0.819  17.292  0.0891 -0.0963  0.2342
  518TMC3     O 7750   0.206   0.863  17.259 -0.5979  0.0476 -0.3798
  518TMC3     H 7751   0.415   0.591  17.303  0.5947 -1.5491 -0.0080
  518TMC3    H1 7752   0.394   0.935  17.058 -0.0960  0.6019  1.3974
  518TMC3    H2 7753   0.555   0.569  16.902 -0.0806  0.7446 -0.6058
  518TMC3    C7 7754   0.497   0.835  16.847 -0.3923  0.1052 -0.4953
  518TMC3    C8 7755   0.505   0.431  17.116 -0.0356  0.0391 -0.1398
  518TMC3    O1 7756   0.437   0.940  16.833  0.1047 -0.5539 -0.7139
  518TMC3    O2 7757   0.577   0.369  17.045 -0.3260 -0.0809  0.0916
  519MPD2     C 7758   2.926   4.146  14.224 -0.5963  0.0310 -0.2400
  519MPD2    C1 7759   2.798   4.097  14.226  0.5691 -0.0229  0.3763
  519MPD2    C2 7760   2.778   3.960  14.224  0.2564  0.0721  0.3775
  519MPD2    C3 7761   2.887   3.876  14.183 -0.6118  0.3798  0.5404
  519MPD2    C4 7762   3.009   3.933  14.180 -0.1522 -0.2480 -0.2478
  519MPD2    C5 7763   3.031   4.066  14.210  0.5521 -0.0722 -0.6248
  519MPD2     H 7764   2.681   3.913  14.232  0.4650 -0.3067  0.6456
  519MPD2    H1 7765   3.093   3.879  14.137  1.1957  1.7674 -0.1666
  519MPD2    H2 7766   2.949   4.251  14.231 -2.1308  0.3906 -0.5932
  519MPD2    H3 7767   3.134   4.100  14.218  0.7412 -0.8177  0.1192
  519MPD2     N 7768   2.877   3.738  14.154 -0.7500  0.8482 -0.2031
  519MPD2    H5 7769   2.963   3.691  14.130 -0.4966  0.7456  0.9184
  519MPD2    N1 7770   2.692   4.188  14.241  0.1217  0.2368 -0.1944
  519MPD2    H7 7771   2.701   4.284  14.208 -0.4315  0.3351 -0.0667
  520TMC3    C1 7772   2.773   3.521  14.099  0.0730  0.0035 -0.3828
  520TMC3    C2 7773   2.694   3.490  13.997 -0.0966  0.0916  0.2744
  520TMC3    C3 7774   2.721   3.378  13.921 -0.3798  1.0405 -0.1742
  520TMC3    C4 7775   2.883   3.447  14.129  0.9149  0.1896  0.3180
  520TMC3    C5 7776   2.899   3.329  14.060 -0.0157 -0.3347 -0.2749
  520TMC3    C6 7777   2.823   3.290  13.955 -0.1314  1.0638  0.1558
  520TMC3     C 7778   2.762   3.657  14.143  0.1287  0.1810 -0.5278
  520TMC3     O 7779   2.649   3.704  14.157  0.7096  0.8598  0.4207
  520TMC3     H 7780   2.633   3.573  13.963  0.6565  0.2485 -0.6743
  520TMC3    H1 7781   2.943   3.475  14.215  2.2598 -0.0977 -0.5217
  520TMC3    H2 7782   2.844   3.198  13.901  1.8424  1.3663  0.4118
  520TMC3    C7 7783   3.035   3.275  14.058 -0.0746  0.5234 -0.3343
  520TMC3    C8 7784   2.680   3.393  13.781 -0.2226  0.5125  0.1830
  520TMC3    O1 7785   3.122   3.353  14.094 -0.1517  0.3158 -0.5216
  520TMC3    O2 7786   2.753   3.332  13.703 -0.1035  0.1003 -0.0326
  521MPD2     C 7787   2.917   1.443  17.364  0.0462  0.1639 -0.2600
  521MPD2    C1 7788   2.971   1.549  17.297 -0.2670 -0.3761  0.5071
  521MPD2    C2 7789   3.096   1.543  17.242 -0.4967  0.0040  0.1854
  521MPD2    C3 7790   3.170   1.428  17.252  0.2227 -0.4086  0.2461
  521MPD2    C4 7791   3.108   1.324  17.322  0.5557 -0.2646  0.7331
  521MPD2    C5 7792   2.986   1.334  17.382  0.0532  0.3169  0.7624
  521MPD2     H 7793   3.135   1.619  17.175 -0.4962 -0.8862 -0.8380
  521MPD2    H1 7794   3.167   1.234  17.334 -2.6306 -2.5111 -0.6162
  521MPD2    H2 7795   2.820   1.456  17.412  0.7021  0.9352  0.8576
  521MPD2    H3 7796   2.943   1.247  17.430  0.9502  0.5409  1.9712
  521MPD2     N 7797   3.298   1.417  17.193 -0.3906  0.8499  0.2726
  521MPD2    H5 7798   3.327   1.498  17.140  0.0973  0.6248  0.1931
  521MPD2    N1 7799   2.884   1.658  17.273  0.1015 -0.6554 -0.2662
  521MPD2    H7 7800   2.789   1.647  17.307  0.5920  1.1781  1.6710
  522TMC3    C1 7801   3.509   1.343  17.134 -0.0256  0.2562  0.7999
  522TMC3    C2 7802   3.601   1.238  17.127  0.4457  0.9302 -0.1093
  522TMC3    C3 7803   3.712   1.246  17.049 -0.2029 -0.6523 -0.6804
  522TMC3    C4 7804   3.542   1.464  17.085 -0.4174  0.5495 -0.2892
  522TMC3    C5 7805   3.657   1.476  17.007 -0.2037 -0.5626  0.0540
  522TMC3    C6 7806   3.742   1.368  16.996  0.2125  0.0052 -0.2391
  522TMC3     C 7807   3.381   1.313  17.200 -0.1367  0.0331 -0.2697
  522TMC3     O 7808   3.370   1.207  17.256 -0.3106  0.0242  0.2645
  522TMC3     H 7809   3.578   1.138  17.162  0.2632  1.0938  0.2362
  522TMC3    H1 7810   3.475   1.549  17.076  0.2099  0.8714 -1.9398
  522TMC3    H2 7811   3.836   1.392  16.946  1.2523 -0.4296  1.4861
  522TMC3    C7 7812   3.706   1.610  16.975 -0.0961 -0.6921 -0.4092
  522TMC3    C8 7813   3.802   1.135  17.048 -0.0520 -0.3004  0.3544
  522TMC3    O1 7814   3.827   1.615  16.956  0.0155  0.4649 -0.7805
  522TMC3    O2 7815   3.782   1.040  17.120  0.3755 -0.0975  0.0351
  523MPD2     C 7816   1.498   1.284   9.716 -0.2580 -0.2761  0.1948
  523MPD2    C1 7817   1.577   1.359   9.793 -0.2754 -1.0851  0.1010
  523MPD2    C2 7818   1.611   1.490   9.777 -0.5193  0.0126 -0.4160
  523MPD2    C3 7819   1.572   1.551   9.657 -0.2246 -0.5641 -0.1970
  523MPD2    C4 7820   1.486   1.478   9.576 -0.0392  0.3570  0.8045
  523MPD2    C5 7821   1.453   1.349   9.600 -0.3769  0.5023  0.0147
  523MPD2     H 7822   1.659   1.546   9.856  0.7516 -1.6136 -0.0283
  523MPD2    H1 7823   1.444   1.521   9.485  0.1838  0.4830  0.7597
  523MPD2    H2 7824   1.467   1.182   9.738  1.3385 -0.5541  1.1663
  523MPD2    H3 7825   1.390   1.300   9.526  2.1649 -2.1405 -0.3636
  523MPD2     N 7826   1.599   1.689   9.627  0.4884 -0.0824 -0.3566
  523MPD2    H5 7827   1.558   1.724   9.541  0.1152 -0.5058 -0.3495
  523MPD2    N1 7828   1.620   1.290   9.910  0.1095  0.4279  0.2637
  523MPD2    H7 7829   1.595   1.192   9.913  0.7972  0.2902  1.3589
  524TMC3    C1 7830   1.690   1.899   9.635 -0.6935  0.3231 -0.4397
  524TMC3    C2 7831   1.664   1.902   9.503  0.1951  0.4822 -0.5196
  524TMC3    C3 7832   1.657   2.028   9.447 -0.1682  0.0445  0.3296
  524TMC3    C4 7833   1.673   2.006   9.722 -0.7630  0.4309  0.2298
  524TMC3    C5 7834   1.635   2.128   9.663  0.6684  0.7901 -0.2675
  524TMC3    C6 7835   1.639   2.143   9.519  0.8115  0.0223  0.3378
  524TMC3     C 7836   1.691   1.774   9.692 -0.1815  0.6709 -0.1481
  524TMC3     O 7837   1.750   1.754   9.795  0.1032  0.0828 -0.0566
  524TMC3     H 7838   1.691   1.814   9.444 -0.8075 -1.0397  1.3198
  524TMC3    H1 7839   1.673   2.001   9.831  0.3730  2.1017  0.3064
  524TMC3    H2 7840   1.620   2.235   9.464  0.1320 -0.5006 -0.2939
  524TMC3    C7 7841   1.568   2.226   9.753  0.7228  0.3103 -0.2972
  524TMC3    C8 7842   1.635   2.044   9.313  0.5249 -0.2708  0.5016
  524TMC3    O1 7843   1.537   2.202   9.868  0.0071 -0.0665 -0.0989
  524TMC3    O2 7844   1.552   2.130   9.294  0.2403 -0.0494  0.1800
  525MPD2     C 7845   3.959   3.416  14.477 -0.0307 -0.3116  0.0527
  525MPD2    C1 7846   4.068   3.477  14.538 -0.0017 -0.3374 -0.8976
  525MPD2    C2 7847   4.083   3.615  14.540  0.4594 -0.3114  0.6338
  525MPD2    C3 7848   3.974   3.691  14.496  0.5273 -0.0367  0.4442
  525MPD2    C4 7849   3.861   3.632  14.441  0.0787 -0.8971 -0.6817
  525MPD2    C5 7850   3.856   3.493  14.433  0.0618 -0.6124 -0.3021
  525MPD2     H 7851   4.159   3.660  14.603 -0.6609  1.8876  0.4069
  525MPD2    H1 7852   3.765   3.682  14.425  0.7827  0.5949 -0.2735
  525MPD2    H2 7853   3.952   3.309  14.463  1.1538 -0.3806  0.0507
  525MPD2    H3 7854   3.773   3.449  14.378  0.8133  1.9148 -3.4461
  525MPD2     N 7855   3.993   3.833  14.513  0.3775 -0.0268 -0.7288
  525MPD2    H5 7856   4.081   3.863  14.554 -0.9975  1.3676  1.2176
  525MPD2    N1 7857   4.168   3.404  14.603  0.6926 -0.0848  0.1058
  525MPD2    H7 7858   4.242   3.454  14.651 -0.1028  0.4767  0.7486
  526TMC3    C1 7859   4.237   3.227  14.741 -0.3491 -0.1754 -0.1825
  526TMC3    C2 7860   4.178   3.174  14.850 -0.0327 -0.6961 -0.4161
  526TMC3    C3 7861   4.252   3.167  14.969 -0.0684  0.2570 -0.5477
  526TMC3    C4 7862   4.365   3.280  14.734  0.0080  0.3926  0.4368
  526TMC3    C5 7863   4.434   3.259  14.852 -0.2500 -0.3655  0.6095
  526TMC3    C6 7864   4.380   3.201  14.966  0.1984 -0.2232 -0.5287
  526TMC3     C 7865   4.145   3.270  14.634 -1.0120 -0.2580 -0.6181
  526TMC3     O 7866   4.047   3.196  14.628 -0.6005  0.1882 -0.1998
  526TMC3     H 7867   4.073   3.147  14.848  0.2730 -1.7977 -1.2810
  526TMC3    H1 7868   4.422   3.309  14.646 -0.1117  2.5530  1.0715
  526TMC3    H2 7869   4.440   3.194  15.056  0.6891 -1.4120 -0.9435
  526TMC3    C7 7870   4.580   3.262  14.855 -0.3729  0.0452  0.5936
  526TMC3    C8 7871   4.186   3.158  15.103  0.0677  0.1348  0.2988
  526TMC3    O1 7872   4.622   3.321  14.954 -0.0411  0.4892  0.4866
  526TMC3    O2 7873   4.244   3.234  15.181 -0.0327  0.3752 -0.0596
  527MPD2     C 7874   2.163   1.813   1.665  0.4178  0.9028 -0.3204
  527MPD2    C1 7875   2.087   1.792   1.551 -0.4768  0.6358 -0.5066
  527MPD2    C2 7876   2.143   1.718   1.444  1.5083  0.6713 -0.1630
  527MPD2    C3 7877   2.272   1.668   1.451  0.3482  0.4137  0.7570
  527MPD2    C4 7878   2.348   1.715   1.559 -0.3542 -0.2585  0.3514
  527MPD2    C5 7879   2.293   1.786   1.666  0.6029  0.4313  0.3441
  527MPD2     H 7880   2.076   1.688   1.364 -0.6717  0.0912  1.8760
  527MPD2    H1 7881   2.447   1.681   1.587 -0.0939  0.9730  0.9696
  527MPD2    H2 7882   2.123   1.848   1.760 -0.3686 -0.8501 -0.0111
  527MPD2    H3 7883   2.348   1.805   1.758 -1.3498 -0.2569  1.6598
  527MPD2     N 7884   2.312   1.584   1.355 -0.1345 -0.1202  1.1246
  527MPD2    H5 7885   2.250   1.542   1.286  2.2071 -0.0081 -1.0616
  527MPD2    N1 7886   1.959   1.849   1.531 -0.0984  0.1739 -0.4422
  527MPD2    H7 7887   1.907   1.824   1.447  0.4970  2.0479 -1.3700
  528TMC3    C1 7888   1.746   1.935   1.603 -0.5213  0.2767  0.2279
  528TMC3    C2 7889   1.678   1.843   1.523 -0.1513  0.0018 -0.2501
  528TMC3    C3 7890   1.542   1.852   1.532 -0.3443 -0.2277 -0.4056
  528TMC3    C4 7891   1.683   2.031   1.678 -0.1070 -0.4832 -0.6749
  528TMC3    C5 7892   1.544   2.043   1.676  0.7615  0.2665 -0.4060
  528TMC3    C6 7893   1.477   1.957   1.601 -0.2353 -0.3030  0.0494
  528TMC3     C 7894   1.891   1.923   1.623 -0.0535  0.8263 -0.4028
  528TMC3     O 7895   1.941   1.989   1.714 -0.1755  0.1773 -0.4218
  528TMC3     H 7896   1.724   1.750   1.489 -0.2337 -0.9355  2.1923
  528TMC3    H1 7897   1.744   2.105   1.730  0.3940 -1.5892  0.2965
  528TMC3    H2 7898   1.368   1.954   1.604 -0.2897  0.2814 -1.6074
  528TMC3    C7 7899   1.471   2.144   1.753 -0.0242 -0.1207  0.1909
  528TMC3    C8 7900   1.464   1.735   1.483 -0.0723 -0.6140 -0.2744
  528TMC3    O1 7901   1.352   2.125   1.776  0.0216  0.2518 -0.4222
  528TMC3    O2 7902   1.511   1.689   1.378  0.2162 -0.3595  0.2774
  529MPD2     C 7903   4.370   3.817   0.452 -0.5087 -0.2141  0.9766
  529MPD2    C1 7904   4.345   3.885   0.572 -0.4509 -0.1200 -0.7748
  529MPD2    C2 7905   4.285   4.012   0.562  0.8011 -0.2181 -0.1245
  529MPD2    C3 7906   4.262   4.069   0.435 -0.2029  0.0342  0.4414
  529MPD2    C4 7907   4.306   4.000   0.323  0.3157  0.1526 -0.1168
  529MPD2    C5 7908   4.361   3.873   0.331 -0.2507  0.1087 -0.1627
  529MPD2     H 7909   4.259   4.063   0.655  1.7530 -1.9402  1.0851
  529MPD2    H1 7910   4.292   4.045   0.226 -1.2740  2.0324  0.9741
  529MPD2    H2 7911   4.409   3.716   0.448 -0.0819 -0.0866  2.1842
  529MPD2    H3 7912   4.387   3.823   0.238 -1.2515 -1.9340  0.6507
  529MPD2     N 7913   4.174   4.188   0.420 -0.2373  0.2245 -0.2477
  529MPD2    H5 7914   4.172   4.222   0.324  1.1687  2.5424  0.5348
  529MPD2    N1 7915   4.350   3.830   0.702 -0.5761 -1.0267  0.1288
  529MPD2    H7 7916   4.369   3.889   0.783 -5.5359 -0.1132  0.6833
  530TMC3    C1 7917   4.266   3.679   0.858 -0.4164  0.0001  0.2320
  530TMC3    C2 7918   4.323   3.758   0.956 -0.1240 -0.1814  0.2962
  530TMC3    C3 7919   4.269   3.746   1.083 -0.1518  0.4631 -0.0167
  530TMC3    C4 7920   4.170   3.586   0.879  0.2107 -0.1823 -0.5180
  530TMC3    C5 7921   4.122   3.580   1.006  0.2415 -0.4707  0.3929
  530TMC3    C6 7922   4.161   3.667   1.105 -0.3328  0.1029 -0.1344
  530TMC3     C 7923   4.310   3.699   0.721  0.7144  0.5263 -0.2584
  530TMC3     O 7924   4.287   3.617   0.633 -0.1428  0.1322  0.0337
  530TMC3     H 7925   4.399   3.834   0.939  0.0058 -0.2839  0.4262
  530TMC3    H1 7926   4.128   3.521   0.804 -1.2443 -1.4396  1.3781
  530TMC3    H2 7927   4.112   3.667   1.202 -1.0947  0.4605 -0.5244
  530TMC3    C7 7928   4.028   3.482   1.036 -0.8826  0.2587 -0.5362
  530TMC3    C8 7929   4.326   3.841   1.177  0.0513 -0.3775  0.1439
  530TMC3    O1 7930   3.975   3.498   1.146  0.5015  0.0132 -0.3379
  530TMC3    O2 7931   4.245   3.898   1.250 -0.5856  0.3547  0.1856
  531MPD2     C 7932   3.841   1.270  13.443  0.3096  0.2066 -0.0145
  531MPD2    C1 7933   3.872   1.400  13.408  0.0321 -0.6945 -0.2245
  531MPD2    C2 7934   3.826   1.455  13.291 -0.6398 -0.3924  0.2310
  531MPD2    C3 7935   3.764   1.378  13.195  1.1024 -1.0104 -0.3712
  531MPD2    C4 7936   3.735   1.245  13.221 -0.2621  1.4672 -0.9065
  531MPD2    C5 7937   3.769   1.196  13.345 -0.3157  0.3298 -0.4783
  531MPD2     H 7938   3.839   1.560  13.267 -1.6361  0.0662  1.7781
  531MPD2    H1 7939   3.691   1.178  13.148 -2.4586  0.3205  1.4834
  531MPD2    H2 7940   3.868   1.228  13.539 -3.4459 -0.4046  0.7571
  531MPD2    H3 7941   3.734   1.096  13.367 -0.0908  0.0574 -1.3523
  531MPD2     N 7942   3.738   1.448  13.075 -0.4931 -0.0222  0.2695
  531MPD2    H5 7943   3.756   1.548  13.081 -1.0929 -0.1047  3.4958
  531MPD2    N1 7944   3.944   1.471  13.505  0.2247 -0.2034  0.3555
  531MPD2    H7 7945   3.968   1.418  13.589  0.4824  2.0079  1.6876
  532TMC3    C1 7946   4.053   1.669  13.583 -0.0678  0.2645 -0.2817
  532TMC3    C2 7947   4.029   1.800  13.593  0.0635  0.1602  0.4486
  532TMC3    C3 7948   4.132   1.893  13.585  0.3500  0.7209  0.3324
  532TMC3    C4 7949   4.180   1.622  13.589 -0.4926  0.9373 -0.4296
  532TMC3    C5 7950   4.283   1.722  13.591  0.0903 -0.2459  0.4933
  532TMC3    C6 7951   4.261   1.856  13.598 -0.2270 -0.3308  0.5114
  532TMC3     C 7952   3.968   1.606  13.490 -1.0925  0.0835 -0.3626
  532TMC3     O 7953   3.933   1.688  13.403  0.0683 -0.6212 -0.0184
  532TMC3     H 7954   3.926   1.834  13.599 -0.8137 -1.7676 -3.3102
  532TMC3    H1 7955   4.206   1.517  13.580  1.9253  1.5285 -0.1311
  532TMC3    H2 7956   4.347   1.919  13.575 -0.7394  0.5250  0.9093
  532TMC3    C7 7957   4.412   1.674  13.630  0.1142 -0.8148 -0.3740
  532TMC3    C8 7958   4.094   2.003  13.492  0.0105 -0.4024  0.6323
  532TMC3    O1 7959   4.509   1.740  13.595 -0.3867  0.5899  0.5679
  532TMC3    O2 7960   4.166   2.102  13.498 -0.0182  0.4070 -0.1065
  533TMC3    C1 7961   3.920   4.063  14.532 -0.5383 -0.5367  1.1213
  533TMC3    C2 7962   4.042   4.126  14.507  0.5785  0.4810  0.4336
  533TMC3    C3 7963   4.050   4.256  14.551  0.0580  0.2878 -0.3627
  533TMC3    C4 7964   3.817   4.120  14.600 -0.2383  0.4375 -0.0139
  533TMC3    C5 7965   3.840   4.234  14.665 -0.0419  0.3022  0.0460
  533TMC3    C6 7966   3.950   4.311  14.626 -0.4549 -0.1919  0.4104
  533TMC3     C 7967   3.897   3.928  14.492 -0.6384 -0.1263 -0.4750
  533TMC3     O 7968   3.777   3.899  14.475 -0.4587 -0.0609  0.5415
  533TMC3     H 7969   4.116   4.087  14.438 -0.0074  1.7933 -0.9292
  533TMC3    H1 7970   3.725   4.062  14.612 -0.7128  0.6739 -2.4778
  533TMC3    H2 7971   3.953   4.414  14.659  2.0792 -1.3301  3.7400
  533TMC3    C7 7972   3.832   4.207  14.806  0.1610  0.0883  0.2814
  533TMC3    C8 7973   4.163   4.336  14.528 -0.2470 -0.0706 -0.1407
  533TMC3    O1 7974   3.786   4.093  14.824  0.4401 -0.5966  0.4436
  533TMC3    O2 7975   4.265   4.272  14.513 -0.5457 -0.0055 -0.1695
  534MPD2     C 7976   1.723   4.217   1.509 -0.6354  0.4348  0.1193
  534MPD2    C1 7977   1.725   4.325   1.422  0.6584 -0.1307 -0.2465
  534MPD2    C2 7978   1.616   4.357   1.343 -0.1905 -0.2669 -0.4901
  534MPD2    C3 7979   1.494   4.283   1.348 -0.0762 -1.0955 -0.2579
  534MPD2    C4 7980   1.494   4.172   1.438 -0.7941 -0.1017  0.1682
  534MPD2    C5 7981   1.609   4.141   1.513 -0.2584 -0.1175 -0.4677
  534MPD2     H 7982   1.637   4.444   1.282  1.9519 -0.7706 -0.4620
  534MPD2    H1 7983   1.410   4.105   1.452 -0.2459 -0.9910 -0.7673
  534MPD2    H2 7984   1.808   4.186   1.569 -0.9822 -0.8949 -0.0799
  534MPD2    H3 7985   1.604   4.047   1.567  0.7667 -0.5343 -1.1027
  534MPD2     N 7986   1.384   4.307   1.267 -0.5081 -0.7309 -0.3248
  534MPD2    H5 7987   1.310   4.237   1.271 -0.2254 -0.9390  1.0494
  534MPD2    N1 7988   1.835   4.408   1.419  0.4703  0.0558 -0.3418
  534MPD2    H7 7989   1.832   4.485   1.352  0.5757 -0.5409 -1.0284
  535TMC3    C1 7990   1.260   4.396   1.081  0.3198  0.2060  0.0671
  535TMC3    C2 7991   1.149   4.327   1.118 -0.1287 -0.4271 -0.4238
  535TMC3    C3 7992   1.046   4.329   1.026  0.2740  0.0731  0.0360
  535TMC3    C4 7993   1.286   4.461   0.958  0.2100 -1.0494  0.5353
  535TMC3    C5 7994   1.190   4.437   0.861  0.5809  0.1320  0.0297
  535TMC3    C6 7995   1.073   4.375   0.896 -0.4760  0.1087 -0.2134
  535TMC3     C 7996   1.373   4.404   1.168  0.0151 -0.4169  0.2890
  535TMC3     O 7997   1.441   4.504   1.148 -0.1235  0.1513 -0.0374
  535TMC3     H 7998   1.141   4.283   1.216  0.7456  1.8434  0.6791
  535TMC3    H1 7999   1.380   4.513   0.943 -0.2858  0.1438  1.6108
  535TMC3    H2 8000   0.993   4.376   0.823 -0.3463 -0.8558 -0.3597
  535TMC3    C7 8001   1.189   4.546   0.765 -0.1533  0.5549 -0.0429
  535TMC3    C8 8002   0.917   4.263   1.053 -0.0738 -0.2368 -0.2034
  535TMC3    O1 8003   1.186   4.513   0.646  0.2426  0.0283  0.0582
  535TMC3    O2 8004   0.847   4.223   0.960  0.3184  0.0183 -0.1358
  536MPD2     C 8005   0.719   3.297  16.506 -0.2368  0.2792 -0.1639
  536MPD2    C1 8006   0.607   3.229  16.489 -0.6008  0.9309  0.4891
  536MPD2    C2 8007   0.558   3.208  16.365 -0.7619  0.3411 -0.0242
  536MPD2    C3 8008   0.624   3.260  16.255 -0.1274  0.2067 -0.2463
  536MPD2    C4 8009   0.734   3.338  16.273  0.0938  0.6395  0.1237
  536MPD2    C5 8010   0.785   3.352  16.398 -0.5495 -0.4474 -0.7127
  536MPD2     H 8011   0.463   3.157  16.353  0.8000 -2.3223 -1.2152
  536MPD2    H1 8012   0.783   3.399  16.198  0.9200 -1.7333 -1.2294
  536MPD2    H2 8013   0.780   3.288  16.596 -0.1588 -1.6402 -0.4110
  536MPD2    H3 8014   0.875   3.408  16.423 -0.2067 -0.9324 -0.8707
  536MPD2     N 8015   0.574   3.250  16.118 -0.4778  0.1938  0.6670
  536MPD2    H5 8016   0.605   3.319  16.050 -0.2544 -0.6141 -0.0447
  536MPD2    N1 8017   0.555   3.183  16.609 -0.0938 -0.1016 -0.1886
  536MPD2    H7 8018   0.600   3.215  16.694 -0.3301 -1.8221  0.5823
  537TMC3    C1 8019   0.426   3.071  16.763 -0.5488 -0.2686  0.3087
  537TMC3    C2 8020   0.449   3.170  16.859  0.6264  0.2242  0.2233
  537TMC3    C3 8021   0.433   3.132  16.992  0.0186 -0.5574 -0.0390
  537TMC3    C4 8022   0.361   2.949  16.796 -0.1198 -0.3492 -0.4681
  537TMC3    C5 8023   0.335   2.938  16.930  0.3941 -0.3682  0.3225
  537TMC3    C6 8024   0.389   3.019  17.024  0.1745  0.5258  0.5424
  537TMC3     C 8025   0.448   3.101  16.625  0.6939 -0.6349 -0.4285
  537TMC3     O 8026   0.362   3.052  16.551 -0.3241 -0.0586 -0.4157
  537TMC3     H 8027   0.495   3.264  16.828  0.2230 -0.7745 -3.3829
  537TMC3    H1 8028   0.321   2.884  16.720  1.1104  1.6032 -2.7676
  537TMC3    H2 8029   0.359   3.010  17.128  0.2901 -0.3730  0.4959
  537TMC3    C7 8030   0.243   2.835  16.955  0.5660  0.4994  0.7338
  537TMC3    C8 8031   0.512   3.202  17.092 -0.0469  0.7478  0.0502
  537TMC3    O1 8032   0.161   2.817  16.866  0.9694  0.3589 -0.0349
  537TMC3    O2 8033   0.551   3.147  17.191  0.3518  0.4657 -0.4192
  538TMC3    C1 8034   2.678   1.412  11.084 -0.0365 -0.2679  0.6256
  538TMC3    C2 8035   2.799   1.476  11.105 -0.2485 -0.1341  0.0622
  538TMC3    C3 8036   2.853   1.538  11.001 -0.1847  0.0483  0.5577
  538TMC3    C4 8037   2.601   1.438  10.981  0.1582  0.5538 -0.8408
  538TMC3    C5 8038   2.663   1.505  10.880  0.0809 -0.0281 -0.1974
  538TMC3    C6 8039   2.799   1.542  10.882 -0.1722 -0.3388  0.4441
  538TMC3     C 8040   2.613   1.372  11.200 -0.0979 -0.4275  0.2814
  538TMC3     O 8041   2.528   1.286  11.182  0.3744 -0.4768 -0.5181
  538TMC3     H 8042   2.849   1.477  11.201 -0.2698 -1.7083  0.0933
  538TMC3    H1 8043   2.497   1.409  10.975  0.9050 -1.8594 -2.4024
  538TMC3    H2 8044   2.838   1.592  10.794  0.6204  0.7656  1.4334
  538TMC3    C7 8045   2.572   1.581  10.787 -0.6195  0.4585 -1.1060
  538TMC3    C8 8046   2.969   1.621  11.025 -0.3107 -0.0934  0.3264
  538TMC3    O1 8047   2.462   1.605  10.833 -0.1896  0.1006 -0.0276
  538TMC3    O2 8048   3.021   1.622  11.134 -0.1732  0.0264 -0.2098
  539MPD2     C 8049   2.105   0.869  11.976 -0.5428  0.0779 -0.0171
  539MPD2    C1 8050   2.092   0.848  11.847 -0.2900 -0.0138  0.2429
  539MPD2    C2 8051   2.095   0.951  11.755 -0.2699 -0.8582  0.3119
  539MPD2    C3 8052   2.099   1.085  11.806 -0.7116 -0.1820  0.6500
  539MPD2    C4 8053   2.108   1.102  11.943 -0.2363  0.1375 -0.6887
  539MPD2    C5 8054   2.106   0.992  12.027  0.9458  0.1058 -0.5459
  539MPD2     H 8055   2.095   0.926  11.649 -0.0929 -1.7177  0.5175
  539MPD2    H1 8056   2.121   1.203  11.981  1.1081 -0.3765  0.2161
  539MPD2    H2 8057   2.112   0.782  12.041 -0.6248  0.2308  0.1948
  539MPD2    H3 8058   2.117   1.007  12.134  0.4956 -0.8719 -0.3652
  539MPD2     N 8059   2.098   1.204  11.730 -0.2457 -0.5732  0.5245
  539MPD2    H5 8060   2.090   1.290  11.785 -0.8479  0.8410 -1.7556
  539MPD2    N1 8061   2.108   0.723  11.784  0.1639  0.2285 -0.1246
  539MPD2    H7 8062   2.118   0.726  11.683 -0.8897 -1.5865 -0.2925
  540TMC3    C1 8063   2.031   1.335  11.538  0.2434  0.4494  0.6250
  540TMC3    C2 8064   2.051   1.371  11.410 -0.5249  0.3729  0.2938
  540TMC3    C3 8065   1.991   1.484  11.373 -0.1360  0.3216  0.5187
  540TMC3    C4 8066   1.955   1.413  11.626 -0.2688  0.1079 -0.3907
  540TMC3    C5 8067   1.915   1.538  11.590 -0.3347 -0.0757  0.3506
  540TMC3    C6 8068   1.929   1.576  11.458 -0.2565  0.0252  0.1574
  540TMC3     C 8069   2.088   1.209  11.590  0.0672  0.1407 -0.1834
  540TMC3     O 8070   2.132   1.134  11.507  0.1193 -0.3279 -0.1103
  540TMC3     H 8071   2.121   1.312  11.351 -0.2801  0.5878  0.3678
  540TMC3    H1 8072   1.940   1.380  11.728  1.9007 -2.0591 -0.7484
  540TMC3    H2 8073   1.867   1.653  11.415 -2.2051 -1.1049  0.9398
  540TMC3    C7 8074   1.824   1.605  11.682  0.4325 -0.5104  0.4463
  540TMC3    C8 8075   1.973   1.510  11.229 -0.5522 -0.1877 -0.4223
  540TMC3    O1 8076   1.763   1.554  11.775  0.4956  0.3456  0.3199
  540TMC3    O2 8077   1.991   1.624  11.191 -0.2740 -0.6404 -0.3966
  541MPD2     C 8078   0.449   2.499  13.116  0.0564  0.3276 -0.6544
  541MPD2    C1 8079   0.496   2.418  13.017 -0.2521  0.1148 -0.4272
  541MPD2    C2 8080   0.452   2.437  12.889  0.0031  0.1918 -0.1452
  541MPD2    C3 8081   0.407   2.559  12.849 -0.4302 -0.6394  0.4959
  541MPD2    C4 8082   0.371   2.643  12.949 -0.1712  0.4405  0.4175
  541MPD2    C5 8083   0.364   2.606  13.083  0.5011 -1.2685 -0.2206
  541MPD2     H 8084   0.459   2.359  12.815 -0.6685  1.0156 -1.0819
  541MPD2    H1 8085   0.343   2.745  12.925  0.3177  0.8370  1.5322
  541MPD2    H2 8086   0.487   2.494  13.218 -2.3018  1.9302  0.2941
  541MPD2    H3 8087   0.329   2.681  13.153 -1.6713 -1.1583 -1.4332
  541MPD2     N 8088   0.385   2.607  12.720 -0.2097 -0.2127 -0.8658
  541MPD2    H5 8089   0.365   2.704  12.701 -1.3954 -0.1622  0.6637
  541MPD2    N1 8090   0.578   2.309  13.055 -0.1198  0.5443 -0.6069
  541MPD2    H7 8091   0.590   2.295  13.155 -0.2063  0.4369 -0.6121
  542TMC3    C1 8092   0.393   2.615  12.483  0.1068 -0.0779  0.7938
  542TMC3    C2 8093   0.422   2.548  12.364 -0.7810 -0.4660  0.1972
  542TMC3    C3 8094   0.431   2.627  12.248  0.6192  0.2303  0.6509
  542TMC3    C4 8095   0.360   2.749  12.484  0.4753 -0.0324  0.4753
  542TMC3    C5 8096   0.368   2.820  12.365  0.6007  1.0566 -0.5229
  542TMC3    C6 8097   0.406   2.763  12.246 -0.2690 -0.4709  0.1013
  542TMC3     C 8098   0.413   2.538  12.605 -0.3307 -0.2742 -0.1915
  542TMC3     O 8099   0.451   2.424  12.603  0.5540  0.0775 -0.2384
  542TMC3     H 8100   0.428   2.440  12.370 -0.9014 -0.4492  0.6342
  542TMC3    H1 8101   0.321   2.799  12.572 -1.1238 -1.8855  0.8267
  542TMC3    H2 8102   0.405   2.818  12.153 -3.4275  2.0202  1.6003
  542TMC3    C7 8103   0.337   2.963  12.367 -0.1118 -1.2363  0.3369
  542TMC3    C8 8104   0.474   2.572  12.124 -0.5925 -0.3912 -0.1589
  542TMC3    O1 8105   0.303   3.017  12.259 -0.0950  0.4449  0.0562
  542TMC3    O2 8106   0.455   2.634  12.021  0.1779 -0.2882  0.3956
  543TMC3    C1 8107   3.926   3.669  17.452  0.4872 -0.6111  0.3537
  543TMC3    C2 8108   3.943   3.540  17.470 -0.2950 -0.0465 -0.2629
  543TMC3    C3 8109   3.905   3.490  17.594 -0.3120 -0.4967  0.2207
  543TMC3    C4 8110   3.866   3.759  17.538  0.1127 -0.0871  0.3056
  543TMC3    C5 8111   3.823   3.706  17.655  0.0142  0.0303  0.9170
  543TMC3    C6 8112   3.831   3.569  17.684  0.1136 -0.2235 -0.2761
  543TMC3     C 8113   4.019   3.717  17.352  0.0158  0.5304 -1.0101
  543TMC3     O 8114   4.112   3.639  17.335  0.1177 -0.1317 -0.0973
  543TMC3     H 8115   3.986   3.474  17.396  1.2484  1.1204 -0.4134
  543TMC3    H1 8116   3.872   3.865  17.514  1.2898 -0.4446 -0.9666
  543TMC3    H2 8117   3.803   3.531   0.039 -1.2858  2.4166  0.3417
  543TMC3    C7 8118   3.726   3.775  17.737 -0.2600 -0.5780 -0.4557
  543TMC3    C8 8119   3.934   3.343  17.618 -0.6046 -0.0604  0.7552
  543TMC3    O1 8120   3.691   3.728   0.101  0.3443 -0.0073  0.5118
  543TMC3    O2 8121   3.987   3.289  17.519  0.1204 -0.3053  0.4829
  544MPD2     C 8122   3.821   2.868   0.054 -0.0475 -0.6772 -0.2694
  544MPD2    C1 8123   3.909   2.909  17.697  0.5693 -0.5217  0.2516
  544MPD2    C2 8124   3.945   3.045  17.674 -0.3572  0.5045 -0.2550
  544MPD2    C3 8125   3.890   3.146   0.016 -0.3269 -0.0270 -0.4641
  544MPD2    C4 8126   3.814   3.099   0.120  0.2252  0.0093 -0.1491
  544MPD2    C5 8127   3.783   2.964   0.137  1.0441  0.4627  0.1714
  544MPD2     H 8128   3.995   3.075  17.583  1.0817 -2.4035 -0.4244
  544MPD2    H1 8129   3.772   3.172   0.187 -0.7714 -0.6583 -0.0534
  544MPD2    H2 8130   3.791   2.765   0.074  2.8594 -1.2119  1.3062
  544MPD2    H3 8131   3.719   2.928   0.216 -0.1940  1.6253 -0.3025
  544MPD2     N 8132   3.890   3.290  17.736  0.7460 -0.5957  0.6074
  544MPD2    H5 8133   3.844   3.350   0.061 -0.0593 -0.0225 -0.4367
  544MPD2    N1 8134   3.935   2.810  17.598 -0.2201  0.1971  0.0735
  544MPD2    H7 8135   3.896   2.719  17.616  0.3636  0.0112  0.4140
  545TMC3    C1 8136   3.964   2.773  17.362 -0.2233  0.1606  0.2042
  545TMC3    C2 8137   4.009   2.841  17.254 -0.4815 -0.2210  0.6583
  545TMC3    C3 8138   3.945   2.829  17.137 -0.6017  0.5896  0.7937
  545TMC3    C4 8139   3.856   2.694  17.356  0.2228 -0.2754  0.0934
  545TMC3    C5 8140   3.798   2.667  17.233  0.0485  0.4257 -0.1376
  545TMC3    C6 8141   3.849   2.732  17.116  0.6567  0.4342 -0.2458
  545TMC3     C 8142   4.019   2.825  17.487 -0.0567 -0.3903 -0.6706
  545TMC3     O 8143   4.125   2.885  17.481 -0.3624  0.6349 -0.3671
  545TMC3     H 8144   4.087   2.915  17.264 -0.8686  0.1992  0.5741
  545TMC3    H1 8145   3.816   2.641  17.442 -1.0497  1.0829  0.3295
  545TMC3    H2 8146   3.805   2.747  17.018 -1.9924  2.3624  1.2668
  545TMC3    C7 8147   3.712   2.550  17.212  0.8681 -0.1154 -0.2531
  545TMC3    C8 8148   3.951   2.948  17.049  0.0280  0.2239 -0.8905
  545TMC3    O1 8149   3.603   2.555  17.154  0.2736  0.2589  0.0102
  545TMC3    O2 8150   3.926   2.923  16.932  0.2998  0.7482  0.0363
  546MPD2     C 8151   0.930   3.730  17.607  0.2875  0.0099 -0.4063
  546MPD2    C1 8152   0.812   3.740  17.532 -0.3304  0.0109  0.8653
  546MPD2    C2 8153   0.800   3.838  17.430 -0.6071 -0.8607 -0.2705
  546MPD2    C3 8154   0.891   3.948  17.427  0.0936  0.2572 -0.2484
  546MPD2    C4 8155   1.006   3.931  17.500 -1.0612  0.1159 -0.7769
  546MPD2    C5 8156   1.025   3.826  17.583  0.2313 -0.1146  0.1447
  546MPD2     H 8157   0.719   3.832  17.359 -1.8795  0.9761  1.0097
  546MPD2    H1 8158   1.086   4.004  17.493  0.3579 -1.4311 -0.6534
  546MPD2    H2 8159   0.945   3.649  17.677  1.7171 -0.5103 -1.3068
  546MPD2    H3 8160   1.125   3.814  17.624  0.1463 -0.3239  0.2939
  546MPD2     N 8161   0.873   4.059  17.339  0.4401 -0.4068  0.1817
  546MPD2    H5 8162   0.956   4.112  17.316 -0.3260  0.2176 -1.1345
  546MPD2    N1 8163   0.718   3.637  17.545  0.0239  0.0054 -0.9222
  546MPD2    H7 8164   0.735   3.556  17.605 -0.7300 -0.7090 -1.6678
  547TMC3    C1 8165   0.530   3.507  17.479 -0.2014  0.1830 -0.1057
  547TMC3    C2 8166   0.409   3.508  17.415  0.2296  0.5909  0.5318
  547TMC3    C3 8167   0.348   3.389  17.389 -0.3377 -0.1297 -0.2782
  547TMC3    C4 8168   0.597   3.392  17.512 -0.8733  0.5530  0.1674
  547TMC3    C5 8169   0.534   3.278  17.492 -0.6416 -0.9460  0.3132
  547TMC3    C6 8170   0.408   3.275  17.431 -0.1767 -0.0265 -0.4038
  547TMC3     C 8171   0.595   3.641  17.491  0.2046 -0.1026 -0.1878
  547TMC3     O 8172   0.536   3.746  17.457  0.6007  0.0440 -0.5960
  547TMC3     H 8173   0.381   3.604  17.373 -0.4828 -0.0001 -0.3721
  547TMC3    H1 8174   0.700   3.397  17.544 -1.5610 -0.6921  2.5636
  547TMC3    H2 8175   0.358   3.178  17.423  0.1984 -0.3124  0.8420
  547TMC3    C7 8176   0.560   3.167  17.573 -0.2687  0.7007  0.4004
  547TMC3    C8 8177   0.241   3.397  17.295  0.0782  0.1553  0.4346
  547TMC3    O1 8178   0.458   3.111  17.614 -0.4171 -0.0893  0.3630
  547TMC3    O2 8179   0.209   3.499  17.241  0.1968  1.0675 -0.2329
  548MPD2     C 8180   0.342   3.981  12.550 -0.0558 -0.1564  0.7544
  548MPD2    C1 8181   0.391   3.878  12.632 -0.1574  0.4748 -0.0487
  548MPD2    C2 8182   0.524   3.843  12.620  0.1189 -0.0413 -0.1674
  548MPD2    C3 8183   0.614   3.909  12.539 -0.3418 -0.0274  0.5122
  548MPD2    C4 8184   0.565   4.017  12.461 -0.0798 -0.3769 -0.2985
  548MPD2    C5 8185   0.434   4.047  12.472 -0.1670 -0.4013 -0.1905
  548MPD2     H 8186   0.554   3.752  12.671 -0.1655  1.4420  2.6746
  548MPD2    H1 8187   0.632   4.082  12.406  0.3815 -1.2897 -0.8152
  548MPD2    H2 8188   0.239   4.013  12.543  0.3447  1.3803  2.0987
  548MPD2    H3 8189   0.395   4.125  12.407 -0.0950  1.8738  2.4726
  548MPD2     N 8190   0.743   3.846  12.519 -0.1202 -0.7977  0.0979
  548MPD2    H5 8191   0.759   3.749  12.543  0.3904 -1.3042 -2.2550
  548MPD2    N1 8192   0.300   3.806  12.707  0.8771 -0.1865 -0.6168
  548MPD2    H7 8193   0.202   3.829  12.692  0.6764  0.1748  1.2668
  549TMC3    C1 8194   0.215   3.623  12.820  0.4361 -0.7375 -0.3107
  549TMC3    C2 8195   0.106   3.626  12.743  0.9351 -1.3160 -0.2365
  549TMC3    C3 8196   0.007   3.530  12.770  0.3309  0.6204  0.0627
  549TMC3    C4 8197   0.236   3.528  12.917  0.3496 -0.5384 -0.0038
  549TMC3    C5 8198   0.145   3.428  12.934 -0.1608  0.2424  0.0572
  549TMC3    C6 8199   0.026   3.432  12.866  0.0108  0.5332  0.2246
  549TMC3     C 8200   0.332   3.699  12.780  0.1356 -0.0876 -0.0127
  549TMC3     O 8201   0.441   3.663  12.832  0.3884 -0.1504 -0.2571
  549TMC3     H 8202   0.096   3.684  12.652 -0.7106 -0.9110  0.2020
  549TMC3    H1 8203   0.329   3.536  12.973 -0.0150 -1.5615  0.7477
  549TMC3    H2 8204   4.681   3.361  12.882 -0.3860  0.5350 -1.7412
  549TMC3    C7 8205   0.185   3.308  13.006  0.2542 -0.0617  0.4327
  549TMC3    C8 8206   4.608   3.564  12.729 -0.6980  0.1900 -0.3385
  549TMC3    O1 8207   0.095   3.231  13.036  0.1562  0.2348  0.0943
  549TMC3    O2 8208   4.522   3.491  12.780 -0.5416  0.2750 -0.3314
  550TMC3    C1 8209   0.238   1.653  12.457  0.1955  0.1531 -0.8784
  550TMC3    C2 8210   0.324   1.709  12.553  0.5989 -0.2493  0.0020
  550TMC3    C3 8211   0.384   1.831  12.525  1.2200  0.3537 -0.2841
  550TMC3    C4 8212   0.207   1.716  12.338 -0.0211  0.6729 -0.6464
  550TMC3    C5 8213   0.272   1.827  12.314 -0.4930  0.0750 -0.0864
  550TMC3    C6 8214   0.366   1.881  12.398 -0.0216 -0.0738 -0.0213
  550TMC3     C 8215   0.120   1.585  12.501  0.0403 -0.2107  0.6208
  550TMC3     O 8216   0.134   1.522  12.604  0.7796 -0.3024 -0.1845
  550TMC3     H 8217   0.320   1.677  12.657  1.5186 -2.2609 -0.5848
  550TMC3    H1 8218   0.141   1.671  12.265 -2.1341  1.3591  0.8202
  550TMC3    H2 8219   0.417   1.974  12.375 -0.2748  0.2035  0.5439
  550TMC3    C7 8220   0.173   1.923  12.275 -0.2636 -0.1900  0.2175
  550TMC3    C8 8221   0.384   1.928  12.627  0.2585 -0.5640 -0.5189
  550TMC3    O1 8222   0.058   1.888  12.275 -0.6455 -0.2083  0.0494
  550TMC3    O2 8223   0.417   2.041  12.592  0.3059 -0.2268  0.3609
  551TMC3    C1 8224   2.105   0.153  13.283  0.0673  0.6088 -0.0659
  551TMC3    C2 8225   2.231   0.163  13.224  0.3616 -0.8950  0.3261
  551TMC3    C3 8226   2.311   0.271  13.259  0.5067 -0.2326 -0.3966
  551TMC3    C4 8227   2.061   0.246  13.370 -0.1770 -0.0519 -0.2035
  551TMC3    C5 8228   2.137   0.356  13.404  0.5637  0.0934  0.9355
  551TMC3    C6 8229   2.273   0.369  13.354  0.4065  0.5916 -0.8525
  551TMC3     C 8230   2.004   0.076  13.210  0.1145  0.6015 -0.6971
  551TMC3     O 8231   1.898   0.139  13.205 -0.1254  0.1274  0.0765
  551TMC3     H 8232   2.269   0.090  13.154  0.8738  0.5559 -0.9234
  551TMC3    H1 8233   1.956   0.248  13.395 -0.0212  1.2993  0.3403
  551TMC3    H2 8234   2.344   0.444  13.387 -1.5044  1.9168  0.2570
  551TMC3    C7 8235   2.106   0.425  13.525  0.5766 -0.0017 -1.3085
  551TMC3    C8 8236   2.424   0.286  13.170  0.0048  0.2496  0.6553
  551TMC3    O1 8237   2.021   0.373  13.589  0.2832 -0.6956 -0.1290
  551TMC3    O2 8238   2.461   0.186  13.110 -0.0443  0.0415 -0.1771
  552MPD2     C 8239   3.709   1.650  14.553 -0.7407  0.4339 -0.4440
  552MPD2    C1 8240   3.794   1.692  14.454 -0.4557 -0.5108 -0.1860
  552MPD2    C2 8241   3.919   1.739  14.489 -0.0988  0.0425 -0.0682
  552MPD2    C3 8242   3.963   1.748  14.619 -0.0178 -0.2266  0.4879
  552MPD2    C4 8243   3.873   1.711  14.714 -0.0876  0.2997 -0.6627
  552MPD2    C5 8244   3.755   1.657  14.680  0.5255 -0.2712 -1.0128
  552MPD2     H 8245   3.977   1.782  14.408  0.0355 -2.9724 -1.5775
  552MPD2    H1 8246   3.906   1.714  14.818 -0.7729  2.1084 -0.5007
  552MPD2    H2 8247   3.607   1.616  14.536 -0.1529 -1.5917  0.0190
  552MPD2    H3 8248   3.694   1.612  14.757 -1.2936  3.1378 -0.4730
  552MPD2     N 8249   4.093   1.800  14.656  0.3111  0.0583  0.2244
  552MPD2    H5 8250   4.097   1.830  14.753 -2.8706  1.9393 -0.2314
  552MPD2    N1 8251   3.763   1.714  14.316  0.2182  0.4137 -0.6083
  552MPD2    H7 8252   3.835   1.765  14.266  0.0781  1.0054 -0.2080
  553TMC3    C1 8253   3.664   1.717  14.117  0.4529  0.4496  0.1876
  553TMC3    C2 8254   3.654   1.597  14.050  0.5563  0.4879 -0.0115
  553TMC3    C3 8255   3.745   1.579  13.947  0.3537 -0.5761  0.0725
  553TMC3    C4 8256   3.767   1.806  14.083  0.5322 -0.3856 -0.3934
  553TMC3    C5 8257   3.849   1.786  13.974  0.2969  0.4603  0.4656
  553TMC3    C6 8258   3.845   1.662  13.913 -0.5025 -0.5058  0.4937
  553TMC3     C 8259   3.646   1.681  14.257  0.0509  0.1376 -0.8989
  553TMC3     O 8260   3.553   1.612  14.291 -0.7467 -0.2547 -0.2086
  553TMC3     H 8261   3.587   1.516  14.076  0.7901 -0.5670 -2.7264
  553TMC3    H1 8262   3.783   1.892  14.148 -0.2624 -0.2349 -0.3920
  553TMC3    H2 8263   3.915   1.639  13.835 -1.5387 -1.4985 -0.1421
  553TMC3    C7 8264   3.965   1.872  13.973  0.3209  0.0242 -0.2346
  553TMC3    C8 8265   3.788   1.444  13.921  0.7806  0.1236 -0.0315
  553TMC3    O1 8266   3.954   1.990  14.013  0.5727 -0.1479  0.6045
  553TMC3    O2 8267   3.906   1.432  13.886  0.5049 -0.4223 -0.5693
  554TMC3    C1 8268   1.208   1.139  11.465  0.2142  0.2580 -0.4721
  554TMC3    C2 8269   1.169   1.101  11.340 -0.4567 -0.9569  0.2998
  554TMC3    C3 8270   1.184   1.190  11.237 -0.3429  0.3455  0.0335
  554TMC3    C4 8271   1.251   1.269  11.491  0.6205 -0.1654 -0.4040
  554TMC3    C5 8272   1.288   1.347  11.383 -0.6433 -0.0486 -0.0082
  554TMC3    C6 8273   1.253   1.311  11.259 -0.7874 -0.1099 -0.2727
  554TMC3     C 8274   1.163   1.055  11.570  0.3173  0.1192 -0.1461
  554TMC3     O 8275   1.117   0.951  11.529 -0.0512  0.6913 -0.3503
  554TMC3     H 8276   1.148   0.997  11.321 -0.2235 -1.2354  1.5423
  554TMC3    H1 8277   1.256   1.306  11.593 -5.0032  0.4796 -0.3401
  554TMC3    H2 8278   1.282   1.380  11.181 -1.3313 -1.2360 -1.4647
  554TMC3    C7 8279   1.378   1.455  11.406  0.3199 -0.1998  0.3288
  554TMC3    C8 8280   1.157   1.154  11.098 -0.4586 -0.5723  0.2357
  554TMC3    O1 8281   1.380   1.508  11.518  0.5396 -0.3795 -0.1557
  554TMC3    O2 8282   1.206   1.225  11.015 -0.5602 -0.0181  0.2351
  555TMC3    C1 8283   4.492   0.919  15.459  0.0721  0.5614  0.1156
  555TMC3    C2 8284   4.479   0.964  15.589 -0.4800  0.1449 -0.0601
  555TMC3    C3 8285   4.464   0.872  15.682 -0.1718  0.8679 -0.3520
  555TMC3    C4 8286   4.490   0.786  15.428 -0.5670 -0.0506 -0.0145
  555TMC3    C5 8287   4.449   0.706  15.522 -0.1124  0.3112 -0.1170
  555TMC3    C6 8288   4.445   0.737  15.656 -0.2076 -0.5601 -0.1433
  555TMC3     C 8289   4.480   1.020  15.357 -0.0977 -0.3097  0.0937
  555TMC3     O 8290   4.533   1.123  15.394 -0.2343  0.0759  0.3052
  555TMC3     H 8291   4.510   1.065  15.615  0.1286 -0.2995  0.9331
  555TMC3    H1 8292   4.503   0.758  15.324  0.5189  0.1545  0.0669
  555TMC3    H2 8293   4.418   0.665  15.733 -2.7356 -0.2298 -0.7114
  555TMC3    C7 8294   4.468   0.562  15.501 -0.0579 -0.1995  1.0340
  555TMC3    C8 8295   4.483   0.925  15.819  0.4804 -0.2421 -0.0651
  555TMC3    O1 8296   4.400   0.490  15.573 -0.4350 -0.1955  0.3557
  555TMC3    O2 8297   4.476   1.049  15.843 -0.1811  0.0300 -0.4959
  556MPD2     C 8298   2.858   2.838  10.627  0.4821  0.3331  0.2577
  556MPD2    C1 8299   2.914   2.751  10.721 -0.3008  0.0573 -0.1399
  556MPD2    C2 8300   2.990   2.636  10.673  0.1882 -0.2014 -0.2310
  556MPD2    C3 8301   2.991   2.597  10.542  0.2905  0.6000 -0.3472
  556MPD2    C4 8302   2.910   2.668  10.464 -0.6482 -0.1230  0.0652
  556MPD2    C5 8303   2.861   2.795  10.499 -0.1110 -0.0699  0.1900
  556MPD2     H 8304   3.043   2.577  10.747  2.4315  2.4881  0.3053
  556MPD2    H1 8305   2.896   2.647  10.358 -0.3841 -1.9738  0.3963
  556MPD2    H2 8306   2.809   2.931  10.653  1.8592  1.3397 -0.7098
  556MPD2    H3 8307   2.810   2.845  10.417  1.0897  0.9511  0.0733
  556MPD2     N 8308   3.061   2.478  10.502 -0.4189  0.4083 -0.4809
  556MPD2    H5 8309   3.094   2.419  10.577 -0.8652  2.9558  1.7337
  556MPD2    N1 8310   2.894   2.777  10.865 -0.2395 -0.3506  0.4775
  556MPD2    H7 8311   2.930   2.709  10.931 -0.3648 -0.6258  0.2622
  557TMC3    C1 8312   3.118   2.302  10.358  0.0526  0.4914  1.0499
  557TMC3    C2 8313   3.187   2.275  10.246 -0.4589 -0.3105  0.2449
  557TMC3    C3 8314   3.272   2.166  10.243  0.5516  0.0115  0.1429
  557TMC3    C4 8315   3.128   2.225  10.471  0.1937 -0.6526  0.8966
  557TMC3    C5 8316   3.213   2.116  10.463  0.7633 -0.0517  0.4465
  557TMC3    C6 8317   3.288   2.091  10.348  0.1666  0.4806 -0.0829
  557TMC3     C 8318   3.073   2.438  10.371  0.3017 -0.3954 -0.3927
  557TMC3     O 8319   3.042   2.498  10.270 -0.5173  0.7917  0.5158
  557TMC3     H 8320   3.179   2.343  10.162 -1.0436  0.0928  0.6252
  557TMC3    H1 8321   3.065   2.241  10.558  2.2358 -1.0848  2.4303
  557TMC3    H2 8322   3.371   2.021  10.349 -0.7887 -0.6657  0.1619
  557TMC3    C7 8323   3.218   2.013  10.562  0.2426 -0.4170 -0.3184
  557TMC3    C8 8324   3.344   2.155  10.123  0.0108  0.1817 -0.0480
  557TMC3    O1 8325   3.242   1.897  10.526 -0.3002 -0.0640 -0.7170
  557TMC3    O2 8326   3.375   2.252  10.055  0.1794  0.6935  0.2225
  558TMC3    C1 8327   0.795   0.087  10.368 -0.0525 -0.0886  0.0653
  558TMC3    C2 8328   0.678   0.071  10.438 -0.5652 -0.5174 -1.0628
  558TMC3    C3 8329   0.568   0.085  10.357  0.2162 -0.8991 -0.5636
  558TMC3    C4 8330   0.804   0.120  10.238 -0.1427  0.1815 -0.0748
  558TMC3    C5 8331   0.692   0.134  10.165  0.5910 -0.1486  0.1098
  558TMC3    C6 8332   0.569   0.120  10.225 -0.1020 -0.3134  0.4211
  558TMC3     C 8333   0.924   0.049  10.438  0.0338  0.2606 -0.1287
  558TMC3     O 8334   1.021   0.115  10.415  0.0986 -0.2526 -0.2691
  558TMC3     H 8335   0.692   0.081  10.545 -2.8909  0.0324 -0.8163
  558TMC3    H1 8336   0.901   0.145  10.197 -0.4769  0.7231 -0.5216
  558TMC3    H2 8337   0.476   0.142  10.175 -0.8051 -4.7392 -0.1747
  558TMC3    C7 8338   0.705   0.188  10.037 -0.5056  0.4103  0.5117
  558TMC3    C8 8339   0.440   0.082  10.430 -1.3243  0.4658 -0.2994
  558TMC3    O1 8340   0.823   0.199   9.996  0.4866 -0.2656  0.1719
  558TMC3    O2 8341   0.344   0.122  10.366  0.2646 -0.3842 -0.5906
  559MPD2     C 8342   0.876   0.486  10.501  0.6715  0.0527  0.9392
  559MPD2    C1 8343   0.794   0.463  10.614  0.4296  0.2234 -0.3967
  559MPD2    C2 8344   0.857   0.429  10.730 -0.6423  0.6082  0.3994
  559MPD2    C3 8345   0.995   0.431  10.743  0.2706  0.2734  0.0847
  559MPD2    C4 8346   1.077   0.454  10.637  0.0438  0.0253  0.6613
  559MPD2    C5 8347   1.013   0.489  10.518  0.1795  0.2928 -0.8298
  559MPD2     H 8348   0.802   0.403  10.819 -1.9848 -0.8633 -0.8767
  559MPD2    H1 8349   1.186   0.451  10.640 -0.0052 -1.7579  0.6621
  559MPD2    H2 8350   0.826   0.499  10.406  1.1806  0.5627  0.7452
  559MPD2    H3 8351   1.080   0.496  10.433  0.8061  1.3942 -0.2418
  559MPD2     N 8352   1.036   0.394  10.875 -0.0854  0.1088 -0.1272
  559MPD2    H5 8353   0.960   0.369  10.937 -0.1007 -0.8549 -0.5412
  559MPD2    N1 8354   0.652   0.461  10.602  0.0395 -0.0849 -0.3088
  559MPD2    H7 8355   0.610   0.484  10.513  0.9803  0.3072 -0.6590
  560TMC3    C1 8356   1.206   0.320  11.022 -0.0084  0.4772  0.6006
  560TMC3    C2 8357   1.125   0.206  11.041 -0.2802 -0.0522  0.3077
  560TMC3    C3 8358   1.149   0.154  11.162  0.2983 -0.2428 -0.1076
  560TMC3    C4 8359   1.293   0.369  11.110  0.2346 -0.3995  0.1914
  560TMC3    C5 8360   1.300   0.312  11.235 -0.0441  0.2855  0.1781
  560TMC3    C6 8361   1.224   0.203  11.265 -0.0238  0.0955  0.0484
  560TMC3     C 8362   1.171   0.396  10.905 -0.5222 -0.4159 -0.4684
  560TMC3     O 8363   1.256   0.469  10.856 -0.5111 -0.3315 -0.1907
  560TMC3     H 8364   1.056   0.177  10.963  1.2200 -2.0873 -0.2767
  560TMC3    H1 8365   1.339   0.464  11.086 -0.4096  0.1124  0.9672
  560TMC3    H2 8366   1.243   0.153  11.359  0.4770 -0.7992 -0.5361
  560TMC3    C7 8367   1.372   0.374  11.343  0.2883  0.8457 -0.0391
  560TMC3    C8 8368   1.066   0.051  11.205 -0.4032 -0.5754 -0.6272
  560TMC3    O1 8369   1.330   0.359  11.457 -0.0904  0.2019  0.1822
  560TMC3    O2 8370   1.018   0.076  11.317 -0.2706 -0.5462 -0.4455
  561TMC3    C1 8371   3.414   4.235  11.383  0.1422  0.4913 -0.3504
  561TMC3    C2 8372   3.346   4.153  11.472 -0.5167  0.4710  0.1448
  561TMC3    C3 8373   3.304   4.216  11.591 -0.1421 -0.2070 -0.5371
  561TMC3    C4 8374   3.461   4.358  11.415  0.0654 -0.7735  0.2434
  561TMC3    C5 8375   3.428   4.411  11.534  0.1824 -0.1249 -0.4032
  561TMC3    C6 8376   3.344   4.348  11.620  0.0128  0.0475 -0.2693
  561TMC3     C 8377   3.455   4.156  11.268  0.0162  0.1020  0.1490
  561TMC3     O 8378   3.447   4.038  11.286 -0.8148  0.0667  0.8127
  561TMC3     H 8379   3.307   4.059  11.436  0.8753  0.1572 -0.5313
  561TMC3    H1 8380   3.503   4.421  11.336 -2.3215  0.2115 -0.2429
  561TMC3    H2 8381   3.307   4.406  11.703  2.3559 -0.0052  0.8054
  561TMC3    C7 8382   3.418   4.555  11.545  0.3443 -0.0474  0.3474
  561TMC3    C8 8383   3.228   4.131  11.679 -0.1789  0.3089  0.5076
  561TMC3    O1 8384   3.312   4.604  11.580  0.5821  0.7889  0.3768
  561TMC3    O2 8385   3.218   4.014  11.652 -0.2868 -0.3504  0.6826
  562TMC3    C1 8386   4.339   0.672  16.429 -0.8187  0.2260  0.2704
  562TMC3    C2 8387   4.292   0.801  16.429 -0.0324 -0.5469  0.5324
  562TMC3    C3 8388   4.253   0.860  16.311  0.1151 -0.2144  0.0679
  562TMC3    C4 8389   4.351   0.605  16.312  0.2145 -0.7938 -0.3033
  562TMC3    C5 8390   4.302   0.663  16.196 -0.4119 -0.1114  0.1494
  562TMC3    C6 8391   4.261   0.793  16.189 -0.0358 -0.4717  0.2283
  562TMC3     C 8392   4.329   0.594  16.555  0.1394  0.1657  0.1817
  562TMC3     O 8393   4.303   0.475  16.542 -0.7695 -0.2827 -0.3794
  562TMC3     H 8394   4.271   0.851  16.522  2.5512  0.4708  0.5834
  562TMC3    H1 8395   4.394   0.506  16.329  1.7333 -0.0403  0.1993
  562TMC3    H2 8396   4.210   0.827  16.100 -0.0687  0.8970  0.7577
  562TMC3    C7 8397   4.298   0.591  16.070 -0.1848  0.6818 -0.1691
  562TMC3    C8 8398   4.153   0.968  16.325 -0.3174  0.6870 -0.0284
  562TMC3    O1 8399   4.264   0.649  15.966  0.5751 -0.3395  0.2239
  562TMC3    O2 8400   4.086   0.973  16.425  0.3221 -0.2917  0.0501
  563MPD2     C 8401   1.776   2.697  15.821  0.5748 -0.5241  0.3313
  563MPD2    C1 8402   1.777   2.605  15.928  0.1544 -0.1156  0.6219
  563MPD2    C2 8403   1.890   2.529  15.951 -0.6119  0.2129  0.5348
  563MPD2    C3 8404   2.003   2.544  15.872 -0.1317 -0.0287  0.4702
  563MPD2    C4 8405   2.011   2.643  15.782  0.2742  0.1208  0.1494
  563MPD2    C5 8406   1.895   2.718  15.759 -0.5284  0.8179 -0.6747
  563MPD2     H 8407   1.891   2.448  16.022  2.7341  0.6254  0.9806
  563MPD2    H1 8408   2.092   2.651  15.711 -1.1909  0.7051 -1.4609
  563MPD2    H2 8409   1.692   2.756  15.785  2.0881  1.2083 -0.3856
  563MPD2    H3 8410   1.883   2.785  15.674 -4.0380  0.6054 -0.3741
  563MPD2     N 8411   2.112   2.466  15.915  0.0186  0.2225  0.3927
  563MPD2    H5 8412   2.091   2.402  15.991 -0.2110  0.0086  0.1523
  563MPD2    N1 8413   1.658   2.589  16.008 -0.0967 -0.0964  0.1734
  563MPD2    H7 8414   1.581   2.649  15.982 -0.8547 -0.0040  2.5718
  564TMC3    C1 8415   1.504   2.518  16.167 -0.0128 -0.1810  0.7737
  564TMC3    C2 8416   1.420   2.448  16.086 -0.0217  0.1480 -0.3188
  564TMC3    C3 8417   1.332   2.364  16.145  0.1006  0.5742  0.2130
  564TMC3    C4 8418   1.505   2.489  16.298  0.8115  0.2175  0.1825
  564TMC3    C5 8419   1.430   2.390  16.354 -0.4177 -0.0493 -0.1598
  564TMC3    C6 8420   1.326   2.333  16.279 -0.4257  0.2910  0.6251
  564TMC3     C 8421   1.644   2.512  16.121  0.2016  0.2046 -0.5806
  564TMC3     O 8422   1.727   2.440  16.174  0.5681 -0.0952  0.2713
  564TMC3     H 8423   1.431   2.451  15.979  0.8812  0.8932 -0.2071
  564TMC3    H1 8424   1.597   2.520  16.348  0.8501 -1.3777  1.1033
  564TMC3    H2 8425   1.255   2.267  16.328 -2.6821  2.0443 -0.2841
  564TMC3    C7 8426   1.513   2.291  16.420 -0.7953  0.2211 -0.6051
  564TMC3    C8 8427   1.264   2.265  16.064  0.4139  0.2516  0.4117
  564TMC3    O1 8428   1.601   2.343  16.489  0.2260  0.1587 -0.6732
  564TMC3    O2 8429   1.258   2.152  16.108 -0.0193  0.0660 -0.0503
  565TMC3    C1 8430   3.130   3.921  10.117  0.4346  0.5024 -0.4217
  565TMC3    C2 8431   3.100   3.825  10.215  0.0675 -0.1113 -0.0666
  565TMC3    C3 8432   3.051   3.707  10.177 -0.3734  0.4080 -0.7000
  565TMC3    C4 8433   3.122   3.891   9.985  0.0694 -0.2531  0.1827
  565TMC3    C5 8434   3.083   3.760   9.955 -0.1572 -0.4008  0.0057
  565TMC3    C6 8435   3.031   3.672  10.046 -0.3555 -0.0019  0.3316
  565TMC3     C 8436   3.174   4.059  10.147  0.0063  0.4231  0.4557
  565TMC3     O 8437   3.253   4.116  10.070 -0.1783 -0.0095 -0.0027
  565TMC3     H 8438   3.112   3.838  10.322  0.7054  1.5378 -0.3313
  565TMC3    H1 8439   3.139   3.964   9.907  0.2780 -1.6261 -1.0551
  565TMC3    H2 8440   3.039   3.567  10.017  0.2093 -0.9196  3.7312
  565TMC3    C7 8441   3.074   3.718   9.815 -0.1190 -0.0028  0.0041
  565TMC3    C8 8442   2.990   3.625  10.287 -0.3910 -0.4301  0.5314
  565TMC3    O1 8443   2.999   3.625   9.787 -0.1805 -0.4036  0.6537
  565TMC3    O2 8444   3.000   3.663  10.402 -0.1249  0.1627 -0.3421
  566MPD2     C 8445   3.750   0.633  14.140 -0.0134  0.3497  0.0272
  566MPD2    C1 8446   3.821   0.512  14.132  0.8409 -0.2761 -0.1115
  566MPD2    C2 8447   3.801   0.430  14.028  0.1765 -0.4781  0.0988
  566MPD2    C3 8448   3.702   0.457  13.932  0.1531 -1.1709  0.4176
  566MPD2    C4 8449   3.633   0.577  13.941 -0.2725  0.1332 -0.0398
  566MPD2    C5 8450   3.663   0.663  14.045 -0.5363 -0.1408  0.4705
  566MPD2     H 8451   3.857   0.337  14.024 -0.0183 -0.6223  0.7202
  566MPD2    H1 8452   3.560   0.608  13.868 -0.0917  0.0369 -0.2592
  566MPD2    H2 8453   3.768   0.713  14.211  1.2331  1.2237 -1.2749
  566MPD2    H3 8454   3.605   0.754  14.054 -1.3281 -0.6769  0.7955
  566MPD2     N 8455   3.662   0.365  13.831 -0.8862  0.3653  0.1085
  566MPD2    H5 8456   3.710   0.276  13.841  1.2876  1.5411  0.0991
  566MPD2    N1 8457   3.923   0.500  14.222  0.0417  0.1403  0.9711
  566MPD2    H7 8458   3.961   0.583  14.265  1.3525 -0.2562  0.5669
  567TMC3    C1 8459   4.123   0.406  14.290  0.8858 -0.2844 -0.0327
  567TMC3    C2 8460   4.204   0.466  14.196  0.7491 -0.6405 -0.0518
  567TMC3    C3 8461   4.326   0.507  14.243 -0.0972  0.1938 -0.1196
  567TMC3    C4 8462   4.159   0.387  14.421  0.0524 -0.3477 -0.0584
  567TMC3    C5 8463   4.284   0.432  14.464  0.2955 -0.4015  0.6073
  567TMC3    C6 8464   4.370   0.485  14.372 -0.7606  0.1315 -0.2708
  567TMC3     C 8465   3.988   0.383  14.249  0.3668 -0.6156 -0.5867
  567TMC3     O 8466   3.965   0.268  14.221  0.7615  0.0443 -0.1201
  567TMC3     H 8467   4.172   0.487  14.095  0.7454 -1.1575 -0.1539
  567TMC3    H1 8468   4.082   0.352  14.489  0.7306  1.2882  1.5722
  567TMC3    H2 8469   4.468   0.513  14.410 -1.7100  1.2692  1.3431
  567TMC3    C7 8470   4.343   0.403  14.592 -0.3102 -0.1607  0.1691
  567TMC3    C8 8471   4.408   0.571  14.140 -0.4881  0.2536  0.4043
  567TMC3    O1 8472   4.464   0.413  14.603 -0.1463  0.6260  0.0754
  567TMC3    O2 8473   4.399   0.519  14.030 -0.2946  0.1580 -0.3627
  568MPD2     C 8474   1.775   1.156  16.077  0.1410  0.1241 -0.4932
  568MPD2    C1 8475   1.650   1.117  16.123 -0.3540 -0.3970  0.0266
  568MPD2    C2 8476   1.539   1.173  16.066 -0.4356  0.3575 -0.1331
  568MPD2    C3 8477   1.546   1.282  15.980  0.4320 -0.3106 -0.7032
  568MPD2    C4 8478   1.670   1.320  15.938 -0.4210  0.4215 -0.3600
  568MPD2    C5 8479   1.782   1.252  15.985  0.5443  0.0770 -0.1088
  568MPD2     H 8480   1.440   1.135  16.088  0.1756 -1.3485 -0.3328
  568MPD2    H1 8481   1.685   1.400  15.867 -4.1336 -1.5348 -3.3477
  568MPD2    H2 8482   1.861   1.114  16.127  0.1286  1.9909  1.0995
  568MPD2    H3 8483   1.883   1.274  15.951  0.3127 -0.2197 -0.9938
  568MPD2     N 8484   1.421   1.333  15.928  0.0842  0.1371 -0.1889
  568MPD2    H5 8485   1.340   1.286  15.966  0.4180  0.9145  1.5071
  568MPD2    N1 8486   1.645   1.028  16.240 -0.7306  0.6097 -0.1343
  568MPD2    H7 8487   1.733   1.008  16.285  0.3910 -0.0055 -2.6195
  569TMC3    C1 8488   1.269   1.500  15.855  0.0174  0.5920 -0.4799
  569TMC3    C2 8489   1.203   1.499  15.970  0.4985  0.5021  0.6461
  569TMC3    C3 8490   1.088   1.570  15.975  0.2439 -0.2554 -0.5647
  569TMC3    C4 8491   1.237   1.584  15.751  0.9163  0.0707  0.5678
  569TMC3    C5 8492   1.117   1.655  15.754  0.5284 -0.2324  0.4101
  569TMC3    C6 8493   1.048   1.652  15.872  0.7604  0.1004  0.2095
  569TMC3     C 8494   1.408   1.448  15.854 -0.2016 -0.3841  0.3335
  569TMC3     O 8495   1.496   1.521  15.813 -0.1276 -0.8256  0.4449
  569TMC3     H 8496   1.241   1.434  16.048  2.3371 -1.5423 -1.9885
  569TMC3    H1 8497   1.300   1.591  15.663 -0.5383  3.5923 -0.1984
  569TMC3    H2 8498   0.960   1.714  15.883 -0.0590 -0.8869 -0.7623
  569TMC3    C7 8499   1.110   1.778  15.674  0.7122 -0.2405  1.0919
  569TMC3    C8 8500   1.041   1.623  16.104 -0.0610  0.0152  0.6474
  569TMC3    O1 8501   1.105   1.776  15.552  0.4542  0.2467  0.8783
  569TMC3    O2 8502   0.940   1.686  16.116 -0.1184 -0.0552 -0.4449
  570TMC3    C1 8503   0.614   4.605  15.950 -0.1130 -1.3395  0.8556
  570TMC3    C2 8504   0.723   4.582  15.875  0.1869 -0.1325 -1.0536
  570TMC3    C3 8505   0.767   4.682  15.797 -0.1435 -0.3375  0.1438
  570TMC3    C4 8506   0.543   4.719  15.937 -0.9406  0.1997  0.7468
  570TMC3    C5 8507   0.585   0.080  15.851 -0.9270  0.2275  0.4167
  570TMC3    C6 8508   0.701   0.067  15.786  0.1779  0.1261 -0.4447
  570TMC3     C 8509   0.594   4.513  16.058 -0.2898  0.3361 -0.7953
  570TMC3     O 8510   0.620   4.396  16.026 -0.2350 -0.2536 -0.0971
  570TMC3     H 8511   0.769   4.484  15.885  0.7775  0.1821 -0.6727
  570TMC3    H1 8512   0.444   4.729  15.981 -1.2503 -0.7847  0.2961
  570TMC3    H2 8513   0.737   0.152  15.730  1.5860  0.5274  1.0609
  570TMC3    C7 8514   0.533   0.218  15.865  0.2737 -0.6652 -0.6337
  570TMC3    C8 8515   0.905   4.690  15.747  0.4719  0.0662  0.4220
  570TMC3    O1 8516   0.463   0.237  15.962  0.0568 -0.3222  0.1683
  570TMC3    O2 8517   0.953   0.063  15.750  0.1477  0.1722 -0.1378
  571MPD2     C 8518   2.877   0.914  17.690 -0.0396  0.4447 -0.6925
  571MPD2    C1 8519   2.786   0.955   0.036 -0.2031  0.1910  0.1160
  571MPD2    C2 8520   2.781   1.089   0.077 -0.2634 -0.3497  0.2523
  571MPD2    C3 8521   2.876   1.175   0.020  0.0519 -0.5661  0.5337
  571MPD2    C4 8522   2.965   1.133  17.663 -0.0776  0.8922  0.5538
  571MPD2    C5 8523   2.956   1.004  17.625 -0.4429  0.6021  0.4247
  571MPD2     H 8524   2.712   1.116   0.155 -1.7049 -0.7567 -0.8923
  571MPD2    H1 8525   3.036   1.199  17.614  3.5404 -1.5186  2.4994
  571MPD2    H2 8526   2.889   0.810  17.662  0.3617 -0.0222  1.1927
  571MPD2    H3 8527   3.025   0.969  17.550  0.1147  1.2283  0.6529
  571MPD2     N 8528   2.879   1.314   0.054  0.3474  0.5875 -0.3937
  571MPD2    H5 8529   2.945   1.368  17.740 -0.2001  0.6100 -1.0092
  571MPD2    N1 8530   2.713   0.852   0.098  0.0705  0.0379 -0.4161
  571MPD2    H7 8531   2.723   0.761   0.056  1.1024  0.1627 -0.4280
  572TMC3    C1 8532   2.798   1.524   0.115  0.1825 -0.3124  1.2768
  572TMC3    C2 8533   2.695   1.599   0.169 -0.2791  0.2881 -0.5773
  572TMC3    C3 8534   2.696   1.738   0.140  0.7457 -0.4677 -0.9191
  572TMC3    C4 8535   2.879   1.575   0.018  0.2557 -0.4261  0.0095
  572TMC3    C5 8536   2.859   1.705  17.719  0.0807 -0.3448  0.2462
  572TMC3    C6 8537   2.770   1.788   0.035 -0.1202 -0.1146  0.1443
  572TMC3     C 8538   2.797   1.384   0.135 -1.0426  0.1108 -0.6593
  572TMC3     O 8539   2.701   1.344   0.195 -0.2326  0.0741 -0.1591
  572TMC3     H 8540   2.643   1.560   0.256  1.4599 -1.3531 -0.2707
  572TMC3    H1 8541   2.958   1.520  17.712 -0.5909 -0.0553 -1.7860
  572TMC3    H2 8542   2.789   1.892   0.013  0.7798 -0.7530 -2.1422
  572TMC3    C7 8543   2.950   1.766  17.628 -0.1001  0.0346 -0.0235
  572TMC3    C8 8544   2.624   1.825   0.239 -0.2262 -0.6043 -0.4835
  572TMC3    O1 8545   2.909   1.860  17.561  0.2558 -0.1621 -0.4586
  572TMC3    O2 8546   2.550   1.913   0.203  0.0511 -0.2181 -0.6820
  573MPD2     C 8547   4.381   1.529   0.305 -0.8150  0.5151 -0.2318
  573MPD2    C1 8548   4.326   1.647   0.283 -0.2232  0.2980 -0.0363
  573MPD2    C2 8549   4.262   1.675   0.162 -0.3154  0.2193 -0.6948
  573MPD2    C3 8550   4.284   1.591   0.052  0.1679  0.3495 -0.8722
  573MPD2    C4 8551   4.349   1.472   0.073 -0.1522 -0.1963  0.5173
  573MPD2    C5 8552   4.388   1.443   0.204  0.6056 -0.2158  0.5022
  573MPD2     H 8553   4.210   1.768   0.146  3.2508  2.3232 -0.0655
  573MPD2    H1 8554   4.372   1.403  17.736 -0.1643 -1.2582  1.4393
  573MPD2    H2 8555   4.414   1.505   0.406  1.0776 -0.2115 -1.0290
  573MPD2    H3 8556   4.433   1.346   0.221  0.1169 -0.3407  1.0503
  573MPD2     N 8557   4.244   1.622  17.663  0.3491 -0.2182  0.2119
  573MPD2    H5 8558   4.268   1.555  17.590 -1.1480 -1.3044  0.7067
  573MPD2    N1 8559   4.326   1.745   0.390  0.0105  0.0014  0.1045
  573MPD2    H7 8560   4.350   1.705   0.480 -1.3044 -0.8275  0.0872
  574TMC3    C1 8561   4.118   1.713  17.490 -0.1384 -0.1563 -0.4610
  574TMC3    C2 8562   4.008   1.788  17.457  0.0709 -0.2192  0.6253
  574TMC3    C3 8563   3.949   1.767  17.337  0.7257 -0.9166 -0.0100
  574TMC3    C4 8564   4.167   1.607  17.405  0.3836 -0.0188 -0.2773
  574TMC3    C5 8565   4.079   1.584  17.298  0.0210  0.9323 -0.1416
  574TMC3    C6 8566   3.981   1.664  17.253 -0.0052 -0.7281  0.3257
  574TMC3     C 8567   4.175   1.733  17.624 -0.2844  0.4357 -0.5095
  574TMC3     O 8568   4.147   1.838  17.678 -0.5016 -0.0834 -0.4076
  574TMC3     H 8569   3.976   1.873  17.517 -0.1581  1.3868 -1.7707
  574TMC3    H1 8570   4.257   1.546  17.412  0.8859  0.8942  1.0344
  574TMC3    H2 8571   3.927   1.638  17.163 -1.4807 -0.5584  1.1758
  574TMC3    C7 8572   4.123   1.487  17.201 -0.4301  0.1450  0.3478
  574TMC3    C8 8573   3.827   1.846  17.302  0.4865 -0.4448 -0.0233
  574TMC3    O1 8574   4.101   1.514  17.084  0.1960 -0.1040 -0.1722
  574TMC3    O2 8575   3.734   1.785  17.257 -0.3987 -0.7709  0.1543
  575TMC3    C1 8576   2.821   3.368  11.078 -0.2387  0.2043 -0.3172
  575TMC3    C2 8577   2.714   3.297  11.122  0.6651 -0.2289  0.1560
  575TMC3    C3 8578   2.634   3.240  11.024  0.4710 -0.3458 -0.4928
  575TMC3    C4 8579   2.852   3.393  10.945 -0.0818 -0.2562 -0.9398
  575TMC3    C5 8580   2.770   3.339  10.848 -0.1261  0.2902 -0.6402
  575TMC3    C6 8581   2.669   3.249  10.886 -0.7758  0.1280  0.9516
  575TMC3     C 8582   2.874   3.459  11.184 -0.1157  0.9809 -0.2466
  575TMC3     O 8583   2.807   3.476  11.284 -0.3388  0.1752  0.0448
  575TMC3     H 8584   2.682   3.304  11.225 -1.9212 -0.9330 -0.6091
  575TMC3    H1 8585   2.924   3.470  10.920 -1.0049  1.1369  0.6405
  575TMC3    H2 8586   2.603   3.211  10.809 -0.9269 -0.1978  1.2386
  575TMC3    C7 8587   2.787   3.399  10.719 -0.2863  0.0434  0.4868
  575TMC3    C8 8588   2.553   3.133  11.078 -0.4482 -0.4334 -0.0115
  575TMC3    O1 8589   2.849   3.502  10.707  0.8645 -0.0064 -0.3244
  575TMC3    O2 8590   2.562   3.112  11.196 -0.1909 -0.5537 -0.4679
  576MPD2     C 8591   2.351   4.562  12.779 -0.1582  0.1839  0.1677
  576MPD2    C1 8592   2.438   4.659  12.738  0.3991 -0.1231  0.5469
  576MPD2    C2 8593   2.417   0.054  12.776  0.5614 -0.2345  0.2967
  576MPD2    C3 8594   2.299   0.092  12.839 -0.4941 -0.7663  0.4213
  576MPD2    C4 8595   2.211   4.736  12.868 -0.3242 -0.7619  0.1835
  576MPD2    C5 8596   2.237   4.602  12.843  0.9948  0.0063 -0.0955
  576MPD2     H 8597   2.490   0.133  12.761  2.6500 -2.6128 -2.0418
  576MPD2    H1 8598   2.127   0.024  12.932 -0.8679 -0.4145 -0.6670
  576MPD2    H2 8599   2.366   4.457  12.756 -1.3113  0.3903 -1.5339
  576MPD2    H3 8600   2.161   4.534  12.881  0.2361  1.7313  1.4925
  576MPD2     N 8601   2.280   0.232  12.854 -0.1640 -0.1659  0.4068
  576MPD2    H5 8602   2.353   0.300  12.834 -0.2428  0.1056  1.0305
  576MPD2    N1 8603   2.542   4.642  12.650  0.2808  0.2904  0.3558
  576MPD2    H7 8604   2.583   4.723  12.605 -0.8067  1.2375  1.1034
  577TMC3    C1 8605   2.686   4.523  12.500 -0.0786  0.2087 -0.5405
  577TMC3    C2 8606   2.759   4.413  12.470  0.3269 -0.2084 -0.0179
  577TMC3    C3 8607   2.819   4.415  12.354 -0.2786 -0.3337  0.4147
  577TMC3    C4 8608   2.657   4.622  12.409 -0.0886 -0.3030 -0.3062
  577TMC3    C5 8609   2.723   4.620  12.289 -0.2699 -0.1601 -0.7672
  577TMC3    C6 8610   2.798   4.515  12.255  0.3519 -0.2284 -0.1985
  577TMC3     C 8611   2.591   4.517  12.611 -0.5449  0.3618  0.2204
  577TMC3     O 8612   2.560   4.408  12.662 -0.0906  0.3542 -0.0624
  577TMC3     H 8613   2.754   4.332  12.543  0.1062 -0.5491 -0.4110
  577TMC3    H1 8614   2.580   4.699  12.417  0.2170 -0.2415  1.9230
  577TMC3    H2 8615   2.829   4.499  12.153 -1.9561 -0.0070 -0.9206
  577TMC3    C7 8616   2.689   4.725  12.196 -0.9566 -0.4214  0.5342
  577TMC3    C8 8617   2.880   4.289  12.306 -0.0143  0.2353  1.6141
  577TMC3    O1 8618   2.588   0.055  12.211 -0.1105 -0.3822 -0.3407
  577TMC3    O2 8619   2.854   4.186  12.371  0.4384  0.2790 -0.6675
  578MPD2     C 8620   4.396   4.457   0.693 -0.4989  0.3791 -0.0259
  578MPD2    C1 8621   4.528   4.485   0.712  0.0442 -1.0076  0.2498
  578MPD2    C2 8622   4.609   4.405   0.792  0.0615 -0.4998 -0.1038
  578MPD2    C3 8623   4.556   4.286   0.840  0.1751  0.3907 -0.3662
  578MPD2    C4 8624   4.424   4.254   0.828 -0.2424 -0.2630 -0.0296
  578MPD2    C5 8625   4.344   4.342   0.756 -0.0268  0.2252 -0.0165
  578MPD2     H 8626   4.717   4.417   0.790  0.0590 -0.6214 -1.0245
  578MPD2    H1 8627   4.378   4.167   0.873 -1.3541 -0.0069 -0.6888
  578MPD2    H2 8628   4.331   4.527   0.641 -0.0692 -0.5625 -1.8040
  578MPD2    H3 8629   4.238   4.321   0.744  0.3406 -1.1147 -0.9394
  578MPD2     N 8630   4.654   4.196   0.892  0.3017  0.5066  0.2893
  578MPD2    H5 8631   0.010   4.238   0.898  0.9071 -1.0885  2.3950
  578MPD2    N1 8632   4.568   4.608   0.660 -0.6822 -0.0919  0.0302
  578MPD2    H7 8633   4.512   4.641   0.582 -2.1207 -0.8803  0.7225
  579TMC3    C1 8634   0.014   4.024   0.984 -0.1316 -0.4288 -0.2257
  579TMC3    C2 8635   0.087   4.111   1.060 -0.8940  0.2790  0.1508
  579TMC3    C3 8636   0.202   4.067   1.109 -0.3091 -0.4409 -0.8826
  579TMC3    C4 8637   0.061   3.904   0.942  0.5341 -0.2276 -0.2969
  579TMC3    C5 8638   0.181   3.865   0.994 -0.5959 -0.3964  0.0976
  579TMC3    C6 8639   0.264   3.946   1.073 -0.9029  0.0110  0.2921
  579TMC3     C 8640   4.625   4.070   0.928 -0.1121  0.4905  0.7457
  579TMC3     O 8641   4.543   3.992   0.886  0.0228  0.1756 -1.0011
  579TMC3     H 8642   0.033   4.199   1.092  1.1495  1.3203  0.7090
  579TMC3    H1 8643   4.725   3.846   0.885 -0.3270 -1.2627  1.8375
  579TMC3    H2 8644   0.358   3.916   1.118 -0.4330  0.4794 -0.3677
  579TMC3    C7 8645   0.230   3.731   0.962 -0.5367 -0.0736 -0.2393
  579TMC3    C8 8646   0.281   4.169   1.176  0.4987 -0.4416  0.4318
  579TMC3    O1 8647   0.329   3.706   1.023 -0.1370 -0.0108  0.2588
  579TMC3    O2 8648   0.223   4.265   1.220  0.6390 -0.0591  0.0694
  580TMC3    C1 8649   0.550   3.830  12.103  0.1915  0.6054  0.4235
  580TMC3    C2 8650   0.674   3.886  12.113 -0.0019  0.2018 -0.3162
  580TMC3    C3 8651   0.779   3.799  12.133  0.0627 -0.4408 -0.4519
  580TMC3    C4 8652   0.530   3.693  12.099 -0.5941 -0.1232  0.0955
  580TMC3    C5 8653   0.638   3.611  12.112 -0.1400 -0.1021 -0.6147
  580TMC3    C6 8654   0.760   3.667  12.125  0.4899 -0.2475  0.5998
  580TMC3     C 8655   0.435   3.896  12.049 -0.2911  0.0044  0.6225
  580TMC3     O 8656   0.339   3.825  12.009 -0.6713 -0.2868  0.1454
  580TMC3     H 8657   0.690   3.993  12.098  0.2056 -0.2374 -3.2824
  580TMC3    H1 8658   0.435   3.642  12.099 -0.2096 -0.8343 -0.4933
  580TMC3    H2 8659   0.842   3.606  12.160  0.7902 -0.1220  0.1311
  580TMC3    C7 8660   0.628   3.488  12.184  0.1297 -0.3095  0.2770
  580TMC3    C8 8661   0.918   3.841  12.110 -0.1424 -0.3548 -0.3794
  580TMC3    O1 8662   0.660   3.490  12.301 -0.8332  0.1991  0.0040
  580TMC3    O2 8663   1.006   3.757  12.095  0.0853 -0.3217  0.1040
  581MPD2     C 8664   2.572   3.377  14.916 -0.5155 -0.6576 -0.0088
  581MPD2    C1 8665   2.457   3.410  14.987  0.3630 -0.1061 -0.0952
  581MPD2    C2 8666   2.373   3.507  14.948  0.0468  0.1257  0.2326
  581MPD2    C3 8667   2.405   3.586  14.841  1.0436 -0.0929 -0.3366
  581MPD2    C4 8668   2.518   3.550  14.769 -0.1071 -0.5380 -0.7924
  581MPD2    C5 8669   2.596   3.443  14.799 -0.0952  0.2612  0.3592
  581MPD2     H 8670   2.290   3.523  15.015 -1.3924  1.7760 -1.9228
  581MPD2    H1 8671   2.542   3.603  14.678  2.8942 -1.4293 -0.5107
  581MPD2    H2 8672   2.632   3.292  14.946  0.4895  0.4154  1.0110
  581MPD2    H3 8673   2.683   3.411  14.743 -0.4717  0.5940 -0.4201
  581MPD2     N 8674   2.326   3.693  14.797  0.3858 -0.2445  0.1919
  581MPD2    H5 8675   2.335   3.732  14.704 -2.0920  0.3961  0.2238
  581MPD2    N1 8676   2.422   3.338  15.107  0.0807 -0.6576  0.3260
  581MPD2    H7 8677   2.325   3.348  15.135 -0.2077  0.4637 -1.0868
  582TMC3    C1 8678   2.445   3.227  15.318  0.0885  0.9336 -1.0170
  582TMC3    C2 8679   2.521   3.254  15.434  0.0133 -0.1691 -0.6627
  582TMC3    C3 8680   2.453   3.326  15.529  0.5222  0.1886 -0.3822
  582TMC3    C4 8681   2.308   3.242  15.314 -0.7036  0.1640 -0.0612
  582TMC3    C5 8682   2.250   3.295  15.425  0.3799 -0.3631  0.3449
  582TMC3    C6 8683   2.317   3.340  15.533 -0.2814 -0.9285  0.3943
  582TMC3     C 8684   2.509   3.260  15.184 -0.6058  0.2385 -0.2140
  582TMC3     O 8685   2.631   3.253  15.182  0.1882  0.5580 -0.3295
  582TMC3     H 8686   2.629   3.253  15.426  0.2050  0.9202  1.4391
  582TMC3    H1 8687   2.250   3.211  15.227  2.1444  0.6588 -2.1185
  582TMC3    H2 8688   2.271   3.396  15.613 -1.0235  1.0998 -1.4374
  582TMC3    C7 8689   2.119   3.347  15.397 -0.1199  0.0327 -0.0986
  582TMC3    C8 8690   2.525   3.397  15.637  0.3942  0.3033  0.7783
  582TMC3    O1 8691   2.047   3.276  15.334  0.2430 -0.0645  0.1965
  582TMC3    O2 8692   2.459   3.445  15.727  0.4920  0.1155 -0.4661
  583MPD2     C 8693   2.613   0.380  16.771  0.3896  0.5040  0.4494
  583MPD2    C1 8694   2.630   0.507  16.714 -0.3875 -0.0901 -0.4409
  583MPD2    C2 8695   2.573   0.609  16.787 -0.0510  0.5694 -0.5127
  583MPD2    C3 8696   2.504   0.592  16.907 -0.7334 -0.6781  0.9734
  583MPD2    C4 8697   2.497   0.467  16.954  0.1965  0.1189  0.6228
  583MPD2    C5 8698   2.559   0.364  16.898 -0.9260 -0.0087 -0.1820
  583MPD2     H 8699   2.555   0.705  16.742 -1.0304 -0.1662 -1.6665
  583MPD2    H1 8700   2.445   0.439  17.046 -1.9913  0.0266 -0.6507
  583MPD2    H2 8701   2.630   0.290  16.714 -1.3867 -0.8806  2.1098
  583MPD2    H3 8702   2.547   0.266  16.942  2.3290  0.2835  1.4014
  583MPD2     N 8703   2.433   0.704  16.961  0.0579 -0.0020  0.9276
  583MPD2    H5 8704   2.437   0.790  16.908  0.1890 -0.4726  0.1686
  583MPD2    N1 8705   2.683   0.530  16.584 -0.2902  0.7097  0.2823
  583MPD2    H7 8706   2.663   0.617  16.537 -1.5141  0.2771 -0.0032
  584TMC3    C1 8707   2.288   0.799  17.117  0.1229  0.2888  0.1875
  584TMC3    C2 8708   2.261   0.887  17.020 -0.6412 -0.0214 -0.0286
  584TMC3    C3 8709   2.206   1.008  17.051  0.6066  0.1423  0.3030
  584TMC3    C4 8710   2.259   0.826  17.245  0.7605  0.1111 -0.1026
  584TMC3    C5 8711   2.209   0.948  17.274  0.0946 -0.3029  0.5182
  584TMC3    C6 8712   2.169   1.045  17.180  0.2947  0.5278 -0.2578
  584TMC3     C 8713   2.368   0.682  17.086 -0.4608  0.3468 -0.5844
  584TMC3     O 8714   2.361   0.592  17.172  0.1519  0.0320 -0.2546
  584TMC3     H 8715   2.285   0.859  16.918  2.6351 -0.1037  0.7814
  584TMC3    H1 8716   2.289   0.760  17.325 -1.0211  0.4727  0.8649
  584TMC3    H2 8717   2.105   1.124  17.216 -1.4180 -1.1936  0.4702
  584TMC3    C7 8718   2.160   0.949  17.405 -0.9106 -0.8474  0.4203
  584TMC3    C8 8719   2.202   1.112  16.953 -0.0288  0.8629 -0.6098
  584TMC3    O1 8720   2.146   0.843  17.461 -0.4026 -0.1124  0.0543
  584TMC3    O2 8721   2.198   1.075  16.839 -0.3165 -0.2850  0.4506
  585MPD2     C 8722   1.419   4.350   0.226 -0.5954  0.3793 -0.4555
  585MPD2    C1 8723   1.425   4.422   0.103  0.3246  0.1661  0.0154
  585MPD2    C2 8724   1.515   4.373   0.008  0.0514 -0.1845  0.2085
  585MPD2    C3 8725   1.575   4.249   0.023  0.6625 -0.4696  0.8117
  585MPD2    C4 8726   1.560   4.176   0.141  1.2415 -0.0432 -0.3126
  585MPD2    C5 8727   1.488   4.232   0.245 -0.1893  0.7386 -0.6476
  585MPD2     H 8728   1.528   4.435  17.663 -1.5969  1.3787  1.0710
  585MPD2    H1 8729   1.609   4.079   0.148  0.4770 -0.7451 -4.6545
  585MPD2    H2 8730   1.339   4.366   0.298  1.6143  0.4476  2.0052
  585MPD2    H3 8731   1.474   4.172   0.335 -1.4746  2.0872  0.0626
  585MPD2     N 8732   1.634   4.175  17.653 -0.4392 -0.5443 -0.2839
  585MPD2    H5 8733   1.674   4.084  17.675 -0.8397 -1.1249 -1.9249
  585MPD2    N1 8734   1.346   4.535   0.092  0.0792  0.2568  0.0173
  585MPD2    H7 8735   1.294   4.562   0.175 -0.2450 -0.6253  0.0953
  586TMC3    C1 8736   1.671   4.114  17.428  0.6330  0.3495  0.6484
  586TMC3    C2 8737   1.797   4.068  17.455  0.2407  0.0739  0.6338
  586TMC3    C3 8738   1.858   3.999  17.355 -0.4324  0.2722  0.9966
  586TMC3    C4 8739   1.605   4.095  17.311  0.1881 -0.1336  0.1732
  586TMC3    C5 8740   1.673   4.024  17.208  0.1981  0.1035 -0.0026
  586TMC3    C6 8741   1.798   3.985  17.232 -0.2660 -0.3634  0.2574
  586TMC3     C 8742   1.621   4.213  17.520 -0.5483 -0.4960  0.7379
  586TMC3     O 8743   1.552   4.300  17.468  0.3624  0.2278  0.4926
  586TMC3     H 8744   1.845   4.064  17.552  0.3146  2.8900  0.7156
  586TMC3    H1 8745   1.512   4.146  17.286 -0.9619 -2.2115  0.1290
  586TMC3    H2 8746   1.855   3.941  17.150 -0.7623 -0.3236 -0.1093
  586TMC3    C7 8747   1.597   3.943  17.122  1.1257  0.3229  0.4967
  586TMC3    C8 8748   1.950   3.895  17.391  1.1400  0.8617 -0.2192
  586TMC3    O1 8749   1.479   3.951  17.150 -0.4572  0.2763 -0.4005
  586TMC3    O2 8750   1.960   3.813  17.300  0.3391  0.3440 -0.2076
  587TMC3    C1 8751   3.818   2.741  16.648 -0.0939 -0.1145  0.1414
  587TMC3    C2 8752   3.822   2.858  16.576  0.1820 -0.4312 -0.6991
  587TMC3    C3 8753   3.946   2.917  16.555  0.4249 -0.3537 -0.6912
  587TMC3    C4 8754   3.936   2.688  16.703  0.4947  0.2161 -0.0240
  587TMC3    C5 8755   4.051   2.766  16.694 -0.0237  0.5481 -0.0975
  587TMC3    C6 8756   4.059   2.877  16.617  0.3466 -0.0388 -0.1135
  587TMC3     C 8757   3.695   2.709  16.707 -0.5002  0.3193  0.3774
  587TMC3     O 8758   3.690   2.647  16.815  0.1611 -0.1731  0.4077
  587TMC3     H 8759   3.732   2.914  16.554 -0.9556 -2.2455 -0.6995
  587TMC3    H1 8760   3.930   2.609  16.776  0.4941 -0.0148 -0.2707
  587TMC3    H2 8761   4.143   2.944  16.608  0.3549 -0.0739 -0.2893
  587TMC3    C7 8762   4.157   2.767  16.793 -0.2795 -0.1411 -0.5130
  587TMC3    C8 8763   3.959   3.060  16.524 -0.0244 -0.0410 -0.4828
  587TMC3    O1 8764   4.239   2.860  16.780 -0.7992 -0.1054  0.3468
  587TMC3    O2 8765   4.063   3.103  16.471 -0.4340  0.4274  0.7871
  588TMC3    C1 8766   2.534   0.959  10.024 -0.6743  0.2419  0.0304
  588TMC3    C2 8767   2.479   0.837   9.999 -0.2279  0.2406  0.2176
  588TMC3    C3 8768   2.502   0.733  10.081  0.4025  0.7307 -0.0210
  588TMC3    C4 8769   2.617   0.978  10.128  0.1244  1.4518 -0.4977
  588TMC3    C5 8770   2.648   0.869  10.208  0.2989  0.6374  0.1071
  588TMC3    C6 8771   2.596   0.750  10.182  0.3968 -0.1615  0.6949
  588TMC3     C 8772   2.492   1.075   9.939  0.2464 -0.4783  0.2000
  588TMC3     O 8773   2.378   1.079   9.889 -0.7553 -0.4351  0.0906
  588TMC3     H 8774   2.400   0.830   9.925 -1.1266  1.6676  1.0411
  588TMC3    H1 8775   2.621   1.072  10.181 -0.7676  1.0608  0.2579
  588TMC3    H2 8776   2.631   0.663  10.237 -2.2682 -1.0453  0.9800
  588TMC3    C7 8777   2.766   0.874  10.285 -0.2205  0.7063 -0.3141
  588TMC3    C8 8778   2.421   0.613  10.072 -0.1660 -0.0306  0.4003
  588TMC3    O1 8779   2.780   0.801  10.384 -0.7986  0.4473  0.0497
  588TMC3    O2 8780   2.364   0.591   9.969 -0.2725  0.2126  0.5795
  589TMC3    C1 8781   0.521   2.572   1.009  0.2900 -0.2564  0.0840
  589TMC3    C2 8782   0.558   2.672   1.101 -0.3625 -0.4371 -0.4105
  589TMC3    C3 8783   0.681   2.661   1.166 -0.0732 -0.0478 -0.2734
  589TMC3    C4 8784   0.605   2.461   0.985 -0.2646 -0.4957  0.9037
  589TMC3    C5 8785   0.717   2.450   1.060  0.6264 -0.8215  0.1324
  589TMC3    C6 8786   0.770   2.555   1.139  0.1392 -0.1463  0.0598
  589TMC3     C 8787   0.407   2.576   0.921  0.8025 -0.4070 -0.4172
  589TMC3     O 8788   0.406   2.510   0.819  0.3441 -0.0606  0.0339
  589TMC3     H 8789   0.488   2.750   1.127  0.9701  0.1301  1.4850
  589TMC3    H1 8790   0.582   2.389   0.907 -0.8624 -0.3611  0.9575
  589TMC3    H2 8791   0.867   2.543   1.186 -0.1235  4.2742  1.7221
  589TMC3    C7 8792   0.800   2.335   1.030 -0.5413 -0.3996  0.9298
  589TMC3    C8 8793   0.717   2.781   1.235  0.0633  0.1277  0.0379
  589TMC3    O1 8794   0.738   2.236   0.997 -0.0927 -0.1866  0.2913
  589TMC3    O2 8795   0.621   2.836   1.284  0.3502 -0.0615 -0.6466
  590MPD2     C 8796   0.310   1.288  16.587  0.1069  0.1861  0.4441
  590MPD2    C1 8797   0.236   1.369  16.511 -0.2522 -0.8528  0.0654
  590MPD2    C2 8798   0.296   1.484  16.456  0.5460 -0.3637  0.0255
  590MPD2    C3 8799   0.425   1.517  16.488  0.1956  0.4703 -0.4442
  590MPD2    C4 8800   0.498   1.425  16.563 -0.6841  0.0061 -0.0933
  590MPD2    C5 8801   0.442   1.313  16.614 -0.2126 -0.5339  0.4382
  590MPD2     H 8802   0.238   1.546  16.389  3.7531  2.2851 -0.2654
  590MPD2    H1 8803   0.605   1.428  16.579 -0.8211  1.2541  0.6108
  590MPD2    H2 8804   0.266   1.193  16.615  0.1373  0.0426  0.0144
  590MPD2    H3 8805   0.503   1.242  16.669 -0.5145 -2.2894 -1.4642
  590MPD2     N 8806   0.488   1.620  16.411  0.3107 -0.6708  0.3774
  590MPD2    H5 8807   0.432   1.669  16.342  1.0113  0.6480  0.7572
  590MPD2    N1 8808   0.100   1.341  16.466  0.0999 -0.5228 -0.1340
  590MPD2    H7 8809   0.059   1.402  16.396  1.9111  1.0464  0.1437
  591TMC3    C1 8810   0.649   1.750  16.308  0.1159 -0.0772  0.2701
  591TMC3    C2 8811   0.630   1.703  16.180 -0.2597  0.2971 -0.0222
  591TMC3    C3 8812   0.629   1.790  16.077  0.0865  0.5736  0.3650
  591TMC3    C4 8813   0.686   1.880  16.332 -0.1536 -0.0933  0.1654
  591TMC3    C5 8814   0.688   1.964  16.220 -0.6926 -0.0385 -0.3378
  591TMC3    C6 8815   0.656   1.927  16.093 -0.4878 -0.0524 -0.1687
  591TMC3     C 8816   0.615   1.669  16.420  0.6245 -0.8691 -0.4449
  591TMC3     O 8817   0.682   1.682  16.516  0.4838 -0.1677  0.1959
  591TMC3     H 8818   0.614   1.597  16.159 -1.7063  0.3715  0.7221
  591TMC3    H1 8819   0.715   1.913  16.431  0.5664  0.7296 -0.3104
  591TMC3    H2 8820   0.652   2.006  16.018 -2.3799  0.3983  0.4106
  591TMC3    C7 8821   0.698   2.102  16.252 -0.4798 -0.8380  0.3459
  591TMC3    C8 8822   0.670   1.732  15.951  0.0932  0.0083 -0.1786
  591TMC3    O1 8823   0.682   2.127  16.370  0.2341 -0.4525  0.6229
  591TMC3    O2 8824   0.670   1.611  15.943  0.6048 -0.2722  0.2939
  592MPD2     C 8825   1.417   3.238  11.486 -0.5850 -0.4917 -0.4731
  592MPD2    C1 8826   1.433   3.259  11.626 -0.1477  0.6712 -0.2436
  592MPD2    C2 8827   1.380   3.161  11.710  0.0346  0.1324  0.2297
  592MPD2    C3 8828   1.293   3.063  11.668 -0.1346  0.4680 -0.3559
  592MPD2    C4 8829   1.268   3.049  11.531  0.4015 -1.1034 -0.5752
  592MPD2    C5 8830   1.332   3.137  11.446  0.3394  0.6234  0.1833
  592MPD2     H 8831   1.406   3.167  11.816 -1.0341  2.0550  0.3880
  592MPD2    H1 8832   1.197   2.983  11.483 -0.3524  1.3391 -2.8005
  592MPD2    H2 8833   1.465   3.295  11.407 -0.2212  0.4493  0.4247
  592MPD2    H3 8834   1.311   3.131  11.340  0.4976 -1.1600  0.2584
  592MPD2     N 8835   1.231   2.983  11.764 -0.2973  0.0953  0.2073
  592MPD2    H5 8836   1.263   3.009  11.857 -0.5248  1.3014 -0.0540
  592MPD2    N1 8837   1.525   3.355  11.672  0.3078 -0.1864  0.3810
  592MPD2    H7 8838   1.554   3.425  11.604  0.1027 -2.0252 -1.5706
  593TMC3    C1 8839   1.657   3.503  11.807 -0.2824  0.0013 -0.2085
  593TMC3    C2 8840   1.662   3.555  11.930  0.3397 -0.6916 -0.0491
  593TMC3    C3 8841   1.744   3.661  11.947  0.6774  0.0589 -0.1134
  593TMC3    C4 8842   1.720   3.551  11.699  0.5717  0.5926  0.1390
  593TMC3    C5 8843   1.799   3.663  11.720 -0.2497  0.0604 -0.4351
  593TMC3    C6 8844   1.802   3.728  11.839 -0.1153  0.2814  0.4217
  593TMC3     C 8845   1.569   3.383  11.801 -0.6931 -0.1791  0.2703
  593TMC3     O 8846   1.538   3.321  11.898 -0.2786 -0.0146  0.0315
  593TMC3     H 8847   1.613   3.508  12.014  2.6761 -1.1101  1.0897
  593TMC3    H1 8848   1.718   3.497  11.605  1.0274 -0.4754  0.7451
  593TMC3    H2 8849   1.855   3.822  11.848  0.2884  0.2547 -1.6572
  593TMC3    C7 8850   1.839   3.743  11.603  0.5653  0.1843  0.6656
  593TMC3    C8 8851   1.692   3.746  12.045 -0.3294 -0.0826 -0.3419
  593TMC3    O1 8852   1.902   3.842  11.632 -0.3834  0.1370  0.0703
  593TMC3    O2 8853   1.573   3.730  12.060  0.1477 -0.7810 -0.6834
  594MPD2     C 8854   4.613   2.170  14.187 -0.1427 -0.7014  0.5893
  594MPD2    C1 8855   4.648   2.187  14.315  0.0903 -0.9063 -0.1942
  594MPD2    C2 8856   0.016   2.273  14.348 -0.1979  0.2472  0.1615
  594MPD2    C3 8857   0.076   2.345  14.250 -0.2340  0.1508  0.5228
  594MPD2    C4 8858   0.031   2.342  14.116  0.5972 -0.2690 -0.3928
  594MPD2    C5 8859   4.671   2.250  14.090 -1.5446 -0.2173  0.0450
  594MPD2     H 8860   0.048   2.283  14.451 -1.1723  3.3177  0.1724
  594MPD2    H1 8861   0.091   2.395  14.044 -0.8932  1.7499 -0.1564
  594MPD2    H2 8862   4.532   2.104  14.157  0.9261 -1.8874  0.3115
  594MPD2    H3 8863   4.646   2.232  13.986  1.5500 -1.1531 -0.5402
  594MPD2     N 8864   0.184   2.422  14.289  0.0187  0.1139 -0.7466
  594MPD2    H5 8865   0.208   2.424  14.388 -0.7032  0.3510 -0.5740
  594MPD2    N1 8866   4.574   2.111  14.415 -0.5111 -0.1672 -0.9283
  594MPD2    H7 8867   4.486   2.074  14.380 -0.8201  0.6027 -0.9747
  595TMC3    C1 8868   0.484   2.776  14.308 -0.0402 -0.0224 -0.0906
  595TMC3    C2 8869   0.443   2.668  14.234  0.4230  0.1533  0.2253
  595TMC3    C3 8870   0.328   2.609  14.286 -0.3922 -0.5325  0.6714
  595TMC3    C4 8871   0.432   2.830  14.425  0.5831 -0.1100 -0.4134
  595TMC3    C5 8872   0.308   2.770  14.464  0.1868 -0.1453  0.6012
  595TMC3    C6 8873   0.256   2.658  14.396 -0.3410  0.1032 -0.5221
  595TMC3     C 8874   0.624   2.814  14.286 -0.4456  0.1902 -0.5500
  595TMC3     O 8875   0.678   2.844  14.388 -0.2951  0.0776 -0.2323
  595TMC3     H 8876   0.505   2.617  14.162 -0.8624  2.8431 -2.8086
  595TMC3    H1 8877   0.467   2.922  14.469  1.2096  0.6890 -2.5630
  595TMC3    H2 8878   0.164   2.612  14.430 -1.2342  2.8607  0.7879
  595TMC3    C7 8879   0.223   2.837  14.558 -0.4527 -0.3447  0.4196
  595TMC3    C8 8880   0.279   2.492  14.212  0.3232 -0.8404  0.2897
  595TMC3    O1 8881   0.108   2.793  14.575  0.1672 -0.2628 -0.2296
  595TMC3    O2 8882   0.291   2.491  14.090  0.0882 -0.3666 -0.1039
  596MPD2     C 8883   3.403   0.394  16.955 -0.3189  0.0539 -0.2818
  596MPD2    C1 8884   3.427   0.514  16.889  0.6635  0.3391 -0.3751
  596MPD2    C2 8885   3.473   0.511  16.764  0.4615  0.4446  0.2464
  596MPD2    C3 8886   3.503   0.390  16.691 -0.2573 -0.8088  0.2159
  596MPD2    C4 8887   3.476   0.269  16.757 -0.2410 -0.3826  0.9617
  596MPD2    C5 8888   3.427   0.278  16.885 -0.3741  0.0367 -1.0600
  596MPD2     H 8889   3.485   0.608  16.719  0.5934  1.2337  1.9607
  596MPD2    H1 8890   3.487   0.167  16.721 -1.1556 -0.4594  0.8977
  596MPD2    H2 8891   3.359   0.390  17.054  0.3699  0.7851  0.0521
  596MPD2    H3 8892   3.397   0.191  16.942  1.1443  0.8471  0.9865
  596MPD2     N 8893   3.534   0.380  16.552  0.0312 -0.7701  0.2102
  596MPD2    H5 8894   3.552   0.290  16.509  0.8990  1.1628 -3.4939
  596MPD2    N1 8895   3.391   0.642  16.934 -0.3903  0.2063  0.4403
  596MPD2    H7 8896   3.405   0.715  16.866  2.8095  1.0230  1.9692
  597TMC3    C1 8897   3.296   0.823  17.067  0.1913  0.4315 -0.4344
  597TMC3    C2 8898   3.356   0.921  16.995  0.7434 -0.1831 -0.7139
  597TMC3    C3 8899   3.293   1.043  16.972  0.0327  0.5739 -0.4883
  597TMC3    C4 8900   3.171   0.848  17.118  0.0277  0.4724 -0.1349
  597TMC3    C5 8901   3.106   0.964  17.095  0.5094 -0.5227 -0.0172
  597TMC3    C6 8902   3.159   1.061  17.009 -0.6550  0.9066 -0.2937
  597TMC3     C 8903   3.322   0.679  17.054  0.4521 -0.4914  0.8745
  597TMC3     O 8904   3.280   0.600  17.137  0.3488 -0.4963  0.1485
  597TMC3     H 8905   3.459   0.912  16.962  0.6914  0.4530 -1.0533
  597TMC3    H1 8906   3.112   0.775  17.173  0.0088  0.4578 -0.1739
  597TMC3    H2 8907   3.093   1.136  16.967  1.4161  4.3096  2.5487
  597TMC3    C7 8908   2.987   0.987  17.183  0.1289 -0.4598  0.4158
  597TMC3    C8 8909   3.355   1.144  16.883 -0.1777  0.4127 -0.6398
  597TMC3    O1 8910   2.972   0.919  17.284 -0.0094 -0.5547  0.4710
  597TMC3    O2 8911   3.293   1.253  16.874 -0.5137  0.8767 -0.6029
  598TMC3    C1 8912   1.169   1.688  15.098  0.0576  0.0522 -0.4714
  598TMC3    C2 8913   1.068   1.607  15.059 -0.1008  0.2645  0.1981
  598TMC3    C3 8914   0.989   1.633  14.952  0.0998  0.2374 -0.6703
  598TMC3    C4 8915   1.208   1.796  15.023  0.2791 -0.7509 -0.4117
  598TMC3    C5 8916   1.125   1.829  14.924  1.2394 -0.0022 -0.4360
  598TMC3    C6 8917   1.023   1.746  14.887  0.1653 -0.4710 -0.0121
  598TMC3     C 8918   1.246   1.641  15.208 -0.5084  0.2634  0.3581
  598TMC3     O 8919   1.367   1.653  15.201 -0.0254 -0.1663 -0.3597
  598TMC3     H 8920   1.071   1.504  15.093  0.6366  0.6159  1.1776
  598TMC3    H1 8921   1.293   1.857  15.050  0.7060 -1.8887  0.8565
  598TMC3    H2 8922   0.957   1.764  14.803  1.2651  2.4937 -0.2306
  598TMC3    C7 8923   1.174   1.914  14.820  0.2450 -0.7257  0.0976
  598TMC3    C8 8924   0.986   1.516  14.865 -0.0122  0.1158  0.2450
  598TMC3    O1 8925   1.126   1.903  14.707 -0.5074  0.3962 -0.1737
  598TMC3    O2 8926   0.946   1.411  14.916 -0.6071  0.1525 -0.0162
  599MPD2     C 8927   1.642   4.439  15.808  0.7950  0.3329 -0.4210
  599MPD2    C1 8928   1.585   4.328  15.854  0.4504 -0.9280  0.3065
  599MPD2    C2 8929   1.457   4.343  15.914  0.2948  0.0699 -0.0590
  599MPD2    C3 8930   1.398   4.468  15.918 -0.1469  0.2414 -0.3273
  599MPD2    C4 8931   1.474   4.577  15.888  0.2557 -0.3092  0.2710
  599MPD2    C5 8932   1.598   4.569  15.845 -0.4038  0.5184  0.0727
  599MPD2     H 8933   1.401   4.254  15.943  1.1506 -0.5070 -0.1696
  599MPD2    H1 8934   1.428   4.675  15.890  0.5463 -0.1359 -1.4197
  599MPD2    H2 8935   1.743   4.435  15.769  1.3854  2.3684  0.9035
  599MPD2    H3 8936   1.660   4.656  15.827  2.3297 -1.2976  0.7077
  599MPD2     N 8937   1.267   4.489  15.966 -0.5229 -0.0948  0.2316
  599MPD2    H5 8938   1.240   4.586  15.977  1.4664  0.7640 -2.4116
  599MPD2    N1 8939   1.653   4.201  15.828 -0.7942  0.4415  0.1804
  599MPD2    H7 8940   1.747   4.200  15.789 -1.1836  1.2437 -0.7943
  600TMC3    C1 8941   1.057   4.446  16.078  0.2642  0.0243  0.0065
  600TMC3    C2 8942   1.005   4.363  16.173  0.0395  0.3170 -0.4869
  600TMC3    C3 8943   0.910   4.413  16.258  0.2476 -0.6452 -0.5066
  600TMC3    C4 8944   1.027   4.578  16.069 -0.5117 -0.0385  0.2063
  600TMC3    C5 8945   0.928   4.625  16.155  0.0427  0.2048 -0.0281
  600TMC3    C6 8946   0.879   4.545  16.259  0.1099 -0.5763  0.0339
  600TMC3     C 8947   1.177   4.393  16.007  1.0238 -0.5945 -0.5422
  600TMC3     O 8948   1.180   4.273  15.990  0.1466  0.4910  0.4724
  600TMC3     H 8949   1.040   4.261  16.184  2.6495  1.3003  0.3806
  600TMC3    H1 8950   1.070   4.636  15.989  0.6982 -0.5958  0.4557
  600TMC3    H2 8951   0.808   4.582  16.332 -0.0537  0.5190 -0.6706
  600TMC3    C7 8952   0.895   0.034  16.167  0.2871 -0.0070  0.0300
  600TMC3    C8 8953   0.875   4.336  16.383  0.4567  0.6613  0.3742
  600TMC3    O1 8954   0.830   0.082  16.259  0.9759 -0.3190  0.1571
  600TMC3    O2 8955   0.834   4.390  16.486  0.2649 -0.3449 -0.0619
  601MPD2     C 8956   3.436   1.938  17.558 -0.0514  0.6108  0.3431
  601MPD2    C1 8957   3.316   2.007  17.577 -0.2231  0.2098  0.5220
  601MPD2    C2 8958   3.202   1.933  17.600  0.1816  0.6558 -0.4309
  601MPD2    C3 8959   3.201   1.792  17.618 -0.6254  0.6830  0.5282
  601MPD2    C4 8960   3.327   1.730  17.599 -0.4640 -0.5771 -1.4620
  601MPD2    C5 8961   3.445   1.804  17.584  0.0093 -0.2356  0.1258
  601MPD2     H 8962   3.110   1.988  17.616 -0.1273 -0.3532  1.2191
  601MPD2    H1 8963   3.336   1.622  17.599 -2.7089 -0.7594  1.8438
  601MPD2    H2 8964   3.527   1.984  17.523 -0.1636  0.3267 -0.3240
  601MPD2    H3 8965   3.538   1.750  17.569  0.9438  0.5417  3.0622
  601MPD2     N 8966   3.081   1.721  17.641 -0.2505  0.2738 -0.3574
  601MPD2    H5 8967   3.096   1.624  17.665 -1.3742  0.0515 -0.5646
  601MPD2    N1 8968   3.307   2.148  17.568  0.8870  0.0061 -0.1151
  601MPD2    H7 8969   3.217   2.194  17.576  0.9002  0.0181 -0.0331
  602TMC3    C1 8970   3.364   2.364  17.522  0.5887 -0.3720 -0.0543
  602TMC3    C2 8971   3.458   2.465  17.545 -0.0464 -0.2075 -0.5237
  602TMC3    C3 8972   3.420   2.592  17.514  0.0410 -0.1881  0.0984
  602TMC3    C4 8973   3.234   2.391  17.486 -0.5112  0.9911  0.0809
  602TMC3    C5 8974   3.204   2.524  17.459 -0.1420 -0.0764 -0.9001
  602TMC3    C6 8975   3.300   2.621  17.468  0.0368 -0.7261  0.8579
  602TMC3     C 8976   3.416   2.230  17.546 -0.5044  0.2372 -0.0335
  602TMC3     O 8977   3.536   2.216  17.567  1.1385 -0.7528  0.1555
  602TMC3     H 8978   3.560   2.446  17.577  0.0333 -0.6895 -1.0511
  602TMC3    H1 8979   3.171   2.312  17.449  0.4821 -1.1274  2.9462
  602TMC3    H2 8980   3.280   2.727  17.454  1.8821 -0.7473 -1.8502
  602TMC3    C7 8981   3.085   2.540  17.377  0.3389  0.1979 -0.2587
  602TMC3    C8 8982   3.517   2.700  17.505  0.3859 -0.2753  0.4100
  602TMC3    O1 8983   3.007   2.444  17.367  0.3176  0.7350  0.1522
  602TMC3    O2 8984   3.618   2.680  17.576 -0.1728  0.3858  0.1754
  603TMC3    C1 8985   1.999   3.113  11.234  0.3917 -0.0586 -0.7766
  603TMC3    C2 8986   2.049   3.036  11.338  0.6765  0.5279  0.7709
  603TMC3    C3 8987   2.159   3.070  11.408 -1.6299 -0.5466 -0.1169
  603TMC3    C4 8988   2.076   3.222  11.181  0.9436  0.3636  0.0160
  603TMC3    C5 8989   2.192   3.246  11.251 -0.0954 -0.7977 -0.6001
  603TMC3    C6 8990   2.237   3.172  11.358  0.3664 -0.3941 -0.5299
  603TMC3     C 8991   1.869   3.079  11.175 -0.8309  0.4515 -0.3094
  603TMC3     O 8992   1.806   2.985  11.231  0.0780  0.3811  0.5061
  603TMC3     H 8993   1.981   2.962  11.380 -1.3836  1.6503 -0.6142
  603TMC3    H1 8994   2.045   3.279  11.094 -2.2594 -0.7986  0.4059
  603TMC3    H2 8995   2.327   3.210  11.404 -0.1319 -0.3456  0.4248
  603TMC3    C7 8996   2.289   3.336  11.202  0.2820  0.0078  0.1046
  603TMC3    C8 8997   2.199   2.991  11.523 -0.6120 -0.0719  0.7398
  603TMC3    O1 8998   2.375   3.381  11.274  0.4528 -0.3882 -0.1816
  603TMC3    O2 8999   2.154   2.879  11.539 -0.0269 -0.4089  0.2288
  604MPD2     C 9000   2.738   2.025  16.354 -0.2318  0.6006  0.5136
  604MPD2    C1 9001   2.628   1.946  16.357 -0.4427 -0.4649  0.6465
  604MPD2    C2 9002   2.632   1.828  16.287 -0.1873 -0.3522 -0.1270
  604MPD2    C3 9003   2.738   1.790  16.206  0.4091 -0.0461 -0.1983
  604MPD2    C4 9004   2.849   1.874  16.202 -0.6469 -0.1204  0.4194
  604MPD2    C5 9005   2.844   1.989  16.278  0.2149 -0.2672  0.1261
  604MPD2     H 9006   2.556   1.752  16.302  0.8141 -1.0289  1.6251
  604MPD2    H1 9007   2.942   1.858  16.149 -2.0472 -0.8605 -1.8337
  604MPD2    H2 9008   2.744   2.113  16.417  1.1292  0.8687 -0.0096
  604MPD2    H3 9009   2.937   2.043  16.287  0.3471 -0.7216  1.4729
  604MPD2     N 9010   2.729   1.674  16.129 -0.0330  0.1064  0.2468
  604MPD2    H5 9011   2.637   1.631  16.135  0.3666 -0.5428  1.7904
  604MPD2    N1 9012   2.523   1.979  16.449 -0.4852  0.1365 -0.0145
  604MPD2    H7 9013   2.530   2.068  16.497  0.3598 -0.4401  0.9102
  605TMC3    C1 9014   2.321   1.979  16.565 -0.2751  0.4547  0.6354
  605TMC3    C2 9015   2.363   2.047  16.670  1.0212  0.2142  0.1352
  605TMC3    C3 9016   2.278   2.113  16.753  0.0315 -0.5413  0.6778
  605TMC3    C4 9017   2.186   1.970  16.540 -0.0225  0.5996 -0.1959
  605TMC3    C5 9018   2.104   2.037  16.619 -0.4589  0.9757 -0.4574
  605TMC3    C6 9019   2.141   2.106  16.732  0.0693  0.1328  0.3465
  605TMC3     C 9020   2.405   1.907  16.473  0.3347  0.6989 -0.0211
  605TMC3     O 9021   2.353   1.819  16.406  0.6137  0.9082  0.3873
  605TMC3     H 9022   2.471   2.043  16.677  0.8753 -0.1274  2.0863
  605TMC3    H1 9023   2.160   1.930  16.442  0.1278 -0.9173  0.3748
  605TMC3    H2 9024   2.076   2.163  16.798 -2.6155 -1.3048 -1.0628
  605TMC3    C7 9025   1.964   2.057  16.576  0.4386 -0.2457  0.1596
  605TMC3    C8 9026   2.321   2.148  16.889 -1.1711 -0.3425  0.2358
  605TMC3    O1 9027   1.907   2.155  16.617 -0.2065  0.0125  0.0946
  605TMC3    O2 9028   2.238   2.174  16.972 -0.9523  0.1679 -0.1949
  606TMC3    C1 9029   2.967   4.709   0.778  0.2470 -0.3849  0.4716
  606TMC3    C2 9030   3.073   0.001   0.864 -0.5364  0.4926  0.0757
  606TMC3    C3 9031   3.161   4.634   0.877  0.3758  0.1051  0.9443
  606TMC3    C4 9032   2.947   4.588   0.713  0.4168 -0.5908  0.0243
  606TMC3    C5 9033   3.023   4.485   0.757 -0.5431 -0.5912  0.0435
  606TMC3    C6 9034   3.133   4.504   0.834 -0.0787  0.1617  0.7682
  606TMC3     C 9035   2.851   0.058   0.787  0.2866 -0.3574  0.1720
  606TMC3     O 9036   2.843   0.126   0.888 -0.2097 -0.4725  0.2593
  606TMC3     H 9037   3.098   0.101   0.896  0.8327 -0.0773  0.7892
  606TMC3    H1 9038   2.852   4.574   0.663 -0.2484  2.2285  0.4481
  606TMC3    H2 9039   3.211   4.431   0.853  3.2644  2.9145 -2.3250
  606TMC3    C7 9040   3.040   4.372   0.663 -0.2319  0.2067 -0.8921
  606TMC3    C8 9041   3.302   4.659   0.905 -0.2356 -1.1152 -0.3989
  606TMC3    O1 9042   3.090   4.269   0.707  0.3546 -0.0129 -0.4282
  606TMC3    O2 9043   3.377   4.567   0.942 -0.0389 -0.7535  0.1523
  607MPD2     C 9044   1.429   2.599  11.637  0.3878 -0.2490 -0.6858
  607MPD2    C1 9045   1.446   2.683  11.747  0.0624 -0.4013 -0.1703
  607MPD2    C2 9046   1.414   2.631  11.870  0.2375 -0.3058 -0.3981
  607MPD2    C3 9047   1.386   2.494  11.891 -0.3521  0.7236 -0.8087
  607MPD2    C4 9048   1.373   2.413  11.781 -1.1072  0.6436 -0.7339
  607MPD2    C5 9049   1.391   2.468  11.657  0.1017 -0.7486  0.1307
  607MPD2     H 9050   1.434   2.677  11.966  0.3284 -1.4658  0.1395
  607MPD2    H1 9051   1.348   2.308  11.793 -0.0446  0.3377 -1.2426
  607MPD2    H2 9052   1.457   2.638  11.539 -1.8603  0.9520 -0.8541
  607MPD2    H3 9053   1.382   2.415  11.563  1.3616  1.4090 -1.1814
  607MPD2     N 9054   1.379   2.450  12.022 -0.3612  0.1206  0.6575
  607MPD2    H5 9055   1.386   2.526  12.089 -3.6740 -0.4534  1.6370
  607MPD2    N1 9056   1.521   2.800  11.745 -0.3334  1.3523 -0.3313
  607MPD2    H7 9057   1.528   2.834  11.840  2.5682  0.0054 -0.0568
  608TMC3    C1 9058   1.667   2.968  11.700 -0.4151  0.2897  0.4865
  608TMC3    C2 9059   1.701   2.965  11.831  0.5790  0.0683 -0.4910
  608TMC3    C3 9060   1.774   3.067  11.884  0.0539  0.6644 -0.0246
  608TMC3    C4 9061   1.707   3.073  11.617 -0.6901  0.2629 -0.1067
  608TMC3    C5 9062   1.792   3.172  11.670  0.2902  0.0724 -0.0104
  608TMC3    C6 9063   1.821   3.167  11.804 -0.4163  0.4367 -0.4796
  608TMC3     C 9064   1.586   2.860  11.646  0.2014 -0.6441  0.0307
  608TMC3     O 9065   1.572   2.848  11.523 -0.3230 -0.5167  0.2621
  608TMC3     H 9066   1.704   2.869  11.882  0.0563  0.1844 -0.2438
  608TMC3    H1 9067   1.675   3.070  11.513 -0.9109 -0.1984 -0.0251
  608TMC3    H2 9068   1.858   3.251  11.863  1.0617 -0.9994  0.6428
  608TMC3    C7 9069   1.876   3.256  11.587  0.6226 -0.1792 -0.3550
  608TMC3    C8 9070   1.779   3.093  12.029 -0.5454 -0.6849 -0.6997
  608TMC3    O1 9071   1.821   3.285  11.478  0.2240 -0.1387  0.1425
  608TMC3    O2 9072   1.845   3.189  12.069  0.0509  0.6433 -0.6299
  609TMC3    C1 9073   4.704   2.654   9.381  0.0280 -0.4509  0.0371
  609TMC3    C2 9074   4.585   2.691   9.316 -0.3177  0.2411 -0.3737
  609TMC3    C3 9075   4.554   2.610   9.207  0.2304 -0.0551  0.0165
  609TMC3    C4 9076   0.055   2.555   9.338  0.7769  0.1963 -0.2489
  609TMC3    C5 9077   0.016   2.488   9.227 -0.5288  0.8292 -0.0274
  609TMC3    C6 9078   4.641   2.518   9.154  0.0848 -0.4907 -0.0843
  609TMC3     C 9079   0.004   2.741   9.489  0.1348 -0.3988  0.1258
  609TMC3     O 9080   4.654   2.821   9.527  0.8743  0.2376  0.4720
  609TMC3     H 9081   4.522   2.768   9.360  1.5544  0.5062  1.8600
  609TMC3    H1 9082   0.149   2.544   9.391  0.3871  1.0637  0.6202
  609TMC3    H2 9083   4.610   2.461   9.068 -1.2931 -1.1099  0.8163
  609TMC3    C7 9084   0.116   2.408   9.164  0.2816 -0.2003 -0.8447
  609TMC3    C8 9085   4.432   2.635   9.136 -0.5410 -0.6344  0.7508
  609TMC3    O1 9086   0.225   2.414   9.228 -0.2962  0.2010 -0.1901
  609TMC3    O2 9087   4.413   2.593   9.019  0.4363  0.1480 -0.8718
  610TMC3    C1 9088   1.921   2.741  12.759  0.0193  0.3385 -0.5833
  610TMC3    C2 9089   1.912   2.749  12.622  0.5886  0.3329 -0.1125
  610TMC3    C3 9090   1.905   2.630  12.549 -0.2277  0.1634 -0.1891
  610TMC3    C4 9091   1.949   2.617  12.814 -0.5696 -0.4597 -0.1888
  610TMC3    C5 9092   1.971   2.506  12.739 -0.0276  1.3733  0.3955
  610TMC3    C6 9093   1.949   2.511  12.607 -0.5804  0.1702  0.1620
  610TMC3     C 9094   1.893   2.849  12.845  0.1163  0.3659 -0.3074
  610TMC3     O 9095   1.876   2.816  12.961  0.1088 -0.2799 -0.6959
  610TMC3     H 9096   1.871   2.833  12.567 -0.8791 -1.2223 -1.3939
  610TMC3    H1 9097   1.977   2.619  12.919 -2.3343 -0.4853  0.2815
  610TMC3    H2 9098   1.952   2.431  12.533  0.6779  0.8044 -0.4686
  610TMC3    C7 9099   2.049   2.394  12.795 -0.0498  0.2351  0.2305
  610TMC3    C8 9100   1.919   2.660  12.408 -0.4080 -0.3013  0.2116
  610TMC3    O1 9101   2.059   2.387  12.918 -0.2371  0.0708  0.1574
  610TMC3    O2 9102   1.995   2.753  12.379  0.0145 -0.3930  0.5382
  611MPD2     C 9103   2.130   2.897   9.953 -0.1507  0.7593 -0.0519
  611MPD2    C1 9104   2.062   2.974  10.049  0.2225 -0.8552 -0.1353
  611MPD2    C2 9105   2.124   3.091  10.097  0.5434  0.1646 -0.5866
  611MPD2    C3 9106   2.248   3.139  10.044  0.8106  0.6133  0.1929
  611MPD2    C4 9107   2.304   3.063   9.945  0.2589  0.3263  0.5118
  611MPD2    C5 9108   2.252   2.942   9.901  0.0668 -1.2029  0.0516
  611MPD2     H 9109   2.072   3.155  10.167 -0.5401  0.4381 -1.6172
  611MPD2    H1 9110   2.398   3.098   9.902  0.4614  1.9910  2.3187
  611MPD2    H2 9111   2.091   2.805   9.912 -2.0771  1.8208 -0.6212
  611MPD2    H3 9112   2.304   2.879   9.829 -0.0626 -0.3517 -0.7902
  611MPD2     N 9113   2.317   3.250  10.103  0.5521 -0.1123 -0.0043
  611MPD2    H5 9114   2.396   3.286  10.051  0.1810  1.9209  0.8245
  611MPD2    N1 9115   1.933   2.936  10.087  0.5529 -0.1829 -0.3205
  611MPD2    H7 9116   1.900   2.861  10.027 -1.1827  0.6817 -0.4468
  612TMC3    C1 9117   2.365   3.431  10.246  0.1946 -0.2440  0.0069
  612TMC3    C2 9118   2.356   3.476  10.373  0.5207  0.2489  0.6170
  612TMC3    C3 9119   2.425   3.592  10.408  0.5468 -0.5736  0.6231
  612TMC3    C4 9120   2.421   3.506  10.144 -0.2452 -1.1809  0.4511
  612TMC3    C5 9121   2.494   3.613  10.183  0.4771  0.1354  0.0597
  612TMC3    C6 9122   2.499   3.654  10.313  0.4083 -0.2432 -0.0440
  612TMC3     C 9123   2.290   3.310  10.225  0.1702 -0.0369  0.1375
  612TMC3     O 9124   2.218   3.278  10.318  0.4109  0.0216  0.1997
  612TMC3     H 9125   2.322   3.408  10.450 -0.2267  2.3603  2.1684
  612TMC3    H1 9126   2.411   3.483  10.038  0.0767  1.5002 -0.1805
  612TMC3    H2 9127   2.549   3.745  10.344 -2.3442  1.4092 -0.5743
  612TMC3    C7 9128   2.577   3.676  10.085 -0.6514 -0.5553  0.6764
  612TMC3    C8 9129   2.458   3.626  10.543  0.9530 -0.6845 -0.6642
  612TMC3    O1 9130   2.589   3.628   9.973 -0.3528 -0.1322  0.2186
  612TMC3    O2 9131   2.552   3.707  10.552  0.6238 -0.1076  0.1794
  613MPD2     C 9132   4.354   0.172  16.769 -0.0836 -0.3618 -0.1512
  613MPD2    C1 9133   4.457   0.134  16.694 -0.3520 -0.5049  0.6133
  613MPD2    C2 9134   4.445   0.033  16.602  0.1055 -0.4843  0.1080
  613MPD2    C3 9135   4.321   4.716  16.577  0.6330 -0.2445  0.1904
  613MPD2    C4 9136   4.217   0.009  16.659  0.6406 -0.2078  0.4783
  613MPD2    C5 9137   4.227   0.112  16.747 -0.7855 -0.1312 -0.2009
  613MPD2     H 9138   4.517   0.014  16.523  1.0027 -0.6587  0.9652
  613MPD2    H1 9139   4.117   4.708  16.643  0.6588  0.1924 -0.6121
  613MPD2    H2 9140   4.358   0.262  16.831 -0.7918 -1.6326  1.7535
  613MPD2    H3 9141   4.147   0.144  16.813  0.6976  1.6104  0.7389
  613MPD2     N 9142   4.300   4.625  16.471  0.0918 -0.2324  0.3580
  613MPD2    H5 9143   4.382   4.592  16.420  0.0179  2.4863 -1.5175
  613MPD2    N1 9144   4.578   0.212  16.698 -0.0585 -0.2637  0.5868
  613MPD2    H7 9145   4.572   0.301  16.746  1.8661  0.3064 -0.2725
  614TMC3    C1 9146   0.058   0.283  16.617  0.1209 -0.1935  0.4938
  614TMC3    C2 9147   0.154   0.234  16.536  0.4077  0.0209  0.1279
  614TMC3    C3 9148   0.196   0.313  16.432 -0.3731 -0.1464  0.2665
  614TMC3    C4 9149   0.003   0.408  16.596  0.3225  1.3865  0.2941
  614TMC3    C5 9150   0.039   0.475  16.479 -0.7486  0.9211  0.1810
  614TMC3    C6 9151   0.134   0.429  16.396  0.7415 -0.5858  0.0035
  614TMC3     C 9152   4.696   0.176  16.634  0.2866 -0.9661 -0.4377
  614TMC3     O 9153   4.726   0.064  16.584 -0.1390 -0.3267 -0.6206
  614TMC3     H 9154   0.201   0.139  16.556  1.7160  0.6846  0.1950
  614TMC3    H1 9155   4.648   0.439  16.647  0.0210  1.4591 -0.2845
  614TMC3    H2 9156   0.163   0.492  16.313 -0.6472  2.3838  1.7732
  614TMC3    C7 9157   4.716   0.606  16.449  0.8182 -0.2618 -0.3604
  614TMC3    C8 9158   0.224   0.232  16.318  0.4652 -0.4187  0.8406
  614TMC3    O1 9159   4.679   0.673  16.547  0.0563 -0.4854  0.0185
  614TMC3    O2 9160   0.300   0.282  16.238 -0.5720 -0.1950  0.1013
  615MPD2     C 9161   4.164   2.021  16.347  0.3593 -0.8304 -0.3304
  615MPD2    C1 9162   4.126   2.147  16.303  0.0208  0.0553 -0.1341
  615MPD2    C2 9163   4.044   2.157  16.195  0.0581  0.1981 -0.0575
  615MPD2    C3 9164   4.006   2.045  16.120 -0.9842 -0.9527 -0.5203
  615MPD2    C4 9165   4.039   1.918  16.167 -0.0480 -0.2763  0.0975
  615MPD2    C5 9166   4.128   1.912  16.276 -0.0342  0.2479 -0.6196
  615MPD2     H 9167   4.021   2.257  16.161 -1.1317 -0.1785 -0.3542
  615MPD2    H1 9168   4.029   1.821  16.120 -2.7279  0.1343 -0.1257
  615MPD2    H2 9169   4.229   2.000  16.431  0.0087  0.5724  0.2817
  615MPD2    H3 9170   4.172   1.820  16.316 -1.0052 -0.0519 -0.2456
  615MPD2     N 9171   3.944   2.070  15.994  0.1689  0.1156 -0.7442
  615MPD2    H5 9172   3.929   2.165  15.963 -0.2305  0.0141 -0.8633
  615MPD2    N1 9173   4.145   2.274  16.364  0.7326  1.1189 -0.4064
  615MPD2    H7 9174   4.093   2.351  16.322  1.5749  1.4934 -0.7532
  616TMC3    C1 9175   4.223   2.448  16.485  0.1043  0.9321 -0.1194
  616TMC3    C2 9176   4.335   2.523  16.455 -0.1736  0.5213 -0.4709
  616TMC3    C3 9177   4.318   2.639  16.380 -0.1758 -0.2633  0.0538
  616TMC3    C4 9178   4.101   2.492  16.463  0.2885 -0.7137 -0.0558
  616TMC3    C5 9179   4.084   2.598  16.381 -0.0077  0.0838 -0.5144
  616TMC3    C6 9180   4.191   2.679  16.340  0.7419 -0.2746  0.3739
  616TMC3     C 9181   4.241   2.304  16.456  0.1748  0.4534 -0.2996
  616TMC3     O 9182   4.336   2.242  16.495 -0.8197 -0.3904  0.0707
  616TMC3     H 9183   4.432   2.479  16.475 -0.5313  0.1783  0.5443
  616TMC3    H1 9184   4.017   2.437  16.505 -1.1061  0.6204 -1.0963
  616TMC3    H2 9185   4.172   2.776  16.294 -0.3172 -0.1617  1.0459
  616TMC3    C7 9186   3.951   2.614  16.322 -0.3134  0.3566  0.0067
  616TMC3    C8 9187   4.429   2.693  16.304  0.2516  0.3611 -0.4790
  616TMC3    O1 9188   3.867   2.546  16.382 -0.2130 -0.4570  0.5505
  616TMC3    O2 9189   4.396   2.714  16.187  0.1186 -0.0706  0.9532
  617MPD2     C 9190   2.571   0.269  13.781  0.1867 -0.7706 -0.2583
  617MPD2    C1 9191   2.563   0.172  13.876 -0.7451 -1.6242  0.6383
  617MPD2    C2 9192   2.445   0.138  13.932 -0.1641  0.1250  0.0743
  617MPD2    C3 9193   2.328   0.200  13.893 -0.2080 -0.8251  0.8689
  617MPD2    C4 9194   2.335   0.307  13.808  0.1221 -0.3365 -0.2528
  617MPD2    C5 9195   2.456   0.342  13.759  0.6817  0.1857  0.5982
  617MPD2     H 9196   2.440   0.058  14.005 -0.7393  1.0709  1.0815
  617MPD2    H1 9197   2.243   0.360  13.784  0.7198  0.7155 -0.2412
  617MPD2    H2 9198   2.660   0.291  13.723 -1.0830  1.9062 -1.1859
  617MPD2    H3 9199   2.459   0.427  13.692  0.2590 -1.3032 -1.3098
  617MPD2     N 9200   2.200   0.169  13.948 -0.0940  0.5130  0.5460
  617MPD2    H5 9201   2.122   0.218  13.906  1.5239  2.9795  0.3817
  617MPD2    N1 9202   2.675   0.090  13.913 -0.2278  0.5219  0.3919
  617MPD2    H7 9203   2.649   0.004  13.962  2.2103  0.3496  1.3893
  618TMC3    C1 9204   2.898   0.012  13.950  0.3086 -0.3960 -0.0868
  618TMC3    C2 9205   2.860   4.618  13.954  0.3343 -0.5204  0.5108
  618TMC3    C3 9206   2.955   4.525  13.987 -0.7723 -0.2084 -0.5699
  618TMC3    C4 9207   3.027   0.048  13.958 -0.1218  0.0503 -0.1169
  618TMC3    C5 9208   3.118   4.689  13.994 -0.1950 -0.5524 -0.3856
  618TMC3    C6 9209   3.088   4.557  14.007  0.7001 -0.3216 -0.0683
  618TMC3     C 9210   2.805   0.117  13.891 -0.2236  0.0505 -0.1519
  618TMC3     O 9211   2.857   0.214  13.835  0.4612  0.0311 -0.3594
  618TMC3     H 9212   2.762   4.596  13.913  0.8093  0.8980 -1.3904
  618TMC3    H1 9213   3.067   0.149  13.950 -0.2352  0.0332 -0.8980
  618TMC3    H2 9214   3.166   4.493  14.048 -1.5090 -1.7882  1.8647
  618TMC3    C7 9215   3.257   4.723  14.001  0.0563  0.1992 -0.3694
  618TMC3    C8 9216   2.926   4.384  13.957  0.5901  0.2650  0.2818
  618TMC3    O1 9217   3.276   0.069  14.093 -0.5914 -0.5883  0.4634
  618TMC3    O2 9218   2.814   4.358  13.921  0.3008  0.1407  0.4388
  619MPD2     C 9219   3.973   1.220  14.365  0.1964 -0.0103 -0.6520
  619MPD2    C1 9220   3.934   1.108  14.299  0.1869 -0.2817  0.2072
  619MPD2    C2 9221   3.801   1.085  14.269 -0.3588 -0.5450  0.0038
  619MPD2    C3 9222   3.709   1.184  14.298  0.2702  0.1146 -0.1498
  619MPD2    C4 9223   3.752   1.303  14.361 -0.2228 -0.4215 -0.0656
  619MPD2    C5 9224   3.881   1.317  14.397 -0.4651  0.3169 -0.1732
  619MPD2     H 9225   3.773   0.991  14.224  2.8422 -0.9546 -1.0996
  619MPD2    H1 9226   3.680   1.382  14.379 -1.0433 -0.6206 -2.4738
  619MPD2    H2 9227   4.075   1.238  14.395 -0.2962  1.4323  0.1613
  619MPD2    H3 9228   3.910   1.406  14.452  0.4602  0.0148 -0.1766
  619MPD2     N 9229   3.578   1.174  14.249  0.2507 -0.2876 -0.6784
  619MPD2    H5 9230   3.527   1.261  14.252  0.4967 -0.1125 -1.5339
  619MPD2    N1 9231   4.026   1.009  14.258  0.5526 -0.1347  0.4250
  619MPD2    H7 9232   3.995   0.931  14.202 -0.9191  1.2917 -0.7180
  620TMC3    C1 9233   4.228   0.935  14.181  0.7568  0.2167 -0.3028
  620TMC3    C2 9234   4.150   0.885  14.082  0.0155  0.2853  0.3139
  620TMC3    C3 9235   4.191   0.896  13.953 -0.5278  0.3761  0.5684
  620TMC3    C4 9236   4.348   0.987  14.149 -0.1856 -1.0107 -0.7252
  620TMC3    C5 9237   4.390   0.999  14.021  0.2375  0.0533  0.6788
  620TMC3    C6 9238   4.310   0.948  13.921 -0.0963  0.1989  0.4828
  620TMC3     C 9239   4.161   1.016  14.271  0.1804  0.1329  0.4323
  620TMC3     O 9240   4.229   1.091  14.342  0.5947 -0.2628 -0.6637
  620TMC3     H 9241   4.069   0.817  14.105 -0.8283  1.1900  0.0181
  620TMC3    H1 9242   4.410   1.035  14.223  0.2946 -1.7239 -0.6651
  620TMC3    H2 9243   4.324   0.985  13.820 -2.1173 -0.2712  0.0277
  620TMC3    C7 9244   4.430   1.131  13.986  0.0251 -0.0753  0.1296
  620TMC3    C8 9245   4.091   0.992  13.894 -0.7203 -0.0159 -0.0791
  620TMC3    O1 9246   4.376   1.219  14.053  0.4533 -0.4428  0.6842
  620TMC3    O2 9247   4.124   1.104  13.853 -0.1094  0.3814  0.3320
  621MPD2     C 9248   4.282   2.226  10.048 -0.5472 -0.7720 -0.1752
  621MPD2    C1 9249   4.397   2.174  10.099  0.2220  0.6160  0.2284
  621MPD2    C2 9250   4.512   2.171  10.023  0.2135  0.7032  0.2000
  621MPD2    C3 9251   4.526   2.247   9.912 -0.0344  0.0650 -0.8050
  621MPD2    C4 9252   4.412   2.307   9.864 -0.3639 -0.0756  0.5967
  621MPD2    C5 9253   4.292   2.290   9.922  0.9640  0.3736  0.5425
  621MPD2     H 9254   4.598   2.119  10.063  0.8423 -0.5412 -2.7889
  621MPD2    H1 9255   4.418   2.355   9.767  1.1160  0.8092  1.1205
  621MPD2    H2 9256   4.182   2.212  10.088 -0.7653  1.5131  0.0815
  621MPD2    H3 9257   4.199   2.325   9.878  1.1424  0.2979  0.1022
  621MPD2     N 9258   4.649   2.267   9.856  0.0814  0.0826 -0.3198
  621MPD2    H5 9259   4.728   2.210   9.884  0.7436  0.4098 -1.5365
  621MPD2    N1 9260   4.406   2.113  10.231  0.3671  0.8880 -0.0905
  621MPD2    H7 9261   4.491   2.061  10.249 -0.0435  0.1108 -0.3834
  622TMC3    C1 9262   4.340   2.069  10.449  0.1428  0.1403  0.3666
  622TMC3    C2 9263   4.333   2.145  10.560 -0.0404 -0.5455  0.4178
  622TMC3    C3 9264   4.364   2.079  10.677  0.2139  0.1499  0.5220
  622TMC3    C4 9265   4.377   1.940  10.441 -0.1920 -0.0864  0.2129
  622TMC3    C5 9266   4.412   1.875  10.558  0.1103 -0.3111  0.1615
  622TMC3    C6 9267   4.403   1.950  10.673 -0.0864  0.0192  0.0587
  622TMC3     C 9268   4.317   2.148  10.329 -0.0733 -0.4628 -0.1797
  622TMC3     O 9269   4.242   2.244  10.335 -0.1921  0.2756  0.1975
  622TMC3     H 9270   4.299   2.248  10.553 -2.9003 -1.4901  0.1966
  622TMC3    H1 9271   4.357   1.880  10.352  2.2420  0.9522 -1.0184
  622TMC3    H2 9272   4.433   1.901  10.765  0.7836  1.4739  0.5434
  622TMC3    C7 9273   4.461   1.739  10.562 -0.2640 -0.1344 -0.2837
  622TMC3    C8 9274   4.316   2.139  10.799  0.3251  0.0533  0.5455
  622TMC3    O1 9275   4.480   1.685  10.663 -0.1364 -0.7161 -0.6149
  622TMC3    O2 9276   4.307   2.063  10.897 -1.0105 -0.2191  0.5655
  623MPD2     C 9277   2.980   2.507  16.068 -0.6404  0.8069  0.0717
  623MPD2    C1 9278   2.884   2.475  16.163  0.3528  0.2019  0.1860
  623MPD2    C2 9279   2.913   2.455  16.295 -0.3001 -0.6821  0.0325
  623MPD2    C3 9280   3.048   2.454  16.333 -0.8090 -0.4103 -0.5993
  623MPD2    C4 9281   3.140   2.496  16.241  0.1256  0.2038 -0.2907
  623MPD2    C5 9282   3.107   2.520  16.104 -0.2035  0.5028  0.5285
  623MPD2     H 9283   2.840   2.443  16.375  0.5329 -0.3687  0.8387
  623MPD2    H1 9284   3.246   2.506  16.263  0.5933 -0.5903 -2.1781
  623MPD2    H2 9285   2.948   2.515  15.964 -1.9165  1.6273  0.5283
  623MPD2    H3 9286   3.188   2.542  16.036  0.1904 -1.4971  0.3483
  623MPD2     N 9287   3.086   2.440  16.468  0.2784  0.5018 -0.0557
  623MPD2    H5 9288   3.007   2.412  16.526 -0.4783  3.1620  0.2121
  623MPD2    N1 9289   2.749   2.441  16.135 -0.5542  0.4843  0.4300
  623MPD2    H7 9290   2.689   2.427  16.216 -2.1552 -1.4129 -1.0765
  624TMC3    C1 9291   3.266   2.252  16.822  0.3608 -0.5976 -0.1940
  624TMC3    C2 9292   3.152   2.278  16.886 -0.7646  0.4722  0.3106
  624TMC3    C3 9293   3.069   2.374  16.841  0.3609 -0.2297 -0.7772
  624TMC3    C4 9294   3.296   2.317  16.705  0.1455  0.2905  0.4244
  624TMC3    C5 9295   3.211   2.420  16.666 -0.1853  0.4498  0.3622
  624TMC3    C6 9296   3.097   2.447  16.730  0.3932  1.2292  0.8012
  624TMC3     C 9297   3.336   2.130  16.853 -0.5924  0.1893  0.5758
  624TMC3     O 9298   3.280   2.035  16.897 -0.2157 -0.3226  0.6411
  624TMC3     H 9299   3.132   2.209  16.967  2.6051  0.7624  1.3661
  624TMC3    H1 9300   3.377   2.295  16.636 -1.5007  0.8719 -1.6810
  624TMC3    H2 9301   3.029   2.518  16.685 -1.0212 -0.2946  0.5139
  624TMC3    C7 9302   3.214   2.439  16.525 -0.2013 -0.3437 -0.0388
  624TMC3    C8 9303   2.930   2.358  16.870 -0.3738  0.4392 -0.1462
  624TMC3    O1 9304   3.321   2.450  16.464 -0.2943  0.2666 -0.0960
  624TMC3    O2 9305   2.854   2.412  16.791 -0.0896  0.0798  0.1466
  625MPD2     C 9306   2.705   3.214   0.793  0.0377 -0.4909 -0.4110
  625MPD2    C1 9307   2.796   3.317   0.801  0.5756  0.8417  0.2326
  625MPD2    C2 9308   2.929   3.293   0.819  1.5003  0.1854 -0.1101
  625MPD2    C3 9309   2.978   3.162   0.830 -0.4911 -0.4066  0.6558
  625MPD2    C4 9310   2.884   3.063   0.847  0.4841  0.1949 -0.3289
  625MPD2    C5 9311   2.752   3.089   0.820  0.0665  0.0103  0.1758
  625MPD2     H 9312   2.993   3.380   0.825  1.5831  0.1293 -0.1733
  625MPD2    H1 9313   2.904   2.957   0.854  0.8560  0.1793 -1.4699
  625MPD2    H2 9314   2.598   3.223   0.774  0.1727  0.3040 -0.8175
  625MPD2    H3 9315   2.680   3.009   0.812  0.5094 -0.3895  0.2211
  625MPD2     N 9316   3.120   3.150   0.839 -0.3657  0.1876 -0.0826
  625MPD2    H5 9317   3.179   3.232   0.827  1.1748 -1.5274 -4.0298
  625MPD2    N1 9318   2.755   3.452   0.799 -0.4148 -0.9793  0.0558
  625MPD2    H7 9319   2.827   3.522   0.786  0.6000 -1.8157  1.1502
  626TMC3    C1 9320   2.609   3.625   0.777 -1.2228  0.1413  0.6483
  626TMC3    C2 9321   2.634   3.668   0.651 -0.9137  0.1884  0.2997
  626TMC3    C3 9322   2.594   3.796   0.614 -0.5759  1.1035  0.2847
  626TMC3    C4 9323   2.564   3.718   0.867  0.4401  0.2325  0.2095
  626TMC3    C5 9324   2.526   3.846   0.836 -0.4372 -0.5360 -0.2367
  626TMC3    C6 9325   2.546   3.888   0.704 -0.4693 -0.4912  0.3788
  626TMC3     C 9326   2.621   3.486   0.814 -0.2668  0.4862 -0.5265
  626TMC3     O 9327   2.520   3.428   0.847 -0.1569  0.0772 -0.0245
  626TMC3     H 9328   2.674   3.593   0.583  2.2470  0.4948  1.8040
  626TMC3    H1 9329   2.544   3.676   0.964 -0.2956  1.9823  0.8180
  626TMC3    H2 9330   2.523   3.990   0.677  1.4718 -0.2453 -0.3248
  626TMC3    C7 9331   2.474   3.932   0.942  0.0961 -0.0859  0.7245
  626TMC3    C8 9332   2.574   3.833   0.474  0.2142  0.2376 -0.1649
  626TMC3    O1 9333   2.503   3.905   1.059 -0.1210 -0.6725 -0.6909
  626TMC3    O2 9334   2.652   3.789   0.389  0.4300 -0.1489 -0.0234
  627MPD2     C 9335   1.862   3.778  14.258 -0.0994  0.3433  0.0967
  627MPD2    C1 9336   1.899   3.714  14.372  0.2693  0.0670  0.0789
  627MPD2    C2 9337   1.870   3.579  14.382  0.0632 -0.3131  0.3759
  627MPD2    C3 9338   1.812   3.508  14.278 -0.4307 -0.1407  0.6097
  627MPD2    C4 9339   1.762   3.584  14.172  0.2178 -0.2514  0.2416
  627MPD2    C5 9340   1.795   3.713  14.158  0.1275  0.3869 -0.2265
  627MPD2     H 9341   1.888   3.529  14.476  2.5329 -0.9579 -0.4249
  627MPD2    H1 9342   1.717   3.530  14.090  0.1000  2.1370 -1.2548
  627MPD2    H2 9343   1.890   3.881  14.236  0.7958  0.3565  1.2723
  627MPD2    H3 9344   1.766   3.770  14.070 -2.8361 -1.6364 -0.5498
  627MPD2     N 9345   1.782   3.371  14.288  0.0055 -0.2055  0.1651
  627MPD2    H5 9346   1.819   3.319  14.367  0.7904 -0.5211 -0.4112
  627MPD2    N1 9347   1.967   3.774  14.479  0.5758  0.2463  0.3358
  627MPD2    H7 9348   1.993   3.704  14.549  0.1000 -0.0787  0.1898
  628TMC3    C1 9349   2.065   3.941  14.623  0.1295  0.3920 -0.4427
  628TMC3    C2 9350   2.132   3.847  14.684  0.3333  0.3442  0.5764
  628TMC3    C3 9351   2.175   3.877  14.812  1.0398  0.1393  0.5310
  628TMC3    C4 9352   2.041   4.059  14.677  0.8398 -0.2487  1.0398
  628TMC3    C5 9353   2.090   4.087  14.801  0.4004  0.5917  0.3513
  628TMC3    C6 9354   2.154   3.990  14.876 -0.1259  0.6515  0.2641
  628TMC3     C 9355   1.980   3.911  14.502  0.6751 -0.7519 -0.0321
  628TMC3     O 9356   1.913   3.997  14.450  0.2194  0.0639  0.2311
  628TMC3     H 9357   2.160   3.760  14.625  1.2212  0.6673  0.5230
  628TMC3    H1 9358   1.969   4.124  14.629  0.7195 -0.9692  0.2431
  628TMC3    H2 9359   2.223   4.022  14.954  1.9387  0.0666 -1.3210
  628TMC3    C7 9360   2.116   4.228  14.838  0.9523 -0.4039 -0.5353
  628TMC3    C8 9361   2.237   3.765  14.878 -0.4129 -0.2536 -0.5489
  628TMC3    O1 9362   2.172   4.250  14.946 -0.6083  0.0115  0.3135
  628TMC3    O2 9363   2.216   3.754  15.001 -0.0163 -0.0564 -0.3806
  629MPD2     C 9364   0.171   2.838  16.226 -0.8842  0.1906 -0.2109
  629MPD2    C1 9365   0.171   2.779  16.347  0.5534  0.1522  0.3563
  629MPD2    C2 9366   0.050   2.710  16.382 -0.5468  0.4352 -0.0649
  629MPD2    C3 9367   4.667   2.737  16.318  0.0239  0.0254 -0.1931
  629MPD2    C4 9368   4.673   2.816  16.207 -0.5562 -0.3457 -0.5628
  629MPD2    C5 9369   0.055   2.864  16.164 -0.2572 -0.1245 -0.4391
  629MPD2     H 9370   0.049   2.650  16.472  1.9437 -0.2802 -0.5092
  629MPD2    H1 9371   4.584   2.837  16.149  0.8644  1.2772 -2.1470
  629MPD2    H2 9372   0.259   2.878  16.177 -0.2191 -2.3337 -1.0982
  629MPD2    H3 9373   0.070   2.933  16.081 -0.9434 -0.1529 -0.5930
  629MPD2     N 9374   4.548   2.681  16.367  0.4062 -0.3949 -0.3033
  629MPD2    H5 9375   4.549   2.645  16.462 -0.3532 -0.7830 -0.4466
  629MPD2    N1 9376   0.301   2.763  16.401  0.3652 -0.7784  0.5451
  629MPD2    H7 9377   0.375   2.812  16.353 -0.3575 -0.8230 -0.5977
  630TMC3    C1 9378   0.472   2.682  16.522 -0.3905 -0.3031 -0.2187
  630TMC3    C2 9379   0.552   2.794  16.500 -0.4810  0.3370 -0.3161
  630TMC3    C3 9380   0.679   2.777  16.556 -0.9757  0.4864 -0.3869
  630TMC3    C4 9381   0.516   2.567  16.584  0.5291  0.3730  0.1035
  630TMC3    C5 9382   0.651   2.560  16.624  0.3714 -0.2031 -0.3857
  630TMC3    C6 9383   0.728   2.668  16.618 -0.1527 -0.3196  0.1551
  630TMC3     C 9384   0.328   2.686  16.510  0.1189 -0.9536 -0.7914
  630TMC3     O 9385   0.267   2.607  16.582 -0.3223 -0.3008 -0.2920
  630TMC3     H 9386   0.529   2.888  16.452  1.0874  1.3791  0.9712
  630TMC3    H1 9387   0.458   2.477  16.569 -0.5103  1.1419 -0.5405
  630TMC3    H2 9388   0.836   2.663  16.630 -0.2983  1.9030  2.4856
  630TMC3    C7 9389   0.682   2.456  16.717 -0.2064 -0.0522  0.1156
  630TMC3    C8 9390   0.779   2.884  16.537  0.9858 -0.6040  0.6649
  630TMC3    O1 9391   0.608   2.356  16.731  0.1985  0.0799  0.4857
  630TMC3    O2 9392   0.866   2.888  16.623 -0.2877  0.4011  0.0459
  631MPD2     C 9393   3.194   2.292  15.468 -0.3002  0.4763  0.5694
  631MPD2    C1 9394   3.298   2.333  15.389  0.8788 -0.2151 -0.1256
  631MPD2    C2 9395   3.415   2.261  15.391  0.5191 -0.5232  0.0384
  631MPD2    C3 9396   3.433   2.152  15.471  0.1541 -0.8369 -0.0849
  631MPD2    C4 9397   3.327   2.103  15.549  0.3020  0.5576  0.0589
  631MPD2    C5 9398   3.209   2.177  15.543  0.0781 -0.0839 -0.2237
  631MPD2     H 9399   3.497   2.301  15.332 -0.9919  1.5069 -0.7024
  631MPD2    H1 9400   3.333   2.016  15.613 -1.5356 -0.8661 -1.7081
  631MPD2    H2 9401   3.101   2.347  15.465  0.6538  2.0777  0.2657
  631MPD2    H3 9402   3.133   2.129  15.605  1.2289 -0.7977  0.6428
  631MPD2     N 9403   3.568   2.103  15.485 -0.2183  0.0805  0.1036
  631MPD2    H5 9404   3.640   2.149  15.429 -2.3151  3.4593  0.2076
  631MPD2    N1 9405   3.276   2.457  15.317  0.2756  0.6247 -0.5422
  631MPD2    H7 9406   3.183   2.497  15.318 -0.4704 -1.1497  0.0522
  632TMC3    C1 9407   3.310   2.609  15.139  0.0963 -0.1626  0.6521
  632TMC3    C2 9408   3.177   2.633  15.132  0.4715 -0.2898 -0.1179
  632TMC3    C3 9409   3.130   2.679  15.010  0.7919  0.2428  0.1136
  632TMC3    C4 9410   3.389   2.641  15.036  0.2661 -0.9582 -0.7766
  632TMC3    C5 9411   3.346   2.681  14.916 -0.0336  0.2595 -0.3081
  632TMC3    C6 9412   3.210   2.689  14.896 -0.0563 -0.3567  0.3818
  632TMC3     C 9413   3.369   2.514  15.228  0.4399 -0.7726  0.0679
  632TMC3     O 9414   3.483   2.477  15.207 -0.0394 -0.4639 -0.4141
  632TMC3     H 9415   3.111   2.630  15.217 -0.3752  0.7332 -0.7399
  632TMC3    H1 9416   3.495   2.631  15.054  0.4327 -0.5229 -1.5077
  632TMC3    H2 9417   3.179   2.728  14.800  0.0389 -1.0568  0.0712
  632TMC3    C7 9418   3.433   2.667  14.799  0.6445  0.1827 -0.8731
  632TMC3    C8 9419   2.990   2.714  15.004 -0.4893  0.3772 -0.2371
  632TMC3    O1 9420   3.414   2.736  14.701  0.3956 -0.1461  0.6937
  632TMC3    O2 9421   2.911   2.673  15.089  0.1670 -0.3303 -0.4141
  633MPD2     C 9422   2.842   0.389  17.499  0.3547 -0.1683 -0.3323
  633MPD2    C1 9423   2.846   0.311  17.385  0.1582 -0.1489 -0.9172
  633MPD2    C2 9424   2.810   0.176  17.387  0.5738 -0.9470 -0.4154
  633MPD2    C3 9425   2.783   0.120  17.512  0.0845 -0.2503  0.0210
  633MPD2    C4 9426   2.797   0.192  17.628 -0.3453  0.5192  0.2386
  633MPD2    C5 9427   2.827   0.327  17.624 -1.0566  0.0797 -1.0228
  633MPD2     H 9428   2.806   0.123  17.293  0.4375 -0.1626 -0.8455
  633MPD2    H1 9429   2.768   0.143  17.720 -0.3366 -1.9808 -1.1090
  633MPD2    H2 9430   2.866   0.494  17.509  0.8316 -0.3714  0.5876
  633MPD2    H3 9431   2.829   0.392  17.711  0.3187  0.5333 -1.3966
  633MPD2     N 9432   2.739   4.725  17.540 -0.2803  0.0606 -0.9853
  633MPD2    H5 9433   2.703   4.713  17.634  1.4239 -0.2228 -0.3601
  633MPD2    N1 9434   2.872   0.365  17.253  0.1228 -0.5620 -0.4700
  633MPD2    H7 9435   2.873   0.298  17.177 -1.5581 -0.9101 -0.1877
  634TMC3    C1 9436   2.954   0.502  17.083 -0.3834 -0.5047  0.0683
  634TMC3    C2 9437   3.016   0.398  17.015  0.5498 -0.3061 -0.0508
  634TMC3    C3 9438   3.043   0.417  16.882  0.4050  0.0287 -0.3206
  634TMC3    C4 9439   2.914   0.618  17.018 -0.3514 -0.3243 -0.1609
  634TMC3    C5 9440   2.937   0.628  16.882 -0.1435  0.0982 -0.2018
  634TMC3    C6 9441   2.996   0.526  16.814  0.5538  0.8676 -0.3813
  634TMC3     C 9442   2.924   0.492  17.224 -0.2393 -0.7436 -0.6772
  634TMC3     O 9443   2.949   0.592  17.291  0.2273  0.1778  0.0779
  634TMC3     H 9444   3.057   0.315  17.071 -1.6688 -0.1612  1.8285
  634TMC3    H1 9445   2.885   0.706  17.074  0.1313  0.2522 -0.8141
  634TMC3    H2 9446   2.987   0.522  16.706  0.4096 -1.1174 -0.2914
  634TMC3    C7 9447   2.873   0.736  16.805 -0.9907  0.1131  0.3134
  634TMC3    C8 9448   3.090   0.301  16.815 -0.4705 -0.4563  0.2214
  634TMC3    O1 9449   2.897   0.730  16.687  0.2122 -0.0161  0.4077
  634TMC3    O2 9450   3.101   0.194  16.878 -0.6350 -0.3753 -0.4177
  635TMC3    C1 9451   2.595   0.729   0.269  0.2490 -0.4127 -0.2521
  635TMC3    C2 9452   2.549   0.636   0.178  0.5679  0.4917 -0.6130
  635TMC3    C3 9453   2.464   0.540   0.218  0.0999 -0.8181 -0.0379
  635TMC3    C4 9454   2.538   0.729   0.396 -0.6969 -0.5435 -0.3816
  635TMC3    C5 9455   2.445   0.630   0.434  0.5829  0.5968  0.1129
  635TMC3    C6 9456   2.404   0.541   0.342  0.1048  0.1342 -0.4619
  635TMC3     C 9457   2.647   0.859   0.219 -0.2659 -0.4481 -0.1513
  635TMC3     O 9458   2.647   0.953   0.297  0.2099 -0.2227 -0.2679
  635TMC3     H 9459   2.598   0.634   0.081 -1.4352 -1.7262 -1.5940
  635TMC3    H1 9460   2.561   0.814   0.459 -1.4294  0.2810 -1.2336
  635TMC3    H2 9461   2.369   0.449   0.388 -0.8553  0.5697 -0.3159
  635TMC3    C7 9462   2.387   0.619   0.570  0.6982 -0.3294  0.0236
  635TMC3    C8 9463   2.465   0.412   0.151  0.4007 -0.0341  0.1021
  635TMC3    O1 9464   2.459   0.655   0.662  0.7399 -0.2509 -0.2260
  635TMC3    O2 9465   2.579   0.386   0.115 -0.6448  0.0021 -0.1339
  636MPD2     C 9466   4.292   0.375  15.859 -0.2206  0.0001 -0.9352
  636MPD2    C1 9467   4.275   0.358  15.997  0.5807 -0.5542  0.5331
  636MPD2    C2 9468   4.237   0.232  16.043  0.9947  0.4029  0.1573
  636MPD2    C3 9469   4.228   0.126  15.967  0.2023 -0.0604  0.1450
  636MPD2    C4 9470   4.240   0.148  15.830  0.5300 -0.2043 -0.4617
  636MPD2    C5 9471   4.270   0.268  15.776 -0.0268 -0.3562 -0.1516
  636MPD2     H 9472   4.222   0.206  16.147 -1.8041  1.3070 -0.0236
  636MPD2    H1 9473   4.236   0.061  15.765 -0.1400  1.3332 -2.4518
  636MPD2    H2 9474   4.318   0.470  15.814  0.3430 -0.6535 -2.0238
  636MPD2    H3 9475   4.288   0.275  15.669 -0.8745 -1.7999 -0.3786
  636MPD2     N 9476   4.213   0.005  16.038  0.5044  0.1302 -0.3502
  636MPD2    H5 9477   4.212   0.017  16.139  1.2453 -0.4840 -0.2720
  636MPD2    N1 9478   4.300   0.452  16.099 -0.1720 -0.1135 -0.5448
  636MPD2    H7 9479   4.293   0.412  16.192  3.1138  1.6128  0.4280
  637TMC3    C1 9480   4.240   4.526  16.090  0.1621  0.1550 -0.1483
  637TMC3    C2 9481   4.161   4.535  16.202 -0.4188 -0.2135 -0.7588
  637TMC3    C3 9482   4.213   4.488  16.319  0.2589 -0.1535 -0.3072
  637TMC3    C4 9483   4.357   4.454  16.093 -0.6097 -0.2357 -0.2118
  637TMC3    C5 9484   4.410   4.412  16.213  0.1683  0.4245 -0.7469
  637TMC3    C6 9485   4.332   4.424  16.327  0.4124  0.4849  0.0085
  637TMC3     C 9486   4.222   4.620  15.985 -0.6697 -0.4442 -0.3778
  637TMC3     O 9487   4.260   4.587  15.873  0.0945 -0.3194 -0.2278
  637TMC3     H 9488   4.068   4.589  16.195  0.4984  1.4274 -0.3739
  637TMC3    H1 9489   4.419   4.452  16.004 -1.9436  0.1529 -1.1682
  637TMC3    H2 9490   4.365   4.390  16.424  2.5997 -3.0659 -1.9500
  637TMC3    C7 9491   4.541   4.478  16.242 -0.4127 -0.5277  0.4757
  637TMC3    C8 9492   4.178   4.592  16.423  0.5567 -0.2433  0.2455
  637TMC3    O1 9493   4.541   4.539  16.349 -0.2263  0.0767 -0.9059
  637TMC3    O2 9494   4.070   4.652  16.421  0.7303 -0.0743 -0.3843
  638MPD2     C 9495   4.044   4.339  15.076  0.6214  0.0034 -0.7653
  638MPD2    C1 9496   3.964   4.249  15.011 -0.9133 -0.0603  0.1122
  638MPD2    C2 9497   3.934   4.130  15.072  0.7100  0.2246 -0.9533
  638MPD2    C3 9498   3.999   4.099  15.191  0.8910 -0.2360 -0.3065
  638MPD2    C4 9499   4.084   4.186  15.249  0.7777 -0.0518 -0.7397
  638MPD2    C5 9500   4.098   4.312  15.197 -0.0418  0.4738 -0.2538
  638MPD2     H 9501   3.885   4.047  15.023 -0.1435  1.2186 -1.7899
  638MPD2    H1 9502   4.128   4.157  15.344 -0.1204  0.9827  0.0010
  638MPD2    H2 9503   4.066   4.441  15.043  0.1744  0.3244 -0.0528
  638MPD2    H3 9504   4.176   4.376  15.239  0.3275  0.1696 -0.4733
  638MPD2     N 9505   3.988   3.965  15.232  0.6803  0.3258 -0.2370
  638MPD2    H5 9506   3.925   3.907  15.177  0.3786  0.9793 -0.5743
  638MPD2    N1 9507   3.920   4.279  14.880  0.4663 -0.4672 -0.1485
  638MPD2    H7 9508   3.938   4.372  14.844 -1.0127  0.3156  1.1162
  639TMC3    C1 9509   4.056   3.752  15.315 -0.6601 -0.0666 -0.4161
  639TMC3    C2 9510   4.013   3.704  15.193 -0.0714 -0.3366 -0.4990
  639TMC3    C3 9511   4.089   3.618  15.120  1.0395  0.0433 -0.7548
  639TMC3    C4 9512   4.167   3.692  15.362  0.2065 -0.3835 -0.1311
  639TMC3    C5 9513   4.234   3.594  15.294 -0.5713 -0.0406 -0.1727
  639TMC3    C6 9514   4.207   3.570  15.164  0.1040  0.0780  0.3152
  639TMC3     C 9515   4.061   3.901  15.330  0.4146 -0.2390  0.0599
  639TMC3     O 9516   4.122   3.951  15.422  0.1384  0.2304  0.0626
  639TMC3     H 9517   3.915   3.727  15.152 -0.1337 -0.9481 -0.6921
  639TMC3    H1 9518   4.195   3.714  15.464 -1.6166  1.3259  0.0015
  639TMC3    H2 9519   4.245   3.483  15.111 -3.4343  0.4149 -2.7402
  639TMC3    C7 9520   4.341   3.530  15.361 -0.0335  0.2398 -0.1440
  639TMC3    C8 9521   4.022   3.527  15.031 -0.3313 -0.5383 -0.0239
  639TMC3    O1 9522   4.343   3.535  15.480 -0.3039  0.1071 -0.2722
  639TMC3    O2 9523   4.086   3.476  14.945  0.5245  1.2147 -1.2577
  640MPD2     C 9524   0.888   3.383   9.796 -0.1012 -0.3371  0.0221
  640MPD2    C1 9525   0.758   3.424   9.786  0.1838 -0.8953  0.4006
  640MPD2    C2 9526   0.714   3.542   9.846  0.3364  0.0768  0.0400
  640MPD2    C3 9527   0.805   3.628   9.919  0.7181 -0.1553  0.3555
  640MPD2    C4 9528   0.932   3.582   9.936 -0.6861  0.3398  0.3277
  640MPD2    C5 9529   0.970   3.459   9.876 -0.1412 -0.6272 -0.1311
  640MPD2     H 9530   0.609   3.567   9.842  0.1381 -0.5061  1.7419
  640MPD2    H1 9531   1.004   3.644   9.989  1.0447 -0.6836 -0.8165
  640MPD2    H2 9532   0.930   3.295   9.748 -0.7626 -1.8812  2.2933
  640MPD2    H3 9533   1.071   3.421   9.879 -0.2966 -0.8951  1.7198
  640MPD2     N 9534   0.762   3.743   9.987 -0.6623  0.6294 -0.6426
  640MPD2    H5 9535   0.834   3.789  10.042  0.2800 -0.4402 -0.9806
  640MPD2    N1 9536   0.676   3.334   9.724 -0.2666  0.2596 -0.0009
  640MPD2    H7 9537   0.726   3.250   9.696 -0.0872  0.0220  1.0264
  641TMC3    C1 9538   0.495   3.235   9.615 -0.4209  0.0457  0.0342
  641TMC3    C2 9539   0.564   3.118   9.615  0.0674  0.2633 -0.1405
  641TMC3    C3 9540   0.498   3.017   9.543 -0.3313  0.8239 -0.1310
  641TMC3    C4 9541   0.367   3.250   9.563  0.9513  0.5191  0.3091
  641TMC3    C5 9542   0.312   3.146   9.503  0.7161  0.1153 -0.1292
  641TMC3    C6 9543   0.378   3.029   9.490 -0.2980 -0.0057  0.0163
  641TMC3     C 9544   0.553   3.350   9.676  0.7167  0.3191  0.9397
  641TMC3     O 9545   0.481   3.455   9.682  0.5475  0.4419 -1.0076
  641TMC3     H 9546   0.667   3.105   9.645  0.2280 -0.7208 -1.1218
  641TMC3    H1 9547   0.310   3.337   9.595 -1.1709 -1.1612  1.1055
  641TMC3    H2 9548   0.334   2.937   9.453 -0.1877 -0.6661  1.5165
  641TMC3    C7 9549   0.187   3.169   9.436 -0.0036 -0.0899  0.0795
  641TMC3    C8 9550   0.574   2.895   9.519  0.2317 -0.3650  0.7429
  641TMC3    O1 9551   0.139   3.280   9.454 -0.1600 -0.3169  0.1712
  641TMC3    O2 9552   0.541   2.831   9.422 -0.6094 -0.0137 -0.4013
  642TMC3    C1 9553   0.969   3.836  12.467  0.4211  0.0634  0.5123
  642TMC3    C2 9554   1.085   3.902  12.505  0.1289 -0.1351  0.3536
  642TMC3    C3 9555   1.201   3.824  12.500  0.3135  0.8206  0.5741
  642TMC3    C4 9556   0.961   3.709  12.425 -0.0542 -0.6156  0.2736
  642TMC3    C5 9557   1.073   3.637  12.433 -0.4829  0.3069  0.0749
  642TMC3    C6 9558   1.192   3.688  12.469 -0.3679 -0.4082 -0.0238
  642TMC3     C 9559   0.853   3.917  12.465 -0.7002  0.1126  0.0265
  642TMC3     O 9560   0.867   4.036  12.432 -0.1557  0.2878 -0.4332
  642TMC3     H 9561   1.077   4.001  12.549 -2.9322 -1.2793  2.4337
  642TMC3    H1 9562   0.865   3.675  12.389 -0.6520  1.1194  0.2341
  642TMC3    H2 9563   1.277   3.621  12.481  0.4159  0.5411 -0.2958
  642TMC3    C7 9564   1.063   3.499  12.385 -0.3666  0.2228 -0.6195
  642TMC3    C8 9565   1.334   3.888  12.513 -0.7573  0.8424  0.5952
  642TMC3    O1 9566   0.973   3.463  12.310 -0.4040 -0.5196  0.3952
  642TMC3    O2 9567   1.341   4.004  12.540  0.4762 -0.2030  0.1054
  643TMC3    C1 9568   0.459   2.645   0.409 -0.4010  0.0323  0.1430
  643TMC3    C2 9569   0.335   2.589   0.388 -0.1963 -0.5718 -0.2034
  643TMC3    C3 9570   0.302   2.530   0.267  0.7697 -0.4111 -0.0698
  643TMC3    C4 9571   0.550   2.649   0.308  0.9813 -0.2107  0.4238
  643TMC3    C5 9572   0.516   2.589   0.190  0.2966 -0.2058  0.5956
  643TMC3    C6 9573   0.400   2.527   0.171 -0.6810 -0.4755  0.2912
  643TMC3     C 9574   0.457   2.761   0.497 -0.1002 -0.0511 -0.5214
  643TMC3     O 9575   0.356   2.832   0.485  0.2125 -0.0177 -0.2086
  643TMC3     H 9576   0.252   2.607   0.456 -0.1522 -1.8460  0.1867
  643TMC3    H1 9577   0.632   2.720   0.314 -0.3681  1.8484 -5.5080
  643TMC3    H2 9578   0.365   2.503   0.071 -2.7483 -1.8444  1.3403
  643TMC3    C7 9579   0.554   2.684   0.088  0.4411  0.3086 -0.9973
  643TMC3    C8 9580   0.182   2.594   0.206 -0.2426  0.3439 -0.2214
  643TMC3    O1 9581   0.462   2.759   0.075 -0.1702 -0.5709 -0.1082
  643TMC3    O2 9582   0.112   2.528   0.128  0.4960 -0.1881 -0.0694
  644MPD2     C 9583   0.542   3.265   9.227 -0.0545  0.2675 -0.4894
  644MPD2    C1 9584   0.655   3.269   9.303  0.4460  0.2318  0.0883
  644MPD2    C2 9585   0.678   3.386   9.368  0.3050  0.8414  0.1430
  644MPD2    C3 9586   0.591   3.490   9.371  0.0976  0.8345 -0.4622
  644MPD2    C4 9587   0.474   3.476   9.300 -0.3126  0.5817 -0.3092
  644MPD2    C5 9588   0.450   3.367   9.231 -0.1847 -0.1358  0.5844
  644MPD2     H 9589   0.774   3.405   9.415  0.4464 -0.0038  0.1895
  644MPD2    H1 9590   0.404   3.559   9.305 -0.5182  0.4648 -1.2148
  644MPD2    H2 9591   0.520   3.182   9.161  2.2002  0.8267 -1.9155
  644MPD2    H3 9592   0.350   3.358   9.189  0.3526  0.8122 -0.9316
  644MPD2     N 9593   0.628   3.602   9.450  0.3662 -0.2130 -0.0385
  644MPD2    H5 9594   0.724   3.596   9.483  0.9387  0.5296 -1.5255
  644MPD2    N1 9595   0.747   3.161   9.302  0.0039 -0.0391 -0.6162
  644MPD2    H7 9596   0.719   3.086   9.239  2.8580 -0.4947 -1.3645
  645TMC3    C1 9597   0.641   3.826   9.526  0.1569  0.0196  0.7997
  645TMC3    C2 9598   0.752   3.804   9.597  0.2216  0.1225  0.7170
  645TMC3    C3 9599   0.829   3.914   9.632  0.0817 -0.0075  0.1613
  645TMC3    C4 9600   0.606   3.955   9.489  0.2394  0.4924  0.4951
  645TMC3    C5 9601   0.675   4.062   9.529 -0.1934 -0.3698 -0.3136
  645TMC3    C6 9602   0.785   4.043   9.610  0.5454  0.0418  0.1093
  645TMC3     C 9603   0.567   3.726   9.453  0.1882 -0.4145 -0.8461
  645TMC3     O 9604   0.467   3.759   9.394 -0.0403 -0.9287  0.1392
  645TMC3     H 9605   0.773   3.700   9.621 -1.2109  0.0658  1.7177
  645TMC3    H1 9606   0.520   3.963   9.423 -0.4148 -1.4807  1.1205
  645TMC3    H2 9607   0.850   4.126   9.634 -0.0105  0.7238 -0.7224
  645TMC3    C7 9608   0.651   4.193   9.463  0.3888 -0.4785 -0.3857
  645TMC3    C8 9609   0.952   3.890   9.701 -0.1786 -0.5569 -0.3199
  645TMC3    O1 9610   0.592   4.185   9.358 -0.0164  0.1569  0.6324
  645TMC3    O2 9611   0.992   3.982   9.770 -0.2818  0.0061  0.9716
  646MPD2     C 9612   4.517   2.784  14.551  0.2526  0.5025 -0.8562
  646MPD2    C1 9613   4.446   2.814  14.669  0.4724  0.6042 -0.3556
  646MPD2    C2 9614   4.311   2.855  14.656  0.7183  0.1851  0.3921
  646MPD2    C3 9615   4.248   2.863  14.529 -0.6978  0.2416 -0.4960
  646MPD2    C4 9616   4.324   2.841  14.422  0.5070  0.6136  0.0204
  646MPD2    C5 9617   4.456   2.799  14.429 -0.2223 -0.7618  0.3329
  646MPD2     H 9618   4.246   2.865  14.742  0.6899 -1.3479  0.5485
  646MPD2    H1 9619   4.282   2.861  14.324  0.4109  0.6844  0.0761
  646MPD2    H2 9620   4.622   2.756  14.549 -0.2826 -1.5024 -0.6214
  646MPD2    H3 9621   4.515   2.804  14.338 -2.5630 -0.1217 -1.1190
  646MPD2     N 9622   4.111   2.892  14.522 -0.1407 -0.5340  0.1582
  646MPD2    H5 9623   4.078   2.925  14.612 -2.2532  0.2742 -0.9094
  646MPD2    N1 9624   4.512   2.807  14.798  0.2285  0.6864  0.3223
  646MPD2    H7 9625   4.612   2.792  14.785 -0.1163 -0.7475 -0.7324
  647TMC3    C1 9626   4.550   2.861  15.024 -0.0638  0.3877 -0.9106
  647TMC3    C2 9627   4.491   2.873  15.148 -0.9745  0.0414 -0.1315
  647TMC3    C3 9628   4.575   2.842  15.256 -0.4701  1.0874  0.5875
  647TMC3    C4 9629   4.681   2.835  15.003 -0.3586 -0.9856  0.2252
  647TMC3    C5 9630   0.026   2.813  15.109  0.1992  0.8955 -0.5736
  647TMC3    C6 9631   4.711   2.818  15.236  0.5770 -0.2784 -0.1549
  647TMC3     C 9632   4.454   2.841  14.918  0.1406  0.7109  0.6464
  647TMC3     O 9633   4.335   2.857  14.946  0.0899  0.1520 -0.6982
  647TMC3     H 9634   4.384   2.895  15.154 -0.9253  0.6531 -1.5723
  647TMC3    H1 9635   4.719   2.821  14.902 -1.2923  2.2438 -0.5767
  647TMC3    H2 9636   0.047   2.811  15.317 -0.2426  0.6302  0.6523
  647TMC3    C7 9637   0.160   2.751  15.105  0.1753 -0.1026 -0.2187
  647TMC3    C8 9638   4.512   2.796  15.377  0.0118 -0.2768 -0.5834
  647TMC3    O1 9639   0.217   2.729  15.210 -0.9214  0.4863  0.2569
  647TMC3    O2 9640   4.580   2.744  15.461  0.1207  0.2459 -0.4933
  648TMC3    C1 9641   3.571   0.466  16.333  0.4945 -0.4128  0.2398
  648TMC3    C2 9642   3.657   0.363  16.305  0.1136 -0.4631  0.1221
  648TMC3    C3 9643   3.683   0.330  16.177  0.5716  0.1940 -0.2686
  648TMC3    C4 9644   3.533   0.555  16.236  0.0116  0.3874  0.3034
  648TMC3    C5 9645   3.573   0.529  16.106 -0.2905 -0.5567 -0.2746
  648TMC3    C6 9646   3.643   0.414  16.074  0.2901  0.1656 -0.6988
  648TMC3     C 9647   3.538   0.493  16.473  0.3362 -0.0182 -0.1559
  648TMC3     O 9648   3.501   0.610  16.496 -0.1522  0.2590 -0.2046
  648TMC3     H 9649   3.697   0.303  16.386  1.1621  0.6576  0.4279
  648TMC3    H1 9650   3.453   0.625  16.258 -1.3053 -1.2059  0.5431
  648TMC3    H2 9651   3.676   0.393  15.973  1.6190 -2.3465  0.2543
  648TMC3    C7 9652   3.533   0.620  15.997  0.3907 -0.2253  0.1447
  648TMC3    C8 9653   3.723   0.194  16.152 -0.3452 -0.1315 -0.3072
  648TMC3    O1 9654   3.554   0.582  15.881  0.5587 -0.2317 -0.1598
  648TMC3    O2 9655   3.744   0.133  16.256 -0.5737  0.1100  0.2429
  649TMC3    C1 9656   3.300   1.200  12.773 -0.0268  0.0440 -0.9526
  649TMC3    C2 9657   3.397   1.100  12.778 -0.2527 -0.2659  0.4137
  649TMC3    C3 9658   3.385   1.009  12.876  0.2735 -0.8171  0.2049
  649TMC3    C4 9659   3.194   1.199  12.860  0.8410 -0.2078 -0.7214
  649TMC3    C5 9660   3.181   1.094  12.950  0.0568 -0.5550 -0.8833
  649TMC3    C6 9661   3.282   1.005  12.963 -0.1964  0.3196 -0.2252
  649TMC3     C 9662   3.335   1.331  12.719  0.5885 -0.2472 -0.3025
  649TMC3     O 9663   3.273   1.435  12.749 -0.1750  0.2448 -0.0346
  649TMC3     H 9664   3.473   1.088  12.701  0.5357  1.2798  0.9508
  649TMC3    H1 9665   3.122   1.279  12.870 -1.5801 -2.0376 -3.5553
  649TMC3    H2 9666   3.287   0.935  13.046  4.6507 -0.3738 -1.1368
  649TMC3    C7 9667   3.061   1.075  13.023 -0.3469  0.6125 -0.1935
  649TMC3    C8 9668   3.490   0.915  12.908  0.2885  0.6438  0.0360
  649TMC3    O1 9669   2.992   1.173  13.042  0.7296  0.0029  0.2780
  649TMC3    O2 9670   3.454   0.809  12.954  0.0889  0.5565  0.7240
  650TMC3    C1 9671   1.035   2.874  12.774 -0.6034 -0.1356 -0.3575
  650TMC3    C2 9672   0.989   2.971  12.864 -1.1866 -0.2078 -0.2374
  650TMC3    C3 9673   0.898   3.056  12.822  0.2755 -0.2813  1.1172
  650TMC3    C4 9674   0.977   2.868  12.649 -0.0862 -0.2427  0.2156
  650TMC3    C5 9675   0.880   2.955  12.615 -0.0595  0.5940 -0.3057
  650TMC3    C6 9676   0.841   3.061  12.699  0.0518 -0.1438  0.6057
  650TMC3     C 9677   1.093   2.747  12.821  0.4956  0.3520 -0.1514
  650TMC3     O 9678   1.113   2.661  12.739 -0.2112  0.0674  0.9609
  650TMC3     H 9679   1.034   2.981  12.962  0.1130  1.9591 -1.0592
  650TMC3    H1 9680   1.017   2.797  12.578  1.9468  1.5557 -0.4579
  650TMC3    H2 9681   0.753   3.123  12.685  0.4587 -0.1147 -1.8877
  650TMC3    C7 9682   0.807   2.930  12.493  0.0934  0.0224  0.0362
  650TMC3    C8 9683   0.807   3.115  12.911  0.2687  0.0432 -0.8321
  650TMC3    O1 9684   0.789   2.812  12.456 -0.8387 -0.4123  0.2051
  650TMC3    O2 9685   0.788   3.236  12.898 -0.3046 -0.8383 -0.4273
  651MPD2     C 9686   4.495   0.196  11.161  0.2373  0.2053 -0.5107
  651MPD2    C1 9687   4.440   0.278  11.064  0.4409 -0.0917 -0.7537
  651MPD2    C2 9688   4.515   0.317  10.960  0.2079 -0.3115  0.2616
  651MPD2    C3 9689   4.650   0.287  10.949  0.6772  0.5921  0.3735
  651MPD2    C4 9690   4.705   0.205  11.053 -0.5516  0.5250  0.2982
  651MPD2    C5 9691   4.629   0.156  11.157  0.0120  0.2305 -0.4444
  651MPD2     H 9692   4.477   0.382  10.881 -2.3213  0.5566  2.1953
  651MPD2    H1 9693   0.073   0.178  11.041 -0.9060 -0.5816 -0.3589
  651MPD2    H2 9694   4.433   0.144  11.233 -1.1928  1.8193 -0.5657
  651MPD2    H3 9695   4.683   0.091  11.225 -1.9806 -0.4573  0.4616
  651MPD2     N 9696   4.728   0.342  10.842  0.1323 -0.6857 -0.4128
  651MPD2    H5 9697   4.690   0.356  10.749  0.1944  0.4855 -0.2559
  651MPD2    N1 9698   4.305   0.316  11.064 -0.0236 -0.1173 -0.2190
  651MPD2    H7 9699   4.270   0.358  10.979 -1.7610 -1.4969 -0.1700
  652TMC3    C1 9700   0.420   0.436  10.654  0.4987 -0.7734  0.1984
  652TMC3    C2 9701   0.333   0.359  10.730 -0.5505  1.2888  0.5218
  652TMC3    C3 9702   0.201   0.386  10.722  0.8038 -0.3004 -0.2096
  652TMC3    C4 9703   0.373   0.530  10.566 -0.3037 -0.1139 -0.3327
  652TMC3    C5 9704   0.237   0.563  10.567 -0.1129 -0.9283 -0.1436
  652TMC3    C6 9705   0.147   0.493  10.641 -0.5237  0.2321 -0.5919
  652TMC3     C 9706   0.560   0.412  10.689  0.1016 -0.0934  0.0422
  652TMC3     O 9707   0.574   0.344  10.791  0.0961 -0.5757  0.1609
  652TMC3     H 9708   0.361   0.278  10.797  0.5505  1.1797 -0.0711
  652TMC3    H1 9709   0.438   0.584  10.499 -1.5104 -0.1424 -1.5140
  652TMC3    H2 9710   0.045   0.528  10.647 -0.8260 -1.0082  1.6399
  652TMC3    C7 9711   0.178   0.639  10.459  0.5794  0.3242  0.4009
  652TMC3    C8 9712   0.132   0.358  10.849  1.2579  0.1890  0.7219
  652TMC3    O1 9713   0.071   0.592  10.428 -0.1285  0.7876 -0.0116
  652TMC3    O2 9714   0.215   0.346  10.940 -0.1389  0.1529  1.0091
  653MPD2     C 9715   2.140   0.542   0.000  0.1730  0.8635  0.7714
  653MPD2    C1 9716   2.235   0.594  17.660 -0.2992 -0.6614  0.0044
  653MPD2    C2 9717   2.268   0.521  17.541 -0.8152  0.2517  0.2397
  653MPD2    C3 9718   2.213   0.399  17.498  0.2442 -0.1092 -0.3784
  653MPD2    C4 9719   2.120   0.353  17.590  0.0043 -1.0181 -0.2125
  653MPD2    C5 9720   2.078   0.423  17.708 -0.3585 -0.1168  0.2010
  653MPD2     H 9721   2.337   0.562  17.468  1.5248 -0.5226  2.0158
  653MPD2    H1 9722   2.066   0.260  17.572  1.1079 -2.1516  2.3668
  653MPD2    H2 9723   2.109   0.592   0.091  2.0502 -1.6069  2.7595
  653MPD2    H3 9724   2.001   0.376   0.025 -1.8101  0.0188 -1.5418
  653MPD2     N 9725   2.221   0.350  17.368  0.0708  0.0771  0.1533
  653MPD2    H5 9726   2.260   0.415  17.301 -2.3258  1.0330 -0.3090
  653MPD2    N1 9727   2.297   0.712  17.685 -0.0847  0.3090 -0.1241
  653MPD2    H7 9728   2.367   0.742  17.618  1.7773  0.5538  1.9345
  654TMC3    C1 9729   2.145   0.223  17.181 -0.9438  0.8062  0.1719
  654TMC3    C2 9730   2.165   0.333  17.103  0.1101 -0.3055 -0.1475
  654TMC3    C3 9731   2.180   0.322  16.965 -0.4904 -0.8259  0.3356
  654TMC3    C4 9732   2.127   0.100  17.128  0.0004  0.0654 -0.0694
  654TMC3    C5 9733   2.142   0.089  16.991  0.8933 -0.2707 -0.3656
  654TMC3    C6 9734   2.170   0.195  16.911 -0.4018  0.0684  0.4400
  654TMC3     C 9735   2.141   0.239  17.326 -0.0150 -0.2018 -0.2970
  654TMC3     O 9736   2.101   0.144  17.391  0.3858 -0.1082  0.4493
  654TMC3     H 9737   2.154   0.435  17.141  1.9681 -1.1494  2.6281
  654TMC3    H1 9738   2.114   0.015  17.195  2.5222 -1.3551 -1.3622
  654TMC3    H2 9739   2.168   0.181  16.804 -2.5840 -0.5854  0.5702
  654TMC3    C7 9740   2.174   4.689  16.926 -0.1895 -0.5178 -0.0839
  654TMC3    C8 9741   2.157   0.445  16.889  0.7405 -0.1717  0.3637
  654TMC3    O1 9742   2.215   4.688  16.809 -0.2965 -0.4578  0.2668
  654TMC3    O2 9743   2.096   0.535  16.946  0.0985  0.1239  0.6207
  655MPD2     C 9744   3.940   0.512  15.963  0.4096 -0.4958 -0.1809
  655MPD2    C1 9745   3.871   0.610  15.889 -0.1243  0.4094 -0.2224
  655MPD2    C2 9746   3.836   0.595  15.757  0.4047  0.5130  1.3883
  655MPD2    C3 9747   3.870   0.484  15.694  0.2939  0.3294  0.3249
  655MPD2    C4 9748   3.931   0.381  15.759 -0.5167 -0.6325  0.4965
  655MPD2    C5 9749   3.960   0.395  15.894  0.7645 -0.6816  0.3728
  655MPD2     H 9750   3.776   0.673  15.713  1.9979  0.0729 -1.5561
  655MPD2    H1 9751   3.957   0.295  15.699 -1.9288 -0.9832  0.3768
  655MPD2    H2 9752   3.973   0.534  16.064 -3.1756  1.1828  0.6053
  655MPD2    H3 9753   4.012   0.317  15.949  2.5122  0.3756  0.2021
  655MPD2     N 9754   3.834   0.469  15.553 -0.1866  0.3957 -0.0306
  655MPD2    H5 9755   3.881   0.395  15.503  1.0803 -0.1918  2.0445
  655MPD2    N1 9756   3.849   0.739  15.949  0.1995 -0.0941 -0.0283
  655MPD2    H7 9757   3.803   0.801  15.882 -0.3729 -0.6057 -0.1032
  656TMC3    C1 9758   3.810   0.902  16.113  0.4395  0.1915 -0.2190
  656TMC3    C2 9759   3.741   0.913  16.232  0.4450 -0.1249 -0.2876
  656TMC3    C3 9760   3.654   1.019  16.248 -0.3684  0.3052 -0.3215
  656TMC3    C4 9761   3.784   0.989  16.015 -0.4536  0.0485 -0.5543
  656TMC3    C5 9762   3.685   1.081  16.025 -0.1726 -0.4603  0.2843
  656TMC3    C6 9763   3.615   1.094  16.142  0.0042  0.0527 -0.1829
  656TMC3     C 9764   3.880   0.782  16.077  0.3664  0.6389 -0.0728
  656TMC3     O 9765   3.930   0.729  16.176  0.0362  0.6536  0.1845
  656TMC3     H 9766   3.759   0.837  16.307  0.2270 -0.1867 -0.3003
  656TMC3    H1 9767   3.844   0.991  15.925 -0.0255 -0.3131 -0.2795
  656TMC3    H2 9768   3.549   1.177  16.164 -2.5161 -2.2753  1.0575
  656TMC3    C7 9769   3.636   1.153  15.904  0.0572  0.5423 -0.3493
  656TMC3    C8 9770   3.543   0.978  16.324 -0.4356  0.9677 -0.0056
  656TMC3    O1 9771   3.726   1.168  15.825  0.6466  0.1667  0.0030
  656TMC3    O2 9772   3.516   0.857  16.310 -1.3011  0.0538 -0.4053
  657TMC3    C1 9773   2.753   0.290  14.762  0.2905 -0.0525  0.3819
  657TMC3    C2 9774   2.751   0.323  14.891 -0.2556  0.8654 -0.4504
  657TMC3    C3 9775   2.683   0.436  14.933  0.0421 -0.2850  0.2882
  657TMC3    C4 9776   2.687   0.360  14.666  0.4778  0.7476 -0.1063
  657TMC3    C5 9777   2.619   0.472  14.712  0.1829  0.0848  0.6391
  657TMC3    C6 9778   2.617   0.517  14.843  0.0527 -0.2167 -0.5281
  657TMC3     C 9779   2.778   0.152  14.721 -0.1550  0.1657  0.8871
  657TMC3     O 9780   2.727   0.112  14.616 -0.7561 -0.1957 -0.0672
  657TMC3     H 9781   2.799   0.265  14.968  0.3049  2.1445  0.1553
  657TMC3    H1 9782   2.693   0.325  14.564 -2.1381  2.2585 -0.7693
  657TMC3    H2 9783   2.553   0.596  14.880 -0.1770 -1.3421  1.4916
  657TMC3    C7 9784   2.530   0.545  14.627 -0.5986  0.3676  0.3714
  657TMC3    C8 9785   2.685   0.476  15.073 -0.4343 -0.0570 -0.0093
  657TMC3    O1 9786   2.462   0.640  14.670 -0.0591  0.1698 -0.1881
  657TMC3    O2 9787   2.654   0.594  15.094 -0.3919  0.0177  0.1060
  658MPD2     C 9788   4.280   0.334  15.107 -0.2812 -0.1790  0.6482
  658MPD2    C1 9789   4.161   0.367  15.051 -0.4115 -0.2796 -0.4697
  658MPD2    C2 9790   4.159   0.385  14.912  0.1656 -0.2295 -0.0032
  658MPD2    C3 9791   4.277   0.374  14.832 -0.0088 -0.2533 -0.1560
  658MPD2    C4 9792   4.392   0.333  14.890  0.0845  0.1822 -0.2155
  658MPD2    C5 9793   4.391   0.318  15.022 -0.0350  0.3657 -0.6248
  658MPD2     H 9794   4.072   0.424  14.861  0.2205 -2.2580 -1.6233
  658MPD2    H1 9795   4.482   0.320  14.832 -1.5633 -0.5075 -2.6138
  658MPD2    H2 9796   4.284   0.322  15.215 -0.8710  0.3294  0.7302
  658MPD2    H3 9797   4.481   0.285  15.073 -1.0069 -0.0673  0.8177
  658MPD2     N 9798   4.251   0.398  14.699  0.1121  0.0482 -0.1826
  658MPD2    H5 9799   4.162   0.435  14.668  0.0039 -0.2414 -0.2202
  658MPD2    N1 9800   4.041   0.386  15.120 -0.3834 -0.3474  0.1950
  658MPD2    H7 9801   4.050   0.387  15.221 -1.3080  1.6840  0.2678
  659TMC3    C1 9802   3.805   0.449  15.142  0.0405 -0.5462 -0.1057
  659TMC3    C2 9803   3.828   0.470  15.276  0.3413 -0.2008 -0.8712
  659TMC3    C3 9804   3.722   0.522  15.345  0.4891  0.5589 -0.4852
  659TMC3    C4 9805   3.682   0.477  15.084 -0.1763 -0.0711 -0.7496
  659TMC3    C5 9806   3.581   0.532  15.158  0.7609 -0.0392  0.0139
  659TMC3    C6 9807   3.600   0.562  15.291  0.2020 -0.1348 -0.0663
  659TMC3     C 9808   3.914   0.399  15.060  0.2876  0.0230 -0.3128
  659TMC3     O 9809   3.871   0.357  14.950 -0.0821  0.5474 -0.2808
  659TMC3     H 9810   3.924   0.466  15.326 -0.1084  1.1282  0.1016
  659TMC3    H1 9811   3.672   0.460  14.977  4.6832 -1.3091 -1.0361
  659TMC3    H2 9812   3.520   0.608  15.347 -0.1491 -1.3841  0.4548
  659TMC3    C7 9813   3.457   0.572  15.102  0.1636  0.2675  0.2859
  659TMC3    C8 9814   3.738   0.547  15.486 -0.3868  0.0030  0.0061
  659TMC3    O1 9815   3.387   0.650  15.165  0.5287 -0.3526  0.2183
  659TMC3    O2 9816   3.645   0.608  15.539 -0.0572 -0.0547 -0.0869
  660MPD2     C 9817   2.422   3.987  12.665  0.6947  0.2588 -0.1306
  660MPD2    C1 9818   2.318   4.071  12.677  0.1774  0.0111 -0.0200
  660MPD2    C2 9819   2.209   4.036  12.752 -0.6917 -0.4219 -0.6039
  660MPD2    C3 9820   2.211   3.922  12.828 -0.3152  0.5883  0.1136
  660MPD2    C4 9821   2.317   3.835  12.813 -0.5713  0.2777  0.5349
  660MPD2    C5 9822   2.427   3.871  12.738  0.5800  0.2168 -0.4244
  660MPD2     H 9823   2.122   4.102  12.752  0.1550  0.7028 -0.2028
  660MPD2    H1 9824   2.335   3.746  12.873  2.7954 -0.0977 -1.0701
  660MPD2    H2 9825   2.499   4.006  12.590  1.6663  0.6978  0.9858
  660MPD2    H3 9826   2.512   3.804  12.725  0.3906 -0.4788  2.0141
  660MPD2     N 9827   2.106   3.878  12.921  1.4064  0.4506 -0.1395
  660MPD2    H5 9828   2.118   3.783  12.955  1.7432  0.7233  0.5126
  660MPD2    N1 9829   2.314   4.186  12.596 -0.4709  0.0921  0.1943
  660MPD2    H7 9830   2.398   4.183  12.538 -1.1464  1.4376 -0.8413
  661TMC3    C1 9831   2.217   4.343  12.452 -0.6719 -0.3186  0.1595
  661TMC3    C2 9832   2.340   4.374  12.392  0.8237  0.0188 -0.3397
  661TMC3    C3 9833   2.330   4.412  12.260 -0.3189  0.6074 -0.5189
  661TMC3    C4 9834   2.100   4.369  12.394 -0.0882 -0.1211 -0.0659
  661TMC3    C5 9835   2.091   4.397  12.264 -0.4822 -0.7381  0.8012
  661TMC3    C6 9836   2.213   4.424  12.201 -0.3285 -0.1215 -0.5981
  661TMC3     C 9837   2.211   4.269  12.571  0.7400  0.2523  0.4605
  661TMC3     O 9838   2.109   4.283  12.636 -0.2322  0.1146  0.0243
  661TMC3     H 9839   2.436   4.357  12.439  1.1645  1.6804 -0.4446
  661TMC3    H1 9840   2.008   4.350  12.448  0.2967  2.9478  1.6466
  661TMC3    H2 9841   2.204   4.442  12.094 -0.1027 -0.0496 -0.6054
  661TMC3    C7 9842   2.013   4.300  12.188  0.4946  0.3525 -0.5417
  661TMC3    C8 9843   2.451   4.397  12.179 -0.0353  0.3195 -0.0436
  661TMC3    O1 9844   2.065   4.239  12.096 -0.0282  0.0805  0.1520
  661TMC3    O2 9845   2.545   4.332  12.222 -0.2100  0.4321  0.1954
  662MPD2     C 9846   2.263   3.623  17.694 -0.1012  0.4905 -0.0998
  662MPD2    C1 9847   2.185   3.588  17.583 -0.5087  0.2906  0.4228
  662MPD2    C2 9848   2.108   3.683  17.515 -1.0254 -0.0889 -0.3803
  662MPD2    C3 9849   2.105   3.814  17.567  0.5090  0.1280  0.6649
  662MPD2    C4 9850   2.183   3.846  17.674 -0.4884  0.6650  0.7442
  662MPD2    C5 9851   2.250   3.750   0.003  0.1041  0.4953  0.4167
  662MPD2     H 9852   2.057   3.658  17.423 -1.1582  2.5661 -1.0457
  662MPD2    H1 9853   2.172   3.947  17.711  0.4256  0.4196  1.6529
  662MPD2    H2 9854   2.313   3.547   0.009 -0.4737 -0.1507 -0.6067
  662MPD2    H3 9855   2.295   3.771   0.099 -0.7833 -1.2351  1.2116
  662MPD2     N 9856   2.025   3.917  17.505  0.2124 -0.0308 -0.0304
  662MPD2    H5 9857   2.017   4.003  17.559 -1.5764  0.0066 -0.3621
  662MPD2    N1 9858   2.184   3.453  17.541  0.1006  0.2780 -0.0443
  662MPD2    H7 9859   2.118   3.440  17.465  0.6911  1.4964 -0.7692
  663TMC3    C1 9860   2.191   3.225  17.540  0.0271 -0.1239 -0.9464
  663TMC3    C2 9861   2.117   3.242  17.426 -0.0283 -0.3921 -0.0749
  663TMC3    C3 9862   1.993   3.173  17.423 -0.4872 -0.3578  0.4245
  663TMC3    C4 9863   2.162   3.130  17.635 -0.3375 -0.7483  0.2886
  663TMC3    C5 9864   2.057   3.053  17.617  0.3341  0.1577  0.5524
  663TMC3    C6 9865   1.963   3.074  17.518 -0.5318 -0.1179 -0.7139
  663TMC3     C 9866   2.245   3.346  17.596 -0.5389 -0.1535 -0.8017
  663TMC3     O 9867   2.319   3.331  17.687  0.2077 -0.3109 -0.0210
  663TMC3     H 9868   2.135   3.312  17.346 -0.8118  3.3976  3.0476
  663TMC3    H1 9869   2.232   3.127  17.718 -1.0559 -0.4730  0.9058
  663TMC3    H2 9870   1.869   3.021  17.512 -1.3020  1.3220 -1.4061
  663TMC3    C7 9871   2.029   2.967  17.733 -0.0030 -0.0113 -0.1502
  663TMC3    C8 9872   1.897   3.284  17.428  0.2935  0.8383  0.2512
  663TMC3    O1 9873   2.083   2.990   0.097 -0.3533  0.0193 -0.0425
  663TMC3    O2 9874   1.898   3.371  17.339 -0.2341 -0.4320  0.2672
  664MPD2     C 9875   0.112   1.676  17.421 -0.2743  0.3686  0.0386
  664MPD2    C1 9876   0.141   1.790  17.499 -0.3347 -0.2289  0.2303
  664MPD2    C2 9877   0.123   1.782  17.634 -0.8979 -0.1316 -0.0285
  664MPD2    C3 9878   0.078   1.664  17.698  0.2197 -0.3005 -1.0547
  664MPD2    C4 9879   0.055   1.553  17.620 -0.2722  0.1385  0.0952
  664MPD2    C5 9880   0.069   1.566  17.483 -0.4808  0.5492 -0.0172
  664MPD2     H 9881   0.141   1.873  17.689 -0.0741  0.4699 -1.2817
  664MPD2    H1 9882   0.023   1.457  17.658  1.7280 -1.9559 -3.5028
  664MPD2    H2 9883   0.116   1.672  17.313  1.3337  1.6169  0.0428
  664MPD2    H3 9884   0.042   1.479  17.424 -0.4945  0.6911 -0.2209
  664MPD2     N 9885   0.073   1.658   0.092 -1.2159  0.6829  0.7879
  664MPD2    H5 9886   0.108   1.743   0.134 -2.6858  0.9733  1.4034
  664MPD2    N1 9887   0.175   1.911  17.444 -0.7967 -0.5127  0.2447
  664MPD2    H7 9888   0.178   1.987  17.510  0.1588 -0.3179 -0.0210
  665TMC3    C1 9889   4.734   1.617   0.313  0.7193 -0.0539  0.0451
  665TMC3    C2 9890   0.004   1.521   0.417  0.4687  0.3420 -0.3543
  665TMC3    C3 9891   0.025   1.567   0.549  0.0763  0.6808  0.4276
  665TMC3    C4 9892   0.011   1.751   0.338  0.1882  0.5977 -0.0665
  665TMC3    C5 9893   0.045   1.794   0.464 -0.0554  0.1327  0.0969
  665TMC3    C6 9894   0.056   1.702   0.574 -0.4980 -0.8626  0.4523
  665TMC3     C 9895   0.013   1.568   0.174  0.1677  0.5941 -0.2055
  665TMC3     O 9896   0.012   1.446   0.155  1.0058  0.2307  0.2436
  665TMC3     H 9897   4.711   1.417   0.403  1.0444 -0.3116  3.1438
  665TMC3    H1 9898   4.735   1.821   0.257  1.1389  0.0312 -0.6957
  665TMC3    H2 9899   0.074   1.728   0.677  0.4271 -0.1052  0.0995
  665TMC3    C7 9900   0.039   1.933   0.484  0.2296  0.4492  0.3301
  665TMC3    C8 9901   4.721   1.479   0.665 -0.3797  0.3856 -0.1644
  665TMC3    O1 9902   0.007   1.995   0.386 -0.5982  0.3695 -0.4732
  665TMC3    O2 9903   0.004   1.359   0.651 -0.1454  0.5713 -0.0109
  666TMC3    C1 9904   0.094   2.380   9.788 -0.3458 -0.0074 -0.0363
  666TMC3    C2 9905   0.175   2.269   9.792 -0.7040 -0.1502  0.1471
  666TMC3    C3 9906   0.301   2.276   9.842 -0.2355 -0.3842  0.7002
  666TMC3    C4 9907   0.132   2.502   9.832 -0.9447  0.4460  0.2443
  666TMC3    C5 9908   0.251   2.498   9.904  0.1101  0.0272 -0.3625
  666TMC3    C6 9909   0.328   2.386   9.913 -0.5234  0.2405 -0.4005
  666TMC3     C 9910   4.685   2.377   9.788 -0.3244 -0.2301  0.0882
  666TMC3     O 9911   4.626   2.485   9.767  0.4042 -0.0735  0.5305
  666TMC3     H 9912   0.149   2.184   9.730 -1.4515 -0.0916  0.3734
  666TMC3    H1 9913   0.072   2.592   9.833 -3.1662 -1.0382 -0.5767
  666TMC3    H2 9914   0.418   2.395   9.972 -1.1132  1.8826  0.2538
  666TMC3    C7 9915   0.255   2.590  10.016  0.3723 -0.4142  0.4053
  666TMC3    C8 9916   0.377   2.157   9.840 -0.3340  0.4903 -0.5156
  666TMC3    O1 9917   0.148   2.651  10.035  0.0615 -0.1862  0.1144
  666TMC3    O2 9918   0.316   2.048   9.831  0.1522 -0.4822 -0.5795
  667MPD2     C 9919   0.985   2.201  14.313 -0.0969  0.9417  0.3733
  667MPD2    C1 9920   0.993   2.178  14.450  0.0634 -0.3902 -0.5233
  667MPD2    C2 9921   0.918   2.079  14.502  0.4114  0.1624 -0.1726
  667MPD2    C3 9922   0.840   2.000  14.418  0.5620  0.8419 -0.6999
  667MPD2    C4 9923   0.825   2.024  14.288 -0.9836 -0.1752  0.4296
  667MPD2    C5 9924   0.894   2.130  14.238 -0.0163  0.7969 -0.3926
  667MPD2     H 9925   0.925   2.062  14.609  0.6502  0.0767 -0.2014
  667MPD2    H1 9926   0.764   1.955  14.231 -0.6059  0.4194 -0.6842
  667MPD2    H2 9927   1.049   2.270  14.259  0.1956 -0.5597 -1.1973
  667MPD2    H3 9928   0.888   2.162  14.135  0.6665 -2.7125 -1.5099
  667MPD2     N 9929   0.770   1.884  14.464 -0.2611 -0.1059  0.3850
  667MPD2    H5 9930   0.718   1.833  14.393  1.5615 -1.5776  0.1321
  667MPD2    N1 9931   1.071   2.250  14.543 -0.3624  0.5632  0.3849
  667MPD2    H7 9932   1.053   2.235  14.641 -2.3139  2.9704  0.3846
  668TMC3    C1 9933   1.209   2.435  14.612 -0.0350 -0.3450  0.3772
  668TMC3    C2 9934   1.299   2.534  14.585  0.1318  0.1723 -0.3481
  668TMC3    C3 9935   1.358   2.600  14.690 -0.1174 -0.2281 -0.4196
  668TMC3    C4 9936   1.171   2.406  14.743 -0.9123 -0.0964  1.0012
  668TMC3    C5 9937   1.226   2.483  14.847 -0.3970 -0.2153  0.4102
  668TMC3    C6 9938   1.319   2.578  14.817  1.0448  0.5024  0.0062
  668TMC3     C 9939   1.158   2.352  14.504 -0.4178  0.0425 -0.5636
  668TMC3     O 9940   1.211   2.363  14.394 -0.7155  0.5089  0.3131
  668TMC3     H 9941   1.329   2.564  14.486  1.0670  1.0541  0.2021
  668TMC3    H1 9942   1.099   2.328  14.762 -0.4530 -0.5824  0.7424
  668TMC3    H2 9943   1.373   2.630  14.896  3.7694 -1.9743 -0.2295
  668TMC3    C7 9944   1.213   2.427  14.976 -0.7129  0.4518  0.3223
  668TMC3    C8 9945   1.487   2.651  14.672 -0.2831  0.8664  0.5306
  668TMC3    O1 9946   1.299   2.450  15.061  0.1435 -0.6337 -0.0211
  668TMC3    O2 9947   1.523   2.714  14.768  0.0855  0.4089  0.2774
  669TMC3    C1 9948   4.439   1.915  14.829 -0.2019  0.3612  0.6218
  669TMC3    C2 9949   4.333   1.852  14.767  0.3062  0.6511 -0.0256
  669TMC3    C3 9950   4.312   1.877  14.631  0.1224  0.0840  0.1098
  669TMC3    C4 9951   4.521   1.999  14.756 -0.7127 -0.5519  0.3335
  669TMC3    C5 9952   4.493   2.030  14.625 -0.4556 -0.2930 -0.3309
  669TMC3    C6 9953   4.390   1.961  14.559  0.9844  0.7511 -0.8888
  669TMC3     C 9954   4.505   1.833  14.932  0.0922  0.0531  0.3680
  669TMC3     O 9955   4.628   1.815  14.921  0.0212  0.2840  0.5470
  669TMC3     H 9956   4.279   1.776  14.822  1.6299  0.0595  0.4424
  669TMC3    H1 9957   4.602   2.047  14.809 -0.6038 -1.5601  1.0611
  669TMC3    H2 9958   4.370   1.965  14.453  0.8312  0.1936 -0.8804
  669TMC3    C7 9959   4.597   2.112  14.551 -0.0757  0.2529 -0.4201
  669TMC3    C8 9960   4.197   1.817  14.566  0.3531  0.6398 -0.0939
  669TMC3    O1 9961   4.690   2.150  14.617  0.4770 -0.1489  0.1156
  669TMC3    O2 9962   4.208   1.781  14.450 -0.0035  0.0920  0.2069
  670MPD2     C 9963   2.289   4.687  13.572  0.2126  0.0018  0.0031
  670MPD2    C1 9964   2.413   4.651  13.630 -0.4582  0.2407 -0.3679
  670MPD2    C2 9965   2.412   4.600  13.759 -0.1058 -0.4361  0.3420
  670MPD2    C3 9966   2.296   4.580  13.827  0.1286 -0.8876  0.5459
  670MPD2    C4 9967   2.176   4.609  13.770  0.0307  0.0620 -0.3863
  670MPD2    C5 9968   2.169   4.668  13.642  0.2797 -0.7331  0.4792
  670MPD2     H 9969   2.512   4.584  13.798  0.5594  0.5030 -0.9606
  670MPD2    H1 9970   2.083   4.591  13.821  0.6587 -2.4709 -0.1777
  670MPD2    H2 9971   2.278   4.724  13.471  0.2523 -0.8378 -0.3067
  670MPD2    H3 9972   2.079   4.680  13.583  2.5582  2.6051 -2.2964
  670MPD2     N 9973   2.296   4.517  13.955 -0.3611 -0.8343  0.4229
  670MPD2    H5 9974   2.209   4.468  13.977 -2.0850  3.1571  2.5940
  670MPD2    N1 9975   2.543   4.658  13.570  0.4382 -0.2741  0.4599
  670MPD2    H7 9976   2.629   4.638  13.620  2.6136  2.6460 -2.0810
  671TMC3    C1 9977   2.374   4.423  14.146  0.2468 -0.0795  0.3208
  671TMC3    C2 9978   2.484   4.357  14.197  0.3820 -0.7153 -0.8490
  671TMC3    C3 9979   2.462   4.245  14.264 -0.4166  0.1816 -0.2978
  671TMC3    C4 9980   2.248   4.397  14.178  0.0038  0.3198 -0.3086
  671TMC3    C5 9981   2.228   4.281  14.247 -1.4478 -0.2895 -0.0212
  671TMC3    C6 9982   2.332   4.214  14.303  0.0680  0.4230  0.9623
  671TMC3     C 9983   2.402   4.508  14.037 -0.4483  0.1523 -0.2121
  671TMC3     O 9984   2.515   4.558  14.025 -0.1840  0.2750  0.6386
  671TMC3     H 9985   2.580   4.381  14.153 -0.0078  0.3579 -1.1039
  671TMC3    H1 9986   2.162   4.460  14.160  0.3389  0.9594  0.3331
  671TMC3    H2 9987   2.310   4.124  14.357 -0.8118 -0.5388 -0.9890
  671TMC3    C7 9988   2.108   4.200  14.229  0.6454 -0.1086 -0.1318
  671TMC3    C8 9989   2.572   4.151  14.292 -0.7858 -0.3742  0.0778
  671TMC3    O1 9990   2.127   4.080  14.225 -1.0301  0.5908 -0.2239
  671TMC3    O2 9991   2.540   4.061  14.369 -0.2815 -0.5710  0.0182
  672MPD2     C 9992   2.104   0.120   1.021  0.0379  0.1825 -0.7701
  672MPD2    C1 9993   2.223   0.068   0.973 -0.4959 -0.1626 -0.7362
  672MPD2    C2 9994   2.343   0.114   1.022 -0.1207  0.2210 -0.4519
  672MPD2    C3 9995   2.342   0.222   1.102 -0.2423 -0.5735  0.5698
  672MPD2    C4 9996   2.226   0.280   1.142  0.3170  0.2136 -0.0552
  672MPD2    C5 9997   2.107   0.223   1.108 -0.0897 -0.1400 -0.1679
  672MPD2     H 9998   2.432   0.073   0.974 -0.0485  1.1655 -1.1410
  672MPD2    H1 9999   2.222   0.367   1.207  2.8566  0.6394 -0.4983
  672MPD2    H210000   2.010   0.081   0.984 -0.3188 -0.9819  1.3475
  672MPD2    H310001   2.016   0.270   1.141 -0.0720 -0.2092 -0.0193
  672MPD2     N10002   2.457   0.281   1.154 -0.4365  0.4381 -0.7413
  672MPD2    H510003   2.459   0.360   1.218 -0.0615  2.0208 -2.6961
  672MPD2    N110004   2.236   4.709   0.869 -0.3792 -0.1455  0.3480
  672MPD2    H710005   2.331   4.685   0.842 -0.2209 -0.7158  1.3836
  673TMC3    C110006   2.156   4.590   0.668  0.1833  0.2205  1.0158
  673TMC3    C210007   2.285   4.554   0.627  0.1351 -0.6618 -0.4427
  673TMC3    C310008   2.307   4.510   0.499  0.1247 -0.4225 -0.0572
  673TMC3    C410009   2.047   4.584   0.580 -0.0806  0.3880 -0.2056
  673TMC3    C510010   2.079   4.544   0.452  1.0185 -0.2609  0.2589
  673TMC3    C610011   2.202   4.501   0.412 -0.4172  0.4092  1.2394
  673TMC3     C10012   2.126   4.660   0.798  0.4149 -0.4120  0.2250
  673TMC3     O10013   2.006   4.672   0.821 -0.1665  0.1511 -0.3624
  673TMC3     H10014   2.367   4.563   0.697  0.0787  2.2830 -0.7609
  673TMC3    H110015   1.947   4.619   0.603  1.0790  3.1822  0.5619
  673TMC3    H210016   2.214   4.460   0.312  0.7370  0.8254  1.2107
  673TMC3    C710017   1.983   4.574   0.348 -0.4857  0.5342 -0.6476
  673TMC3    C810018   2.418   4.431   0.451  0.1553  0.1327  0.2927
  673TMC3    O110019   1.963   4.494   0.255 -0.1919 -0.0728 -0.2548
  673TMC3    O210020   2.441   4.405   0.333  0.0535  0.6778  0.5295
  674MPD2     C10021   1.788   0.251  17.446  0.3149 -0.2102 -0.1500
  674MPD2    C110022   1.743   0.132  17.487 -0.3967 -0.7961  0.3285
  674MPD2    C210023   1.608   0.126  17.528 -0.4679 -0.2937  0.1257
  674MPD2    C310024   1.529   0.235  17.509  0.3424  0.4214 -0.5467
  674MPD2    C410025   1.568   0.352  17.456 -0.6001 -0.3621  0.3651
  674MPD2    C510026   1.704   0.363  17.429  0.0148 -0.1420  1.1989
  674MPD2     H10027   1.575   0.040  17.585 -3.4738 -0.0203 -1.1563
  674MPD2    H110028   1.500   0.432  17.430 -0.6202 -0.3286  0.5191
  674MPD2    H210029   1.885   0.261  17.398 -0.2859 -0.8537 -1.5033
  674MPD2    H310030   1.731   0.451  17.372  2.0502 -1.1978  0.5125
  674MPD2     N10031   1.401   0.207  17.563 -0.1191 -0.1973 -0.0305
  674MPD2    H510032   1.397   0.112  17.597 -0.2528 -0.7749 -1.7177
  674MPD2    N110033   1.836   0.031  17.498 -0.6646  0.2990 -0.2227
  674MPD2    H710034   1.933   0.046  17.470 -0.7074  0.0045 -0.5318
  675TMC3    C110035   1.936   4.559  17.573  0.2414  0.0379  0.4570
  675TMC3    C210036   1.908   4.449  17.646  0.3064  0.4138  0.0423
  675TMC3    C310037   2.011   4.350  17.646 -1.0585 -0.2232  0.2869
  675TMC3    C410038   2.052   4.571  17.495  0.4038  0.3451 -0.2980
  675TMC3    C510039   2.136   4.464  17.497  0.9156 -0.0087  0.3954
  675TMC3    C610040   2.117   4.355  17.566  0.7804  0.1427 -0.6846
  675TMC3     C10041   1.821   4.647  17.561  0.4629  0.2410  0.2651
  675TMC3     O10042   1.720   4.601  17.609 -0.1157 -0.5695 -0.7430
  675TMC3     H10043   1.812   4.430  17.693  0.9936 -1.2636  0.7541
  675TMC3    H110044   2.063   4.653  17.425  0.5923  0.5314 -0.0486
  675TMC3    H210045   2.185   4.271  17.557  1.7763  1.0495 -1.6581
  675TMC3    C710046   2.245   4.466  17.406  0.3285 -0.9874 -0.0285
  675TMC3    C810047   1.999   4.234  17.720  0.7522  0.6665  0.7252
  675TMC3    O110048   2.295   4.363  17.358  0.1862  0.4829  1.1108
  675TMC3    O210049   2.029   4.131  17.665  0.2678 -0.4222 -0.5903
  676MPD2     C10050   1.026   2.990  10.936  0.2049  0.0434 -0.3535
  676MPD2    C110051   0.925   2.926  11.005  1.2591 -0.8540  0.0502
  676MPD2    C210052   0.863   2.817  10.943  0.1406 -0.5469  0.6782
  676MPD2    C310053   0.913   2.770  10.829 -0.2800 -0.1149  0.0623
  676MPD2    C410054   1.014   2.835  10.763  0.4151  0.4436  0.0675
  676MPD2    C510055   1.076   2.947  10.815 -0.4904  0.2866 -0.6180
  676MPD2     H10056   0.783   2.771  10.999 -0.3840 -0.2160  0.2061
  676MPD2    H110057   1.041   2.797  10.666 -0.1886 -1.7993  0.7722
  676MPD2    H210058   1.090   3.059  10.991 -1.5399  1.7105 -0.4162
  676MPD2    H310059   1.161   2.993  10.766  1.9854 -2.3733  1.2217
  676MPD2     N10060   0.879   2.643  10.777 -0.1022  0.2297 -0.2942
  676MPD2    H510061   0.918   2.613  10.688  0.9711  2.9067 -0.7268
  676MPD2    N110062   0.895   2.942  11.144  0.7950 -0.3594 -0.7976
  676MPD2    H710063   0.815   2.888  11.174  1.1298 -0.6321 -0.4106
  677TMC3    C110064   0.895   3.016  11.357 -0.6204 -0.3000  0.4475
  677TMC3    C210065   0.850   2.891  11.396  0.1796  0.6720 -0.7161
  677TMC3    C310066   0.788   2.880  11.519  0.6744 -0.0857  0.2609
  677TMC3    C410067   0.893   3.125  11.442  0.1808 -0.7871 -0.5647
  677TMC3    C510068   0.801   3.115  11.544 -0.1750  0.1577  0.3320
  677TMC3    C610069   0.738   2.999  11.578  1.3845 -0.1425  0.4146
  677TMC3     C10070   0.952   3.035  11.226 -0.1085  0.5061  0.0767
  677TMC3     O10071   1.026   3.129  11.203 -0.3121 -0.0106  0.1069
  677TMC3     H10072   0.883   2.804  11.340  2.6967  0.4077  1.1640
  677TMC3    H110073   0.923   3.225  11.410  3.2091 -1.7686 -0.7414
  677TMC3    H210074   0.661   2.993  11.654  0.3704  0.7306 -0.5433
  677TMC3    C710075   0.797   3.232  11.639  0.4693 -0.1095  0.7796
  677TMC3    C810076   0.769   2.763  11.590 -0.1751 -0.4900  0.2811
  677TMC3    O110077   0.700   3.240  11.717 -0.2361  0.4279 -0.3436
  677TMC3    O210078   0.742   2.768  11.708  0.4096  0.1739  0.1191
  678MPD2     C10079   1.051   3.088   1.505  0.2425 -0.3016 -0.6047
  678MPD2    C110080   1.124   2.992   1.433 -0.4518 -0.2525  0.6540
  678MPD2    C210081   1.051   2.901   1.357  0.1404 -0.0383  0.1765
  678MPD2    C310082   0.911   2.897   1.342  0.1371  0.5974  0.4802
  678MPD2    C410083   0.840   2.994   1.416  0.3164  0.5909  0.3339
  678MPD2    C510084   0.916   3.089   1.491 -0.2031 -0.3287  0.4431
  678MPD2     H10085   1.099   2.817   1.308 -0.2667  0.3159 -0.8453
  678MPD2    H110086   0.732   3.001   1.418  0.3776  1.9272 -0.5539
  678MPD2    H210087   1.097   3.163   1.567  2.2048 -2.5688  0.6674
  678MPD2    H310088   0.864   3.164   1.549 -0.3236 -0.5057  0.5644
  678MPD2     N10089   0.849   2.795   1.260  0.2633 -0.2608  0.6140
  678MPD2    H510090   0.916   2.735   1.213 -0.7385 -0.5410 -0.4443
  678MPD2    N110091   1.261   2.981   1.421  0.3561  0.2980 -0.1365
  678MPD2    H710092   1.297   2.905   1.363  0.6421  1.4585 -1.4625
  679TMC3    C110093   1.619   2.864   1.396  0.3215 -0.4063 -0.2063
  679TMC3    C210094   1.507   2.906   1.456  0.3841  0.5208 -0.3407
  679TMC3    C310095   1.477   3.042   1.440 -0.7243  0.3301  0.1618
  679TMC3    C410096   1.702   2.944   1.320  0.6322  0.2200  0.2541
  679TMC3    C510097   1.669   3.078   1.313 -0.4478  0.0554 -0.4624
  679TMC3    C610098   1.558   3.126   1.373 -0.4098  0.1410 -1.2406
  679TMC3     C10099   1.642   2.722   1.395  0.4774 -0.1183  0.1748
  679TMC3     O10100   1.705   2.681   1.301 -0.3405 -0.1195 -0.0106
  679TMC3     H10101   1.434   2.841   1.502 -0.6270  2.0835  0.2611
  679TMC3    H110102   1.788   2.909   1.263 -0.0452 -0.8263 -0.1268
  679TMC3    H210103   1.531   3.231   1.366 -1.1560 -0.0390 -1.0742
  679TMC3    C710104   1.707   3.165   1.204  0.4399 -0.1632 -0.1295
  679TMC3    C810105   1.343   3.085   1.461 -0.1204 -0.1186 -0.4888
  679TMC3    O110106   1.635   3.261   1.181  0.7360 -0.8899 -0.1129
  679TMC3    O210107   1.311   3.193   1.506 -0.7461  0.4138  0.0370
  680MPD2     C10108   2.852   1.555  13.751  0.8002  0.0096 -0.1210
  680MPD2    C110109   2.744   1.509  13.826 -0.2979 -0.5352  0.0395
  680MPD2    C210110   2.720   1.573  13.955  0.1512  0.2081  0.0652
  680MPD2    C310111   2.798   1.671  14.008 -0.4385 -0.0970 -0.6237
  680MPD2    C410112   2.906   1.708  13.930  0.8697  0.2645 -0.2241
  680MPD2    C510113   2.939   1.648  13.806  0.0346 -0.1576 -0.6010
  680MPD2     H10114   2.620   1.566  13.997  0.2059 -0.8357  0.0149
  680MPD2    H110115   2.974   1.782  13.971  1.1669 -1.2262  1.9281
  680MPD2    H210116   2.882   1.528  13.650  1.8385  1.8916 -0.3182
  680MPD2    H310117   3.021   1.677  13.741 -2.0292  3.2139 -1.7070
  680MPD2     N10118   2.758   1.745  14.120 -0.5460  0.2406 -0.0578
  680MPD2    H510119   2.805   1.834  14.111 -0.7744  0.1323 -2.2643
  680MPD2    N110120   2.647   1.416  13.783 -0.0757  0.0618  0.5953
  680MPD2    H710121   2.563   1.390  13.833  0.7684 -3.0307  0.4074
  681TMC3    C110122   2.573   1.231  13.647 -0.2035 -0.1844  0.7813
  681TMC3    C210123   2.441   1.259  13.683 -0.3275  0.0851  0.1205
  681TMC3    C310124   2.350   1.172  13.628 -1.0558 -0.5201  0.6406
  681TMC3    C410125   2.607   1.134  13.553 -0.0658  0.5794 -0.5235
  681TMC3    C510126   2.510   1.060  13.495 -0.0225 -0.0371  0.4081
  681TMC3    C610127   2.382   1.071  13.541 -0.1482 -0.9981  0.3615
  681TMC3     C10128   2.678   1.320  13.689 -0.3805 -0.0302  0.3612
  681TMC3     O10129   2.779   1.308  13.623  0.3021  0.3325  0.2223
  681TMC3     H10130   2.409   1.348  13.736  2.0679 -0.0058  1.7587
  681TMC3    H110131   2.710   1.116  13.524 -0.2640  0.8646 -1.4080
  681TMC3    H210132   2.305   1.008  13.499  0.1818 -2.0596  1.3505
  681TMC3    C710133   2.534   0.955  13.396  0.3979  0.2479  0.3441
  681TMC3    C810134   2.214   1.180  13.678 -0.0115 -0.5097  0.3963
  681TMC3    O110135   2.464   0.856  13.390  0.2709 -0.1841  0.7090
  681TMC3    O210136   2.130   1.144  13.597 -0.4372 -0.4247 -0.3329
  682MPD2     C10137   0.231   3.166  11.257  0.1412 -0.5044  0.6034
  682MPD2    C110138   0.133   3.079  11.211  0.8072  0.0702 -0.3316
  682MPD2    C210139   0.036   3.039  11.295  0.6126 -0.0927 -0.5192
  682MPD2    C310140   0.027   3.093  11.424  0.3243  0.1607  0.0041
  682MPD2    C410141   0.125   3.180  11.470  1.2438  0.3047  0.3164
  682MPD2    C510142   0.224   3.215  11.387  0.2764  0.7834 -0.0754
  682MPD2     H10143   4.706   2.963  11.255 -0.6309  1.1280 -0.7710
  682MPD2    H110144   0.119   3.226  11.568  0.4213  0.8887 -0.0091
  682MPD2    H210145   0.316   3.190  11.195 -1.6396  0.3950 -1.4613
  682MPD2    H310146   0.301   3.282  11.423  0.1715 -0.2437  2.0895
  682MPD2     N10147   4.659   3.057  11.518  0.2547  0.3421  0.0460
  682MPD2    H510148   4.653   3.108  11.606  1.6847 -1.5567  1.2313
  682MPD2    N110149   0.145   3.014  11.086  0.2379  0.2575  0.1824
  682MPD2    H710150   0.068   2.955  11.054  0.5847 -1.4213  2.4671
  683TMC3    C110151   4.451   2.905  11.846  0.8388  0.5909  0.0124
  683TMC3    C210152   4.348   2.825  11.825  0.2496  0.2845 -0.0745
  683TMC3    C310153   4.315   2.792  11.701 -0.2107  0.2176  0.0251
  683TMC3    C410154   4.510   2.968  11.738 -0.2520 -0.1507 -0.4114
  683TMC3    C510155   4.469   2.937  11.612 -0.0709 -0.6954 -0.3944
  683TMC3    C610156   4.373   2.850  11.591  0.3857  0.3962 -0.6762
  683TMC3     C10157   4.471   2.966  11.976 -0.1424  0.2328  0.5718
  683TMC3     O10158   4.432   2.894  12.070  0.5492 -0.4537 -0.2307
  683TMC3     H10159   4.299   2.790  11.914  0.3322 -2.5948 -1.1543
  683TMC3    H110160   4.598   3.028  11.756 -0.8938  0.1534  1.7337
  683TMC3    H210161   4.342   2.827  11.489 -0.8531  0.0767 -0.2296
  683TMC3    C710162   4.556   2.965  11.499  0.4658  0.2738 -0.1582
  683TMC3    C810163   4.180   2.743  11.691 -0.3497  0.7770  0.6473
  683TMC3    O110164   4.538   2.898  11.399 -0.2181  0.0963  0.3305
  683TMC3    O210165   4.095   2.792  11.618  0.2819  0.3090 -0.1886
  684MPD2     C10166   2.276   2.427  16.545 -0.3309 -1.2694 -0.5591
  684MPD2    C110167   2.266   2.486  16.425 -0.6841  0.3011  0.2665
  684MPD2    C210168   2.243   2.620  16.415 -0.2149 -0.7285 -0.4492
  684MPD2    C310169   2.238   2.700  16.527  0.4636  0.1864 -0.0825
  684MPD2    C410170   2.261   2.647  16.648 -0.3479  0.5770  0.0409
  684MPD2    C510171   2.276   2.510  16.653 -0.2133  0.1393  0.3334
  684MPD2     H10172   2.229   2.669  16.319 -1.6946 -0.3869 -0.0595
  684MPD2    H110173   2.268   2.716  16.731  0.0938 -1.8910  2.0618
  684MPD2    H210174   2.291   2.321  16.558 -0.2868 -1.0498  1.2688
  684MPD2    H310175   2.304   2.471  16.750 -1.8137 -0.4072  0.5760
  684MPD2     N10176   2.228   2.841  16.518  0.4376 -0.6638  0.4833
  684MPD2    H510177   2.253   2.893  16.602  0.0822  0.9033 -0.3861
  684MPD2    N110178   2.298   2.418  16.304  0.2463  0.0470  0.4087
  684MPD2    H710179   2.269   2.459  16.216  1.0562  0.8296  0.5076
  685TMC3    C110180   2.401   2.279  16.156 -0.1216 -0.2968  0.5136
  685TMC3    C210181   2.306   2.316  16.061 -0.3900  0.1729 -0.3282
  685TMC3    C310182   2.341   2.401  15.959 -0.0282 -0.2602 -0.3638
  685TMC3    C410183   2.533   2.311  16.136 -0.6443 -0.1507 -0.1489
  685TMC3    C510184   2.562   2.392  16.031 -0.1711 -0.7913 -0.6004
  685TMC3    C610185   2.473   2.445  15.949  0.1024 -0.1090 -0.0404
  685TMC3     C10186   2.369   2.298  16.292  0.6613 -0.0246 -0.1227
  685TMC3     O10187   2.417   2.230  16.377 -0.1281 -0.4962 -0.2382
  685TMC3     H10188   2.201   2.306  16.087  0.0947  1.5474  2.2319
  685TMC3    H110189   2.601   2.272  16.211  1.7344  1.8371 -1.2716
  685TMC3    H210190   2.488   2.523  15.875 -0.7787 -0.6884 -0.8215
  685TMC3    C710191   2.695   2.434  16.008 -0.4928  1.1389  0.0359
  685TMC3    C810192   2.242   2.472  15.875  0.1368  0.2386 -0.0954
  685TMC3    O110193   2.741   2.468  15.899  0.0654 -0.1110 -0.1257
  685TMC3    O210194   2.286   2.546  15.789 -0.4627 -0.1300  0.1876
  686MPD2     C10195   3.545   2.519  15.582 -0.2307 -0.2227 -0.3886
  686MPD2    C110196   3.602   2.424  15.663 -0.0580  0.3547 -0.1842
  686MPD2    C210197   3.731   2.377  15.644  0.0895 -0.4421 -0.1758
  686MPD2    C310198   3.791   2.406  15.522 -0.0970  0.2293 -0.3198
  686MPD2    C410199   3.744   2.510  15.448  0.4524 -0.7732 -0.1348
  686MPD2    C510200   3.620   2.565  15.476 -0.0366 -0.2680 -0.3888
  686MPD2     H10201   3.780   2.315  15.718  0.7081  1.1007  0.7014
  686MPD2    H110202   3.796   2.545  15.360  0.5930 -1.0056 -0.1442
  686MPD2    H210203   3.444   2.558  15.592 -0.5002 -0.4368 -2.2052
  686MPD2    H310204   3.578   2.643  15.414  0.2073 -0.2754 -0.5650
  686MPD2     N10205   3.924   2.365  15.487 -0.0684  0.1842 -0.0778
  686MPD2    H510206   3.970   2.431  15.425  0.5108  0.2620  0.4328
  686MPD2    N110207   3.520   2.379  15.765 -0.2145  0.0482  0.0305
  686MPD2    H710208   3.429   2.423  15.755 -0.2820 -0.0600  0.1671
  687TMC3    C110209   3.928   2.147  15.593 -0.5938  0.6458 -0.3774
  687TMC3    C210210   3.832   2.090  15.510  0.1973  0.3273 -0.0789
  687TMC3    C310211   3.757   1.991  15.569 -0.4733 -0.1344 -0.0290
  687TMC3    C410212   3.952   2.118  15.719  0.4913 -0.1588  0.2197
  687TMC3    C510213   3.876   2.019  15.769  0.1812 -0.9221 -0.3290
  687TMC3    C610214   3.803   1.940  15.690  0.2159  0.3654 -0.2707
  687TMC3     C10215   3.999   2.266  15.546 -0.3077 -0.4443  0.0579
  687TMC3     O10216   4.116   2.236  15.523 -0.1703  0.2572 -0.5639
  687TMC3     H10217   3.807   2.136  15.415  1.3144  0.6675 -0.2009
  687TMC3    H110218   4.027   2.177  15.770 -0.1790  0.2920  0.6734
  687TMC3    H210219   3.752   1.858  15.739 -1.0784  1.6279  0.5053
  687TMC3    C710220   3.901   1.973  15.908 -0.0922 -0.2084 -0.2396
  687TMC3    C810221   3.613   1.998  15.564 -0.4937  0.3145  0.2786
  687TMC3    O110222   3.861   1.860  15.933  0.3268  0.6755 -0.5150
  687TMC3    O210223   3.551   1.939  15.650  0.0290 -0.1953  0.1310
  688MPD2     C10224   2.564   1.261  17.297 -0.2751  0.5276 -0.7156
  688MPD2    C110225   2.628   1.158  17.369  0.2448 -0.3508  0.0776
  688MPD2    C210226   2.745   1.111  17.318  0.6948  0.2099 -0.5283
  688MPD2    C310227   2.794   1.147  17.195 -0.4401  0.5153 -0.2775
  688MPD2    C410228   2.718   1.242  17.127  0.7924  0.5312 -0.9056
  688MPD2    C510229   2.607   1.301  17.175 -0.1059 -0.0418  0.1589
  688MPD2     H10230   2.800   1.040  17.379 -0.7376 -0.4361  0.0306
  688MPD2    H110231   2.755   1.287  17.035  1.0520  0.8640 -0.6393
  688MPD2    H210232   2.470   1.309  17.324 -0.5865 -0.4023 -0.1374
  688MPD2    H310233   2.566   1.383  17.116 -2.5563 -1.4812 -0.1398
  688MPD2     N10234   2.909   1.095  17.131  0.0503  0.7725  0.6699
  688MPD2    H510235   2.935   1.131  17.039 -1.1771  1.6097  0.6571
  688MPD2    N110236   2.573   1.111  17.489 -0.0275  0.3190 -0.7178
  688MPD2    H710237   2.612   1.024  17.524 -1.0139  0.8672  1.7833
  689TMC3    C110238   2.435   1.105  17.679 -0.3666  0.4679 -0.9392
  689TMC3    C210239   2.441   1.179   0.051 -0.2033 -0.0217 -1.0369
  689TMC3    C310240   2.404   1.123   0.167 -0.1228  0.1432  0.1994
  689TMC3    C410241   2.388   0.980  17.677 -0.2359  0.6987  0.1471
  689TMC3    C510242   2.354   0.916   0.051 -0.1398  0.0592  0.3626
  689TMC3    C610243   2.361   0.990   0.165 -0.2133 -0.3348  0.2041
  689TMC3     C10244   2.463   1.171  17.554  0.1176  0.0411 -0.3700
  689TMC3     O10245   2.414   1.285  17.547  0.0072 -0.5148  0.2673
  689TMC3     H10246   2.485   1.278   0.041 -1.1423  0.5801  0.7711
  689TMC3    H110247   2.382   0.926  17.583 -0.0296  0.1895  0.4333
  689TMC3    H210248   2.338   0.942   0.259  1.2518 -1.0147  0.2164
  689TMC3    C710249   2.272   0.795   0.054 -0.3469  0.1725 -0.0395
  689TMC3    C810250   2.401   1.194   0.297  0.0835 -0.1275  0.1354
  689TMC3    O110251   2.207   0.780   0.157 -0.5496  0.1387  0.0891
  689TMC3    O210252   2.379   1.129   0.398  0.3536 -0.1406  0.1080
  690MPD2     C10253   1.000   3.251  15.443 -0.4257 -0.5853  0.5592
  690MPD2    C110254   0.892   3.189  15.380  0.4994 -0.0125 -0.1657
  690MPD2    C210255   0.898   3.158  15.249  0.0354 -0.3033 -0.1101
  690MPD2    C310256   1.010   3.192  15.178 -0.0419  0.3917 -0.1675
  690MPD2    C410257   1.112   3.263  15.234  0.3021  0.0078  0.5808
  690MPD2    C510258   1.106   3.292  15.369 -0.5751 -0.3834 -0.1605
  690MPD2     H10259   0.821   3.099  15.199  0.0826 -0.0452 -0.4831
  690MPD2    H110260   1.202   3.298  15.184  1.8071 -2.0044  1.8799
  690MPD2    H210261   0.988   3.293  15.543  3.9895 -0.6271  1.0976
  690MPD2    H310262   1.192   3.339  15.415  0.2557  1.0356 -3.1369
  690MPD2     N10263   1.015   3.149  15.048 -1.3271 -0.4027  0.6615
  690MPD2    H510264   0.936   3.097  15.010 -0.6365 -0.6964 -0.3761
  690MPD2    N110265   0.768   3.160  15.453 -0.1316 -0.2891  0.2319
  690MPD2    H710266   0.689   3.127  15.398 -0.0357  0.1720 -0.1842
  691TMC3    C110267   0.629   3.100  15.631 -0.2355 -0.0649  0.1118
  691TMC3    C210268   0.520   3.145  15.570  0.0079  0.3958 -0.0855
  691TMC3    C310269   0.400   3.086  15.597  0.3043  0.1693  0.4694
  691TMC3    C410270   0.621   3.013  15.736 -0.4003  0.3987  0.4539
  691TMC3    C510271   0.498   2.956  15.761  0.6530 -0.7037 -0.3294
  691TMC3    C610272   0.388   2.989  15.695  0.6546  0.1615 -0.2273
  691TMC3     C10273   0.763   3.139  15.588  0.5901  0.5958 -0.6872
  691TMC3     O10274   0.850   3.139  15.674  0.1393  0.3303 -0.2374
  691TMC3     H10275   0.529   3.229  15.502 -1.4343  1.3059  0.8411
  691TMC3    H110276   0.703   2.990  15.804 -0.5275 -1.1260  0.0825
  691TMC3    H210277   0.305   2.919  15.691  0.2561  0.5084  2.1827
  691TMC3    C710278   0.486   2.854  15.863  1.0967 -0.2187  0.3110
  691TMC3    C810279   0.293   3.110  15.501 -0.1711  0.4739 -0.4238
  691TMC3    O110280   0.595   2.826  15.912 -0.4729  0.0501 -0.7246
  691TMC3    O210281   0.317   3.095  15.383  0.2833 -0.2601  0.3467
  692TMC3    C110282   1.723   3.979  15.874  0.9292  0.9456  0.3731
  692TMC3    C210283   1.840   4.044  15.919  1.1475 -0.1560 -0.2213
  692TMC3    C310284   1.958   3.975  15.910  0.4241 -0.3872 -0.5857
  692TMC3    C410285   1.724   3.866  15.794  0.2889  0.3178 -0.2951
  692TMC3    C510286   1.846   3.810  15.774 -0.0861 -0.2002 -0.1498
  692TMC3    C610287   1.956   3.873  15.822 -0.4290  0.2791 -0.3549
  692TMC3     C10288   1.605   4.074  15.861  0.4428 -0.3194 -0.2128
  692TMC3     O10289   1.491   4.032  15.862 -0.2312  0.4665  0.4499
  692TMC3     H10290   1.817   4.116  15.997 -1.6188 -0.7289 -0.5175
  692TMC3    H110291   1.632   3.828  15.750 -0.5033  2.4425 -0.4374
  692TMC3    H210292   2.050   3.820  15.822  0.8289  2.4953 -0.6458
  692TMC3    C710293   1.843   3.668  15.749  0.1368 -0.0363  0.1216
  692TMC3    C810294   2.024   3.951  16.036  0.8502 -0.3275  0.6815
  692TMC3    O110295   1.738   3.619  15.714 -0.7792 -0.3021 -0.8151
  692TMC3    O210296   2.075   3.838  16.050 -0.2434 -0.2412  0.1456
  693MPD2     C10297   2.314   1.634  10.358  0.6995 -0.1128 -0.5038
  693MPD2    C110298   2.298   1.700  10.477  0.8179 -0.4290 -0.5405
  693MPD2    C210299   2.393   1.685  10.579  0.7295  0.0153  0.4043
  693MPD2    C310300   2.512   1.614  10.554  0.0399 -0.5430 -0.4162
  693MPD2    C410301   2.545   1.576  10.426 -0.7504 -0.3822 -0.0776
  693MPD2    C510302   2.444   1.587  10.332  0.3446  0.7653 -0.0971
  693MPD2     H10303   2.380   1.735  10.674  0.3527 -1.4889  1.1353
  693MPD2    H110304   2.634   1.519  10.401 -1.9152 -1.5168 -1.6540
  693MPD2    H210305   2.247   1.645  10.274  1.4783  2.1664 -0.8416
  693MPD2    H310306   2.461   1.538  10.237 -0.1827  0.5722 -0.0938
  693MPD2     N10307   2.603   1.576  10.658 -0.5083 -0.1292  1.0823
  693MPD2    H510308   2.685   1.527  10.623  0.4422  1.7151  0.7529
  693MPD2    N110309   2.165   1.758  10.496 -0.3908 -0.1895 -0.2918
  693MPD2    H710310   2.094   1.754  10.424 -0.5474  0.0137 -0.1500
  694TMC3    C110311   1.980   1.803  10.655  0.2110 -0.1819 -0.4352
  694TMC3    C210312   1.894   1.750  10.556 -0.0254 -0.0777 -0.0341
  694TMC3    C310313   1.763   1.724  10.601 -0.2215  0.1780 -0.1126
  694TMC3    C410314   1.932   1.856  10.774 -0.1630  0.6137  0.4852
  694TMC3    C510315   1.803   1.829  10.802  0.1108 -1.1128 -0.1855
  694TMC3    C610316   1.718   1.761  10.724 -0.2918 -0.0693 -0.1256
  694TMC3     C10317   2.126   1.804  10.626  0.9543 -0.5674  0.7009
  694TMC3     O10318   2.193   1.822  10.728  0.5829  0.0839 -0.2743
  694TMC3     H10319   1.932   1.707  10.465  0.6182 -1.4590  0.8912
  694TMC3    H110320   2.008   1.896  10.841  0.6257  2.5224 -1.5209
  694TMC3    H210321   1.613   1.744  10.743 -0.3224  0.7755  0.4534
  694TMC3    C710322   1.768   1.853  10.940  0.2023  0.4339 -0.4647
  694TMC3    C810323   1.667   1.656  10.516 -0.4701  0.5434  0.4387
  694TMC3    O110324   1.820   1.947  10.997 -0.2191  0.7534 -1.1993
  694TMC3    O210325   1.567   1.606  10.563  0.4419  0.1495 -0.0197
  695MPD2     C10326   2.547   3.478  13.524 -0.4733 -0.5356 -0.3090
  695MPD2    C110327   2.498   3.505  13.648 -0.3628  0.6022 -0.1080
  695MPD2    C210328   2.381   3.581  13.661 -0.3427 -0.8325 -0.3665
  695MPD2    C310329   2.316   3.636  13.551 -0.3656 -0.4344  0.3353
  695MPD2    C410330   2.375   3.619  13.427  0.3943  0.6257  0.0722
  695MPD2    C510331   2.484   3.538  13.416 -0.3306  0.0885 -0.0397
  695MPD2     H10332   2.328   3.596  13.754  0.1814 -3.0539  0.2830
  695MPD2    H110333   2.327   3.659  13.339  0.4501  1.4847  0.4342
  695MPD2    H210334   2.626   3.410  13.493  1.1763  1.2259  0.0131
  695MPD2    H310335   2.512   3.508  13.315 -0.6785 -2.2310  0.5352
  695MPD2     N10336   2.196   3.707  13.575  0.3897 -0.2479 -0.2648
  695MPD2    H510337   2.168   3.721  13.671 -1.6439  0.4911 -0.9779
  695MPD2    N110338   2.558   3.457  13.766  0.3597  0.3698  0.2038
  695MPD2    H710339   2.513   3.484  13.852 -2.4358  0.6086 -1.3388
  696TMC3    C110340   2.011   3.846  13.533  0.4631  0.1218  0.4533
  696TMC3    C210341   1.974   3.813  13.661 -0.1037  0.2457 -0.8579
  696TMC3    C310342   1.867   3.889  13.712  0.0765 -0.0765 -0.3426
  696TMC3    C410343   1.953   3.945  13.457 -0.1365 -0.5011  0.4817
  696TMC3    C510344   1.836   4.004  13.505  0.4478  0.0504  0.0577
  696TMC3    C610345   1.793   3.976  13.631 -0.1245 -0.0052 -0.4113
  696TMC3     C10346   2.121   3.772  13.476  0.0638  0.1465  0.3822
  696TMC3     O10347   2.147   3.790  13.358  0.2425 -0.8538 -0.0176
  696TMC3     H10348   2.016   3.740  13.729  0.2946 -1.1680 -2.6350
  696TMC3    H110349   1.988   3.981  13.360 -2.0012 -2.2520 -0.8274
  696TMC3    H210350   1.700   4.020  13.664  0.7424  2.4253 -1.2168
  696TMC3    C710351   1.830   4.143  13.467  0.6364  0.9671 -0.0023
  696TMC3    C810352   1.881   3.935  13.847  0.0384 -0.1389  0.9005
  696TMC3    O110353   1.878   4.170  13.357 -0.5705  0.2836 -0.1016
  696TMC3    O210354   1.997   3.926  13.884 -0.0154 -0.2146 -0.2452
  697MPD2     C10355   1.206   0.890  15.374  0.1225 -0.2049  0.1211
  697MPD2    C110356   1.261   0.827  15.257 -0.5703  0.2509 -0.4447
  697MPD2    C210357   1.274   0.905  15.142  0.1205  0.1513 -0.3365
  697MPD2    C310358   1.263   1.041  15.140  0.1899 -1.3879  0.4571
  697MPD2    C410359   1.224   1.098  15.258  0.5119  0.1822 -0.2769
  697MPD2    C510360   1.186   1.025  15.368  0.2260  0.7566  0.5072
  697MPD2     H10361   1.302   0.861  15.047  0.1210  2.6169 -1.4682
  697MPD2    H110362   1.217   1.204  15.276 -1.5790  0.0872 -0.5415
  697MPD2    H210363   1.188   0.824  15.458 -1.2997  1.2288  0.9470
  697MPD2    H310364   1.155   1.088  15.451  2.8822  1.0179  1.3066
  697MPD2     N10365   1.289   1.113  15.021  0.5467  0.2393 -0.2142
  697MPD2    H510366   1.310   1.059  14.938  1.9227  0.1005  0.2310
  697MPD2    N110367   1.293   0.690  15.246 -0.1169  0.3175 -0.6339
  697MPD2    H710368   1.330   0.656  15.158 -0.4152  1.1025 -1.0620
  698TMC3    C110369   1.319   1.306  14.885  0.1540 -0.3832 -0.1475
  698TMC3    C210370   1.370   1.433  14.905 -0.0233  0.2684  0.8643
  698TMC3    C310371   1.445   1.484  14.810  0.2224  0.3204  0.3200
  698TMC3    C410372   1.352   1.226  14.779  0.1205 -0.4049 -0.0558
  698TMC3    C510373   1.435   1.283  14.689  0.0537  0.6460 -0.4900
  698TMC3    C610374   1.477   1.413  14.704  0.2684 -0.7293 -0.1313
  698TMC3     C10375   1.264   1.246  15.010  0.3199 -0.7801  0.1581
  698TMC3     O10376   1.232   1.333  15.091 -0.4382 -0.3619 -0.4277
  698TMC3     H10377   1.363   1.482  15.002  1.4535 -0.5424  1.3878
  698TMC3    H110378   1.301   1.135  14.748 -2.6613  1.0850  0.0894
  698TMC3    H210379   1.539   1.468  14.634 -1.3214  0.2235 -0.8047
  698TMC3    C710380   1.473   1.208  14.570  0.0640 -0.7621 -0.1690
  698TMC3    C810381   1.481   1.621  14.804  1.3239  0.2108 -0.0679
  698TMC3    O110382   1.403   1.119  14.528 -0.4196  0.6276 -0.4097
  698TMC3    O210383   1.458   1.673  14.696  0.2471 -0.5906 -0.6142
  699TMC3    C110384   1.912   3.897  13.064  0.2601  0.2941  0.6563
  699TMC3    C210385   1.954   3.783  13.126  0.7947 -0.3117 -0.2879
  699TMC3    C310386   1.860   3.713  13.194 -0.0266 -0.7424 -0.3237
  699TMC3    C410387   1.786   3.954  13.082  0.2619 -0.2721  0.6210
  699TMC3    C510388   1.700   3.887  13.165  0.1614  0.0676 -0.9768
  699TMC3    C610389   1.735   3.760  13.218  0.0261  0.0874 -0.1370
  699TMC3     C10390   2.012   3.964  12.983 -0.9769  0.0465  0.1984
  699TMC3     O10391   1.983   4.080  12.954 -0.0673 -0.5880  0.0551
  699TMC3     H10392   2.058   3.756  13.119  0.4014 -1.9125 -0.0014
  699TMC3    H110393   1.760   4.047  13.032 -0.9378 -0.4501  0.9246
  699TMC3    H210394   1.673   3.699  13.282 -1.4547  1.6638 -0.0704
  699TMC3    C710395   1.591   3.961  13.235  0.2614  0.0017  0.1148
  699TMC3    C810396   1.901   3.597  13.273  0.0084 -0.6039  0.0802
  699TMC3    O110397   1.529   3.904  13.325  0.5194  0.5631  0.0199
  699TMC3    O210398   1.834   3.563  13.372 -0.0701  0.4272  0.3438
  700TMC3    C110399   0.522   1.219  17.006 -0.4370  0.4434  0.0731
  700TMC3    C210400   0.642   1.173  16.963 -0.0604 -0.1409  0.2925
  700TMC3    C310401   0.732   1.117  17.048 -0.0279 -0.5862  0.6489
  700TMC3    C410402   0.502   1.221  17.142  0.0393 -0.7338  0.2076
  700TMC3    C510403   0.596   1.169  17.225  0.4264  0.3938  0.0455
  700TMC3    C610404   0.715   1.127  17.184 -0.7296 -0.7325 -0.2192
  700TMC3     C10405   0.457   1.331  16.942 -0.2552 -0.2854 -0.2637
  700TMC3     O10406   0.335   1.325  16.934  0.1110 -0.5500 -0.5453
  700TMC3     H10407   0.660   1.179  16.856  1.4612 -1.2992  0.4906
  700TMC3    H110408   0.417   1.281  17.175  1.4942 -0.0502  2.7321
  700TMC3    H210409   0.797   1.090  17.244  0.9315  0.4282 -1.7605
  700TMC3    C710410   0.579   1.182  17.363 -0.3325 -0.4155  0.3479
  700TMC3    C810411   0.864   1.114  16.989 -0.1925  0.4082 -0.2892
  700TMC3    O110412   0.678   1.161  17.439 -0.5665 -0.2850 -0.1075
  700TMC3    O210413   0.874   1.051  16.886  0.2234 -0.0122 -0.1048
  701TMC3    C110414   0.888   0.037  15.391  0.0473  0.9977 -0.3076
  701TMC3    C210415   0.876   0.014  15.255 -0.2044 -0.6343  0.0141
  701TMC3    C310416   0.955   0.092  15.175  1.1101 -0.1622 -0.0974
  701TMC3    C410417   0.952   0.154  15.440  0.7314 -0.2545 -0.2530
  701TMC3    C510418   1.016   0.236  15.348  0.0012  0.3054 -0.1734
  701TMC3    C610419   1.029   0.196  15.222 -0.4933  0.1246 -1.0120
  701TMC3     C10420   0.756   0.030  15.443  0.3206 -0.8841  0.2542
  701TMC3     O10421   0.699   0.130  15.472 -0.3293  0.0178 -0.3971
  701TMC3     H10422   0.805   4.679  15.215  0.5281 -1.3985  0.0635
  701TMC3    H110423   0.953   0.174  15.547 -2.4402 -0.3636 -0.2024
  701TMC3    H210424   1.077   0.268  15.156 -1.3532  0.4731 -1.2604
  701TMC3    C710425   1.011   0.379  15.358 -0.0867 -0.1002 -0.2534
  701TMC3    C810426   0.921   0.120  15.040  0.0852  0.5967  0.9135
  701TMC3    O110427   1.047   0.455  15.269  0.5686  0.4093  0.0604
  701TMC3    O210428   1.014   0.156  14.965 -0.3282 -0.1330 -0.4220
  702MPD2     C10429   1.308   2.236  10.394  0.0867  0.1507 -0.5577
  702MPD2    C110430   1.247   2.351  10.433  0.4401  0.5227  0.1657
  702MPD2    C210431   1.287   2.467  10.376  0.7814  0.0525 -0.4713
  702MPD2    C310432   1.399   2.478  10.294 -0.1654 -0.0691  0.5023
  702MPD2    C410433   1.454   2.360  10.254  0.3997  0.5510  0.1574
  702MPD2    C510434   1.415   2.246  10.311 -0.6366  0.2500 -0.2245
  702MPD2     H10435   1.232   2.555  10.407  0.7056 -0.7798  1.7119
  702MPD2    H110436   1.544   2.352  10.194  2.4209  2.0263  2.9872
  702MPD2    H210437   1.282   2.136  10.424  0.1551  0.6566  1.1903
  702MPD2    H310438   1.473   2.156  10.291  0.7566  1.0986  0.0268
  702MPD2     N10439   1.437   2.602  10.245  0.2562 -0.3682 -0.1326
  702MPD2    H510440   1.379   2.679  10.276 -0.5353  0.5486 -3.9274
  702MPD2    N110441   1.137   2.341  10.530  0.1531 -0.1653  0.2179
  702MPD2    H710442   1.097   2.434  10.542  1.2239 -0.0981  3.4199
  703TMC3    C110443   1.575   2.763  10.126  0.3074 -0.5274 -0.1882
  703TMC3    C210444   1.469   2.844  10.127  0.2307 -0.6925  0.8901
  703TMC3    C310445   1.481   2.977  10.132 -0.6860  0.5276 -0.0243
  703TMC3    C410446   1.704   2.805  10.131  0.3726 -0.0072 -0.6287
  703TMC3    C510447   1.714   2.945  10.146  0.1835 -0.0632 -0.5443
  703TMC3    C610448   1.607   3.031  10.141  0.4903 -0.6835  0.1250
  703TMC3     C10449   1.547   2.631  10.167 -0.2117 -0.0068  0.5425
  703TMC3     O10450   1.631   2.554  10.125 -0.8680 -0.1901 -0.0826
  703TMC3     H10451   1.371   2.803  10.108 -0.2471  1.5409 -1.4174
  703TMC3    H110452   1.788   2.737  10.126  0.1504 -0.3755  0.8642
  703TMC3    H210453   1.626   3.138  10.136  0.1390 -0.6801 -1.2294
  703TMC3    C710454   1.838   3.005  10.156  0.8135 -0.1027 -0.4940
  703TMC3    C810455   1.363   3.057  10.147 -0.2141 -0.2082 -0.1899
  703TMC3    O110456   1.848   3.117  10.199 -0.2173  0.6846 -0.1350
  703TMC3    O210457   1.258   2.994  10.153  0.4476  0.3739  0.4050
  704TMC3    C110458   3.659   0.501  11.919 -0.6999 -0.3356 -0.2001
  704TMC3    C210459   3.792   0.486  11.943 -0.3131 -0.2742  0.0135
  704TMC3    C310460   3.832   0.373  11.998  0.1953  0.0834  0.0441
  704TMC3    C410461   3.566   0.414  11.969  0.5975  0.3329 -0.1821
  704TMC3    C510462   3.614   0.299  12.019 -0.0720  0.6790  0.1975
  704TMC3    C610463   3.747   0.273  12.026 -1.0109  0.3981  0.4363
  704TMC3     C10464   3.612   0.630  11.900  0.3170 -0.1440  0.0676
  704TMC3     O10465   3.509   0.661  11.951  0.2788 -0.4316 -0.1925
  704TMC3     H10466   3.862   0.567  11.927  0.8638 -0.4679  4.1899
  704TMC3    H110467   3.464   0.446  11.952  0.2225 -0.9894 -0.3779
  704TMC3    H210468   3.774   0.178  12.070  0.2677 -0.5135 -2.2981
  704TMC3    C710469   3.526   0.223  12.107 -0.2671  0.3001 -0.1921
  704TMC3    C810470   3.963   0.356  12.060  0.2593  0.7858 -0.4614
  704TMC3    O110471   3.568   0.115  12.149  0.3084  0.0913 -0.0720
  704TMC3    O210472   4.030   0.454  12.076  0.1000  0.2854  0.4952
  705MPD2     C10473   2.225   3.353  16.563  0.6150  0.7406  0.7712
  705MPD2    C110474   2.217   3.486  16.524 -0.0633  0.0122 -0.4944
  705MPD2    C210475   2.096   3.549  16.529 -0.0217  0.0502  0.4218
  705MPD2    C310476   1.984   3.496  16.587 -0.1713 -0.3306 -0.7333
  705MPD2    C410477   1.991   3.365  16.622  0.3464 -0.3314  0.3373
  705MPD2    C510478   2.111   3.301  16.620 -0.3037  0.4238  0.0738
  705MPD2     H10479   2.089   3.652  16.497 -2.6899 -1.1420 -2.8180
  705MPD2    H110480   1.913   3.308  16.671  0.8395  0.6343  2.2839
  705MPD2    H210481   2.312   3.289  16.570 -0.6583 -1.1229 -0.4373
  705MPD2    H310482   2.112   3.195  16.646  3.6497  0.2518 -0.8281
  705MPD2     N10483   1.855   3.558  16.602 -0.1854  0.2403  0.7245
  705MPD2    H510484   1.769   3.505  16.615 -0.2050 -0.1175 -0.8517
  705MPD2    N110485   2.328   3.561  16.465  0.1705 -0.7883  0.4355
  705MPD2    H710486   2.311   3.650  16.420  0.8888 -0.4731  0.7739
  706TMC3    C110487   2.727   3.654  16.270  0.5143  0.6183  0.0639
  706TMC3    C210488   2.663   3.761  16.206  0.1209 -0.2972  0.3715
  706TMC3    C310489   2.545   3.806  16.257 -0.1183 -0.2627 -0.4348
  706TMC3    C410490   2.667   3.577  16.358 -0.4086 -0.5339 -0.5628
  706TMC3    C510491   2.541   3.628  16.399 -0.0093 -0.6242 -0.3559
  706TMC3    C610492   2.481   3.743  16.353  0.7422  0.4071 -0.4090
  706TMC3     C10493   2.818   3.588  16.178  0.1337  0.6094 -0.2592
  706TMC3     O10494   2.935   3.571  16.208 -0.4974  0.1651 -0.0422
  706TMC3     H10495   2.715   3.809  16.125  2.4900 -0.0562  2.0461
  706TMC3    H110496   2.708   3.486  16.400 -0.1054 -0.2382 -0.2158
  706TMC3    H210497   2.384   3.775  16.388  0.7779 -0.6534  0.6251
  706TMC3    C710498   2.459   3.527  16.468  0.1032 -0.2982 -0.3277
  706TMC3    C810499   2.505   3.938  16.206  0.4003 -0.2231 -0.1853
  706TMC3    O110500   2.518   3.430  16.519 -0.4735 -0.1823  0.1889
  706TMC3    O210501   2.542   3.972  16.093 -0.2520 -0.8987 -0.3306
  707TMC3    C110502   3.597   2.389   1.029  0.3238 -0.3888 -0.0613
  707TMC3    C210503   3.655   2.385   1.157 -0.1219 -0.3836 -1.2378
  707TMC3    C310504   3.572   2.357   1.256 -0.2836  0.7512 -0.2640
  707TMC3    C410505   3.468   2.364   1.002 -0.4997 -0.0123 -0.1074
  707TMC3    C510506   3.391   2.332   1.110  0.1848 -0.1091 -0.1815
  707TMC3    C610507   3.439   2.341   1.235  0.4280 -0.3249  0.2324
  707TMC3     C10508   3.705   2.391   0.926 -0.2877  0.2639  0.4336
  707TMC3     O10509   3.820   2.372   0.967 -0.3542  0.5835  0.0672
  707TMC3     H10510   3.763   2.389   1.164 -0.3156  2.1447  0.1485
  707TMC3    H110511   3.427   2.358   0.902 -1.3479  0.8297  0.1874
  707TMC3    H210512   3.379   2.321   1.324  2.5193 -2.0640  1.2445
  707TMC3    C710513   3.250   2.299   1.106  0.2989 -0.4519 -0.3176
  707TMC3    C810514   3.632   2.339   1.389  0.6874  0.4249 -0.3395
  707TMC3    O110515   3.195   2.284   1.214  0.4729 -0.2779 -0.9626
  707TMC3    O210516   3.573   2.332   1.495 -0.2775 -0.2330  0.2340
  708MPD2     C10517   0.706   1.314  13.991  0.5894 -0.5405  0.6090
  708MPD2    C110518   0.763   1.442  14.001 -0.2289 -0.5993  0.4932
  708MPD2    C210519   0.686   1.536  14.077  0.2059  0.2360 -0.6134
  708MPD2    C310520   0.561   1.508  14.125  0.5729  0.3261  0.3170
  708MPD2    C410521   0.506   1.387  14.098 -0.0134 -0.5757 -0.0975
  708MPD2    C510522   0.578   1.287  14.031  0.1764 -0.0965 -0.0438
  708MPD2     H10523   0.721   1.639  14.077 -1.7777  0.8964  0.4038
  708MPD2    H110524   0.404   1.365  14.127  0.8435 -2.0420  1.7685
  708MPD2    H210525   0.759   1.239  13.934 -0.8360 -2.1713  1.4294
  708MPD2    H310526   0.543   1.185  14.018 -0.8277  0.7816 -3.9773
  708MPD2     N10527   0.482   1.595  14.202 -0.2151  0.2914  0.0532
  708MPD2    H510528   0.392   1.559  14.231  0.5280 -1.2005  0.4812
  708MPD2    N110529   0.883   1.474  13.927 -0.1960  0.4552 -0.4608
  708MPD2    H710530   0.913   1.405  13.859 -0.8783  0.8936 -1.2023
  709TMC3    C110531   1.069   1.611  13.865 -0.4354  0.1267 -0.3650
  709TMC3    C210532   1.083   1.534  13.754 -0.0136  0.3279  0.7958
  709TMC3    C310533   1.122   1.597  13.633  0.8054 -0.7579 -0.3136
  709TMC3    C410534   1.098   1.748  13.862 -0.3244 -0.1262 -0.6058
  709TMC3    C510535   1.112   1.806  13.741 -0.2299 -0.0787 -0.5948
  709TMC3    C610536   1.132   1.735  13.624  0.4881  0.7633  0.0454
  709TMC3     C10537   0.953   1.584  13.947 -0.4009  0.3693  0.5008
  709TMC3     O10538   0.924   1.675  14.018 -0.5313  0.0685  0.1183
  709TMC3     H10539   1.054   1.430  13.743  1.3413  0.4221 -3.4499
  709TMC3    H110540   1.089   1.811  13.950 -2.2235 -0.3885 -0.6154
  709TMC3    H210541   1.146   1.792  13.533  1.8172 -0.6739 -0.6507
  709TMC3    C710542   1.020   1.916  13.721  0.5577  0.4363 -0.2232
  709TMC3    C810543   1.137   1.519  13.514 -0.2919 -0.0983  0.3375
  709TMC3    O110544   1.049   2.011  13.647 -0.4236  0.1886  0.3545
  709TMC3    O210545   1.066   1.422  13.503 -0.4784  0.3028  0.1097
  710TMC3    C110546   1.297   3.491   0.504 -0.3363  0.8161 -0.7756
  710TMC3    C210547   1.356   3.472   0.380  0.2505 -0.1934  0.8707
  710TMC3    C310548   1.481   3.406   0.373 -0.7503 -0.5541 -0.1784
  710TMC3    C410549   1.368   3.459   0.621 -0.1427 -0.3953  0.2242
  710TMC3    C510550   1.485   3.385   0.609 -0.2427  0.1622 -0.4501
  710TMC3    C610551   1.543   3.365   0.487  0.0370 -0.3854 -0.7699
  710TMC3     C10552   1.154   3.522   0.508 -0.3013 -0.5503 -0.0750
  710TMC3     O10553   1.087   3.506   0.403 -0.2098  0.7663 -0.2745
  710TMC3     H10554   1.299   3.497   0.291 -1.2508  0.6045  2.0474
  710TMC3    H110555   1.323   3.461   0.719  2.1724 -0.3439  1.2911
  710TMC3    H210556   1.623   3.293   0.471 -0.7532 -0.9915 -1.9542
  710TMC3    C710557   1.559   3.370   0.731 -0.1266  0.7612  0.2458
  710TMC3    C810558   1.557   3.381   0.251 -0.2264  0.5986  0.0641
  710TMC3    O110559   1.501   3.404   0.835  0.3319  0.3413 -0.4897
  710TMC3    O210560   1.654   3.309   0.259  0.0989 -0.1679  0.0351
  711TMC3    C110561   1.177   4.393  14.962 -0.5145  0.3630  0.4626
  711TMC3    C210562   1.141   4.301  15.059  0.6638  0.7614 -0.8137
  711TMC3    C310563   1.164   4.332  15.188 -0.1837  0.8149 -0.2253
  711TMC3    C410564   1.207   4.518  14.987  0.1785 -0.0528 -0.5016
  711TMC3    C510565   1.219   4.560  15.119 -0.2885 -0.2510  0.2253
  711TMC3    C610566   1.202   4.460  15.219  0.2648  0.2496 -0.1028
  711TMC3     C10567   1.125   4.356  14.827 -0.0594  0.2774 -0.0698
  711TMC3     O10568   1.028   4.281  14.820 -0.4093  0.1062 -0.3696
  711TMC3     H10569   1.135   4.196  15.034 -1.4045  0.6914 -0.0369
  711TMC3    H110570   1.231   4.590  14.910  0.3386  1.2808  0.7895
  711TMC3    H210571   1.212   4.496  15.320 -0.0299 -1.4821  0.5429
  711TMC3    C710572   1.338   4.641  15.152  0.3312  0.3399 -0.9787
  711TMC3    C810573   1.238   4.230  15.249  0.5871  0.7373 -0.2595
  711TMC3    O110574   1.404   4.584  15.235 -0.2944  0.1124  0.2486
  711TMC3    O210575   1.197   4.116  15.246  0.0467  0.7600  0.4968
  712MPD2     C10576   3.285   0.339  13.812  0.1382 -0.3116 -0.1650
  712MPD2    C110577   3.226   0.439  13.737  0.3449  0.2079  0.5748
  712MPD2    C210578   3.213   0.565  13.789  0.4243 -0.0196 -0.2026
  712MPD2    C310579   3.265   0.592  13.921  0.6565 -0.5766  0.0837
  712MPD2    C410580   3.327   0.493  13.992 -0.3165  0.5541  0.2360
  712MPD2    C510581   3.331   0.365  13.938  0.0554 -0.0426  0.0270
  712MPD2     H10582   3.161   0.639  13.729 -0.3377  0.0347  0.5195
  712MPD2    H110583   3.381   0.516  14.084  2.8964  1.8073 -1.9856
  712MPD2    H210584   3.287   0.235  13.779 -0.4729 -0.5514  0.5432
  712MPD2    H310585   3.390   0.286  13.983 -0.5495 -0.2114  0.5218
  712MPD2     N10586   3.277   0.725  13.971  0.2968  0.6840  0.2974
  712MPD2    H510587   3.345   0.742  14.045  1.0417 -0.0028 -0.2320
  712MPD2    N110588   3.167   0.400  13.620 -0.1684 -0.5771 -0.4070
  712MPD2    H710589   3.106   0.463  13.569  1.7271  2.0747  0.5579
  713TMC3    C110590   3.265   0.961  13.986  0.2781  0.5312 -0.5910
  713TMC3    C210591   3.336   0.961  14.107 -0.1602  0.2312 -0.0165
  713TMC3    C310592   3.380   1.079  14.156  0.2276  0.1626  0.4226
  713TMC3    C410593   3.239   1.078  13.925 -0.3882  0.1173  0.5483
  713TMC3    C510594   3.269   1.197  13.991  0.4875  0.0240 -0.0669
  713TMC3    C610595   3.336   1.201  14.109  0.0845 -0.1574  0.1282
  713TMC3     C10596   3.222   0.838  13.920  0.2011  0.3035 -0.0025
  713TMC3     O10597   3.144   0.851  13.829 -0.4153 -0.1361 -0.3400
  713TMC3     H10598   3.363   0.869  14.157 -0.3421  0.2704  0.1541
  713TMC3    H110599   3.196   1.079  13.825  1.0583  1.4358 -0.0615
  713TMC3    H210600   3.380   1.288  14.156  0.3284 -0.3244  0.2111
  713TMC3    C710601   3.298   1.313  13.910  0.2107 -0.3140  0.1688
  713TMC3    C810602   3.522   1.055  14.201 -0.5638  0.0286  0.0433
  713TMC3    O110603   3.398   1.373  13.945  0.3573  0.5022  0.3838
  713TMC3    O210604   3.560   0.939  14.188 -0.1823 -0.5809  0.3725
  714MPD2     C10605   4.729   4.043   1.408  0.0608 -0.5239 -0.0070
  714MPD2    C110606   0.016   3.910   1.378 -0.0503  0.2148 -0.3096
  714MPD2    C210607   4.665   3.837   1.304  0.1295 -0.0448 -0.2820
  714MPD2    C310608   4.544   3.897   1.267  0.3735  0.1078  0.2018
  714MPD2    C410609   4.515   4.024   1.311 -0.1536 -0.0048 -0.2000
  714MPD2    C510610   4.609   4.100   1.382 -0.1854  0.2565  0.5966
  714MPD2     H10611   4.687   3.734   1.278 -0.3716 -0.2609  0.1416
  714MPD2    H110612   4.422   4.074   1.284 -0.2449 -0.5881 -0.9750
  714MPD2    H210613   0.062   4.108   1.460  0.7219  0.1851 -1.7620
  714MPD2    H310614   4.587   4.206   1.386 -0.4096  0.2339 -0.1558
  714MPD2     N10615   4.462   3.821   1.181  0.2461 -0.2129 -0.1500
  714MPD2    H510616   4.505   3.742   1.136  0.1944 -1.8201  2.5896
  714MPD2    N110617   0.138   3.853   1.434  0.1107 -0.7460  0.4284
  714MPD2    H710618   0.190   3.924   1.484 -0.0688 -0.5980  0.4050
  715TMC3    C110619   0.304   3.708   1.505 -0.4372  0.2357  0.4131
  715TMC3    C210620   0.391   3.606   1.468 -0.4080  0.6413  1.0635
  715TMC3    C310621   0.499   3.581   1.551 -0.5925 -0.4147  0.7408
  715TMC3    C410622   0.317   3.771   1.624  0.2840 -0.0654 -0.5229
  715TMC3    C510623   0.413   3.728   1.717 -0.0461 -0.1365  0.0969
  715TMC3    C610624   0.517   3.643   1.677  0.8189  0.1458  0.5189
  715TMC3     C10625   0.185   3.725   1.423 -0.1250  0.2156 -0.0916
  715TMC3     O10626   0.135   3.628   1.373 -0.6422  0.0428 -0.5545
  715TMC3     H10627   0.397   3.568   1.367  0.3333  3.1383  0.1692
  715TMC3    H110628   0.246   3.849   1.651  1.0515 -0.6207  3.1149
  715TMC3    H210629   0.597   3.612   1.742  1.9931  1.5721 -0.2314
  715TMC3    C710630   0.464   3.832   1.806  0.4983  0.3507 -0.2000
  715TMC3    C810631   0.604   3.512   1.484 -0.1230  0.5273  0.5853
  715TMC3    O110632   0.584   3.859   1.792 -0.2453 -0.2089  0.2637
  715TMC3    O210633   0.571   3.419   1.412  0.0132  0.9574  0.0090
  716MPD2     C10634   0.833   2.726   9.722 -0.2984  0.4980 -0.0441
  716MPD2    C110635   0.749   2.747   9.616 -0.0028 -0.1897 -0.8969
  716MPD2    C210636   0.746   2.651   9.513  0.1547 -0.5173 -0.4417
  716MPD2    C310637   0.820   2.536   9.520  0.7328  0.1011 -0.0391
  716MPD2    C410638   0.903   2.519   9.628 -0.0205 -0.1294  0.2476
  716MPD2    C510639   0.908   2.609   9.728 -0.0304  0.0587  0.3571
  716MPD2     H10640   0.680   2.659   9.427  0.6158  1.1877 -0.6423
  716MPD2    H110641   0.968   2.433   9.638  0.3067  0.4032  2.5867
  716MPD2    H210642   0.838   2.799   9.802 -0.9629  0.6233 -0.1162
  716MPD2    H310643   0.975   2.591   9.811  1.3856 -2.8432 -1.4053
  716MPD2     N10644   0.807   2.447   9.411 -0.0010  0.0867 -0.0856
  716MPD2    H510645   0.727   2.456   9.350  0.9672  0.5788 -1.2836
  716MPD2    N110646   0.670   2.868   9.617 -0.1394 -0.2557  0.3111
  716MPD2    H710647   0.670   2.940   9.688  0.4406 -1.0657  1.1301
  717TMC3    C110648   0.851   2.254   9.283  0.0918 -0.2545 -0.3164
  717TMC3    C210649   0.751   2.287   9.194 -0.3663 -0.1428 -0.7772
  717TMC3    C310650   0.716   2.194   9.103 -0.6692 -0.1811 -0.6128
  717TMC3    C410651   0.917   2.132   9.277 -0.0945 -0.2098  0.7775
  717TMC3    C510652   0.865   2.033   9.194  0.6289 -0.1239 -0.9071
  717TMC3    C610653   0.761   2.063   9.104  0.0088 -0.2748  0.4079
  717TMC3     C10654   0.896   2.348   9.384 -0.3183 -0.0505  0.2289
  717TMC3     O10655   0.997   2.317   9.444  0.1980  0.2516  0.3999
  717TMC3     H10656   0.711   2.388   9.186 -0.7888 -0.4888 -2.9022
  717TMC3    H110657   1.001   2.122   9.345 -0.2559 -1.0990  0.8355
  717TMC3    H210658   0.757   2.002   9.014 -0.2158  0.4783 -0.0848
  717TMC3    C710659   0.927   1.900   9.178  0.3247 -0.0982 -0.0307
  717TMC3    C810660   0.592   2.227   9.043  0.7301 -0.4819 -0.8751
  717TMC3    O110661   0.861   1.820   9.109  0.3207  0.0222 -0.4445
  717TMC3    O210662   0.570   2.343   9.014 -0.4135  0.7945  0.7040
  718MPD2     C10663   0.256   0.892  12.741  0.0801  0.2129  0.0213
  718MPD2    C110664   0.200   0.862  12.621 -0.1223 -0.0051 -0.8164
  718MPD2    C210665   0.117   0.750  12.617 -0.3229 -0.5741  0.2416
  718MPD2    C310666   0.098   0.664  12.724  0.3106  0.1043 -0.5250
  718MPD2    C410667   0.156   0.700  12.841  0.1378 -0.0648  0.8358
  718MPD2    C510668   0.231   0.812  12.847  0.4842  0.7679  0.1194
  718MPD2     H10669   0.071   0.721  12.523 -2.7409 -0.0675  1.2696
  718MPD2    H110670   0.134   0.641  12.929  0.6740  0.2480  1.1801
  718MPD2    H210671   0.318   0.980  12.755 -2.6076  2.1322 -0.1550
  718MPD2    H310672   0.280   0.839  12.940 -1.1118  0.2560  1.1075
  718MPD2     N10673   0.032   0.541  12.692 -0.3549 -0.0169 -0.0604
  718MPD2    H510674   0.000   0.537  12.596 -0.3755  1.2182 -0.1020
  718MPD2    N110675   0.239   0.931  12.503 -0.1409 -1.4637 -0.8413
  718MPD2    H710676   0.313   0.998  12.517  1.8349 -3.4072 -2.0576
  719TMC3    C110677   0.246   0.993  12.269 -0.2280  0.3917  0.6019
  719TMC3    C210678   0.168   0.970  12.159  0.3120  0.0076 -0.6032
  719TMC3    C310679   0.239   0.943  12.036 -0.7378 -0.0140  0.2413
  719TMC3    C410680   0.382   1.013  12.265  0.1936  0.7463 -0.7325
  719TMC3    C510681   0.441   0.998  12.147  0.1844  0.2300 -0.3916
  719TMC3    C610682   0.376   0.959  12.033  0.5811  0.2638 -0.4748
  719TMC3     C10683   0.177   0.922  12.383  0.0563 -0.8721 -0.3792
  719TMC3     O10684   0.081   0.858  12.347 -0.9677  0.4502  0.4861
  719TMC3     H10685   0.060   0.968  12.161  0.3060  0.7780 -0.1798
  719TMC3    H110686   0.443   1.027  12.353  1.4198 -0.2889 -1.4225
  719TMC3    H210687   0.433   0.942  11.942  1.6477 -0.8160  0.3970
  719TMC3    C710688   0.561   1.075  12.119 -0.4060 -0.1335 -0.3563
  719TMC3    C810689   0.211   0.810  11.985 -0.0161  0.0031  0.0330
  719TMC3    O110690   0.575   1.109  12.002  0.1272  0.0588  0.4044
  719TMC3    O210691   0.285   0.771  11.897  0.0707 -0.1928 -0.1123
  720MPD2     C10692   3.360   2.075  13.651 -0.2245 -0.2950  0.5169
  720MPD2    C110693   3.397   2.196  13.588 -0.1599 -0.2644 -0.4805
  720MPD2    C210694   3.480   2.282  13.659  0.1044 -0.1335  0.2822
  720MPD2    C310695   3.532   2.247  13.780 -0.1638 -0.4442  0.0560
  720MPD2    C410696   3.501   2.123  13.838 -0.4625  0.5230  0.4867
  720MPD2    C510697   3.420   2.037  13.768 -0.2780  0.0137  0.3025
  720MPD2     H10698   3.502   2.382  13.621 -2.2723  0.7190  1.1087
  720MPD2    H110699   3.552   2.095  13.930 -0.4498  0.9674  0.6156
  720MPD2    H210700   3.279   2.007  13.626  0.2746 -0.0927 -1.7159
  720MPD2    H310701   3.407   1.940  13.813  0.6254  0.0573  0.6681
  720MPD2     N10702   3.612   2.343  13.840  0.4697 -0.2004  0.2049
  720MPD2    H510703   3.632   2.421  13.778 -0.4939 -0.4204 -0.3728
  720MPD2    N110704   3.334   2.225  13.469 -0.7777  0.5447  0.0369
  720MPD2    H710705   3.268   2.160  13.428  0.2418 -0.2904 -0.2998
  721TMC3    C110706   3.732   2.469  14.001 -0.2836 -0.0497  0.0075
  721TMC3    C210707   3.728   2.509  14.132 -0.6158  0.2258  0.1572
  721TMC3    C310708   3.831   2.582  14.184 -0.4704  0.0259  0.4990
  721TMC3    C410709   3.847   2.486  13.929  0.5108 -0.3935  0.3526
  721TMC3    C510710   3.950   2.559  13.988 -0.0509 -0.5874 -0.2995
  721TMC3    C610711   3.939   2.616  14.110 -0.5018 -0.4654 -0.0400
  721TMC3     C10712   3.654   2.353  13.972  0.3180 -0.6377 -0.7260
  721TMC3     O10713   3.625   2.284  14.064 -1.0116 -0.3426  0.3282
  721TMC3     H10714   3.645   2.476  14.193 -0.6475 -2.1447 -1.1706
  721TMC3    H110715   3.849   2.452  13.826  0.3166  3.6400 -1.0016
  721TMC3    H210716   4.030   2.660  14.149  0.1169 -1.3715 -0.4472
  721TMC3    C710717   4.077   2.574  13.916  0.2378  0.6094  0.0054
  721TMC3    C810718   3.867   2.544  14.315 -0.5409 -0.5176 -0.2238
  721TMC3    O110719   4.151   2.660  13.956 -0.6962  0.4173 -0.1246
  721TMC3    O210720   3.983   2.517  14.341  0.2903  0.3452  0.0922
  722MPD2     C10721   2.364   1.217  13.225  0.7470  0.4405 -0.7647
  722MPD2    C110722   2.353   1.350  13.202 -0.2057 -1.5540  0.4569
  722MPD2    C210723   2.225   1.398  13.190 -0.5365 -0.5920  0.1819
  722MPD2    C310724   2.112   1.322  13.196 -0.0943  0.1003  0.2937
  722MPD2    C410725   2.131   1.185  13.218  0.8219 -0.8268 -0.5431
  722MPD2    C510726   2.259   1.136  13.239 -0.1408 -0.1918  0.4978
  722MPD2     H10727   2.210   1.500  13.157  2.9247 -0.2690 -0.4047
  722MPD2    H110728   2.047   1.118  13.227  0.6404 -0.3758  1.3011
  722MPD2    H210729   2.461   1.169  13.231  0.4548 -0.2330 -1.4325
  722MPD2    H310730   2.283   1.031  13.244 -0.9546 -0.2871  2.4888
  722MPD2     N10731   1.989   1.395  13.183 -0.1108  0.6876  0.6117
  722MPD2    H510732   1.999   1.493  13.160 -1.4611  0.5973 -0.3817
  722MPD2    N110733   2.467   1.434  13.181  0.1778 -0.3275  0.0858
  722MPD2    H710734   2.449   1.526  13.141 -2.6141  0.7075  3.7220
  723TMC3    C110735   1.753   1.426  13.163  0.2958 -0.0274  0.4738
  723TMC3    C210736   1.661   1.367  13.084 -0.5281 -0.2780 -0.1306
  723TMC3    C310737   1.615   1.441  12.981  0.4072  0.1168 -0.7850
  723TMC3    C410738   1.778   1.559  13.161 -0.0547  0.1590  0.6770
  723TMC3    C510739   1.725   1.629  13.063  0.5023  0.4098 -0.1668
  723TMC3    C610740   1.654   1.572  12.964  0.3473 -0.2525  0.0360
  723TMC3     C10741   1.861   1.335  13.196 -0.2155 -0.2517  0.0164
  723TMC3     O10742   1.830   1.215  13.205  0.2875 -0.1290  0.8372
  723TMC3     H10743   1.636   1.263  13.100 -0.7203  0.1385  2.3294
  723TMC3    H110744   1.858   1.604  13.218 -0.2499 -0.5108  1.4765
  723TMC3    H210745   1.623   1.637  12.883 -0.4269 -1.4834 -0.6551
  723TMC3    C710746   1.772   1.764  13.050 -0.1625 -0.6836 -0.4021
  723TMC3    C810747   1.540   1.377  12.870 -0.0430 -0.8983 -0.6515
  723TMC3    O110748   1.798   1.823  13.151  0.1816 -0.0743  0.8084
  723TMC3    O210749   1.498   1.453  12.782 -0.1400  0.3292 -0.6226
  724TMC3    C110750   2.790   0.039  10.663  0.4658  0.2393 -0.1431
  724TMC3    C210751   2.717   0.060  10.541  0.8819  0.8985  0.0317
  724TMC3    C310752   2.704   0.193  10.507  0.6495  0.6737  0.2731
  724TMC3    C410753   2.825   0.145  10.744  1.1186 -0.1423 -0.3596
  724TMC3    C510754   2.797   0.269  10.706  0.0610 -0.3607 -0.0847
  724TMC3    C610755   2.727   0.296  10.593 -0.8231  0.1258  0.0581
  724TMC3     C10756   2.823   4.638  10.708  0.1602 -0.3565  0.0615
  724TMC3     O10757   2.867   4.636  10.821 -0.5001 -0.0529 -0.1398
  724TMC3     H10758   2.721   4.720  10.464  0.8099 -0.3739  1.2650
  724TMC3    H110759   2.889   0.141  10.832 -0.6078  1.2565  0.9659
  724TMC3    H210760   2.698   0.396  10.563 -0.6773 -0.2558 -1.3360
  724TMC3    C710761   2.903   0.363  10.725  0.5248 -0.1517  0.2865
  724TMC3    C810762   2.692   0.221  10.363 -0.4546  0.2627  0.5091
  724TMC3    O110763   2.928   0.417  10.615  0.4743 -0.5922 -0.0820
  724TMC3    O210764   2.673   0.131  10.283 -0.4992 -0.2414  0.0103
  725TMC3    C110765   4.679   2.637  12.860 -0.2163  0.5213 -0.1931
  725TMC3    C210766   4.563   2.637  12.785  0.1751 -0.3117 -0.1963
  725TMC3    C310767   4.531   2.523  12.714 -0.4260  0.4908  0.5554
  725TMC3    C410768   0.028   2.534  12.856  0.4067 -0.4598  0.2037
  725TMC3    C510769   4.728   2.420  12.780 -0.1915 -0.0859  0.6214
  725TMC3    C610770   4.615   2.411  12.707 -0.6008  0.7917  0.0013
  725TMC3     C10771   4.714   2.749  12.936  0.5294  0.0890  0.3768
  725TMC3     O10772   4.674   2.860  12.892  0.1771  0.2842 -0.4501
  725TMC3     H10773   4.501   2.726  12.782 -1.2591 -1.3442 -1.3250
  725TMC3    H110774   0.126   2.535  12.901 -1.0785  1.8817  3.3490
  725TMC3    H210775   4.576   2.321  12.660  0.6547 -0.1071  0.6656
  725TMC3    C710776   0.075   2.302  12.778  0.2070  1.0695 -0.8055
  725TMC3    C810777   4.387   2.510  12.687  0.3523  0.2033  0.2919
  725TMC3    O110778   0.061   2.225  12.682  0.3586 -0.5810 -0.2025
  725TMC3    O210779   4.339   2.399  12.688 -0.1911 -0.5953 -0.4287
  726MPD2     C10780   2.074   0.302  10.733 -0.2410  0.2459 -0.7699
  726MPD2    C110781   2.003   0.284  10.615 -0.5746 -0.3161 -0.4406
  726MPD2    C210782   1.924   0.173  10.609  0.4290 -0.0051 -0.2149
  726MPD2    C310783   1.926   0.079  10.709 -0.5627  0.3168  0.3025
  726MPD2    C410784   2.004   0.097  10.819  0.8275 -0.2208 -0.3664
  726MPD2    C510785   2.079   0.210  10.833  0.3001  0.7439  0.2913
  726MPD2     H10786   1.855   0.164  10.526  2.0562 -3.5542 -1.1983
  726MPD2    H110787   1.990   0.028  10.901 -1.6484 -1.8695 -2.1564
  726MPD2    H210788   2.135   0.391  10.744  0.1507 -0.2426  0.9905
  726MPD2    H310789   2.139   0.230  10.921 -0.8990 -1.0536  1.5270
  726MPD2     N10790   1.836   4.706  10.715 -0.4172 -0.1936  0.4101
  726MPD2    H510791   1.866   4.632  10.777  1.5701  1.0289  0.8961
  726MPD2    N110792   2.022   0.379  10.512 -0.4379 -0.0493 -0.2048
  726MPD2    H710793   2.089   0.455  10.515  0.7655 -0.9799 -3.1071
  727TMC3    C110794   1.990   0.485  10.308  0.0881 -0.3973  0.3789
  727TMC3    C210795   2.065   0.589  10.357 -0.6705 -0.4922  0.2971
  727TMC3    C310796   2.115   0.676  10.270 -0.6638  0.2799 -0.0589
  727TMC3    C410797   1.969   0.475  10.172 -0.1641 -0.5462  0.0395
  727TMC3    C510798   2.030   0.563  10.087 -0.4320 -0.6352  0.0683
  727TMC3    C610799   2.104   0.667  10.136 -0.6888 -0.2409 -0.2428
  727TMC3     C10800   1.971   0.367  10.384 -0.2260 -0.1367  0.0006
  727TMC3     O10801   1.912   0.274  10.332  0.2664 -0.2703  0.3056
  727TMC3     H10802   2.067   0.620  10.461 -0.5270  0.1402  0.1058
  727TMC3    H110803   1.906   0.397  10.131 -0.3409  0.5746 -1.8031
  727TMC3    H210804   2.168   0.724  10.069  1.0491  0.6679  2.1813
  727TMC3    C710805   2.016   0.543   9.940  0.5573 -0.1389 -0.3168
  727TMC3    C810806   2.216   0.769  10.319 -0.2636  0.1414  0.9094
  727TMC3    O110807   1.903   0.505   9.903 -0.0171  0.2315  0.2158
  727TMC3    O210808   2.297   0.719  10.395 -0.5307  0.0649  0.6091
  728TMC3    C110809   1.055   3.195  14.822  0.1425  0.1952 -0.2084
  728TMC3    C210810   1.151   3.201  14.722 -0.9552 -0.5844 -0.3968
  728TMC3    C310811   1.100   3.244  14.601  1.0601 -0.1045 -0.2625
  728TMC3    C410812   0.925   3.223  14.820  0.2838  0.4293 -0.6494
  728TMC3    C510813   0.876   3.267  14.697  0.2852  0.0447 -0.3958
  728TMC3    C610814   0.964   3.284  14.582  0.3783 -0.2268  0.4047
  728TMC3     C10815   1.109   3.180  14.950  0.3019  1.0882 -0.0177
  728TMC3     O10816   1.216   3.235  14.965 -0.3846  0.4466  0.4562
  728TMC3     H10817   1.251   3.166  14.748 -1.2299 -0.2548  1.1196
  728TMC3    H110818   0.850   3.222  14.898  2.7256  0.3045  1.7032
  728TMC3    H210819   0.926   3.311  14.484  1.1927  2.0475  0.7136
  728TMC3    C710820   0.746   3.324  14.697  0.0187  0.1753  0.0889
  728TMC3    C810821   1.168   3.218  14.480  0.0071 -0.0719  0.1021
  728TMC3    O110822   0.665   3.290  14.781  0.3586  0.1689 -0.2153
  728TMC3    O210823   1.285   3.250  14.487 -0.1237  0.0683 -0.6393
  729MPD2     C10824   2.644   4.319  16.731  0.1643  0.2958  0.4363
  729MPD2    C110825   2.760   4.294  16.797  0.3265  0.0447  0.1429
  729MPD2    C210826   2.751   4.250  16.931  0.2146 -0.1674  0.4360
  729MPD2    C310827   2.629   4.259  17.000  0.0358 -0.5266  0.4659
  729MPD2    C410828   2.517   4.304  16.928 -0.0124  0.3817  0.1955
  729MPD2    C510829   2.525   4.333  16.797 -0.3499  0.1326  0.9840
  729MPD2     H10830   2.839   4.227  16.991 -0.6475 -0.7871  1.4777
  729MPD2    H110831   2.425   4.328  16.979  0.2982  1.4152  0.2761
  729MPD2    H210832   2.643   4.329  16.623  0.8903  0.5642  0.4507
  729MPD2    H310833   2.436   4.365  16.743 -0.2370 -0.3297  0.5161
  729MPD2     N10834   2.617   4.251  17.144 -0.1230  0.2766  0.3573
  729MPD2    H510835   2.535   4.295  17.185 -1.2667 -0.4486 -1.1297
  729MPD2    N110836   2.884   4.305  16.731  0.2974 -0.5836 -0.2125
  729MPD2    H710837   2.877   4.340  16.636  1.8642  0.8119  0.2045
  730TMC3    C110838   2.714   4.296  17.364 -0.2513 -0.3801  0.4544
  730TMC3    C210839   2.804   4.254  17.464 -0.4878  0.3691  0.8498
  730TMC3    C310840   2.817   4.329  17.580  0.1538 -0.3079 -1.0287
  730TMC3    C410841   2.659   4.424  17.385  0.3283 -0.3075  0.0249
  730TMC3    C510842   2.677   4.503  17.496  0.6506 -0.2508 -0.4188
  730TMC3    C610843   2.757   4.451  17.604 -0.5646 -0.5543  0.2782
  730TMC3     C10844   2.723   4.229  17.230  0.0373 -0.2349  0.0541
  730TMC3     O10845   2.833   4.175  17.217 -0.0397 -0.2380  0.0870
  730TMC3     H10846   2.847   4.155  17.451 -1.5619  0.0823 -0.5018
  730TMC3    H110847   2.618   4.467  17.294  1.9009 -1.0732 -1.0672
  730TMC3    H210848   2.779   4.513  17.691 -1.2773 -0.8518  0.6699
  730TMC3    C710849   2.726   4.629  17.443  1.5176 -0.7421 -0.8084
  730TMC3    C810850   2.886   4.251  17.684 -0.5193 -0.3294  0.0340
  730TMC3    O110851   2.740   4.638  17.321  0.7535 -0.1075  0.8215
  730TMC3    O210852   2.956   4.156  17.649  0.1236  0.5159  0.1381
  731MPD2     C10853   4.324   1.975  12.615 -1.0892  0.3731 -0.1205
  731MPD2    C110854   4.212   2.040  12.574 -0.1467  0.0156 -0.2873
  731MPD2    C210855   4.091   1.971  12.588  0.0663  0.0958  0.9909
  731MPD2    C310856   4.082   1.842  12.637 -0.4599 -0.4671  0.2547
  731MPD2    C410857   4.197   1.777  12.682  0.5634 -0.0196 -0.1552
  731MPD2    C510858   4.311   1.855  12.677  0.6039 -0.6484  0.3302
  731MPD2     H10859   4.003   2.012  12.540 -1.1062 -2.2847  1.1068
  731MPD2    H110860   4.198   1.680  12.729  1.4154 -0.6637 -1.5019
  731MPD2    H210861   4.420   2.026  12.624 -1.8563  2.0767 -1.7514
  731MPD2    H310862   4.401   1.812  12.718 -0.3823 -1.5500  1.5601
  731MPD2     N10863   3.960   1.776  12.649 -0.3213  0.0084 -0.2004
  731MPD2    H510864   3.879   1.831  12.620  0.0632  1.2178  1.0230
  731MPD2    N110865   4.232   2.165  12.511 -1.0917 -0.9421  0.3011
  731MPD2    H710866   4.330   2.190  12.504 -1.1851 -0.7724 -0.3924
  732TMC3    C110867   4.189   2.356  12.388  0.0455  0.1602 -0.4724
  732TMC3    C210868   4.098   2.443  12.334 -0.2985  0.5363 -0.2177
  732TMC3    C310869   4.144   2.531  12.240  0.5801 -0.0181 -0.9317
  732TMC3    C410870   4.320   2.361  12.356 -0.1265 -0.4453 -0.5611
  732TMC3    C510871   4.359   2.436  12.251  0.1817  0.3737  0.1955
  732TMC3    C610872   4.276   2.538  12.202  0.3829  0.3524  0.0690
  732TMC3     C10873   4.131   2.244  12.467 -0.1519 -0.4654  0.3721
  732TMC3     O10874   4.010   2.225  12.468 -0.3063  0.1691  0.4992
  732TMC3     H10875   3.992   2.424  12.342 -0.3216  1.3751  1.4541
  732TMC3    H110876   4.389   2.290  12.401 -0.2629 -1.3861 -1.8281
  732TMC3    H210877   4.313   2.605  12.125  0.5774 -2.1449 -1.9950
  732TMC3    C710878   4.504   2.449  12.215 -0.0641 -0.4843 -0.1667
  732TMC3    C810879   4.048   2.620  12.171  0.2691 -0.3832  0.6823
  732TMC3    O110880   4.529   2.539  12.138  0.2405  0.0039 -0.0077
  732TMC3    O210881   4.086   2.714  12.098  0.4331 -0.0281 -0.1312
  733TMC3    C110882   4.469   0.232  12.627 -0.0270  0.4230  0.3373
  733TMC3    C210883   4.534   0.311  12.725  0.8036 -0.1676 -1.0102
  733TMC3    C310884   4.665   0.338  12.711 -0.2711 -0.1056 -0.0134
  733TMC3    C410885   4.539   0.170  12.521 -0.0108 -0.2649  0.2251
  733TMC3    C510886   4.670   0.216  12.515  0.0381 -0.2236 -0.2697
  733TMC3    C610887   0.002   0.296  12.601  0.6647  0.0329 -0.7775
  733TMC3     C10888   4.328   0.265  12.607 -0.2548  0.4587  0.3928
  733TMC3     O10889   4.293   0.373  12.660 -0.5702  0.0045  0.8048
  733TMC3     H10890   4.482   0.349  12.811  1.7405  1.5526 -1.2164
  733TMC3    H110891   4.489   0.120  12.439 -0.5948  0.2095  0.2905
  733TMC3    H210892   0.107   0.317  12.589  0.5128  0.9950 -0.4449
  733TMC3    C710893   4.732   0.225  12.382 -0.0316 -0.0110  0.4479
  733TMC3    C810894   4.724   0.448  12.779 -0.5020  0.2296 -0.3455
  733TMC3    O110895   0.001   0.125  12.315 -0.3200  0.0670 -0.0065
  733TMC3    O210896   4.707   0.451  12.899 -0.3622  0.2041  0.0452
  734MPD2     C10897   1.581   2.910  12.488 -0.3184  0.5893 -0.2165
  734MPD2    C110898   1.543   2.833  12.387  0.2379  0.0425 -0.6161
  734MPD2    C210899   1.592   2.857  12.255  0.1897 -0.7599  0.8076
  734MPD2    C310900   1.668   2.968  12.227 -0.5462 -0.0526 -0.5957
  734MPD2    C410901   1.687   3.051  12.332 -0.5568  0.4506  0.3365
  734MPD2    C510902   1.641   3.031  12.460  0.7207 -0.0728 -0.4246
  734MPD2     H10903   1.583   2.784  12.176 -0.1117  0.6212 -0.4255
  734MPD2    H110904   1.737   3.145  12.310  0.6041  0.0466  1.2335
  734MPD2    H210905   1.560   2.882  12.591 -2.2795  0.8779 -0.5346
  734MPD2    H310906   1.639   3.103  12.541  4.1200  1.2949 -1.5667
  734MPD2     N10907   1.698   2.995  12.091  0.7843  0.1085  0.8445
  734MPD2    H510908   1.667   2.924  12.027  0.1605  0.5098  0.7000
  734MPD2    N110909   1.477   2.710  12.415  0.7522  0.3216 -0.4550
  734MPD2    H710910   1.467   2.683  12.512  1.3562 -0.5280 -0.6256
  735TMC3    C110911   1.388   2.505  12.357 -0.8672  0.5561 -0.1295
  735TMC3    C210912   1.302   2.454  12.262 -0.2681 -0.0771 -0.3951
  735TMC3    C310913   1.337   2.330  12.215 -0.2624  0.1062  0.2631
  735TMC3    C410914   1.486   2.439  12.426 -0.6220 -0.3332  0.0594
  735TMC3    C510915   1.503   2.311  12.385  0.4762 -1.0036  0.8932
  735TMC3    C610916   1.441   2.265  12.269  0.0543  0.0072  0.0754
  735TMC3     C10917   1.415   2.635  12.315  0.0359  0.8560  0.0281
  735TMC3     O10918   1.409   2.660  12.193  0.5234  0.5157 -0.7158
  735TMC3     H10919   1.228   2.516  12.213  0.5365 -0.0866 -1.6306
  735TMC3    H110920   1.533   2.490  12.509 -0.9053  1.5379 -0.9455
  735TMC3    H210921   1.474   2.175  12.219 -1.3015 -1.1037  1.1788
  735TMC3    C710922   1.646   2.276  12.405 -0.5166 -0.1146  0.6227
  735TMC3    C810923   1.354   2.325  12.065 -0.0824 -0.3513  0.0328
  735TMC3    O110924   1.727   2.362  12.441 -0.0235  0.5613 -0.0281
  735TMC3    O210925   1.354   2.212  12.012  0.4309  0.3193 -0.5735
  736MPD2     C10926   1.820   1.954  12.343 -0.4349 -0.6337 -0.2531
  736MPD2    C110927   1.808   2.090  12.338 -0.8671  0.1517 -0.2996
  736MPD2    C210928   1.910   2.176  12.303 -0.0504 -1.1106 -0.0957
  736MPD2    C310929   2.033   2.126  12.278 -0.0086 -0.4267  1.1196
  736MPD2    C410930   2.047   1.990  12.283  0.0428  0.0255  1.0377
  736MPD2    C510931   1.947   1.905  12.310  0.7782 -1.0590 -0.1905
  736MPD2     H10932   1.889   2.282  12.287 -0.8487 -1.3589 -0.7060
  736MPD2    H110933   2.141   1.943  12.257 -1.4925 -2.3924 -0.1140
  736MPD2    H210934   1.741   1.887  12.374 -1.1629  1.0174  1.3781
  736MPD2    H310935   1.964   1.798  12.312  1.0878 -0.9807  0.9320
  736MPD2     N10936   2.149   2.206  12.243 -0.1626 -0.5821  0.8639
  736MPD2    H510937   2.219   2.156  12.189 -1.7527 -1.2721 -0.5394
  736MPD2    N110938   1.674   2.149  12.365  0.0755  0.0434  0.0921
  736MPD2    H710939   1.596   2.083  12.366  0.7724 -0.7808  0.3076
  737TMC3    C110940   2.258   2.403  12.186  0.0805  0.2939 -0.5940
  737TMC3    C210941   2.273   2.538  12.204  0.5309  0.1478  0.1415
  737TMC3    C310942   2.377   2.592  12.131  0.0881  0.4328  0.0446
  737TMC3    C410943   2.340   2.323  12.098  0.2828  0.0555 -0.2750
  737TMC3    C510944   2.442   2.384  12.031 -0.7552  0.1397  0.4434
  737TMC3    C610945   2.462   2.521  12.047  0.0656  0.2106 -0.6342
  737TMC3     C10946   2.155   2.338  12.265  0.2070 -0.7221 -0.2392
  737TMC3     O10947   2.090   2.405  12.343 -0.4060  0.8999 -0.4273
  737TMC3     H10948   2.200   2.603  12.251 -0.0783 -0.5974  0.2259
  737TMC3    H110949   2.326   2.218  12.073 -0.8424  0.4295 -1.2227
  737TMC3    H210950   2.541   2.564  11.986  0.4331  1.0213  0.4217
  737TMC3    C710951   2.491   2.318  11.912  0.3833  0.1114 -0.2395
  737TMC3    C810952   2.379   2.735  12.111 -0.0910  0.2253  0.2296
  737TMC3    O110953   2.461   2.201  11.897  0.1157 -0.0412 -0.0600
  737TMC3    O210954   2.379   2.810  12.207 -0.2822 -0.1336  0.1915
  738MPD2     C10955   1.610   1.894  14.846 -0.0638  0.3365 -0.2035
  738MPD2    C110956   1.615   1.789  14.941  0.5996 -0.5865  0.9362
  738MPD2    C210957   1.684   1.812  15.060 -0.0364  0.0552 -0.7223
  738MPD2    C310958   1.764   1.923  15.066  0.5157 -0.5523  0.2040
  738MPD2    C410959   1.770   2.018  14.978  0.0585 -0.3348 -0.1148
  738MPD2    C510960   1.699   2.005  14.860  0.0419 -1.2515  0.0516
  738MPD2     H10961   1.682   1.729  15.129 -1.0112  0.4637 -0.2596
  738MPD2    H110962   1.847   2.092  14.989  2.8065 -3.0675 -1.0572
  738MPD2    H210963   1.550   1.897  14.756  1.2074  1.1601 -1.0193
  738MPD2    H310964   1.709   2.079  14.781 -0.1557 -0.9552  0.3013
  738MPD2     N10965   1.868   1.931  15.167  0.2535 -0.1890 -0.7221
  738MPD2    H510966   1.946   1.993  15.152  1.5902 -1.8839 -0.7870
  738MPD2    N110967   1.555   1.662  14.916 -0.1372  0.3051 -0.2294
  738MPD2    H710968   1.574   1.594  14.988  0.2148  2.2135  1.4773
  739TMC3    C110969   2.031   1.849  15.305 -0.4032 -0.4857 -0.0999
  739TMC3    C210970   2.115   1.839  15.202  0.5807 -0.3519 -0.3116
  739TMC3    C310971   2.249   1.818  15.222 -0.6113 -0.8941  0.3107
  739TMC3    C410972   2.072   1.844  15.433  0.7393  1.1997  0.0760
  739TMC3    C510973   2.209   1.823  15.453 -0.2320  0.4792 -0.2787
  739TMC3    C610974   2.295   1.808  15.349 -0.0802 -0.1601 -0.5238
  739TMC3     C10975   1.887   1.846  15.274 -0.0649 -0.3244 -0.6005
  739TMC3     O10976   1.809   1.774  15.341 -0.4362  0.1868 -0.4163
  739TMC3     H10977   2.080   1.849  15.100  0.0984  1.8434  0.0611
  739TMC3    H110978   2.003   1.859  15.516  1.0485  0.6911  0.4221
  739TMC3    H210979   2.403   1.805  15.364 -0.0232 -0.8846 -1.0885
  739TMC3    C710980   2.266   1.860  15.585 -0.5981  0.6891  0.2712
  739TMC3    C810981   2.335   1.810  15.102 -0.1729 -0.2181  0.8672
  739TMC3    O110982   2.178   1.891  15.666 -0.3954 -0.3310  0.0296
  739TMC3    O210983   2.282   1.787  14.995 -0.2744 -0.2788 -0.4557
  740TMC3    C110984   2.788   2.717  14.450 -0.4022 -0.5222  0.3283
  740TMC3    C210985   2.832   2.657  14.565 -0.3866  0.3955  0.1004
  740TMC3    C310986   2.938   2.574  14.556  0.2750  0.0529  0.0840
  740TMC3    C410987   2.841   2.697  14.328  0.1767 -0.7217 -0.7364
  740TMC3    C510988   2.937   2.605  14.313  0.0498  0.6872  0.0481
  740TMC3    C610989   2.980   2.546  14.427  1.5874 -0.3884 -0.0585
  740TMC3     C10990   2.668   2.799  14.449  0.1386  0.2310  0.4679
  740TMC3     O10991   2.653   2.864  14.347 -0.1804 -0.3439 -0.3803
  740TMC3     H10992   2.783   2.668  14.661 -0.5490  1.5300 -0.1045
  740TMC3    H110993   2.809   2.751  14.240  0.3441 -3.4369 -2.4295
  740TMC3    H210994   3.042   2.458  14.417  0.1902 -1.5215  1.2145
  740TMC3    C710995   2.960   2.540  14.188 -0.6777  0.1866 -0.0207
  740TMC3    C810996   2.989   2.505  14.671 -0.1888 -0.1050  0.2099
  740TMC3    O110997   3.013   2.432  14.190 -0.3295 -0.1831 -0.3708
  740TMC3    O210998   2.923   2.522  14.773 -0.5709 -0.2185 -0.5984
  741TMC3    C110999   2.308   2.275  14.699  0.2857 -0.7374  0.4242
  741TMC3    C211000   2.199   2.278  14.614 -0.4274  0.0836 -0.4632
  741TMC3    C311001   2.093   2.204  14.666  0.7552 -0.4334  0.3006
  741TMC3    C411002   2.314   2.218  14.818 -0.4481  0.4184  0.1289
  741TMC3    C511003   2.201   2.157  14.868  0.0203  0.1772  0.4467
  741TMC3    C611004   2.091   2.150  14.787  0.7991 -0.3319  0.3920
  741TMC3     C11005   2.424   2.321  14.629 -0.5229 -0.2594  0.1286
  741TMC3     O11006   2.407   2.414  14.550  0.1293  0.1758 -0.2062
  741TMC3     H11007   2.206   2.326  14.517 -2.1561  1.1813 -0.0440
  741TMC3    H111008   2.402   2.237  14.879 -0.7959  1.1761  0.3939
  741TMC3    H211009   2.015   2.082  14.824  0.2626  0.3459  0.5307
  741TMC3    C711010   2.179   2.156  15.013 -0.1433 -0.7600 -0.4902
  741TMC3    C811011   1.993   2.169  14.563 -0.3657  0.4226  0.2119
  741TMC3    O111012   2.071   2.124  15.057  0.1510 -0.4310  0.1443
  741TMC3    O211013   2.009   2.213  14.449 -0.7701 -0.0745  0.4657
  742TMC3    C111014   2.000   1.141  15.396  0.5607  0.7452 -0.5122
  742TMC3    C211015   1.957   1.137  15.263 -0.1611  0.2462  0.5902
  742TMC3    C311016   2.057   1.124  15.168 -0.6100  0.0739  0.7971
  742TMC3    C411017   2.131   1.135  15.437 -0.0521 -0.2108  0.1265
  742TMC3    C511018   2.219   1.122  15.335  0.2237  1.1531  0.2100
  742TMC3    C611019   2.184   1.108  15.206 -0.5493 -0.1444  0.0477
  742TMC3     C11020   1.900   1.147  15.507  0.0463  0.4797 -0.1757
  742TMC3     O11021   1.952   1.147  15.619  0.2314 -0.4030  0.3271
  742TMC3     H11022   1.854   1.146  15.230  0.2202 -1.6119 -1.1250
  742TMC3    H111023   2.153   1.147  15.543  0.8758  1.0798 -0.2030
  742TMC3    H211024   2.260   1.100  15.128 -1.8337  0.9898 -1.3305
  742TMC3    C711025   2.360   1.092  15.363  0.1428 -0.2848  0.4524
  742TMC3    C811026   2.024   1.104  15.027  0.4873  0.5746 -0.8568
  742TMC3    O111027   2.408   1.015  15.278  0.9948  0.3806  0.3791
  742TMC3    O211028   2.119   1.095  14.951 -0.0373  0.3772  0.7432
  743MPD2     C11029   4.692   2.207   1.871  0.1052 -0.6512 -0.6412
  743MPD2    C111030   0.004   2.130   1.767  0.4377  0.4531  0.2327
  743MPD2    C211031   0.138   2.140   1.738  0.0472 -0.0370  0.4379
  743MPD2    C311032   0.223   2.234   1.805 -0.1573 -0.6382 -0.2212
  743MPD2    C411033   0.175   2.302   1.920  0.0781 -0.5276  0.1542
  743MPD2    C511034   0.040   2.294   1.945  0.4397  0.9122 -0.6944
  743MPD2     H11035   0.181   2.078   1.660  0.1687 -0.9935  1.2575
  743MPD2    H111036   0.239   2.366   1.980 -1.8043 -0.5124  2.1707
  743MPD2    H211037   4.588   2.204   1.903 -0.1600 -1.1740 -1.5642
  743MPD2    H311038   0.003   2.358   2.024  0.2988 -0.5070  0.4053
  743MPD2     N11039   0.362   2.225   1.773  0.6999 -0.3036 -0.1872
  743MPD2    H511040   0.388   2.158   1.701 -0.8188  0.6701 -1.6237
  743MPD2    N111041   4.643   2.060   1.689 -0.2282  0.3769  0.3125
  743MPD2    H711042   4.545   2.078   1.709 -0.0946  0.6822  0.6900
  744TMC3    C111043   4.552   1.946   1.502 -0.2610  0.0160 -0.0235
  744TMC3    C211044   4.445   2.027   1.491 -0.2499 -0.4367 -0.1558
  744TMC3    C311045   4.345   1.992   1.408 -0.0360  0.5920 -0.1620
  744TMC3    C411046   4.566   1.827   1.427  0.1724  0.4665 -0.5199
  744TMC3    C511047   4.463   1.805   1.336  0.0610  0.1282 -0.1067
  744TMC3    C611048   4.352   1.875   1.336  0.4405 -0.3540 -0.3823
  744TMC3     C11049   4.671   1.980   1.582  0.3995  0.0327  0.4491
  744TMC3     O11050   0.047   1.943   1.546 -0.6462 -0.2617  0.7023
  744TMC3     H11051   4.443   2.124   1.541 -0.9303 -1.1696  1.2537
  744TMC3    H111052   4.655   1.767   1.432 -0.0359  0.1721 -0.3506
  744TMC3    H211053   4.283   1.855   1.255  1.4282 -0.5641 -1.1632
  744TMC3    C711054   4.480   1.694   1.234  0.0312 -0.7737 -0.6193
  744TMC3    C811055   4.222   2.070   1.399  0.0683  0.3201  0.0541
  744TMC3    O111056   4.395   1.692   1.146  0.0046  0.3205 -0.0068
  744TMC3    O211057   4.150   2.051   1.301  0.1321  0.1108  0.0170
  745TMC3    C111058   3.118   0.278  13.437 -0.9213  0.4291 -0.5012
  745TMC3    C211059   2.986   0.273  13.471  0.1141  0.4720  0.3134
  745TMC3    C311060   2.885   0.313  13.381  0.3098 -0.3934 -0.3769
  745TMC3    C411061   3.154   0.330  13.320 -0.2278  0.0469 -0.9757
  745TMC3    C511062   3.057   0.359  13.231  0.1735  0.7351  0.5353
  745TMC3    C611063   2.919   0.344  13.251  0.0652  0.3677  0.1355
  745TMC3     C11064   3.207   0.296  13.545 -0.0627  0.1836 -0.2470
  745TMC3     O11065   3.319   0.244  13.540  0.0715 -0.5966 -0.1191
  745TMC3     H11066   2.969   0.243  13.574  1.4713  0.2605  0.4811
  745TMC3    H111067   3.258   0.356  13.309 -0.6566  2.0237 -0.4601
  745TMC3    H211068   2.844   0.375  13.179 -1.3782 -1.8031  0.6834
  745TMC3    C711069   3.087   0.432  13.110 -0.0534  0.5753 -0.8687
  745TMC3    C811070   2.775   0.384  13.436  0.5264 -0.1371  0.6829
  745TMC3    O111071   3.189   0.499  13.112 -0.2085 -0.3970  1.1527
  745TMC3    O211072   2.682   0.418  13.363 -0.4491  0.2020 -0.4414
  746TMC3    C111073   0.836   2.412  10.783  1.1297  0.1592 -0.3562
  746TMC3    C211074   0.955   2.387  10.719 -0.0574  0.4044 -0.4514
  746TMC3    C311075   0.970   2.260  10.671 -0.2356  0.0606  0.3373
  746TMC3    C411076   0.740   2.325  10.816  0.3150  0.3366  0.2517
  746TMC3    C511077   0.768   2.200  10.777  0.2554  0.2317 -0.9371
  746TMC3    C611078   0.883   2.168  10.709  0.1982 -0.4797  0.3035
  746TMC3     C11079   0.811   2.544  10.842 -0.0179 -1.2449 -1.0615
  746TMC3     O11080   0.759   2.562  10.954 -0.2286  0.4786  0.4663
  746TMC3     H11081   1.033   2.461  10.703  0.6287 -0.2242  0.0401
  746TMC3    H111082   0.645   2.355  10.859 -1.3463 -3.7856 -0.6091
  746TMC3    H211083   0.897   2.063  10.688 -0.8326 -0.5352 -0.1449
  746TMC3    C711084   0.656   2.106  10.776 -0.0149  0.3121  0.9143
  746TMC3    C811085   1.099   2.230  10.606  0.1391 -0.3965  0.0838
  746TMC3    O111086   0.545   2.152  10.772  0.3437  0.1430  0.0536
  746TMC3    O211087   1.133   2.113  10.600 -0.1978 -0.4466 -0.3933
  747TMC3    C111088   2.823   2.868  11.058  0.1563 -0.5328 -0.5035
  747TMC3    C211089   2.783   2.741  11.097 -0.6288  0.3373  0.2061
  747TMC3    C311090   2.776   2.724  11.230 -0.1507 -0.0118  0.3251
  747TMC3    C411091   2.865   2.964  11.142  0.5133 -0.0384  0.0213
  747TMC3    C511092   2.874   2.938  11.277 -0.2402 -0.5146 -0.2342
  747TMC3    C611093   2.822   2.815  11.324 -0.0175 -0.1797  0.6736
  747TMC3     C11094   2.842   2.886  10.919 -0.8506  0.4369 -0.2311
  747TMC3     O11095   2.827   2.997  10.879 -0.1384 -0.5854  0.0143
  747TMC3     H11096   2.755   2.656  11.035 -0.7390  1.4137 -1.2275
  747TMC3    H111097   2.886   3.060  11.096  1.9562  0.0168  0.8097
  747TMC3    H211098   2.836   2.785  11.427  2.4409 -0.0956  0.3638
  747TMC3    C711099   2.913   3.035  11.382 -0.0453 -0.1591 -0.2158
  747TMC3    C811100   2.718   2.594  11.270  0.2602 -0.1087 -0.4431
  747TMC3    O111101   2.883   3.010  11.499  0.1867  0.4352  0.1693
  747TMC3    O211102   2.738   2.502  11.196 -0.2575  0.4063  0.8419
  748MPD2     C11103   3.205   2.723   1.370 -0.9303 -0.3604 -0.1253
  748MPD2    C111104   3.248   2.683   1.246 -0.6724 -0.4845 -0.1490
  748MPD2    C211105   3.386   2.655   1.231 -0.0869  0.0028  0.5522
  748MPD2    C311106   3.470   2.686   1.339  0.1838 -0.2207  0.6617
  748MPD2    C411107   3.415   2.735   1.461 -0.0761 -0.5728 -0.2172
  748MPD2    C511108   3.279   2.745   1.477  0.0345 -0.1770 -0.4022
  748MPD2     H11109   3.429   2.630   1.135 -2.1318 -0.7396 -0.1711
  748MPD2    H111110   3.481   2.761   1.543 -1.1056  1.9275 -0.1895
  748MPD2    H211111   3.099   2.734   1.393 -0.1897  0.4925  2.8675
  748MPD2    H311112   3.244   2.777   1.575 -1.0729  1.6828 -1.4059
  748MPD2     N11113   3.609   2.679   1.323 -0.1686  0.1035 -0.8190
  748MPD2    H511114   3.647   2.685   1.229 -0.7759  0.9147 -1.0100
  748MPD2    N111115   3.148   2.675   1.148 -0.2882 -0.1825  0.0248
  748MPD2    H711116   3.056   2.694   1.187 -0.2934  0.1841 -0.1625
  749TMC3    C111117   3.839   2.668   1.408  0.2924 -0.7806  0.4321
  749TMC3    C211118   3.924   2.623   1.510  0.0634  0.5335  0.4382
  749TMC3    C311119   4.054   2.604   1.478  0.3161 -0.3792  0.1394
  749TMC3    C411120   3.882   2.694   1.278 -0.7219  0.1742  0.4022
  749TMC3    C511121   4.022   2.685   1.268 -0.2426 -0.8059 -0.2246
  749TMC3    C611122   4.108   2.638   1.361 -0.2582 -0.0593  0.7193
  749TMC3     C11123   3.696   2.669   1.432  0.4005 -0.3749 -0.1364
  749TMC3     O11124   3.662   2.623   1.543  0.5580 -0.1055  0.3408
  749TMC3     H11125   3.884   2.609   1.609 -0.6842 -0.1889  0.0369
  749TMC3    H111126   3.821   2.715   1.191 -2.0035  4.6837  2.4121
  749TMC3    H211127   4.215   2.639   1.341  0.0523 -0.2714  2.3478
  749TMC3    C711128   4.068   2.698   1.131 -0.2540  0.0298 -0.3088
  749TMC3    C811129   4.147   2.566   1.582 -0.0700 -0.2231 -0.5302
  749TMC3    O111130   4.017   2.784   1.063 -0.4621  0.6224 -0.2061
  749TMC3    O211131   4.110   2.597   1.697 -0.2596 -0.5604 -0.5702
  750MPD2     C11132   1.237   4.530  11.435  0.3568 -1.4567  0.0962
  750MPD2    C111133   1.121   4.457  11.436 -0.4418  0.5366 -0.3169
  750MPD2    C211134   1.129   4.329  11.387 -0.2209 -0.0993 -0.3047
  750MPD2    C311135   1.238   4.284  11.324  0.2230 -0.3576 -0.2339
  750MPD2    C411136   1.349   4.359  11.315  0.0888  0.4778  0.2032
  750MPD2    C511137   1.346   4.481  11.369 -0.3839 -0.3479 -0.5279
  750MPD2     H11138   1.038   4.270  11.393 -0.2669 -0.1541 -1.5087
  750MPD2    H111139   1.441   4.326  11.269 -1.7594 -3.2608 -0.7994
  750MPD2    H211140   1.232   4.633  11.467 -0.5607 -1.4113 -0.1697
  750MPD2    H311141   1.431   4.547  11.362  0.4474 -1.1548  1.8501
  750MPD2     N11142   1.241   4.149  11.266  0.7417 -0.2613 -0.0914
  750MPD2    H511143   1.330   4.113  11.232  0.5733 -0.8404  0.0719
  750MPD2    N111144   1.015   4.522  11.503  0.0979 -0.6219 -0.2304
  750MPD2    H711145   1.023   4.612  11.548  2.6167  0.1910 -2.3462
  751TMC3    C111146   1.179   3.929  11.212  0.2939  0.4862  0.3618
  751TMC3    C211147   1.114   3.823  11.268  0.0376  0.5592 -0.7787
  751TMC3    C311148   1.165   3.698  11.246  0.4861  0.3795  0.0851
  751TMC3    C411149   1.278   3.919  11.126 -0.3182 -0.6851  0.1613
  751TMC3    C511150   1.335   3.792  11.114  0.4230  0.5757 -0.5398
  751TMC3    C611151   1.273   3.682  11.172 -0.3164 -0.5161 -0.2594
  751TMC3     C11152   1.140   4.055  11.264  1.0119  0.6843 -0.1194
  751TMC3     O11153   1.024   4.066  11.301  0.5153  0.3251  0.3963
  751TMC3     H11154   1.021   3.829  11.322  0.2215  0.4922 -0.4572
  751TMC3    H111155   1.291   3.994  11.048  1.1001 -2.4358 -1.2810
  751TMC3    H211156   1.319   3.586  11.155  0.2142 -0.0811 -1.2844
  751TMC3    C711157   1.384   3.763  10.981 -0.0293 -0.8585  0.8011
  751TMC3    C811158   1.068   3.611  11.191 -0.0265  0.2651 -0.1715
  751TMC3    O111159   1.440   3.850  10.915 -0.2144  0.1653  0.1641
  751TMC3    O211160   1.096   3.548  11.087 -0.1485  0.1118 -0.3465
  752TMC3    C111161   3.555   3.676  17.344 -0.1102  1.1443  0.5212
  752TMC3    C211162   3.591   3.562  17.416 -0.2788 -0.6761  0.1708
  752TMC3    C311163   3.518   3.531  17.527 -0.6456  0.0653 -0.2347
  752TMC3    C411164   3.463   3.758  17.399 -0.9116  0.4902 -0.0173
  752TMC3    C511165   3.403   3.726  17.517 -0.7743 -0.5504  1.1335
  752TMC3    C611166   3.423   3.608  17.583 -0.9910  0.7822  0.8729
  752TMC3     C11167   3.628   3.698  17.224 -0.5080 -0.3736  0.1848
  752TMC3     O11168   3.734   3.640  17.208 -0.0895  0.0658  0.7231
  752TMC3     H11169   3.668   3.498  17.375  0.7451  0.2222  0.7141
  752TMC3    H111170   3.433   3.853  17.356  2.1625  2.6174  2.5909
  752TMC3    H211171   3.366   3.575  17.669 -0.0749  1.1367  1.6083
  752TMC3    C711172   3.272   3.788  17.545  0.2869 -0.0491 -0.5099
  752TMC3    C811173   3.536   3.402  17.593  0.5557  0.5101 -0.1587
  752TMC3    O111174   3.224   3.857  17.453 -0.0643  0.0431  0.1501
  752TMC3    O211175   3.561   3.405  17.713 -0.1225  0.5348 -0.1228
  753TMC3    C111176   1.094   0.199  13.174 -0.4911  0.1071  0.2168
  753TMC3    C211177   1.103   0.235  13.308  0.0751  0.7437 -0.1755
  753TMC3    C311178   1.021   0.173  13.390  0.4704  0.0384 -0.2990
  753TMC3    C411179   1.011   0.109  13.120  0.5096  0.7894 -0.6146
  753TMC3    C511180   0.929   0.050  13.213 -0.7582  0.1842  0.6365
  753TMC3    C611181   0.933   0.076  13.347  0.1374  0.0021  0.0188
  753TMC3     C11182   1.141   0.291  13.078  0.1923  0.2716  0.9151
  753TMC3     O11183   1.076   0.299  12.977 -0.3864 -0.0289 -0.4207
  753TMC3     H11184   1.181   0.305  13.336 -0.9770  1.7337  0.2647
  753TMC3    H111185   1.028   0.078  13.018 -0.3785  0.8953 -0.7959
  753TMC3    H211186   0.858   0.033  13.412 -0.0415  1.2595  0.6669
  753TMC3    C711187   0.811   4.711  13.161 -0.2007  0.5454  0.3203
  753TMC3    C811188   1.042   0.181  13.537  0.7289 -0.3471  0.2784
  753TMC3    O111189   0.735   4.664  13.249 -0.6534 -0.3334  0.1783
  753TMC3    O211190   1.035   0.081  13.603 -0.5049 -0.0040 -0.2929
  754MPD2     C11191   0.234   4.065  12.987 -0.3730 -0.0963 -0.9528
  754MPD2    C111192   0.286   3.958  13.061  0.0132  0.0714  0.1284
  754MPD2    C211193   0.208   3.853  13.097  0.6700 -0.3187 -0.0441
  754MPD2    C311194   0.066   3.852  13.091 -0.2486  0.1312  0.3231
  754MPD2    C411195   0.013   3.958  13.017 -0.0583  0.0125  0.1427
  754MPD2    C511196   0.095   4.057  12.968  0.3784  0.0388  0.3408
  754MPD2     H11197   0.262   3.762  13.121 -0.8960 -1.4038 -0.7029
  754MPD2    H111198   4.643   3.948  12.996 -0.0308  2.3311 -1.0591
  754MPD2    H211199   0.303   4.142  12.953 -0.2853  0.1436 -0.2290
  754MPD2    H311200   0.052   4.134  12.905 -1.4816 -1.2036  0.0801
  754MPD2     N11201   4.721   3.736  13.122 -0.7486  0.0295 -0.2923
  754MPD2    H511202   4.621   3.751  13.110 -0.6721  0.6093 -0.1602
  754MPD2    N111203   0.424   3.961  13.087 -0.6565 -0.6364 -0.1318
  754MPD2    H711204   0.469   4.037  13.037  1.0210 -0.8790  1.0245
  755MPD2     C11205   3.937   3.900  13.234  0.1082  0.4773 -0.2590
  755MPD2    C111206   3.989   3.858  13.354 -0.4838 -0.1864 -0.2445
  755MPD2    C211207   4.096   3.768  13.351  0.0934  0.1959 -0.5733
  755MPD2    C311208   4.157   3.728  13.235 -0.1505 -0.0578  0.0349
  755MPD2    C411209   4.110   3.776  13.114  0.2480 -0.2436  0.2871
  755MPD2    C511210   3.999   3.857  13.115  0.0730 -0.9543 -0.0977
  755MPD2     H11211   4.136   3.737  13.447 -0.0717  1.3047 -0.1500
  755MPD2    H111212   4.151   3.759  13.015  0.1432 -0.4904  0.2858
  755MPD2    H211213   3.845   3.957  13.222 -0.9275 -1.2741 -0.6362
  755MPD2    H311214   3.961   3.895  13.020  1.1956  1.9282  0.6111
  755MPD2     N11215   4.264   3.627  13.232 -0.0004  0.1661  0.9566
  755MPD2    H511216   4.298   3.601  13.140 -0.6735  3.1479 -0.1295
  755MPD2    N111217   3.943   3.888  13.486 -0.0044  0.1089  0.4517
  755MPD2    H711218   3.993   3.849  13.566  0.1346 -0.1117  0.2571
  756MPD2     C11219   0.669   0.293   9.762 -0.4063 -0.7810  0.0670
  756MPD2    C111220   0.572   0.225   9.824  0.2448  0.6027 -0.3513
  756MPD2    C211221   0.453   0.193   9.775 -0.1204 -0.1940  0.2717
  756MPD2    C311222   0.423   0.235   9.650 -0.0487 -1.1483 -0.5621
  756MPD2    C411223   0.513   0.307   9.585  0.5099 -0.4769 -0.4269
  756MPD2    C511224   0.640   0.337   9.635  0.5764  0.2267 -0.1229
  756MPD2     H11225   0.389   0.136   9.840  0.2169  0.7591  1.4409
  756MPD2    H111226   0.499   0.356   9.489 -1.7911  1.0286  0.6782
  756MPD2    H211227   0.764   0.320   9.806  0.3000  0.7279 -2.3884
  756MPD2    H311228   0.708   0.403   9.583 -0.6529  1.8413  0.3194
  756MPD2     N11229   0.303   0.198   9.592 -0.1436  0.7033  0.0033
  756MPD2    H511230   0.236   0.149   9.650  0.4292  1.4611  1.2969
  756MPD2    N111231   0.588   0.185   9.961 -0.2300  0.3128  0.4149
  756MPD2    H711232   0.506   0.145  10.007  0.3255  0.0192  1.1473
  757MPD2     C11233   4.605   4.247   9.820  0.4652 -0.1709  0.4959
  757MPD2    C111234   4.696   4.330   9.878  1.1259  0.0687 -0.3065
  757MPD2    C211235   4.723   4.455   9.817 -0.3780  0.1115 -0.2031
  757MPD2    C311236   4.641   4.490   9.709  0.0077  0.2838  0.0019
  757MPD2    C411237   4.545   4.402   9.657  0.5020  0.8935  0.3184
  757MPD2    C511238   4.523   4.282   9.718 -0.1280  0.2453  0.2365
  757MPD2     H11239   0.063   4.514   9.867  0.7869 -0.0971 -1.7046
  757MPD2    H111240   4.471   4.428   9.582 -1.3406 -1.3969  1.3298
  757MPD2    H211241   4.607   4.147   9.860 -0.5508  0.1928  1.4499
  757MPD2    H311242   4.446   4.221   9.673  0.1168  2.0959 -2.6856
  757MPD2     N11243   4.667   4.622   9.657 -0.0429  0.3568  0.3690
  757MPD2    H511244   0.010   4.673   9.693  0.8231  0.6547 -1.9307
  757MPD2    N111245   0.034   4.284   9.996  0.3798  1.2196  0.2715
  757MPD2    H711246   0.009   4.195  10.039 -0.5637  0.5888 -1.5206
  758MPD2     C11247   4.627   3.647  15.929 -0.0360 -0.1485 -0.1627
  758MPD2    C111248   4.685   3.554  16.009  0.3003 -0.0031 -0.3967
  758MPD2    C211249   4.644   3.540  16.142  0.4876 -0.0146  0.1787
  758MPD2    C311250   4.544   3.618  16.196  0.3141  0.6436 -0.7628
  758MPD2    C411251   4.491   3.717  16.119 -0.0787 -0.1651  0.1618
  758MPD2    C511252   4.539   3.732  15.990  0.0744  0.0210 -0.4985
  758MPD2     H11253   4.704   3.467  16.195  1.4641  0.6283 -0.0475
  758MPD2    H111254   4.423   3.789  16.165 -1.2436 -0.3315 -1.2805
  758MPD2    H211255   4.651   3.663  15.825 -1.1334 -0.1295 -0.4120
  758MPD2    H311256   4.485   3.807  15.932  0.4691 -0.9706 -2.1622
  758MPD2     N11257   4.492   3.599  16.327 -0.0012 -0.4202 -0.3666
  758MPD2    H511258   4.421   3.664  16.359 -0.7976 -1.4156 -0.0883
  758MPD2    N111259   0.036   3.472  15.945  0.2089 -0.2086  0.1875
  758MPD2    H711260   0.041   3.488  15.845  1.1594 -0.5077  0.1889
  759MPD2     C11261   4.027   3.201  10.156 -0.0319 -0.3651 -0.4044
  759MPD2    C111262   4.120   3.100  10.197  0.2693 -0.1146  0.7301
  759MPD2    C211263   4.251   3.133  10.163 -0.5134  0.3225  0.3001
  759MPD2    C311264   4.285   3.235  10.074  0.6717  0.1405 -0.3198
  759MPD2    C411265   4.188   3.310  10.011 -0.3694  0.5824  0.4752
  759MPD2    C511266   4.054   3.294  10.055 -0.5845 -0.5292 -0.1555
  759MPD2     H11267   4.328   3.084  10.222 -0.7552 -0.1586  0.2162
  759MPD2    H111268   4.210   3.388   9.939  1.2118  0.3984  0.7621
  759MPD2    H211269   3.925   3.189  10.190 -0.8574  1.0061 -2.3562
  759MPD2    H311270   3.971   3.360  10.035 -1.1389 -0.1949  3.2791
  759MPD2     N11271   4.425   3.267  10.063 -0.3557  0.2793  0.0228
  759MPD2    H511272   4.490   3.211  10.118  0.1415 -0.3777 -1.2075
  759MPD2    N111273   4.093   3.003  10.297  0.5248 -0.6361  0.2274
  759MPD2    H711274   4.173   2.945  10.320  2.1061  1.7337  0.6471
  760MPD2     C11275   3.695   3.446  11.554 -0.6258  0.7677  0.7003
  760MPD2    C111276   3.647   3.465  11.685 -0.0838 -0.7249 -0.4921
  760MPD2    C211277   3.680   3.371  11.781  0.1677 -0.4153  0.3442
  760MPD2    C311278   3.769   3.265  11.754  0.1991 -0.7859 -0.3342
  760MPD2    C411279   3.805   3.248  11.623 -0.7642 -0.0080  0.0932
  760MPD2    C511280   3.767   3.333  11.522 -0.0240 -0.4877 -0.8642
  760MPD2     H11281   3.647   3.387  11.884  0.7911 -1.4788  0.7149
  760MPD2    H111282   3.854   3.158  11.585 -0.4849 -0.3530  1.2558
  760MPD2    H211283   3.669   3.513  11.472  0.0855  1.1617  0.7928
  760MPD2    H311284   3.793   3.317  11.418  0.4859  0.6832 -0.9141
  760MPD2     N11285   3.819   3.176  11.853  0.4081  0.4138 -0.4258
  760MPD2    H511286   3.877   3.097  11.824  1.4066  1.6157 -1.7373
  760MPD2    N111287   3.576   3.583  11.726 -1.0038 -1.0076  0.4055
  760MPD2    H711288   3.556   3.602  11.824 -1.2324 -1.1023  0.3769
  761MPD2     C11289   0.665   3.289  11.219 -0.2505 -0.1158  0.5449
  761MPD2    C111290   0.754   3.319  11.116  0.1312 -0.6660 -0.3906
  761MPD2    C211291   0.860   3.408  11.138  0.1016  0.1530 -0.4276
  761MPD2    C311292   0.864   3.485  11.252  0.5426 -0.3004 -0.0646
  761MPD2    C411293   0.778   3.456  11.354  0.0108 -0.0117 -0.3664
  761MPD2    C511294   0.683   3.355  11.334  0.4774  0.6423 -0.5605
  761MPD2     H11295   0.940   3.411  11.065  0.7472 -1.1696  0.2213
  761MPD2    H111296   0.769   3.513  11.446 -0.0274 -0.4309 -0.1059
  761MPD2    H211297   0.581   3.221  11.208 -0.2622 -0.3939  2.2776
  761MPD2    H311298   0.610   3.337  11.412  2.0280 -0.8541  0.5559
  761MPD2     N11299   0.954   3.591  11.269  0.6721  0.0593  0.3577
  761MPD2    H511300   0.950   3.640  11.358  0.9251  0.1715  0.3071
  761MPD2    N111301   0.728   3.263  10.992 -0.2056 -0.2009  0.0637
  761MPD2    H711302   0.660   3.188  10.986  1.5706 -1.7385 -0.8037
  762MPD2     C11303   1.087   3.475  10.254  0.7155  0.8547  0.2656
  762MPD2    C111304   1.082   3.344  10.306  0.5292  0.6674 -0.5625
  762MPD2    C211305   1.180   3.249  10.272 -0.2733 -0.6910  0.1018
  762MPD2    C311306   1.284   3.282  10.185 -0.0757 -0.3797 -0.5907
  762MPD2    C411307   1.298   3.413  10.155  0.1528 -0.1372 -0.2023
  762MPD2    C511308   1.200   3.506  10.184 -0.0497 -0.2262  0.2795
  762MPD2     H11309   1.179   3.146  10.307  1.2966 -0.8247 -0.2451
  762MPD2    H111310   1.386   3.451  10.105 -0.3072 -1.3992 -1.9612
  762MPD2    H211311   1.014   3.552  10.276  2.3788  2.5537 -0.2260
  762MPD2    H311312   1.230   3.607  10.159  1.4927 -0.2780  1.8825
  762MPD2     N11313   1.383   3.194  10.152  0.2169  0.5467 -0.1883
  762MPD2    H511314   1.465   3.234  10.108  0.2963 -0.1490 -0.6745
  762MPD2    N111315   0.983   3.311  10.406  0.5630 -0.5593  0.1169
  762MPD2    H711316   0.933   3.384  10.456  3.0279  3.1518 -2.7927
  763MPD2     C11317   1.818   3.566  16.120 -0.3402  0.4088  0.5230
  763MPD2    C111318   1.692   3.603  16.070 -0.2640 -0.5881 -0.1834
  763MPD2    C211319   1.627   3.722  16.119  0.5664 -0.4283 -0.2949
  763MPD2    C311320   1.706   3.800  16.203 -0.2690 -0.4839  0.2608
  763MPD2    C411321   1.830   3.762  16.247 -0.6144 -0.9145 -0.5166
  763MPD2    C511322   1.885   3.644  16.204 -0.3786  0.4694 -0.8259
  763MPD2     H11323   1.529   3.759  16.090  0.4138 -0.4254  0.2414
  763MPD2    H111324   1.880   3.814  16.329  1.1777 -1.6990 -1.1241
  763MPD2    H211325   1.869   3.475  16.089 -1.5849  0.2387 -0.9850
  763MPD2    H311326   1.968   3.604  16.261 -0.6022  1.0408 -0.1098
  763MPD2     N11327   1.672   3.934  16.252  0.3218  0.1753  0.0873
  763MPD2    H511328   1.751   3.979  16.297 -0.9750  1.7579  0.7698
  763MPD2    N111329   1.614   3.522  15.984  0.1963 -0.3807 -0.4157
  763MPD2    H711330   1.534   3.564  15.939 -0.7319 -1.2016  0.4643
  764MPD2     C11331   4.040   0.268  17.665  0.2867 -0.9811 -0.6974
  764MPD2    C111332   3.942   0.176  17.634  0.1428 -0.2320  0.3926
  764MPD2    C211333   3.922   0.065  17.725 -0.0157 -0.1031  0.1487
  764MPD2    C311334   3.997   0.054   0.098 -0.2596  0.2203  0.1215
  764MPD2    C411335   4.097   0.140   0.121  0.2654 -0.1067  0.4100
  764MPD2    C511336   4.108   0.249   0.038  0.6856  0.0544 -1.1953
  764MPD2     H11337   3.836   4.736  17.722 -1.9335  2.4309  0.0197
  764MPD2    H111338   4.160   0.130   0.209 -1.0176 -0.7088  1.2487
  764MPD2    H211339   4.061   0.361  17.614  0.4738 -1.2472 -1.1103
  764MPD2    H311340   4.184   0.320   0.071 -0.1261  1.2017 -1.7995
  764MPD2     N11341   3.960   4.687   0.190  0.3361 -0.3299  0.6466
  764MPD2    H511342   3.877   4.632   0.172 -0.8776  1.6814  0.0847
  764MPD2    N111343   3.854   0.194  17.527  0.6878 -0.1936  0.1221
  764MPD2    H711344   3.785   0.120  17.514  1.3580 -0.4465 -2.0717
  765MPD2     C11345   4.535   3.180  15.407  0.2482 -0.2406 -0.1987
  765MPD2    C111346   4.558   3.199  15.540 -0.0182 -0.0212  0.3043
  765MPD2    C211347   4.683   3.170  15.594 -0.0154  0.4861 -0.0305
  765MPD2    C311348   0.056   3.141  15.513  0.0749  0.6480  0.6411
  765MPD2    C411349   0.034   3.125  15.377  0.2631  0.2965  0.1452
  765MPD2    C511350   4.645   3.145  15.324 -0.3029  0.6208 -0.3624
  765MPD2     H11351   4.706   3.176  15.699  3.0466 -0.0968 -0.6861
  765MPD2    H111352   0.108   3.079  15.312 -0.0592  1.0478 -0.7496
  765MPD2    H211353   4.444   3.215  15.360  0.1403 -1.4442 -0.8854
  765MPD2    H311354   4.626   3.126  15.219  0.7794 -0.3440 -0.3836
  765MPD2     N11355   0.177   3.124  15.568  0.2354 -0.1937 -0.2838
  765MPD2    H511356   0.179   3.114  15.669 -1.4767  1.8929 -0.0653
  765MPD2    N111357   4.449   3.249  15.611 -0.2981 -0.1503  0.8006
  765MPD2    H711358   4.364   3.271  15.560 -0.3211  0.4594  1.0981
  766MPD2     C11359   3.887   3.019  15.478 -0.6584  0.1862  0.0511
  766MPD2    C111360   3.954   3.139  15.460 -0.4827 -0.6388 -0.0173
  766MPD2    C211361   4.010   3.159  15.337  0.0953 -0.2875  0.3338
  766MPD2    C311362   4.003   3.069  15.232 -0.2477  0.2057  0.3863
  766MPD2    C411363   3.927   2.958  15.250 -0.5206  0.0544  0.0734
  766MPD2    C511364   3.871   2.933  15.374 -0.5975  0.0364  0.1474
  766MPD2     H11365   4.056   3.253  15.310  1.9932 -1.7765 -1.6304
  766MPD2    H111366   3.907   2.891  15.167 -0.1004 -1.4150  1.1463
  766MPD2    H211367   3.842   2.995  15.574  0.0127 -0.8202  0.1084
  766MPD2    H311368   3.811   2.844  15.390  0.8843 -0.6758  1.7343
  766MPD2     N11369   4.079   3.074  15.115  0.5122  0.4281 -0.2350
  766MPD2    H511370   4.054   3.008  15.043  0.8622 -1.5105  1.4132
  766MPD2    N111371   3.994   3.219  15.570  0.4061  0.3108  0.2312
  766MPD2    H711372   4.008   3.173  15.660  1.7649 -0.2166 -0.2553
  767MPD2     C11373   3.676   3.400  15.081  0.4899  0.2032  0.1875
  767MPD2    C111374   3.808   3.407  15.023  0.5569 -0.2532 -0.2860
  767MPD2    C211375   3.839   3.332  14.909  0.7527 -0.6660  0.8376
  767MPD2    C311376   3.738   3.259  14.850 -0.0155  0.4745  0.2916
  767MPD2    C411377   3.613   3.251  14.905 -0.2955 -0.2429  0.9946
  767MPD2    C511378   3.585   3.311  15.020  0.0570  0.7869 -0.1045
  767MPD2     H11379   3.936   3.327  14.860  0.1219 -3.0045 -0.1650
  767MPD2    H111380   3.536   3.190  14.860 -0.0813 -0.1633  0.5202
  767MPD2    H211381   3.655   3.454  15.173 -2.3791 -0.7676  0.0985
  767MPD2    H311382   3.484   3.293  15.056 -0.8013  0.4191 -2.6952
  767MPD2     N11383   3.763   3.192  14.728  0.2642 -0.2129  0.0098
  767MPD2    H511384   3.855   3.212  14.692 -0.1638  0.4423 -0.7264
  767MPD2    N111385   3.900   3.491  15.082 -0.9707 -0.0729  0.3140
  767MPD2    H711386   3.868   3.537  15.166  0.9609 -1.1356  1.6276
  768MPD2     C11387   0.464   1.983  10.320  0.7775 -0.5658  0.0227
  768MPD2    C111388   0.435   1.870  10.404  0.2683 -0.5820 -0.1770
  768MPD2    C211389   0.549   1.809  10.462  0.5439  0.0119 -0.1708
  768MPD2    C311390   0.675   1.845  10.425 -0.3060  0.0870 -0.9282
  768MPD2    C411391   0.695   1.958  10.350  0.2487  0.6787 -0.0158
  768MPD2    C511392   0.594   2.021  10.291 -0.1897 -0.0526 -0.3053
  768MPD2     H11393   0.532   1.738  10.543  2.7489 -1.8652 -1.3409
  768MPD2    H111394   0.798   1.990  10.339  0.9369 -1.5608 -0.0035
  768MPD2    H211395   0.380   2.032  10.273  0.4902  0.0678  1.2092
  768MPD2    H311396   0.613   2.110  10.233 -0.3893  0.9216  1.1478
  768MPD2     N11397   0.786   1.787  10.495 -0.0710  1.1433  0.7602
  768MPD2    H511398   0.880   1.822  10.478  1.0795 -1.6670  1.3984
  768MPD2    N111399   0.307   1.833  10.443  0.5138 -0.2846  0.0616
  768MPD2    H711400   0.307   1.756  10.509 -0.3063 -0.9025 -0.6492
  769MPD2     C11401   0.619   0.175  14.625  0.5338 -0.1956 -0.2907
  769MPD2    C111402   0.549   0.109  14.721 -0.2379  0.1537  0.5592
  769MPD2    C211403   0.604   0.081  14.844 -0.3679 -0.7778  1.4370
  769MPD2    C311404   0.739   0.129  14.871  0.0521  0.0032 -0.5213
  769MPD2    C411405   0.804   0.198  14.771  0.7292 -0.7781 -0.5258
  769MPD2    C511406   0.743   0.218  14.653  0.0708  0.2789 -0.4107
  769MPD2     H11407   0.545   0.031  14.920 -1.4361 -1.6487  0.0333
  769MPD2    H111408   0.903   0.239  14.786  0.4598  0.1713 -1.3685
  769MPD2    H211409   0.566   0.205  14.536 -0.3524 -1.0365 -0.0475
  769MPD2    H311410   0.790   0.265  14.567 -0.7796 -1.8919 -2.0677
  769MPD2     N11411   0.790   0.104  15.007 -0.3962  0.8761  0.1704
  769MPD2    H511412   0.714   0.078  15.068 -1.1688  0.8012 -0.8297
  769MPD2    N111413   0.433   0.051  14.681 -0.3871 -0.0723  0.2834
  769MPD2    H711414   0.397   0.068  14.587  2.9347 -1.1747 -1.2019
  770MPD2     C11415   0.102   3.819  14.660 -0.0233  0.2099  0.8417
  770MPD2    C111416   0.212   3.871  14.727  0.1407  0.6388 -0.5719
  770MPD2    C211417   0.240   4.004  14.716  0.0315  0.0173  0.5546
  770MPD2    C311418   0.165   4.086  14.628  1.0545 -0.7880 -0.0819
  770MPD2    C411419   0.059   4.029  14.564 -0.3020 -0.5044 -0.2782
  770MPD2    C511420   0.025   3.898  14.581 -0.2714 -0.0732 -0.0501
  770MPD2     H11421   0.325   4.051  14.765  1.3928 -1.3158 -0.5064
  770MPD2    H111422   0.007   4.097  14.498 -1.7294  0.7120  2.1182
  770MPD2    H211423   0.079   3.714  14.668  1.0282 -0.1094 -0.2620
  770MPD2    H311424   4.668   3.861  14.539 -0.8103  0.7404  0.4302
  770MPD2     N11425   0.203   4.223  14.610 -0.1625 -0.4489 -0.0219
  770MPD2    H511426   0.272   4.260  14.674 -3.1195  3.6690  0.7702
  770MPD2    N111427   0.273   3.790  14.814  0.0762 -0.0843  0.3131
  770MPD2    H711428   0.227   3.702  14.835 -1.5536  0.6559 -0.1124
  771MPD2     C11429   1.812   2.701  13.805  0.6749 -0.0231 -0.5033
  771MPD2    C111430   1.855   2.801  13.714 -0.1727 -0.3327 -0.8866
  771MPD2    C211431   1.847   2.774  13.579 -0.5617  0.3745  0.5608
  771MPD2    C311432   1.781   2.666  13.533 -0.7846 -0.6796  0.7037
  771MPD2    C411433   1.723   2.581  13.620 -0.3560 -0.2607 -0.6706
  771MPD2    C511434   1.744   2.594  13.753 -0.1616  0.2597 -0.1319
  771MPD2     H11435   1.875   2.851  13.508 -1.1092 -2.5894 -2.8404
  771MPD2    H111436   1.664   2.497  13.585 -0.1071 -0.2892 -1.0183
  771MPD2    H211437   1.828   2.720  13.911  0.1046 -0.4015 -0.3499
  771MPD2    H311438   1.698   2.524  13.822 -0.9889 -0.5259 -1.4678
  771MPD2     N11439   1.776   2.658  13.397  0.5739 -0.4460  0.5809
  771MPD2    H511440   1.810   2.741  13.349 -0.1454 -0.1379  0.6025
  771MPD2    N111441   1.911   2.921  13.751 -0.6614 -0.2468 -0.7648
  771MPD2    H711442   1.949   2.981  13.680 -2.2814  1.4639 -0.1884
  772MPD2     C11443   1.665   3.580  13.660 -0.3427  0.5249  0.1622
  772MPD2    C111444   1.641   3.479  13.746 -0.0471  0.0319 -0.0551
  772MPD2    C211445   1.509   3.428  13.747  0.0676 -0.3011  0.2867
  772MPD2    C311446   1.416   3.467  13.651  0.3764  0.2398  0.0770
  772MPD2    C411447   1.445   3.572  13.567  0.8219 -0.5736 -0.1950
  772MPD2    C511448   1.561   3.641  13.584  0.8855  0.3342 -0.7797
  772MPD2     H11449   1.487   3.348  13.816 -0.5540 -0.7888 -0.4734
  772MPD2    H111450   1.379   3.613  13.491  0.5183  1.9464  1.4299
  772MPD2    H211451   1.763   3.622  13.640  0.2719  0.1726  2.4449
  772MPD2    H311452   1.589   3.724  13.520 -1.3027  0.8037 -1.1212
  772MPD2     N11453   1.296   3.400  13.635 -0.3145 -0.1274 -0.2332
  772MPD2    H511454   1.225   3.441  13.575  0.8743  0.0663 -1.4931
  772MPD2    N111455   1.744   3.414  13.819  0.5645 -0.6143 -0.4535
  772MPD2    H711456   1.702   3.344  13.880 -0.7124  2.3833  2.1604
  773MPD2     C11457   0.451   3.503   0.670 -0.2447  0.3670  0.2891
  773MPD2    C111458   0.430   3.412   0.568  0.0597 -1.0037 -0.2378
  773MPD2    C211459   0.515   3.306   0.561 -0.1764  0.1496  0.1514
  773MPD2    C311460   0.627   3.301   0.642 -0.4986  0.3936  0.2591
  773MPD2    C411461   0.648   3.393   0.739  0.4443 -0.0351 -0.0963
  773MPD2    C511462   0.556   3.489   0.762 -0.1465  0.1946 -0.0349
  773MPD2     H11463   0.505   3.218   0.499  2.1386 -1.3030  1.8324
  773MPD2    H111464   0.732   3.381   0.806 -1.1229 -0.7527  1.7274
  773MPD2    H211465   0.385   3.588   0.688 -1.1828  0.0123 -1.4289
  773MPD2    H311466   0.574   3.557   0.845  0.4796  0.7516 -0.6206
  773MPD2     N11467   0.733   3.207   0.609 -0.2300  0.0420  0.2874
  773MPD2    H511468   0.701   3.140   0.539 -0.3644  1.0883 -0.6583
  773MPD2    N111469   0.315   3.418   0.488 -0.4968  0.0572 -0.6466
  773MPD2    H711470   0.297   3.335   0.432 -1.6083 -2.0812  2.8177
  774MPD2     C11471   0.421   2.986  13.517  0.7747 -0.4200 -0.2661
  774MPD2    C111472   0.320   3.059  13.577  0.3549  0.0495 -0.2955
  774MPD2    C211473   0.332   3.199  13.571  0.4088 -0.1114 -0.4194
  774MPD2    C311474   0.432   3.264  13.496 -0.7777 -0.5772 -0.2049
  774MPD2    C411475   0.527   3.181  13.441  0.4414 -0.4719  0.3361
  774MPD2    C511476   0.523   3.047  13.452 -1.1426 -0.3950 -0.6750
  774MPD2     H11477   0.253   3.263  13.607  0.7777  0.0411  0.1226
  774MPD2    H111478   0.601   3.222  13.374  1.5347 -1.0734  1.1817
  774MPD2    H211479   0.417   2.878  13.523 -1.9028 -0.1163  3.2075
  774MPD2    H311480   0.603   2.993  13.403 -0.4611 -1.4860  1.6159
  774MPD2     N11481   0.427   3.405  13.483  0.0916 -0.3410  0.0861
  774MPD2    H511482   0.352   3.453  13.532 -1.3391 -3.7255  1.1847
  774MPD2    N111483   0.214   2.988  13.644  0.2182 -0.4683 -0.4730
  774MPD2    H711484   0.216   2.887  13.628 -1.6883 -1.3081  4.4550
  775MPD2     C11485   1.148   4.431  15.651 -0.1981  0.5742  0.0540
  775MPD2    C111486   1.090   4.558  15.659 -0.9429 -0.2299 -0.0966
  775MPD2    C211487   1.168   4.670  15.623 -0.5839  0.2039 -0.0842
  775MPD2    C311488   1.296   4.659  15.574  0.3293 -0.0272 -0.0706
  775MPD2    C411489   1.350   4.531  15.567  0.2374 -0.3852 -0.0597
  775MPD2    C511490   1.279   4.420  15.602 -0.3535 -0.4460 -0.1555
  775MPD2     H11491   1.126   0.033  15.620  0.5479  0.6602 -1.1462
  775MPD2    H111492   1.447   4.502  15.530  0.4230 -1.8233  1.5366
  775MPD2    H211493   1.100   4.336  15.671 -0.3586 -0.0959 -3.5592
  775MPD2    H311494   1.328   4.325  15.587  0.3217  0.4114 -3.4516
  775MPD2     N11495   1.365   0.034  15.520  0.4668  0.7186 -0.4929
  775MPD2    H511496   1.454   0.011  15.477  1.1253  0.0725  1.1976
  775MPD2    N111497   0.964   4.567  15.716 -0.0405 -0.5096  0.2353
  775MPD2    H711498   0.918   4.479  15.739 -2.2199  0.8294  0.9973
  776MPD2     C11499   0.905   0.403  11.679  0.5864 -0.5040 -0.0416
  776MPD2    C111500   0.923   0.345  11.559  0.3554  0.0477 -0.2721
  776MPD2    C211501   1.008   0.415  11.470  0.4714 -0.3252  0.5675
  776MPD2    C311502   1.070   0.534  11.507 -0.1601 -0.4656  1.1923
  776MPD2    C411503   1.058   0.578  11.630 -0.2535  0.5927  0.6751
  776MPD2    C511504   0.973   0.515  11.716  0.0540 -0.7119  0.0202
  776MPD2     H11505   1.033   0.366  11.376  0.5672 -0.2691  0.5644
  776MPD2    H111506   1.111   0.666  11.665 -1.9096  1.7207  0.3581
  776MPD2    H211507   0.842   0.354  11.752 -0.7841 -1.0445 -1.5907
  776MPD2    H311508   0.980   0.548  11.819 -0.0598 -0.8855  0.0834
  776MPD2     N11509   1.145   0.618  11.420  0.1688  0.1857  0.0661
  776MPD2    H511510   1.188   0.695  11.470  0.3204  1.0698 -1.4464
  776MPD2    N111511   0.848   0.225  11.524 -0.5970  0.1652 -0.1660
  776MPD2    H711512   0.880   0.160  11.453  0.5040 -0.5216  0.9353
  777MPD2     C11513   0.018   2.346   0.768 -0.3102  0.3507 -0.6534
  777MPD2    C111514   0.097   2.252   0.841 -0.2257  0.2925 -0.3524
  777MPD2    C211515   0.120   2.135   0.777 -0.1289 -0.3403 -0.0908
  777MPD2    C311516   0.063   2.104   0.656  0.6637 -0.4322 -0.4144
  777MPD2    C411517   4.713   2.189   0.598 -0.4204 -0.7098  0.1332
  777MPD2    C511518   4.685   2.310   0.652 -0.0662  0.3555 -0.2475
  777MPD2     H11519   0.183   2.058   0.819 -0.7659 -1.0796 -0.4915
  777MPD2    H111520   4.664   2.168   0.504  0.2078  1.2022 -0.6262
  777MPD2    H211521   4.731   2.443   0.812 -0.3405  0.6973 -1.4330
  777MPD2    H311522   4.623   2.388   0.610  1.8468  0.3843 -3.0550
  777MPD2     N11523   0.082   1.970   0.610 -0.3109  0.0611  0.0448
  777MPD2    H511524   0.133   1.908   0.672  0.3850  0.8728  0.2861
  777MPD2    N111525   0.125   2.280   0.976  0.4786 -0.4355 -0.4432
  777MPD2    H711526   0.076   2.355   1.025  0.5371 -1.7285  1.6003
  778MPD2     C11527   1.746   2.747  14.578 -0.4828  0.8085  0.6544
  778MPD2    C111528   1.694   2.626  14.541  0.1898  0.5977 -0.9369
  778MPD2    C211529   1.755   2.549  14.447 -0.4988 -0.2177  0.1185
  778MPD2    C311530   1.874   2.583  14.390 -0.2798  0.3974 -0.7650
  778MPD2    C411531   1.935   2.697  14.430  0.3889  0.3723  0.5048
  778MPD2    C511532   1.860   2.784  14.515  0.5197 -0.1063 -0.6403
  778MPD2     H11533   1.712   2.457  14.410  0.2480 -0.6936  0.4426
  778MPD2    H111534   2.028   2.734  14.388 -1.3230  2.0919 -1.8161
  778MPD2    H211535   1.697   2.815  14.647 -0.2269  0.4647  1.1758
  778MPD2    H311536   1.894   2.883  14.543  0.1515 -0.0983 -0.2219
  778MPD2     N11537   1.923   2.500  14.283 -0.5727  0.1878 -0.2918
  778MPD2    H511538   1.868   2.417  14.266  1.2142 -0.8202 -1.1359
  778MPD2    N111539   1.564   2.576  14.586  0.1852  0.9235 -0.0845
  778MPD2    H711540   1.522   2.495  14.540 -0.5715  1.7372 -0.8267
  779MPD2     C11541   1.497   1.432  13.522 -0.2645  0.9622  0.4543
  779MPD2    C111542   1.493   1.427  13.663 -0.1514 -0.7308  0.4306
  779MPD2    C211543   1.519   1.540  13.740 -0.3450 -0.3008 -0.0796
  779MPD2    C311544   1.542   1.667  13.680  0.1595  0.1776  0.2053
  779MPD2    C411545   1.530   1.670  13.541 -0.7809 -0.0143 -0.1804
  779MPD2    C511546   1.527   1.553  13.468 -0.3183 -0.6764  0.2914
  779MPD2     H11547   1.518   1.537  13.849  1.2816 -0.5380 -0.0778
  779MPD2    H111548   1.529   1.761  13.483  0.2662  1.1579  1.6360
  779MPD2    H211549   1.491   1.345  13.458  0.0792 -1.4135  3.6212
  779MPD2    H311550   1.530   1.562  13.360  1.0866 -0.1329  0.3837
  779MPD2     N11551   1.555   1.779  13.763  0.0258 -0.1004 -0.4012
  779MPD2    H511552   1.546   1.766  13.864  0.8848 -1.5954 -0.5245
  779MPD2    N111553   1.452   1.309  13.731 -0.9999 -0.4088 -0.1317
  779MPD2    H711554   1.462   1.299  13.832  3.6642  2.5401 -0.3135
  780MPD2     C11555   1.195   0.661   0.851  0.0737 -0.3247  0.2737
  780MPD2    C111556   1.091   0.746   0.895 -0.5376 -0.1901 -0.4550
  780MPD2    C211557   1.034   0.835   0.803  0.1819 -0.4408 -0.4820
  780MPD2    C311558   1.059   0.826   0.667 -0.0222 -0.5102 -0.3160
  780MPD2    C411559   1.158   0.741   0.628 -0.6486  0.7188 -0.3258
  780MPD2    C511560   1.229   0.666   0.719  0.2728  0.3126 -0.3043
  780MPD2     H11561   0.953   0.902   0.828 -0.5912 -1.7844  0.5903
  780MPD2    H111562   1.186   0.718   0.526 -1.5783 -1.2828 -0.1444
  780MPD2    H211563   1.257   0.604   0.919  2.0770 -0.1584 -1.4261
  780MPD2    H311564   1.310   0.597   0.697 -0.0329  0.0184 -0.5061
  780MPD2     N11565   0.976   0.895   0.574  0.4759  0.1629 -0.3093
  780MPD2    H511566   0.903   0.949   0.620  0.5761 -0.2010  0.2775
  780MPD2    N111567   1.044   0.730   1.026 -0.0752 -0.1053  0.5750
  780MPD2    H711568   1.081   0.648   1.072  0.0737 -0.7154 -0.6297
  781MPD2     C11569   2.320   3.327  12.148 -0.4471 -0.0165  0.0746
  781MPD2    C111570   2.427   3.284  12.231 -0.7135 -0.0383 -0.0987
  781MPD2    C211571   2.556   3.332  12.193  0.1004 -0.7850 -0.6240
  781MPD2    C311572   2.574   3.424  12.086  0.2637  0.1393  0.4922
  781MPD2    C411573   2.463   3.460  12.007  0.3698  0.0151 -0.0148
  781MPD2    C511574   2.339   3.422  12.051  0.1893  0.4330 -0.1702
  781MPD2     H11575   2.639   3.312  12.259  0.6066  1.2291 -0.6606
  781MPD2    H111576   2.475   3.533  11.928 -0.5095  0.8014  0.5765
  781MPD2    H211577   2.218   3.299  12.169  0.7891 -3.3440  1.6420
  781MPD2    H311578   2.252   3.460  12.000  1.4495  1.9482 -1.1824
  781MPD2     N11579   2.701   3.480  12.059  0.3673 -0.6844 -0.3376
  781MPD2    H511580   2.706   3.540  11.978  0.0310  1.2090  1.0571
  781MPD2    N111581   2.410   3.207  12.345 -0.0360  0.1154  0.0831
  781MPD2    H711582   2.491   3.183  12.401  0.5635  2.8576  0.4103
  782MPD2     C11583   1.444   4.195  10.063 -0.2948 -0.1503  0.3657
  782MPD2    C111584   1.482   4.135  10.176 -0.1031  0.2107 -0.3818
  782MPD2    C211585   1.469   4.198  10.297 -0.4960  0.1290 -0.3074
  782MPD2    C311586   1.435   4.332  10.303 -1.0002 -0.2590 -1.3697
  782MPD2    C411587   1.407   4.391  10.185  0.0923 -0.2815  0.5197
  782MPD2    C511588   1.405   4.326  10.068  0.8461 -0.0963 -0.2633
  782MPD2     H11589   1.493   4.146  10.388  1.7841  0.1407 -0.9012
  782MPD2    H111590   1.385   4.497  10.185  0.0713 -0.2860 -0.1540
  782MPD2    H211591   1.438   4.143   9.969 -1.2933  3.8218 -1.7793
  782MPD2    H311592   1.367   4.369   9.976  0.0822  1.0184  0.5666
  782MPD2     N11593   1.425   4.408  10.419 -0.7050 -0.4960 -0.0206
  782MPD2    H511594   1.390   4.502  10.404 -1.0819 -0.9375 -1.8751
  782MPD2    N111595   1.514   3.996  10.180  0.3138 -0.0507 -0.3418
  782MPD2    H711596   1.523   3.953  10.271 -0.1917  0.4128 -0.0757
  783MPD2     C11597   1.268   3.464  10.782  0.4302  1.1962  0.5826
  783MPD2    C111598   1.321   3.590  10.798  0.0711 -0.0273 -0.3943
  783MPD2    C211599   1.383   3.649  10.682 -0.0032 -0.2170 -0.2680
  783MPD2    C311600   1.397   3.579  10.566 -0.1075  0.3347 -0.4581
  783MPD2    C411601   1.323   3.459  10.550 -0.5113 -0.5738  0.2601
  783MPD2    C511602   1.253   3.410  10.656 -0.7024  0.0270 -0.1087
  783MPD2     H11603   1.439   3.739  10.705 -0.6825  0.5855 -1.7644
  783MPD2    H111604   1.322   3.409  10.454 -0.2637  0.4740 -0.2784
  783MPD2    H211605   1.204   3.424  10.859  2.2636 -0.0100  1.4656
  783MPD2    H311606   1.204   3.315  10.640 -1.3000  0.3426 -0.1325
  783MPD2     N11607   1.472   3.621  10.458 -0.0567  0.0886 -0.3672
  783MPD2    H511608   1.505   3.717  10.452  1.5805 -0.3776  1.3806
  783MPD2    N111609   1.326   3.643  10.933  0.6934  0.3478 -0.3523
  783MPD2    H711610   1.262   3.596  10.997  0.3483  1.4496  0.1166
  784MPD2     C11611   2.786   4.107   0.574  0.0932 -0.3942 -0.6642
  784MPD2    C111612   2.738   4.164   0.691 -0.0869  0.6084  0.0706
  784MPD2    C211613   2.639   4.265   0.690  0.1673  0.2153 -0.4529
  784MPD2    C311614   2.593   4.296   0.563  0.0140  0.5274  0.9451
  784MPD2    C411615   2.631   4.230   0.446  0.2735  0.2632 -0.2752
  784MPD2    C511616   2.726   4.133   0.459 -0.9623 -0.3072 -0.2215
  784MPD2     H11617   2.597   4.309   0.780 -1.5152 -0.0389 -1.1012
  784MPD2    H111618   2.597   4.238   0.343  1.2058 -0.6891 -0.6633
  784MPD2    H211619   2.871   4.039   0.569 -1.6099 -2.7476  1.9870
  784MPD2    H311620   2.766   4.075   0.376  0.1626 -0.9894  0.7970
  784MPD2     N11621   2.493   4.395   0.563 -0.4399 -0.2616  0.0173
  784MPD2    H511622   2.459   4.432   0.652  0.1254 -0.7980  0.4593
  784MPD2    N111623   2.800   4.130   0.810  0.5361  0.1089  0.2669
  784MPD2    H711624   2.765   4.181   0.891 -0.0839 -2.4405  1.6215
  785MPD2     C11625   3.397   2.663  10.731 -0.3375 -0.0347 -0.3083
  785MPD2    C111626   3.369   2.781  10.803 -0.1354  0.8410  0.5634
  785MPD2    C211627   3.286   2.884  10.749 -0.2489  0.2943 -0.0042
  785MPD2    C311628   3.240   2.872  10.621  0.1121  0.5252 -0.1330
  785MPD2    C411629   3.263   2.758  10.552 -0.8025 -0.0216  0.1208
  785MPD2    C511630   3.338   2.654  10.606 -0.7900 -0.4126 -0.4357
  785MPD2     H11631   3.274   2.981  10.796  1.1845  0.3592  0.2243
  785MPD2    H111632   3.229   2.741  10.451 -0.2809  0.3344 -0.1111
  785MPD2    H211633   3.455   2.584  10.777  1.1740  0.5481 -1.2006
  785MPD2    H311634   3.370   2.574  10.541 -0.5752  0.6249 -1.6085
  785MPD2     N11635   3.162   2.985  10.585  0.0675 -0.3349 -0.0306
  785MPD2    H511636   3.141   3.049  10.661 -1.6475 -1.1103  0.1682
  785MPD2    N111637   3.438   2.787  10.923 -0.6439  0.5670 -0.1453
  785MPD2    H711638   3.505   2.713  10.939 -1.1966  0.5044  1.8194
  786MPD2     C11639   1.732   0.893  14.658  0.2944  0.2345 -0.3967
  786MPD2    C111640   1.870   0.908  14.669 -0.1032  0.2965  0.0498
  786MPD2    C211641   1.927   0.981  14.776  0.1534  0.3583  0.1953
  786MPD2    C311642   1.843   1.032  14.879 -0.8247 -0.3408 -0.0204
  786MPD2    C411643   1.706   1.002  14.870  0.4312 -0.5356 -0.6568
  786MPD2    C511644   1.650   0.937  14.761 -0.1300 -0.6658 -0.6672
  786MPD2     H11645   2.035   0.972  14.779  0.1211  0.2992  0.9655
  786MPD2    H111646   1.630   1.027  14.943  1.3171 -0.5022  0.2629
  786MPD2    H211647   1.683   0.839  14.578 -0.4690 -0.7300  0.7114
  786MPD2    H311648   1.548   0.902  14.767 -1.3366  3.3712  1.5565
  786MPD2     N11649   1.891   1.087  14.998  0.6506 -0.4741  0.6140
  786MPD2    H511650   1.821   1.119  15.064 -0.8478 -3.9828  0.7221
  786MPD2    N111651   1.958   0.852  14.574  0.2938  0.3689 -0.5389
  786MPD2    H711652   2.056   0.859  14.598  0.5408  0.5394 -1.5914
  787MPD2     C11653   2.262   0.409  14.857 -0.9028  0.3200  0.4490
  787MPD2    C111654   2.256   0.345  14.728 -0.3692 -0.1206 -0.1219
  787MPD2    C211655   2.319   0.223  14.708 -0.1116  0.0152 -0.5957
  787MPD2    C311656   2.380   0.158  14.812  0.5836  0.2700  0.6037
  787MPD2    C411657   2.384   0.223  14.936  0.0770  0.0960 -0.1995
  787MPD2    C511658   2.326   0.349  14.958 -0.6425  0.7352  0.1994
  787MPD2     H11659   2.317   0.174  14.612 -0.5164  1.3850 -1.2923
  787MPD2    H111660   2.422   0.172  15.024 -1.9528  0.2907  0.8005
  787MPD2    H211661   2.222   0.509  14.871 -2.4453 -0.1597 -0.4492
  787MPD2    H311662   2.324   0.404  15.052  1.3635 -1.0799  1.3053
  787MPD2     N11663   2.437   0.039  14.779  0.2211  0.1179  0.3067
  787MPD2    H511664   2.445   0.029  14.678  1.0340  0.8547  0.2965
  787MPD2    N111665   2.197   0.423  14.626  0.7798 -0.4445 -0.4185
  787MPD2    H711666   2.188   0.519  14.656  1.9517 -0.7755  0.9650
  788MPD2     C11667   3.673   3.553   1.062  0.3489 -0.0831  0.2061
  788MPD2    C111668   3.688   3.509   0.927 -0.4440 -0.0308  0.3243
  788MPD2    C211669   3.748   3.600   0.845  0.1664  0.3091 -0.3618
  788MPD2    C311670   3.795   3.725   0.890  0.0460 -0.6353 -0.7470
  788MPD2    C411671   3.776   3.767   1.022 -0.4244  1.2664 -0.9960
  788MPD2    C511672   3.710   3.677   1.107 -0.4971 -0.1369 -0.2324
  788MPD2     H11673   3.760   3.574   0.740  1.7859 -3.2402  0.7237
  788MPD2    H111674   3.807   3.864   1.057 -2.4755  1.6153 -0.1518
  788MPD2    H211675   3.634   3.490   1.141 -1.8630  1.1100  0.0631
  788MPD2    H311676   3.704   3.698   1.213 -1.5053 -3.3489  0.3425
  788MPD2     N11677   3.851   3.821   0.800 -0.4843 -0.1987  0.3573
  788MPD2    H511678   3.876   3.914   0.832 -1.6096 -0.3785  1.7902
  788MPD2    N111679   3.644   3.389   0.875 -0.0050  0.3852  0.2120
  788MPD2    H711680   3.674   3.363   0.781  0.4820 -1.3369  0.8472
  789MPD2     C11681   3.865   3.312  16.406 -0.9627 -0.0408  0.4901
  789MPD2    C111682   3.818   3.268  16.528  0.1491 -0.0665 -0.2766
  789MPD2    C211683   3.721   3.333  16.598 -0.1841 -0.3509  0.2890
  789MPD2    C311684   3.661   3.445  16.550 -0.0053  0.4092  0.2326
  789MPD2    C411685   3.703   3.494  16.427 -0.5922 -0.0500  0.4469
  789MPD2    C511686   3.809   3.431  16.359 -0.7917 -0.1037 -0.1566
  789MPD2     H11687   3.699   3.290  16.695 -0.6794  0.3873  0.5023
  789MPD2    H111688   3.653   3.579  16.383 -2.2305  0.0825  2.5728
  789MPD2    H211689   3.944   3.260  16.354 -0.0079  1.7040  0.1778
  789MPD2    H311690   3.843   3.481  16.269 -0.0417 -2.0408 -0.9412
  789MPD2     N11691   3.553   3.504  16.614  0.2567 -0.4416 -0.1337
  789MPD2    H511692   3.505   3.573  16.557  2.1473 -0.5592 -1.8668
  789MPD2    N111693   3.852   3.133  16.575  0.2730 -0.0529  0.6729
  789MPD2    H711694   3.791   3.089  16.643  0.2399 -1.4776 -0.2795
  790MPD2     C11695   0.748   0.378  13.673  0.5529  0.6254  0.2456
  790MPD2    C111696   0.722   0.248  13.641  0.7530 -0.5963 -0.8289
  790MPD2    C211697   0.676   0.220  13.514 -0.1186 -0.1205 -0.1912
  790MPD2    C311698   0.687   0.319  13.416 -0.1819  0.3036 -0.4603
  790MPD2    C411699   0.732   0.449  13.443  0.4008  0.6381 -0.2355
  790MPD2    C511700   0.756   0.479  13.575 -0.2991  0.0971  0.8977
  790MPD2     H11701   0.634   0.123  13.491 -1.1817  1.0690 -3.2040
  790MPD2    H111702   0.733   0.524  13.366 -0.5036  2.3748  1.4542
  790MPD2    H211703   0.779   0.408  13.773  0.2457 -0.0444  0.5385
  790MPD2    H311704   0.794   0.576  13.603 -3.1344  1.9256 -1.6099
  790MPD2     N11705   0.642   0.283  13.286  0.2696  0.0938 -0.7921
  790MPD2    H511706   0.586   0.201  13.263 -0.6844  0.1079  1.4112
  790MPD2    N111707   0.744   0.163  13.746 -0.0256  0.0707  0.5801
  790MPD2    H711708   0.762   0.206  13.836 -0.2799 -1.1116  1.2005
  791MPD2     C11709   0.227   4.694  12.600 -0.5764 -0.1834  0.2702
  791MPD2    C111710   0.227   4.730  12.740  0.3478  0.4339 -0.1287
  791MPD2    C211711   0.111   4.718  12.818  0.3641  1.2317  0.9076
  791MPD2    C311712   4.734   4.665  12.753 -0.1550 -0.1912 -0.0790
  791MPD2    C411713   4.734   4.643  12.616  0.2697 -0.6052  0.6070
  791MPD2    C511714   0.111   4.651  12.540 -0.1619 -0.0206  0.9383
  791MPD2     H11715   0.107   0.006  12.924 -3.3635  0.8528  0.8552
  791MPD2    H111716   4.654   4.614  12.550  0.1916  2.1325 -0.4814
  791MPD2    H211717   0.319   4.711  12.545 -1.2134 -0.3190 -0.8320
  791MPD2    H311718   0.111   4.622  12.436 -0.9814 -0.4645  1.0636
  791MPD2     N11719   4.619   4.637  12.832  0.2305 -0.1253  0.3871
  791MPD2    H511720   4.630   4.658  12.930 -0.6430 -0.1714  0.4925
  791MPD2    N111721   0.346   0.045  12.788 -0.4687 -0.7585  0.3803
  791MPD2    H711722   0.422   0.029  12.722 -1.7089  1.5784 -1.6013
  792MPD2     C11723   1.005   4.440  11.096 -0.0244 -0.7678 -0.3308
  792MPD2    C111724   0.970   4.561  11.140  0.4350 -0.3215 -0.6069
  792MPD2    C211725   0.850   4.584  11.197 -0.9952  0.6840  0.1688
  792MPD2    C311726   0.764   4.477  11.223  1.2380  0.1700 -0.4374
  792MPD2    C411727   0.815   4.349  11.194 -0.1842  0.5854 -0.4608
  792MPD2    C511728   0.927   4.334  11.118 -0.0811 -0.8558  0.2601
  792MPD2     H11729   0.834   4.689  11.221  0.2966  1.0843 -0.7713
  792MPD2    H111730   0.749   4.267  11.220 -0.8983  1.1812 -0.3867
  792MPD2    H211731   1.108   4.423  11.067  1.6154  4.3738  2.4513
  792MPD2    H311732   0.972   4.241  11.086 -3.5220 -2.5398  0.3228
  792MPD2     N11733   0.626   4.485  11.270 -0.3510 -0.0102 -0.1385
  792MPD2    H511734   0.576   4.397  11.283  0.1444 -0.4859 -1.4650
  792MPD2    N111735   1.059   4.674  11.130  0.3484 -0.6120  0.0797
  792MPD2    H711736   1.134   4.664  11.063 -0.5861 -0.4130 -0.9983
  793MPD2     C11737   0.191   0.001  10.582  0.3968  0.0763 -0.0312
  793MPD2    C111738   0.317   0.029  10.637  0.1003  0.0293  1.0307
  793MPD2    C211739   0.324   0.026  10.777  0.4313  0.4819  0.3748
  793MPD2    C311740   0.213   4.726  10.854  0.1836 -0.0069 -0.0792
  793MPD2    C411741   0.091   4.718  10.793  0.3046  0.0916  0.6452
  793MPD2    C511742   0.072   4.722  10.661 -0.5168 -0.2116  0.3557
  793MPD2     H11743   0.418   0.049  10.827  0.4857  0.1056  0.4493
  793MPD2    H111744   4.735   4.688  10.843 -1.2916  1.6420 -1.3784
  793MPD2    H211745   0.185   0.007  10.474  0.7512  0.3288 -0.0367
  793MPD2    H311746   4.716   4.687  10.616  0.9569 -2.9561 -0.5222
  793MPD2     N11747   0.230   4.711  10.992 -0.3076 -0.0258  0.1556
  793MPD2    H511748   0.327   4.727  11.018 -0.3929 -1.3172  1.3126
  793MPD2    N111749   0.438   0.048  10.562 -0.3065 -0.8130  0.4681
  793MPD2    H711750   0.527   0.045  10.610 -0.9744 -0.5456  1.7095
  794MPD2     C11751   4.561   4.018   0.074  0.3782  0.5094 -0.6921
  794MPD2    C111752   4.570   3.897   0.007 -0.2502 -0.6214 -0.1703
  794MPD2    C211753   4.513   3.890  17.625  0.7358  0.3917  0.3253
  794MPD2    C311754   4.439   3.995  17.563 -0.0891  0.2389  0.3709
  794MPD2    C411755   4.421   4.107  17.634  0.6041 -0.4171 -0.0926
  794MPD2    C511756   4.483   4.116   0.016  1.0394  0.1485  0.3426
  794MPD2     H11757   4.514   3.793  17.577  0.2866  1.3015 -1.5267
  794MPD2    H111758   4.362   4.194  17.604 -0.4357 -1.0270  0.1921
  794MPD2    H211759   4.607   4.033   0.171 -1.2948 -1.8771  0.4839
  794MPD2    H311760   4.457   4.203   0.076 -1.7317  1.3839 -2.6444
  794MPD2     N11761   4.402   3.993  17.427  0.1715  0.1061  0.0637
  794MPD2    H511762   4.350   4.075  17.398  0.3327  0.8414  1.8355
  794MPD2    N111763   4.642   3.784   0.052 -0.0841  0.0999  0.3585
  794MPD2    H711764   4.655   3.709  17.728  0.5787  0.5839 -0.0646
  795MPD2     C11765   3.218   1.642  13.540 -0.2349 -0.1009 -0.6971
  795MPD2    C111766   3.134   1.541  13.516  0.2100  0.4057 -0.0052
  795MPD2    C211767   3.145   1.435  13.597  0.3059  0.3871 -0.5385
  795MPD2    C311768   3.222   1.446  13.715 -0.1460 -0.5380 -0.0932
  795MPD2    C411769   3.299   1.551  13.739 -0.7361 -0.0664  0.6088
  795MPD2    C511770   3.301   1.650  13.647  0.8605  0.4915  0.2552
  795MPD2     H11771   3.072   1.355  13.605 -0.7691  1.4428  0.3078
  795MPD2    H111772   3.363   1.566  13.825 -1.5411  1.5808  0.9215
  795MPD2    H211773   3.221   1.723  13.468 -1.0152  1.3553  0.9216
  795MPD2    H311774   3.379   1.726  13.645 -0.1658  1.5857  2.0171
  795MPD2     N11775   3.210   1.334  13.799 -0.8445  0.0024  0.1232
  795MPD2    H511776   3.131   1.272  13.785 -0.0509 -1.1367  0.7080
  795MPD2    N111777   3.034   1.548  13.414 -0.1727 -0.5337 -0.4874
  795MPD2    H711778   2.981   1.464  13.395  2.1386 -2.1580  0.2908
  796MPD2     C11779   2.013   3.184  15.807 -0.1116  0.0098 -0.0108
  796MPD2    C111780   2.078   3.264  15.897  0.2730  0.3597 -0.2947
  796MPD2    C211781   2.060   3.401  15.885 -0.4285  0.4065  0.2939
  796MPD2    C311782   1.965   3.462  15.806 -0.2544  0.8821 -0.2300
  796MPD2    C411783   1.907   3.381  15.712  0.5764  0.7378 -0.3244
  796MPD2    C511784   1.935   3.242  15.710  0.2630 -0.8576 -0.3550
  796MPD2     H11785   2.103   3.469  15.958  1.6690 -0.0952 -0.4605
  796MPD2    H111786   1.839   3.427  15.641  0.4189  1.8435  0.5420
  796MPD2    H211787   2.019   3.076  15.812  0.0566  0.1768  3.2001
  796MPD2    H311788   1.897   3.176  15.633 -0.3975 -0.2407 -0.5591
  796MPD2     N11789   1.954   3.600  15.803 -0.0367  0.6044  0.1498
  796MPD2    H511790   2.010   3.661  15.862 -1.1711  2.2559 -0.4523
  796MPD2    N111791   2.150   3.197  16.000  0.0033 -0.5916 -0.4671
  796MPD2    H711792   2.147   3.095  15.999 -1.9372 -0.5272 -1.0213
  797MPD2     C11793   2.923   2.631  17.131  0.5321 -0.2340  0.0450
  797MPD2    C111794   3.025   2.705  17.193 -0.1629  0.8909 -0.8321
  797MPD2    C211795   3.065   2.830  17.152 -0.4473  0.6142 -0.1551
  797MPD2    C311796   3.023   2.878  17.032  0.0694 -0.1960  0.0527
  797MPD2    C411797   2.939   2.793  16.957  0.5520 -0.1313 -0.5398
  797MPD2    C511798   2.880   2.679  17.010 -0.7654 -0.4791  0.0205
  797MPD2     H11799   3.133   2.890  17.210 -2.2315  0.4489  2.0788
  797MPD2    H111800   2.911   2.825  16.857  0.8905 -1.2028 -0.9766
  797MPD2    H211801   2.892   2.540  17.179 -3.1560  2.6830  3.1498
  797MPD2    H311802   2.800   2.633  16.953 -0.7087 -1.4480  0.7298
  797MPD2     N11803   3.049   3.002  16.969 -0.1654 -0.2349 -0.2538
  797MPD2    H511804   3.016   3.012  16.874 -0.4753  0.4159 -0.0804
  797MPD2    N111805   3.097   2.658  17.308  0.2318  0.0645 -0.1674
  797MPD2    H711806   3.161   2.722  17.355  1.7944 -1.1641 -0.6067
  798MPD2     C11807   3.673   3.135  17.285  0.1428 -0.3778  0.2525
  798MPD2    C111808   3.594   3.068  17.196  0.4077  0.1743 -0.2740
  798MPD2    C211809   3.534   2.952  17.243  0.4115 -1.1239 -0.3040
  798MPD2    C311810   3.565   2.896  17.362  0.6383 -0.1957 -0.5661
  798MPD2    C411811   3.646   2.964  17.450 -0.4782 -0.0557  0.8241
  798MPD2    C511812   3.709   3.075  17.405 -0.5017 -0.5339  0.5832
  798MPD2     H11813   3.467   2.892  17.183 -0.1979 -0.3237 -0.4158
  798MPD2    H111814   3.663   2.936  17.553 -1.2933 -1.5665  0.5465
  798MPD2    H211815   3.704   3.237  17.265 -0.9584 -0.3512 -1.3209
  798MPD2    H311816   3.770   3.123  17.481 -0.7120 -0.4730  0.7148
  798MPD2     N11817   3.498   2.775  17.392 -0.6057 -0.7405 -0.2223
  798MPD2    H511818   3.436   2.735  17.323 -1.5376  0.6614 -0.1961
  798MPD2    N111819   3.553   3.133  17.073 -0.4578  0.5190  0.3968
  798MPD2    H711820   3.588   3.227  17.064  1.3156  0.0689  2.6431
  799MPD2     C11821   2.133   4.538  14.852  0.1837 -0.2748  0.4678
  799MPD2    C111822   2.079   4.454  14.755  0.3795 -0.2684  0.9796
  799MPD2    C211823   2.044   4.512  14.636  0.3800 -0.4495 -0.2698
  799MPD2    C311824   2.053   4.650  14.602 -0.4195 -0.4926 -0.3713
  799MPD2    C411825   2.082   4.730  14.700 -0.1941 -0.3470  0.3255
  799MPD2    C511826   2.121   4.674  14.821  0.0845  0.6200  0.2099
  799MPD2     H11827   2.005   4.437  14.569 -1.5776 -0.8553  1.3148
  799MPD2    H111828   2.081   0.100  14.676 -0.0475 -0.5959 -0.7718
  799MPD2    H211829   2.166   4.503  14.949  1.7221  2.6926  1.0007
  799MPD2    H311830   2.163   0.009  14.892  0.8980 -1.4719  1.8369
  799MPD2     N11831   2.005   4.705  14.482 -0.4944  0.5813 -0.3863
  799MPD2    H511832   1.985   0.069  14.482 -0.0842  0.6468 -3.0823
  799MPD2    N111833   2.074   4.313  14.745 -0.1111 -0.0968 -0.3117
  799MPD2    H711834   2.030   4.272  14.664 -1.5484 -0.4393  0.6340
  800MPD2     C11835   2.616   0.720  13.794  0.2352  0.1822 -0.1815
  800MPD2    C111836   2.729   0.652  13.834  0.0803  0.1988 -0.1101
  800MPD2    C211837   2.785   0.551  13.757  0.1117 -0.1342  0.2136
  800MPD2    C311838   2.733   0.522  13.635  0.3827 -0.2555 -0.4849
  800MPD2    C411839   2.622   0.598  13.593  0.8273 -0.2412 -0.0448
  800MPD2    C511840   2.567   0.688  13.670  0.5228 -1.1859 -1.3754
  800MPD2     H11841   2.875   0.502  13.793  0.1820  2.4813  3.5556
  800MPD2    H111842   2.565   0.589  13.501  2.1242 -0.7996 -0.7925
  800MPD2    H211843   2.566   0.794  13.856  0.3575 -0.8958  1.2088
  800MPD2    H311844   2.473   0.736  13.646  0.4017 -0.3573  0.7696
  800MPD2     N11845   2.799   0.426  13.557  0.1199 -0.0755 -0.4629
  800MPD2    H511846   2.894   0.406  13.586 -0.4295  3.6125  3.9545
  800MPD2    N111847   2.777   0.670  13.966 -0.3463 -0.7456 -0.3050
  800MPD2    H711848   2.854   0.609  13.991 -0.1594  0.2542  1.5576
  801MPD2     C11849   2.602   0.903  14.790  0.5433 -0.1753 -0.1911
  801MPD2    C111850   2.580   0.942  14.656 -0.1392  0.0407  0.2436
  801MPD2    C211851   2.472   1.026  14.628 -0.4357 -0.3948  0.0736
  801MPD2    C311852   2.388   1.078  14.726 -0.6999 -0.0501 -0.4045
  801MPD2    C411853   2.426   1.060  14.855 -0.5849  0.7107 -0.5955
  801MPD2    C511854   2.524   0.968  14.879  0.1819  0.4669 -0.6862
  801MPD2     H11855   2.444   1.047  14.525  0.5696  0.7457  0.0335
  801MPD2    H111856   2.366   1.106  14.932  0.1674  2.4927 -1.0575
  801MPD2    H211857   2.671   0.833  14.834  1.1129 -2.2518 -4.3720
  801MPD2    H311858   2.543   0.945  14.984 -1.1998 -1.9241 -0.9612
  801MPD2     N11859   2.278   1.167  14.701 -0.3132  0.0048  0.2690
  801MPD2    H511860   2.221   1.193  14.781 -2.4363  1.1366 -1.6029
  801MPD2    N111861   2.654   0.892  14.541  0.2221  0.7402 -0.3423
  801MPD2    H711862   2.638   0.944  14.455 -1.1265 -1.0656 -1.1969
  802MPD2     C11863   1.398   1.821  17.718  1.1629 -0.3782  0.5145
  802MPD2    C111864   1.433   1.721   0.061  0.5182 -0.0480 -0.4002
  802MPD2    C211865   1.414   1.589   0.024  0.1783  0.1578 -0.4054
  802MPD2    C311866   1.367   1.554  17.641  0.2372 -0.0309 -0.8442
  802MPD2    C411867   1.346   1.660  17.558  0.1433 -0.2342  0.3678
  802MPD2    C511868   1.356   1.789  17.593 -0.2913  0.3549  0.4286
  802MPD2     H11869   1.436   1.504   0.088  0.1108  1.9147  1.9537
  802MPD2    H111870   1.321   1.641  17.454  0.6691 -0.1186  0.2231
  802MPD2    H211871   1.402   1.922   0.014  0.7899  0.5239 -1.8026
  802MPD2    H311872   1.331   1.868  17.523 -1.4688 -0.5538 -0.1702
  802MPD2     N11873   1.363   1.417  17.599  1.1235 -0.5670  0.5005
  802MPD2    H511874   1.412   1.353  17.661  1.8825 -1.1508 -0.7228
  802MPD2    N111875   1.464   1.743   0.196 -0.2363  0.1961 -0.2141
  802MPD2    H711876   1.471   1.656   0.247  0.8229  0.0437 -0.6059
  803MPD2     C11877   3.857   4.022  12.159  0.4068  0.0769 -0.2111
  803MPD2    C111878   3.907   4.142  12.211  0.4500  0.5334  1.0000
  803MPD2    C211879   3.818   4.242  12.258  0.9546  0.2591 -0.4398
  803MPD2    C311880   3.687   4.209  12.264 -0.1004  0.4419 -0.6012
  803MPD2    C411881   3.646   4.086  12.224 -0.4809  0.6555  1.0036
  803MPD2    C511882   3.730   3.989  12.190 -0.2152  0.1349 -0.2368
  803MPD2     H11883   3.852   4.340  12.291 -0.2044 -0.3106  2.4829
  803MPD2    H111884   3.548   4.053  12.256 -0.9580 -0.2931 -1.4768
  803MPD2    H211885   3.918   3.937  12.133  1.8896  1.4225 -1.1012
  803MPD2    H311886   3.685   3.891  12.178  0.8180  0.0001 -2.9651
  803MPD2     N11887   3.592   4.304  12.318  0.0620 -0.1167 -0.4592
  803MPD2    H511888   3.618   4.384  12.376  1.7567 -0.2192 -1.0593
  803MPD2    N111889   4.041   4.175  12.210  0.0335 -0.3439  0.3024
  803MPD2    H711890   4.060   4.262  12.258  0.6459 -0.8005  0.8838
  804MPD2     C11891   2.280   1.350  16.792 -0.0262  0.3717  0.2815
  804MPD2    C111892   2.285   1.350  16.932 -0.0679 -0.2308  0.5070
  804MPD2    C211893   2.328   1.458  16.996  0.1347  0.3845  1.2037
  804MPD2    C311894   2.377   1.565  16.927  0.3014 -0.4405 -0.0105
  804MPD2    C411895   2.365   1.566  16.789 -0.0235  0.1506 -0.6660
  804MPD2    C511896   2.306   1.465  16.725  0.0541  0.3939 -0.4189
  804MPD2     H11897   2.344   1.449  17.102 -1.3893  0.0107  1.4001
  804MPD2    H111898   2.402   1.653  16.735  0.8326  0.7660  0.9071
  804MPD2    H211899   2.222   1.273  16.742  0.6678  0.7436 -1.0952
  804MPD2    H311900   2.300   1.461  16.617  2.8968  0.3352 -0.5677
  804MPD2     N11901   2.437   1.668  16.999 -0.2822 -0.9535 -0.3723
  804MPD2    H511902   2.444   1.656  17.099 -0.6766 -2.9892 -0.5913
  804MPD2    N111903   2.230   1.238  17.009 -0.6481  0.3396  0.0102
  804MPD2    H711904   2.230   1.251  17.109  3.0228  1.7243 -0.1839
  805MPD2     C11905   1.469   4.093  15.383  0.7371  0.5876  0.2545
  805MPD2    C111906   1.467   4.225  15.353 -0.2568  0.5852  0.0159
  805MPD2    C211907   1.578   4.299  15.390  0.6488  0.0268 -0.3248
  805MPD2    C311908   1.685   4.239  15.462  0.2352 -0.2383 -0.7780
  805MPD2    C411909   1.672   4.109  15.498  0.1694  0.5088  0.1175
  805MPD2    C511910   1.561   4.035  15.461 -0.2669  0.1063 -0.0889
  805MPD2     H11911   1.579   4.404  15.364  0.0092  0.3932  1.1288
  805MPD2    H111912   1.745   4.058  15.559  0.6206 -0.3727 -1.1614
  805MPD2    H211913   1.388   4.032  15.345 -0.5644  1.4206  1.7111
  805MPD2    H311914   1.564   3.927  15.466 -0.4233  0.1874  1.8567
  805MPD2     N11915   1.803   4.319  15.495  0.3697 -0.9118 -0.4952
  805MPD2    H511916   1.799   4.415  15.462  1.5724 -0.8923 -0.5625
  805MPD2    N111917   1.359   4.290  15.286 -0.0927  0.1772 -0.8262
  805MPD2    H711918   1.371   4.382  15.244  0.1794  0.0767 -0.9669
  806MPD2     C11919   1.816   3.967   0.373 -0.0736 -0.9973 -0.5048
  806MPD2    C111920   1.807   4.104   0.403 -0.3195 -0.7036  0.0594
  806MPD2    C211921   1.855   4.189   0.312  0.5915 -0.4498  0.5529
  806MPD2    C311922   1.908   4.153   0.194  0.6316 -0.6435  0.0405
  806MPD2    C411923   1.914   4.015   0.166 -0.1293  0.0858  0.0923
  806MPD2    C511924   1.864   3.924   0.258  0.8018  0.2283  1.0863
  806MPD2     H11925   1.853   4.297   0.323  1.8009 -0.2610 -1.1048
  806MPD2    H111926   1.966   3.979   0.079  0.0219 -3.7885  1.8085
  806MPD2    H211927   1.780   3.897   0.447 -2.4470  0.3788 -0.3338
  806MPD2    H311928   1.865   3.818   0.235  1.0020  0.2470  1.0069
  806MPD2     N11929   1.956   4.257   0.106 -0.0599 -0.6440 -0.2892
  806MPD2    H511930   1.942   4.353   0.134  2.3033  0.2629 -2.1924
  806MPD2    N111931   1.756   4.146   0.530 -0.0114  0.1996  0.5219
  806MPD2    H711932   1.729   4.064   0.583  1.6403 -1.3272 -0.9936
  807MPD2     C11933   1.422   3.887   1.148  0.5410 -0.0979 -0.5266
  807MPD2    C111934   1.550   3.927   1.162 -0.3463 -0.8850  0.3034
  807MPD2    C211935   1.631   3.869   1.257 -0.2178  0.2156  0.1749
  807MPD2    C311936   1.582   3.769   1.336  0.0723 -0.4259 -0.4393
  807MPD2    C411937   1.452   3.741   1.328 -0.4219 -0.2763  0.0208
  807MPD2    C511938   1.369   3.794   1.236 -0.1505 -0.3390  0.0767
  807MPD2     H11939   1.727   3.914   1.280  0.2414  0.1690 -1.6683
  807MPD2    H111940   1.409   3.660   1.387 -0.5624  0.1911  0.5589
  807MPD2    H211941   1.353   3.924   1.073  0.4456 -1.8202 -1.2959
  807MPD2    H311942   1.267   3.759   1.235 -0.5404  0.8216 -0.2807
  807MPD2     N11943   1.672   3.705   1.424 -0.2281 -0.2616  0.2793
  807MPD2    H511944   1.769   3.732   1.416 -0.8137  1.3231 -1.9456
  807MPD2    N111945   1.602   4.028   1.090  0.2903  0.0290  0.2614
  807MPD2    H711946   1.696   4.057   1.113  0.9150 -1.4231 -0.4922
  808MPD2     C11947   3.697   1.099  10.117  0.1983 -0.0496  0.7823
  808MPD2    C111948   3.590   1.181  10.115  0.2968  0.1913  1.0624
  808MPD2    C211949   3.613   1.315  10.127 -0.1482 -0.6052  0.8737
  808MPD2    C311950   3.739   1.370  10.132 -0.3928  0.5125 -0.0817
  808MPD2    C411951   3.848   1.286  10.120  0.5257  0.2808  0.1174
  808MPD2    C511952   3.823   1.147  10.115  0.3661  0.2040  0.0612
  808MPD2     H11953   3.532   1.387  10.123  0.5102  0.0743 -0.1695
  808MPD2    H111954   3.950   1.322  10.124  0.7223 -0.2597  0.0264
  808MPD2    H211955   3.680   0.992  10.115  1.9174 -0.3119  0.1350
  808MPD2    H311956   3.912   1.085  10.113 -1.1589 -1.9556 -0.3204
  808MPD2     N11957   3.772   1.509  10.140 -0.1095 -0.0830  0.0240
  808MPD2    H511958   3.866   1.533  10.111 -1.5155  4.4059 -0.8049
  808MPD2    N111959   3.454   1.136  10.109 -0.0677  0.2498  0.4027
  808MPD2    H711960   3.385   1.211  10.108 -1.2943 -0.8701  1.6798
  809MPD2     C11961   4.414   2.015   9.641  0.0716  0.1848 -0.0840
  809MPD2    C111962   4.408   1.907   9.730 -0.2486 -0.9080  0.0411
  809MPD2    C211963   4.292   1.895   9.805 -1.0575 -0.5053 -0.4268
  809MPD2    C311964   4.186   1.977   9.796  0.3828  0.6596 -0.2741
  809MPD2    C411965   4.192   2.075   9.702 -0.2837  0.1313 -1.0291
  809MPD2    C511966   4.305   2.094   9.623  0.7988 -0.2976 -0.8950
  809MPD2     H11967   4.284   1.814   9.877  1.4201 -0.1259  0.2736
  809MPD2    H111968   4.108   2.137   9.677 -2.2579 -2.0113  0.3204
  809MPD2    H211969   4.505   2.034   9.584  0.7317 -1.9023  0.2488
  809MPD2    H311970   4.306   2.173   9.549 -0.8033  0.8958  0.3675
  809MPD2     N11971   4.064   1.962   9.871  0.2162 -0.0609 -1.1174
  809MPD2    H511972   3.988   2.026   9.851 -0.8828 -0.4694  1.8509
  809MPD2    N111973   4.511   1.817   9.755  0.3187  0.1505  0.2489
  809MPD2    H711974   4.513   1.761   9.840  1.0522  1.2101  0.9326
  810MPD2     C11975   2.679   0.444  11.154  0.6126 -0.1957 -0.1869
  810MPD2    C111976   2.636   0.445  11.028 -0.1005 -0.6784  0.0604
  810MPD2    C211977   2.662   0.556  10.953  0.6440  0.4367 -0.4768
  810MPD2    C311978   2.727   0.661  11.003  0.0189 -0.4503 -0.2563
  810MPD2    C411979   2.740   0.672  11.140 -0.1705  0.2538  0.1999
  810MPD2    C511980   2.715   0.560  11.210  0.6122  0.6384 -0.1937
  810MPD2     H11981   2.636   0.564  10.848 -0.8630 -4.3224 -0.4685
  810MPD2    H111982   2.777   0.763  11.183  1.0784  0.3362 -1.0508
  810MPD2    H211983   2.633   0.368  11.216  2.5487 -1.4904 -0.3572
  810MPD2    H311984   2.731   0.549  11.316 -0.9289 -0.3260 -0.0676
  810MPD2     N11985   2.759   0.769  10.933 -0.3018 -0.4537  0.1802
  810MPD2    H511986   2.784   0.845  10.996 -1.3032  1.5013 -1.7543
  810MPD2    N111987   2.561   0.337  10.969 -0.0639  0.3281  0.2408
  810MPD2    H711988   2.512   0.356  10.882  1.3481  1.8047 -0.2183
  811MPD2     C11989   2.281   0.149  10.240  0.2622  0.4460 -0.3553
  811MPD2    C111990   2.334   0.218  10.349 -0.7606 -0.4261  1.0807
  811MPD2    C211991   2.382   0.341  10.326  0.3446  0.1506  0.5531
  811MPD2    C311992   2.374   0.405  10.200 -0.0383 -0.3411  0.3889
  811MPD2    C411993   2.320   0.332  10.095  0.0599  0.2177 -0.4574
  811MPD2    C511994   2.284   0.204  10.119  0.5559 -0.4168  0.5720
  811MPD2     H11995   2.405   0.403  10.412  0.7932 -0.5632  0.9414
  811MPD2    H111996   2.302   0.374   9.996  0.2358  0.3988 -0.4113
  811MPD2    H211997   2.244   0.049  10.256  1.1899  0.4762  2.0890
  811MPD2    H311998   2.232   0.146  10.044 -1.2370 -0.2448  1.6757
  811MPD2     N11999   2.416   0.542  10.193  0.6643  0.3448 -0.1476
  811MPD2    H512000   2.473   0.576  10.269  0.9057 -1.7432  0.6124
  811MPD2    N112001   2.342   0.153  10.478  0.0152  0.3464 -0.2413
  811MPD2    H712002   2.323   0.054  10.491 -0.1483  0.1606 -1.9155
  812MPD2     C12003   1.952   0.307  12.115 -0.1803 -0.2302  0.1784
  812MPD2    C112004   1.848   0.352  12.193 -0.0526  0.1317 -0.4306
  812MPD2    C212005   1.775   0.260  12.270 -0.7226 -0.6551  0.5547
  812MPD2    C312006   1.807   0.129  12.275 -0.1047 -0.6967 -0.6026
  812MPD2    C412007   1.910   0.080  12.197 -0.1729  0.8565 -0.3659
  812MPD2    C512008   1.976   0.170  12.121 -0.2428 -0.9585  0.0749
  812MPD2     H12009   1.692   0.294  12.331  0.2614  1.3362  0.7894
  812MPD2    H112010   1.943   4.713  12.196  1.5816  1.4465 -1.3854
  812MPD2    H212011   2.016   0.374  12.059  0.7298  0.8640  2.5651
  812MPD2    H312012   2.070   0.138  12.079  0.4606  1.8622 -0.4946
  812MPD2     N12013   1.725   0.046  12.352  0.6035 -0.2274 -0.1629
  812MPD2    H512014   1.644   0.087  12.398  1.3155  0.2493  0.6803
  812MPD2    N112015   1.818   0.489  12.175 -1.1460  0.3051  0.3809
  812MPD2    H712016   1.883   0.551  12.128  0.7215 -1.7609  0.2736
  813MPD2     C12017   1.187   1.622  12.567  0.2602  0.0319 -0.4764
  813MPD2    C112018   1.226   1.746  12.600  0.3014 -0.1022 -0.0528
  813MPD2    C212019   1.146   1.822  12.686  0.2128 -0.1273 -0.3332
  813MPD2    C312020   1.038   1.768  12.750 -0.5470 -0.4147 -0.2458
  813MPD2    C412021   1.015   1.636  12.727  0.2808 -0.7259  0.1268
  813MPD2    C512022   1.084   1.566  12.633 -0.0663  0.3522 -0.7816
  813MPD2     H12023   1.165   1.927  12.707 -1.1949 -0.0297  0.4236
  813MPD2    H112024   0.932   1.584  12.774  0.8942 -1.8814 -0.0741
  813MPD2    H212025   1.238   1.571  12.486  0.7019  0.3382 -0.3874
  813MPD2    H312026   1.043   1.471  12.600 -1.1123  0.2591  0.7836
  813MPD2     N12027   0.956   1.841  12.838 -0.0867  0.2681 -0.2690
  813MPD2    H512028   0.985   1.938  12.846 -0.7328  0.4898 -0.5978
  813MPD2    N112029   1.329   1.798  12.514 -0.6951 -0.1760 -0.3512
  813MPD2    H712030   1.339   1.759  12.420  0.4801  0.4552 -0.4846
  814MPD2     C12031   1.194   3.001  12.425 -0.6740 -0.0315 -0.3398
  814MPD2    C112032   1.125   3.076  12.330  0.1400  0.0844 -0.1308
  814MPD2    C212033   1.110   3.214  12.326  0.1730  0.2587 -0.1935
  814MPD2    C312034   1.159   3.278  12.442 -0.1901 -0.2916 -0.1529
  814MPD2    C412035   1.237   3.206  12.531 -0.4538 -0.3166  1.1115
  814MPD2    C512036   1.254   3.071  12.525  0.4707  0.7827 -0.1999
  814MPD2     H12037   1.057   3.267  12.248  1.5289  2.3296  0.2817
  814MPD2    H112038   1.302   3.259  12.600 -0.3378 -0.6588  1.2640
  814MPD2    H212039   1.205   2.893  12.424 -0.7417 -0.0117 -2.3994
  814MPD2    H312040   1.325   3.017  12.587 -0.7045  1.6719  1.9042
  814MPD2     N12041   1.146   3.418  12.455  0.0843  0.3698 -0.2783
  814MPD2    H512042   1.183   3.468  12.535 -0.7107  0.8748 -0.2243
  814MPD2    N112043   1.055   3.004  12.227 -0.0142  0.6327  0.1419
  814MPD2    H712044   1.019   3.065  12.154  1.3075  2.9435  1.4127
  815MPD2     C12045   1.682   1.931  11.648  0.5756 -0.6397 -0.1156
  815MPD2    C112046   1.672   1.802  11.674 -0.2695 -0.1120 -0.3595
  815MPD2    C212047   1.558   1.748  11.723 -0.3633  0.2234  0.1523
  815MPD2    C312048   1.453   1.832  11.755 -0.7430 -0.0735 -0.4785
  815MPD2    C412049   1.466   1.964  11.735 -0.4015  0.1865  1.2038
  815MPD2    C512050   1.578   2.015  11.684 -0.4263 -0.0790  0.1901
  815MPD2     H12051   1.545   1.641  11.720 -0.2042  0.1160  3.4189
  815MPD2    H112052   1.383   2.033  11.750  0.5605  1.4198  0.8285
  815MPD2    H212053   1.766   1.976  11.596 -0.3622 -0.2079 -1.2583
  815MPD2    H312054   1.581   2.120  11.657 -0.5135 -0.0821  0.1703
  815MPD2     N12055   1.332   1.772  11.790 -0.2183  0.0368  0.4849
  815MPD2    H512056   1.341   1.672  11.803 -2.2800  0.0851  2.3568
  815MPD2    N112057   1.788   1.728  11.632  0.0675 -0.1558 -0.4564
  815MPD2    H712058   1.851   1.773  11.566  0.1653 -0.4809 -0.5846
  816MPD2     C12059   1.158   1.287  17.109  0.2110 -0.3979 -0.5188
  816MPD2    C112060   1.094   1.200  17.029  0.0061 -0.5294 -0.1061
  816MPD2    C212061   1.158   1.128  16.926 -0.1551 -0.5936  0.2289
  816MPD2    C312062   1.289   1.144  16.911 -0.1289 -0.0038  0.1029
  816MPD2    C412063   1.357   1.231  16.998 -0.1999  0.2368 -0.9482
  816MPD2    C512064   1.295   1.300  17.095 -0.1922  0.6785  0.0705
  816MPD2     H12065   1.104   1.059  16.863 -2.1272  0.1841  1.0723
  816MPD2    H112066   1.466   1.240  17.001 -0.2261  0.3676 -0.2759
  816MPD2    H212067   1.110   1.340  17.190 -0.2866 -1.0500 -0.3889
  816MPD2    H312068   1.346   1.360  17.169  1.3217 -0.6145  0.0624
  816MPD2     N12069   1.347   1.068  16.805  0.2450 -0.2312 -0.2544
  816MPD2    H512070   1.285   0.996  16.770  2.9082 -2.4862 -0.2508
  816MPD2    N112071   0.957   1.192  17.056  0.2052  0.2676  0.2192
  816MPD2    H712072   0.921   1.251  17.130  2.2783 -1.0993  2.2844
  817MPD2     C12073   1.403   2.449   9.855  0.4457 -1.5275  0.4389
  817MPD2    C112074   1.424   2.425   9.724 -0.7609 -0.0437  0.6796
  817MPD2    C212075   1.365   2.508   9.624  0.0147  0.0107  0.0770
  817MPD2    C312076   1.283   2.613   9.663  0.5541  0.1182 -0.9363
  817MPD2    C412077   1.248   2.623   9.794  0.0060  0.7522 -0.4523
  817MPD2    C512078   1.307   2.545   9.890 -0.1578 -0.5814  0.4731
  817MPD2     H12079   1.392   2.495   9.520 -1.3010 -1.0504 -0.1295
  817MPD2    H112080   1.176   2.696   9.828  0.3824 -0.1212  2.2124
  817MPD2    H212081   1.444   2.393   9.938  1.5306 -0.9206  0.3190
  817MPD2    H312082   1.276   2.560   9.993  0.2341 -0.6068  0.5958
  817MPD2     N12083   1.233   2.700   9.558 -0.3452 -0.0643  0.1069
  817MPD2    H512084   1.246   2.671   9.462 -0.1105 -1.3732  0.5332
  817MPD2    N112085   1.508   2.327   9.677 -0.0654  0.4482 -0.6450
  817MPD2    H712086   1.529   2.332   9.578  0.3336 -1.1812 -0.6388
  818MPD2     C12087   0.496   2.960  10.281  0.0664 -0.6681  0.4119
  818MPD2    C112088   0.377   2.885  10.304 -0.0268  0.2450  0.8811
  818MPD2    C212089   0.342   2.784  10.221 -0.6569 -0.4029  0.7374
  818MPD2    C312090   0.421   2.738  10.121  0.0888  0.3693 -0.1314
  818MPD2    C412091   0.538   2.803  10.103 -0.3137 -0.3241 -0.7146
  818MPD2    C512092   0.574   2.912  10.181 -0.1377 -0.4763 -0.4375
  818MPD2     H12093   0.247   2.736  10.241  0.1919 -1.4897  2.1583
  818MPD2    H112094   0.608   2.777  10.024  0.8993  2.0706 -0.4315
  818MPD2    H212095   0.531   3.043  10.341  0.9260 -1.3486  0.8537
  818MPD2    H312096   0.670   2.959  10.168 -0.1356 -0.2145  0.4885
  818MPD2     N12097   0.386   2.634  10.034 -0.3052 -0.0285  0.7871
  818MPD2    H512098   0.455   2.595   9.971 -0.9662 -0.5572  0.3957
  818MPD2    N112099   0.288   2.921  10.408 -0.1691  0.0527  0.5402
  818MPD2    H712100   0.214   2.851  10.411  1.8986 -2.1024  0.5683
  819MPD2     C12101   2.393   4.535  15.571 -0.2614 -0.4328 -0.3009
  819MPD2    C112102   2.385   4.403  15.527  0.4985  0.2727 -0.7544
  819MPD2    C212103   2.454   4.302  15.595  0.1059 -0.1736  0.0445
  819MPD2    C312104   2.514   4.328  15.718  0.0559  0.1001  0.0412
  819MPD2    C412105   2.524   4.459  15.758 -0.2861  0.3927 -0.2426
  819MPD2    C512106   2.471   4.554  15.678  0.0009 -0.0356 -0.1106
  819MPD2     H12107   2.468   4.202  15.555  0.5858 -0.0940  0.0102
  819MPD2    H112108   2.582   4.492  15.843  0.0515  0.4154 -0.4826
  819MPD2    H212109   2.355   4.624  15.522 -0.8467 -0.2393  0.5038
  819MPD2    H312110   2.500   4.656  15.698  0.6237  0.4970 -3.6582
  819MPD2     N12111   2.574   4.219  15.788 -0.1494  0.3818 -0.0137
  819MPD2    H512112   2.583   4.131  15.740 -1.7986 -0.0423  0.4362
  819MPD2    N112113   2.307   4.376  15.409  0.4438 -0.7942  0.0160
  819MPD2    H712114   2.263   4.453  15.360  1.0677 -0.5986 -0.2341
  820MPD2     C12115   1.549   0.019  14.883  0.1190  0.6405  0.4498
  820MPD2    C112116   1.525   4.701  15.010 -0.6935 -0.5927 -0.0047
  820MPD2    C212117   1.627   4.627  15.074 -0.4250 -0.3295  0.1769
  820MPD2    C312118   1.739   4.589  15.003 -0.6859  0.9252  0.6022
  820MPD2    C412119   1.760   4.644  14.874  0.0787 -0.2416  0.4005
  820MPD2    C512120   1.668   4.729  14.818 -0.2358 -0.6553  0.3270
  820MPD2     H12121   1.618   4.580  15.172 -0.3922 -2.6000 -0.9064
  820MPD2    H112122   1.854   4.634  14.821  1.9010  1.4436  3.3523
  820MPD2    H212123   1.474   0.064  14.819  0.4569  2.3104  1.2111
  820MPD2    H312124   1.688   0.044  14.724 -0.8661  1.4673  1.3509
  820MPD2     N12125   1.833   4.494  15.048  0.2947  0.3113 -0.2551
  820MPD2    H512126   1.889   4.450  14.976  1.9905  3.6379 -0.9410
  820MPD2    N112127   1.388   4.712  15.052  0.3167 -0.0981 -0.0795
  820MPD2    H712128   1.324   0.015  14.984  0.5324  2.2685  1.0760
  821MPD2     C12129   3.023   0.283  12.768  0.5618 -0.3280 -0.1944
  821MPD2    C112130   3.082   0.365  12.860 -0.1979  0.3940  0.4062
  821MPD2    C212131   3.195   0.429  12.822  0.3168 -0.0056 -0.6635
  821MPD2    C312132   3.247   0.411  12.698 -0.1470  0.8683  0.5276
  821MPD2    C412133   3.182   0.335  12.605 -0.6995 -0.2992 -0.0097
  821MPD2    C512134   3.063   0.268  12.640  0.4208 -0.1121  0.3793
  821MPD2     H12135   3.254   0.485  12.894 -0.4734 -1.2196  0.9161
  821MPD2    H112136   3.210   0.322  12.500  3.3331 -3.3003  1.4258
  821MPD2    H212137   2.930   0.230  12.785 -0.5757  2.0803  1.1698
  821MPD2    H312138   3.017   0.205  12.564  1.3542 -0.0492 -0.2385
  821MPD2     N12139   3.364   0.476  12.652  0.1981 -0.1992 -0.2351
  821MPD2    H512140   3.417   0.443  12.572  0.8170 -0.7243  0.3967
  821MPD2    N112141   3.034   0.362  12.994 -0.8974  0.3290  0.0775
  821MPD2    H712142   2.963   0.291  13.011  0.4721 -0.8708  0.8006
  822MPD2     C12143   3.365   0.803  15.838 -0.1566 -0.6730  0.3772
  822MPD2    C112144   3.405   0.823  15.967  0.3078  0.9274  0.8014
  822MPD2    C212145   3.332   0.918  16.038  0.3158 -0.1867 -0.2678
  822MPD2    C312146   3.210   0.975  15.993 -0.1158  0.7326 -0.1310
  822MPD2    C412147   3.175   0.957  15.858  1.1392 -0.2452  0.1986
  822MPD2    C512148   3.263   0.876  15.784  0.0415  0.0970 -0.4401
  822MPD2     H12149   3.354   0.922  16.144  0.3210 -1.3149 -0.2249
  822MPD2    H112150   3.099   1.013  15.806  1.2684  1.5977  1.9645
  822MPD2    H212151   3.416   0.733  15.774 -1.0877 -0.3231 -0.7514
  822MPD2    H312152   3.220   0.852  15.687 -0.8836  0.9394 -0.2306
  822MPD2     N12153   3.133   1.057  16.083  0.2960 -0.2174 -0.5647
  822MPD2    H512154   3.160   1.054  16.181 -0.4394  0.0033 -0.3561
  822MPD2    N112155   3.486   0.738  16.041  0.1294 -0.1889 -0.0322
  822MPD2    H712156   3.493   0.752  16.141  1.9033  0.0840 -0.1900
  823MPD2     C12157   2.562   1.137  16.730 -0.7944 -0.2589  0.4404
  823MPD2    C112158   2.648   1.076  16.645 -0.4870 -0.0102 -0.8961
  823MPD2    C212159   2.718   0.965  16.687  0.5452 -0.3420 -0.0629
  823MPD2    C312160   2.716   0.921  16.822  0.6288 -0.0969 -0.6468
  823MPD2    C412161   2.630   0.990  16.907  0.2377  0.0749 -0.4562
  823MPD2    C512162   2.551   1.094  16.862  0.7595 -0.3209 -0.4153
  823MPD2     H12163   2.780   0.911  16.617 -0.0781 -1.7235  0.4636
  823MPD2    H112164   2.619   0.963  17.011 -1.5231 -0.0590 -0.6810
  823MPD2    H212165   2.502   1.221  16.697 -0.5849  0.3052  1.5023
  823MPD2    H312166   2.483   1.147  16.927 -0.4294 -0.3951 -1.6185
  823MPD2     N12167   2.790   0.817  16.879  0.2710  0.0797 -0.1773
  823MPD2    H512168   2.765   0.791  16.974  1.5566 -1.8774 -0.3755
  823MPD2    N112169   2.670   1.144  16.520 -0.3621 -0.0029 -0.1384
  823MPD2    H712170   2.628   1.236  16.504  0.1653  0.4161  0.8756
  824MPD2     C12171   3.796   4.655  16.079 -0.1284 -0.2434 -0.5505
  824MPD2    C112172   3.818   0.029  15.994 -0.1923 -0.0841  0.8350
  824MPD2    C212173   3.885   0.005  15.877 -0.2454 -0.4688 -0.1121
  824MPD2    C312174   3.934   4.616  15.837 -0.2229 -1.4722 -0.3536
  824MPD2    C412175   3.907   4.506  15.919  0.2737  0.7610  0.2268
  824MPD2    C512176   3.837   4.532  16.035 -0.4418 -0.2145  0.3240
  824MPD2     H12177   3.890   0.087  15.807 -2.1014  1.4454  2.0150
  824MPD2    H112178   3.926   4.404  15.888 -1.9663 -0.1903  2.0350
  824MPD2    H212179   3.738   4.648  16.170  1.3386 -0.2004  0.3940
  824MPD2    H312180   3.802   4.446  16.091  1.8029 -0.1329  1.8727
  824MPD2     N12181   3.999   4.613  15.715  0.3019 -0.1732 -0.1853
  824MPD2    H512182   4.002   4.703  15.668  0.5082  1.1737  2.4006
  824MPD2    N112183   3.762   0.165  16.025 -0.3768  0.2398  0.4185
  824MPD2    H712184   3.770   0.236  15.953 -1.7374 -1.3689 -1.2995
  825MPD2     C12185   4.672   0.122  15.321  0.1351 -0.1192 -0.6843
  825MPD2    C112186   4.557   0.150  15.387  0.2038 -0.6804  0.9106
  825MPD2    C212187   4.518   0.279  15.412  0.0697 -0.3027  0.1617
  825MPD2    C312188   4.600   0.387  15.386  0.1650 -0.9237 -0.1657
  825MPD2    C412189   4.717   0.360  15.317 -0.3160 -0.1889 -0.9685
  825MPD2    C512190   0.019   0.226  15.284 -0.6689  0.3520 -0.4665
  825MPD2     H12191   4.423   0.299  15.460  1.7411 -0.1740  3.4112
  825MPD2    H112192   0.049   0.437  15.281 -0.0973 -0.2624 -0.7144
  825MPD2    H212193   4.694   0.019  15.296  1.4665 -0.1558  0.5853
  825MPD2    H312194   0.114   0.199  15.241 -0.8824 -0.6180 -0.3264
  825MPD2     N12195   4.575   0.521  15.427 -0.3089 -0.6569 -0.6942
  825MPD2    H512196   4.629   0.594  15.381  1.3574 -1.0714  0.6202
  825MPD2    N112197   4.471   0.039  15.396  0.1566 -0.0703 -0.2828
  825MPD2    H712198   4.519   4.690  15.368  0.5256  0.1960 -0.4661
  826MPD2     C12199   3.964   4.342  13.753 -0.4862  0.5902  0.0726
  826MPD2    C112200   3.927   4.357  13.622  0.7000  0.2562 -0.7197
  826MPD2    C212201   3.848   4.462  13.596  0.0389  0.9752  0.4312
  826MPD2    C312202   3.800   4.546  13.695 -0.0511  0.1582 -0.5566
  826MPD2    C412203   3.825   4.516  13.823 -0.2314 -0.8840  0.3200
  826MPD2    C512204   3.917   4.422  13.850 -0.4012 -0.2454  0.1103
  826MPD2     H12205   3.824   4.475  13.491 -1.2474 -0.6925  0.5165
  826MPD2    H112206   3.787   4.580  13.902 -1.0675  0.4561 -1.1666
  826MPD2    H212207   4.036   4.263  13.767  0.3535  1.4605  0.6367
  826MPD2    H312208   3.940   4.403  13.954  0.8392  0.0920 -0.0959
  826MPD2     N12209   3.719   4.662  13.664  1.7357  0.2733  0.3574
  826MPD2    H512210   3.690   4.717  13.744  2.2755 -0.3882  1.0138
  826MPD2    N112211   3.993   4.277  13.522 -0.0400  0.5020  0.0656
  826MPD2    H712212   4.055   4.205  13.557 -0.9019 -1.3339 -2.1791
  827MPD2     C12213   0.817   1.527   9.868 -0.5912 -0.0964  0.5671
  827MPD2    C112214   0.805   1.398   9.917  0.3097 -0.0623  0.2993
  827MPD2    C212215   0.707   1.320   9.856  0.3302 -0.3558 -0.3541
  827MPD2    C312216   0.618   1.369   9.759  0.4686  0.4986 -0.2291
  827MPD2    C412217   0.639   1.500   9.719  0.8565  0.4641 -0.0054
  827MPD2    C512218   0.733   1.579   9.772 -0.6722 -0.0226  0.1122
  827MPD2     H12219   0.699   1.217   9.888  1.4237  0.3834  2.3004
  827MPD2    H112220   0.564   1.546   9.655 -1.7501 -2.1612  1.1528
  827MPD2    H212221   0.898   1.587   9.906 -1.4212  0.1231  1.9883
  827MPD2    H312222   0.741   1.683   9.744  1.6304  0.0706  1.0837
  827MPD2     N12223   0.512   1.289   9.714 -0.0931  0.0045 -0.2825
  827MPD2    H512224   0.505   1.194   9.748  3.5227 -0.4283 -0.8164
  827MPD2    N112225   0.896   1.347  10.024  0.1463 -0.2257  0.2995
  827MPD2    H712226   0.980   1.403  10.035  0.2257 -0.1162 -0.7750
  828MPD2     C12227   3.500   1.406  11.693 -0.1985  0.4107  0.4894
  828MPD2    C112228   3.475   1.520  11.763 -0.6839  0.0338 -0.3731
  828MPD2    C212229   3.459   1.638  11.696 -0.5556 -0.0475 -0.6404
  828MPD2    C312230   3.465   1.647  11.553  0.6080  0.0117  0.2230
  828MPD2    C412231   3.501   1.531  11.490 -0.3134 -0.6301  0.0154
  828MPD2    C512232   3.520   1.412  11.561 -0.2038  0.2080  0.0928
  828MPD2     H12233   3.450   1.731  11.752 -2.0517 -0.9154  0.5593
  828MPD2    H112234   3.506   1.522  11.382 -3.1438  0.1138 -0.1802
  828MPD2    H212235   3.506   1.309  11.739  1.7148 -0.7751 -2.2381
  828MPD2    H312236   3.540   1.323  11.502 -3.2944  0.0016 -0.6538
  828MPD2     N12237   3.447   1.769  11.488 -0.5267  0.2768  0.7858
  828MPD2    H512238   3.459   1.762  11.388  1.0016  1.6710  0.8929
  828MPD2    N112239   3.479   1.529  11.908 -0.5147  0.0702  0.1124
  828MPD2    H712240   3.477   1.624  11.943  1.6664 -0.0134  0.4713
  829MPD2     C12241   3.188   2.131  11.912 -0.1920 -0.5944 -0.5801
  829MPD2    C112242   3.115   2.047  11.992  0.0947  0.4222  0.0704
  829MPD2    C212243   3.185   1.967  12.077 -0.5964 -0.0719 -0.3001
  829MPD2    C312244   3.327   1.976  12.083  0.9555  0.4318  0.0994
  829MPD2    C412245   3.394   2.054  11.990  0.3718 -0.2710 -0.4225
  829MPD2    C512246   3.326   2.130  11.912 -0.2167 -0.4796  0.2463
  829MPD2     H12247   3.120   1.899  12.130  0.7254  0.2130  1.6917
  829MPD2    H112248   3.502   2.059  11.982  0.2899 -1.8571 -2.6798
  829MPD2    H212249   3.143   2.199  11.841 -0.3865 -0.7571 -0.6137
  829MPD2    H312250   3.371   2.199  11.841  0.8097 -1.1116  0.2843
  829MPD2     N12251   3.401   1.881  12.160  0.3502 -0.4649  0.5395
  829MPD2    H512252   3.501   1.890  12.149  0.2238 -0.7328 -0.9184
  829MPD2    N112253   2.981   2.029  11.966 -0.1602 -0.5487 -0.4407
  829MPD2    H712254   2.948   2.064  11.877 -0.1126 -1.3827 -0.7860
  830MPD2     C12255   2.809   3.829  15.391  0.5214 -0.4553 -0.2527
  830MPD2    C112256   2.884   3.880  15.494  0.2038 -0.6455  0.1984
  830MPD2    C212257   2.993   3.960  15.463 -1.3657  0.3859 -0.4107
  830MPD2    C312258   3.017   4.001  15.339 -0.6886 -0.3041 -0.3607
  830MPD2    C412259   2.933   3.951  15.240 -0.6821  0.1253 -0.3302
  830MPD2    C512260   2.833   3.867  15.261  0.3215 -0.4146 -0.2624
  830MPD2     H12261   3.051   4.001  15.544 -1.9025 -0.6160  0.4731
  830MPD2    H112262   2.957   3.981  15.139 -1.8177 -1.1321 -0.9677
  830MPD2    H212263   2.719   3.771  15.411  0.3630  0.4075  1.5861
  830MPD2    H312264   2.771   3.844  15.175 -3.0567  1.1566  1.7465
  830MPD2     N12265   3.114   4.096  15.297  1.0220  0.5206 -0.0686
  830MPD2    H512266   3.118   4.122  15.199  1.5190 -3.1777 -1.0247
  830MPD2    N112267   2.847   3.853  15.625 -0.5133 -0.3813 -0.3609
  830MPD2    H712268   2.749   3.838  15.644 -0.9111  1.1493 -1.2213
  831MPD2     C12269   3.287   1.150  16.511 -0.3513 -0.1802  0.1578
  831MPD2    C112270   3.336   1.051  16.432  0.5852 -0.2226 -0.2062
  831MPD2    C212271   3.257   0.942  16.396  0.1420 -0.0179  0.7245
  831MPD2    C312272   3.131   0.926  16.450  0.1417  0.8118  0.0044
  831MPD2    C412273   3.087   1.022  16.544  0.0913  0.3684  0.0291
  831MPD2    C512274   3.159   1.141  16.564 -0.2704 -0.1675  0.5003
  831MPD2     H12275   3.293   0.855  16.342  1.8980  0.9717  0.3174
  831MPD2    H112276   2.992   1.025  16.595  0.9257  0.7328  1.5617
  831MPD2    H212277   3.347   1.239  16.525 -0.6913  0.1097 -0.2769
  831MPD2    H312278   3.134   1.206  16.647 -4.6682 -0.8421 -0.2818
  831MPD2     N12279   3.049   0.815  16.433  0.2361  0.1063  0.1356
  831MPD2    H512280   2.976   0.790  16.499 -0.0063 -0.4818 -0.3562
  831MPD2    N112281   3.468   1.075  16.380  0.0683  0.0857  0.4655
  831MPD2    H712282   3.504   1.170  16.390 -0.3142  0.5904 -2.8697
  832MPD2     C12283   1.576   1.682  17.269  0.5298  0.3151 -0.1192
  832MPD2    C112284   1.548   1.816  17.299 -0.5802  0.8681  0.4081
  832MPD2    C212285   1.441   1.880  17.232  0.6068 -0.2710 -0.4150
  832MPD2    C312286   1.366   1.811  17.140 -0.5786 -0.3191 -0.1089
  832MPD2    C412287   1.390   1.675  17.124  0.0369  0.8161 -0.4950
  832MPD2    C512288   1.495   1.616  17.188 -0.8753 -0.2348  0.3348
  832MPD2     H12289   1.423   1.986  17.248  2.1887 -0.2330  1.0713
  832MPD2    H112290   1.334   1.611  17.056  1.8425 -0.3703 -0.8671
  832MPD2    H212291   1.658   1.632  17.321 -0.8088 -1.5646  0.1868
  832MPD2    H312292   1.508   1.508  17.181  0.6881  0.0041 -0.3913
  832MPD2     N12293   1.257   1.867  17.070 -0.0747 -0.7537  0.0336
  832MPD2    H512294   1.209   1.801  17.010  1.0931 -0.9210 -0.7128
  832MPD2    N112295   1.623   1.873  17.404 -0.8467  0.1287  0.4953
  832MPD2    H712296   1.710   1.830  17.435 -0.4203 -0.5008 -1.5946
  833MPD2     C12297   4.146   3.234  13.435  0.4279  0.4586 -0.1884
  833MPD2    C112298   4.112   3.273  13.303 -0.0432 -0.6851  0.7676
  833MPD2    C212299   4.188   3.222  13.200  0.0134 -0.1261  0.6086
  833MPD2    C312300   4.304   3.142  13.233  0.7053  0.6860  0.1057
  833MPD2    C412301   4.315   3.088  13.357 -0.5971 -0.0175 -0.4647
  833MPD2    C512302   4.235   3.134  13.459 -0.6349  0.6328  0.6742
  833MPD2     H12303   4.156   3.252  13.100 -2.4906  1.4432  1.8794
  833MPD2    H112304   4.403   3.030  13.383  1.1256  3.0231  0.5385
  833MPD2    H212305   4.092   3.261  13.524  1.0484  1.9486 -0.2547
  833MPD2    H312306   4.249   3.092  13.557  1.4889  0.0917  0.1354
  833MPD2     N12307   4.393   3.087  13.130 -0.2949 -0.1622  0.5250
  833MPD2    H512308   4.424   2.992  13.146  2.6724  0.6195 -0.5889
  833MPD2    N112309   3.996   3.354  13.277 -0.3662 -0.0930 -0.0911
  833MPD2    H712310   3.976   3.373  13.179  0.6311 -0.5099 -0.3735
  834MPD2     C12311   4.669   3.254  12.099 -0.3005 -0.6110 -1.1207
  834MPD2    C112312   4.582   3.147  12.106  0.0618  0.0617 -0.0918
  834MPD2    C212313   4.534   3.121  12.232 -1.2274  0.2587 -0.6362
  834MPD2    C312314   4.570   3.195  12.345 -0.4813 -0.4748  0.1364
  834MPD2    C412315   4.651   3.305  12.340 -0.6116 -0.3497  0.0664
  834MPD2    C512316   4.696   3.331  12.212 -0.8745  0.0029 -0.7884
  834MPD2     H12317   4.457   3.047  12.247 -0.2319 -0.2137  2.1551
  834MPD2    H112318   4.678   3.363  12.428 -3.2306 -0.0931  0.6994
  834MPD2    H212319   4.700   3.283  12.000  3.0503  1.9159  0.6773
  834MPD2    H312320   0.032   3.411  12.202  1.7412 -2.1976  0.3122
  834MPD2     N12321   4.521   3.146  12.467  0.0106  0.1038  0.5655
  834MPD2    H512322   4.461   3.065  12.463 -1.6086  1.3792 -1.0678
  834MPD2    N112323   4.547   3.078  11.984 -0.7449 -0.5051 -0.1974
  834MPD2    H712324   4.592   3.120  11.904  1.3985 -2.9688 -0.2753
  835MPD2     C12325   4.585   1.066  10.519  0.9979  0.0428  0.0145
  835MPD2    C112326   4.468   1.047  10.591  0.5662  0.8930  0.1750
  835MPD2    C212327   4.464   0.966  10.701 -0.1186 -0.2991 -0.6413
  835MPD2    C312328   4.571   0.891  10.733  0.1056  0.2171 -0.3414
  835MPD2    C412329   4.686   0.911  10.659  0.3492 -0.2776  0.5451
  835MPD2    C512330   4.701   0.999  10.553  0.0026 -0.2196  0.3153
  835MPD2     H12331   4.371   0.961  10.757  1.2876  1.2214  1.8019
  835MPD2    H112332   0.034   0.845  10.681  1.2665  1.1481  1.3141
  835MPD2    H212333   4.595   1.138  10.439  1.3203 -1.0199 -0.9017
  835MPD2    H312334   0.058   1.001  10.497  0.0522 -0.5697  0.3789
  835MPD2     N12335   4.585   0.808  10.849  0.8211 -0.6483 -0.4727
  835MPD2    H512336   4.676   0.766  10.864 -0.1354 -3.0166 -1.3621
  835MPD2    N112337   4.347   1.118  10.572  0.2150 -0.0316 -0.2890
  835MPD2    H712338   4.276   1.113  10.643  1.2587 -1.0949  0.6723
  836MPD2     C12339   4.219   0.577  11.680 -0.4717 -0.6072  0.2402
  836MPD2    C112340   4.234   0.671  11.587 -0.4191  0.6753  0.4003
  836MPD2    C212341   4.165   0.790  11.609 -0.4504  0.5909 -0.7052
  836MPD2    C312342   4.093   0.811  11.730 -0.3762  1.0084  0.7405
  836MPD2    C412343   4.091   0.709  11.825 -0.5760  0.3579 -0.2665
  836MPD2    C512344   4.153   0.593  11.797 -0.0467 -0.9659  0.4344
  836MPD2     H12345   4.190   0.872  11.543  0.0332  0.5540 -0.5641
  836MPD2    H112346   4.033   0.718  11.916  0.5819 -0.5118  0.5601
  836MPD2    H212347   4.264   0.482  11.653 -1.5476 -1.3069  0.9026
  836MPD2    H312348   4.142   0.509  11.864 -0.1984 -3.3786 -2.6264
  836MPD2     N12349   4.029   0.929  11.762  0.2197  0.6311 -0.5594
  836MPD2    H512350   3.996   0.942  11.857 -1.1887  2.9987 -1.3608
  836MPD2    N112351   4.298   0.637  11.466 -0.6927 -0.4394  0.2079
  836MPD2    H712352   4.353   0.552  11.463  0.3258  0.2010  0.7472
  837MPD2     C12353   2.992   0.992  10.439  0.2710 -0.6435  0.3193
  837MPD2    C112354   2.927   1.060  10.342  0.3821  0.7327  0.3353
  837MPD2    C212355   2.959   1.187  10.324 -0.1679 -0.5299 -0.3643
  837MPD2    C312356   3.040   1.257  10.408 -1.1214  0.2948  0.1491
  837MPD2    C412357   3.106   1.188  10.508 -0.7245  0.3282  0.5368
  837MPD2    C512358   3.070   1.057  10.530  0.0020  0.4528  0.4492
  837MPD2     H12359   2.900   1.230  10.243 -2.8909 -3.2805  0.1516
  837MPD2    H112360   3.168   1.243  10.578  1.0265 -0.6829 -0.2322
  837MPD2    H212361   2.974   0.887  10.453 -0.5078 -0.3751  1.3276
  837MPD2    H312362   3.111   1.001  10.613 -0.7340 -1.5626 -0.5473
  837MPD2     N12363   3.048   1.393  10.391  0.7241  0.2769 -0.4075
  837MPD2    H512364   3.110   1.436  10.460 -1.0787 -0.9157  1.9628
  837MPD2    N112365   2.828   0.996  10.257 -0.1746  0.1032 -0.2549
  837MPD2    H712366   2.803   1.045  10.172 -0.1033  0.1857 -0.2279
  838MPD2     C12367   1.298   4.185  12.062  0.3615  0.0589 -0.3825
  838MPD2    C112368   1.278   4.056  12.019  0.4894  0.7368  0.0222
  838MPD2    C212369   1.174   3.981  12.048  0.2299  0.6182  0.5344
  838MPD2    C312370   1.061   4.042  12.100  0.2610  0.5161 -0.1723
  838MPD2    C412371   1.066   4.166  12.155 -0.1853 -0.3937 -0.0234
  838MPD2    C512372   1.190   4.234  12.141 -0.2996 -0.1883  0.5864
  838MPD2     H12373   1.170   3.885  11.997  1.7433 -0.1913  1.9373
  838MPD2    H112374   0.981   4.212  12.204 -0.3152 -0.8944  0.2168
  838MPD2    H212375   1.396   4.230  12.057  0.4423 -0.1067 -0.2884
  838MPD2    H312376   1.201   4.330  12.190 -0.5798 -0.0834  0.4444
  838MPD2     N12377   0.936   3.980  12.114  0.3357 -0.6330  0.3974
  838MPD2    H512378   0.859   4.044  12.132 -1.3133 -2.8674  1.2464
  838MPD2    N112379   1.373   3.980  11.946 -0.0563 -0.2206 -0.0959
  838MPD2    H712380   1.343   3.886  11.924 -0.3734 -0.2521  0.4690
  839MPD2     C12381   0.843   3.496  11.765 -0.3184 -0.2570 -0.2840
  839MPD2    C112382   0.932   3.432  11.682  0.0531  0.0869 -0.0508
  839MPD2    C212383   1.052   3.506  11.654  0.3650  0.2991 -0.5846
  839MPD2    C312384   1.078   3.627  11.711  0.2043 -0.6122  0.2030
  839MPD2    C412385   0.975   3.686  11.782 -0.4436 -0.1594 -0.3652
  839MPD2    C512386   0.858   3.617  11.812  0.1754  0.1253 -0.0136
  839MPD2     H12387   1.133   3.464  11.596  0.0796  0.2595 -0.9625
  839MPD2    H112388   0.993   3.784  11.826 -0.1626 -0.1981 -0.3958
  839MPD2    H212389   0.741   3.462  11.779 -0.7723  0.4741 -1.8629
  839MPD2    H312390   0.771   3.672  11.847  0.5281  0.3176  0.5575
  839MPD2     N12391   1.197   3.698  11.699 -0.2729 -0.0076  0.0364
  839MPD2    H512392   1.213   3.790  11.738  2.9439  0.1513 -1.6219
  839MPD2    N112393   0.910   3.307  11.624 -0.3060  0.4470 -0.1200
  839MPD2    H712394   0.975   3.276  11.553 -1.4613 -2.8402  0.2580
  840MPD2     C12395   1.445   1.591  10.063 -0.2829 -0.3343 -0.4419
  840MPD2    C112396   1.436   1.515  10.176 -0.3001  0.3186  0.7671
  840MPD2    C212397   1.526   1.539  10.280  0.2039 -0.1496  0.1932
  840MPD2    C312398   1.620   1.640  10.278  0.0761 -0.6557  0.1114
  840MPD2    C412399   1.625   1.721  10.164 -0.1830  0.4036 -0.3916
  840MPD2    C512400   1.542   1.693  10.053 -0.2356  0.6249 -0.3446
  840MPD2     H12401   1.527   1.472  10.365 -1.6898  0.2003  0.4954
  840MPD2    H112402   1.698   1.798  10.143 -0.3533  0.6821  0.0490
  840MPD2    H212403   1.372   1.575   9.984  1.3059 -0.6391 -1.8679
  840MPD2    H312404   1.533   1.755   9.965 -0.8126  0.8763 -0.1043
  840MPD2     N12405   1.698   1.679  10.385 -0.3389 -0.3301  0.0717
  840MPD2    H512406   1.764   1.753  10.363 -0.7559 -0.5337 -1.8502
  840MPD2    N112407   1.330   1.419  10.182  0.2153 -0.0813 -0.6511
  840MPD2    H712408   1.255   1.433  10.115 -0.5293 -0.1160  0.1718
  841MPD2     C12409   0.827   0.946  14.193  0.4958 -0.4904  0.6613
  841MPD2    C112410   0.703   0.949  14.249 -0.6215 -0.3377  0.5194
  841MPD2    C212411   0.662   1.060  14.318 -0.4979  0.1732 -0.1282
  841MPD2    C312412   0.736   1.179  14.319  0.1221  0.0948  0.2177
  841MPD2    C412413   0.859   1.181  14.248 -0.1549 -0.3785  0.5577
  841MPD2    C512414   0.907   1.057  14.194 -0.4677 -0.5761  0.2527
  841MPD2     H12415   0.570   1.055  14.376 -0.2419 -0.6625  0.2082
  841MPD2    H112416   0.924   1.267  14.236 -0.3900 -0.7400 -3.2940
  841MPD2    H212417   0.864   0.858  14.140 -0.4986 -0.0139 -0.8297
  841MPD2    H312418   0.998   1.057  14.135 -0.9059  0.7490 -0.4378
  841MPD2     N12419   0.689   1.284  14.400 -0.2416 -0.4804 -0.3187
  841MPD2    H512420   0.612   1.262  14.463 -0.2874  2.3397  0.6250
  841MPD2    N112421   0.623   0.833  14.261  0.7071  0.6566 -0.1133
  841MPD2    H712422   0.542   0.830  14.322  2.0360 -0.1456  1.5923
  842MPD2     C12423   0.954   2.441  16.960 -0.8494  0.3166  0.3743
  842MPD2    C112424   0.827   2.418  16.907 -0.8913  0.0777 -0.2504
  842MPD2    C212425   0.750   2.326  16.980 -0.4817  0.2293 -0.6333
  842MPD2    C312426   0.779   2.276  17.104  0.1320  0.0156 -0.1784
  842MPD2    C412427   0.903   2.314  17.156 -0.2510 -0.3312  0.4660
  842MPD2    C512428   0.990   2.387  17.084 -0.2137 -0.2999  0.9041
  842MPD2     H12429   0.648   2.322  16.945 -0.4138  1.0212 -0.9234
  842MPD2    H112430   0.930   2.286  17.258 -2.5527 -0.8416  0.9283
  842MPD2    H212431   1.027   2.509  16.917 -0.2746  0.0974  0.9882
  842MPD2    H312432   1.090   2.412  17.117 -0.3261  0.8419  0.3514
  842MPD2     N12433   0.689   2.198  17.175  0.1206  0.0148 -0.2331
  842MPD2    H512434   0.714   2.162  17.266 -1.4469  1.2691  0.6860
  842MPD2    N112435   0.787   2.484  16.792 -0.0915 -0.1349  0.9454
  842MPD2    H712436   0.844   2.563  16.763  0.3551 -1.0238 -0.5434
  843MPD2     C12437   2.313   3.193   0.241  0.3586  0.8164 -0.3252
  843MPD2    C112438   2.378   3.083   0.294  0.6138  0.6068  0.0048
  843MPD2    C212439   2.510   3.097   0.342 -0.1716  0.1523 -0.6187
  843MPD2    C312440   2.568   3.223   0.351  0.7589  0.1666  0.0941
  843MPD2    C412441   2.503   3.331   0.299 -0.5463 -0.0765 -0.1028
  843MPD2    C512442   2.382   3.314   0.244 -0.0082 -0.3401  0.2338
  843MPD2     H12443   2.560   3.008   0.379 -0.3523  1.3476  2.5607
  843MPD2    H112444   2.540   3.433   0.302  1.1808 -0.7355  1.5674
  843MPD2    H212445   2.211   3.187   0.207  0.1004 -2.6734  1.0781
  843MPD2    H312446   2.331   3.402   0.207 -0.9690 -0.6138  0.9036
  843MPD2     N12447   2.698   3.248   0.407  0.3337  0.3297  0.0440
  843MPD2    H512448   2.734   3.343   0.404 -0.5500  0.6269 -0.8413
  843MPD2    N112449   2.322   2.955   0.281  0.5443 -0.1541  0.3828
  843MPD2    H712450   2.232   2.945   0.235  0.9321 -2.0914  0.0294
  844MPD2     C12451   1.030   1.714  16.384  0.1660  0.1885  0.6650
  844MPD2    C112452   1.145   1.696  16.313 -0.2370 -0.1720  0.8881
  844MPD2    C212453   1.267   1.720  16.374 -0.0331 -0.1275  0.0605
  844MPD2    C312454   1.276   1.761  16.500  0.2493 -0.5130  0.2390
  844MPD2    C412455   1.158   1.791  16.566  0.1994 -0.8999 -0.2756
  844MPD2    C512456   1.034   1.766  16.511  0.4773  0.4609  0.4431
  844MPD2     H12457   1.355   1.703  16.314  0.5792  0.7216  0.7071
  844MPD2    H112458   1.162   1.812  16.672  0.7813  2.2427 -0.9345
  844MPD2    H212459   0.941   1.675  16.336  0.3040  0.1895  0.4046
  844MPD2    H312460   0.943   1.776  16.569 -0.0136  1.3733 -0.4876
  844MPD2     N12461   1.405   1.783  16.562 -0.7999 -0.4523  0.0055
  844MPD2    H512462   1.488   1.736  16.527 -1.2750 -1.9260  0.8318
  844MPD2    N112463   1.149   1.621  16.191 -0.6770 -0.7180  0.0640
  844MPD2    H712464   1.240   1.602  16.149 -0.8060 -1.0096 -0.0797
  845MPD2     C12465   1.678   2.450  17.274  0.1019 -0.0496 -0.0060
  845MPD2    C112466   1.554   2.396  17.243 -0.5287  0.0279 -0.4369
  845MPD2    C212467   1.538   2.286  17.159  0.1991  0.2906  0.4755
  845MPD2    C312468   1.655   2.223  17.120 -0.5804  0.4639  0.1145
  845MPD2    C412469   1.776   2.280  17.144  0.3165  0.2118 -0.2590
  845MPD2    C512470   1.787   2.387  17.225 -0.1268 -0.5343 -0.6150
  845MPD2     H12471   1.442   2.244  17.134  0.3299 -0.0448  0.5447
  845MPD2    H112472   1.863   2.236  17.095 -0.3649 -1.6359  0.2129
  845MPD2    H212473   1.690   2.542  17.329 -0.6060  0.9800 -1.5659
  845MPD2    H312474   1.884   2.434  17.232 -1.3495  1.6068  1.6013
  845MPD2     N12475   1.636   2.102  17.052  0.1037 -0.0388  0.2281
  845MPD2    H512476   1.541   2.069  17.040 -0.1457 -0.0749  2.4008
  845MPD2    N112477   1.450   2.463  17.308 -0.2701 -0.2368  0.8600
  845MPD2    H712478   1.488   2.540  17.362 -1.2942  1.3947 -0.7617
  846MPD2     C12479   3.022   2.550  13.667 -0.0419 -0.7366 -0.4473
  846MPD2    C112480   2.983   2.677  13.709  0.3441  0.5044 -0.2243
  846MPD2    C212481   2.933   2.687  13.839 -0.5693 -0.0595  0.1875
  846MPD2    C312482   2.954   2.587  13.933  0.3479  0.4393 -0.8846
  846MPD2    C412483   3.005   2.465  13.890  0.0281 -0.2918 -0.3030
  846MPD2    C512484   3.037   2.451  13.754  0.9020 -0.3748  0.4683
  846MPD2     H12485   2.883   2.776  13.877 -3.1429 -0.0601 -3.1427
  846MPD2    H112486   3.028   2.381  13.955  0.9521 -0.6232 -1.0533
  846MPD2    H212487   3.046   2.536  13.563 -1.9491 -1.4692 -0.7893
  846MPD2    H312488   3.074   2.358  13.713 -0.7508 -1.1193  0.6465
  846MPD2     N12489   2.940   2.621  14.073 -0.6102  0.3734  0.0610
  846MPD2    H512490   2.932   2.720  14.093 -1.0275  0.5797 -1.1098
  846MPD2    N112491   2.979   2.788  13.623  0.6224 -0.0260 -0.6182
  846MPD2    H712492   2.960   2.875  13.673  3.1493 -0.6351  1.3687
  847MPD2     C12493   3.394   4.179  14.888 -0.5263 -0.2331  0.1258
  847MPD2    C112494   3.469   4.294  14.902 -0.2147  0.1104  0.6235
  847MPD2    C212495   3.550   4.314  15.011  0.5311  0.8986  0.2979
  847MPD2    C312496   3.565   4.214  15.106  0.3753  0.2923 -0.1405
  847MPD2    C412497   3.483   4.103  15.096  0.3699 -0.0007  0.2176
  847MPD2    C512498   3.407   4.086  14.985 -0.7837  0.5389  0.2040
  847MPD2     H12499   3.599   4.410  15.015 -1.3731  1.8217  1.9987
  847MPD2    H112500   3.490   4.026  15.172  0.5578 -2.1440 -1.9501
  847MPD2    H212501   3.325   4.157  14.808  0.9681  0.1579 -1.2600
  847MPD2    H312502   3.357   3.990  14.972  1.4448 -0.1307 -3.2989
  847MPD2     N12503   3.639   4.256  15.218 -0.2860 -0.1573  0.4117
  847MPD2    H512504   3.675   4.351  15.215  0.6855 -0.5578 -0.8016
  847MPD2    N112505   3.470   4.391  14.802  0.2696 -0.1939 -0.1307
  847MPD2    H712506   3.541   4.463  14.815  0.3345 -0.5236  1.4191
  848MPD2     C12507   1.051   2.456  16.484  0.1144  1.5427 -0.4036
  848MPD2    C112508   1.136   2.440  16.593 -0.3354  0.6837 -0.0267
  848MPD2    C212509   1.223   2.544  16.628  0.2493  0.1967 -0.3960
  848MPD2    C312510   1.235   2.651  16.544  0.8124  0.4507  0.4383
  848MPD2    C412511   1.170   2.653  16.425  0.1951 -0.8152 -0.1945
  848MPD2    C512512   1.081   2.552  16.391  0.0535 -0.6905  1.0700
  848MPD2     H12513   1.264   2.559  16.727 -1.4925  2.5713 -0.0300
  848MPD2    H112514   1.194   2.736  16.359 -1.7389 -1.0054 -1.1310
  848MPD2    H212515   0.975   2.384  16.456  1.3698 -0.0288  0.2583
  848MPD2    H312516   1.029   2.556  16.296  2.1477 -1.1356 -0.0928
  848MPD2     N12517   1.326   2.753  16.574 -0.0507  1.0916  1.2332
  848MPD2    H512518   1.306   2.840  16.526  1.0576  1.5755  1.6342
  848MPD2    N112519   1.118   2.336  16.689  0.4100 -0.4470 -0.6653
  848MPD2    H712520   1.187   2.338  16.764  0.8750  1.2417 -1.1432
  849MPD2     C12521   0.751   2.042  13.683  0.0557  0.3481  0.7007
  849MPD2    C112522   0.778   1.942  13.778  0.5697  0.2407 -0.3239
  849MPD2    C212523   0.678   1.904  13.866 -0.1421  0.9373 -0.1351
  849MPD2    C312524   0.553   1.964  13.861  0.0505  0.1430  0.1214
  849MPD2    C412525   0.528   2.058  13.768  0.6563  0.2638 -0.0069
  849MPD2    C512526   0.627   2.102  13.684 -1.1064  0.1214 -0.1159
  849MPD2     H12527   0.695   1.830  13.943 -1.5925 -2.0222 -2.6510
  849MPD2    H112528   0.432   2.106  13.760 -1.0255 -3.0645  0.3951
  849MPD2    H212529   0.825   2.064  13.607 -1.5948 -0.9690 -1.2832
  849MPD2    H312530   0.614   2.185  13.615  0.0487  0.6416  0.2918
  849MPD2     N12531   0.456   1.924  13.954 -1.6117 -0.1767 -0.0051
  849MPD2    H512532   0.480   1.847  14.015  0.7770  1.5529  1.2611
  849MPD2    N112533   0.907   1.885  13.797 -0.1827 -0.0136  0.1633
  849MPD2    H712534   0.914   1.810  13.866 -1.6582  0.5182  0.9026
  850MPD2     C12535   3.093   0.532  14.728 -0.2574 -0.7637  0.2648
  850MPD2    C112536   3.092   0.605  14.844  0.0760  0.6758  0.0344
  850MPD2    C212537   3.207   0.610  14.921 -0.2366 -0.1022 -0.0188
  850MPD2    C312538   3.311   0.523  14.889 -0.0896 -0.2973  0.1477
  850MPD2    C412539   3.315   0.454  14.769  0.3472 -0.5163 -0.6732
  850MPD2    C512540   3.207   0.463  14.690  0.0644  0.6298 -0.1473
  850MPD2     H12541   3.223   0.680  15.003 -2.1026 -1.2540  1.3305
  850MPD2    H112542   3.408   0.403  14.748 -0.2797 -1.0445 -2.1143
  850MPD2    H212543   3.005   0.516  14.666 -0.0054 -1.2625  0.0347
  850MPD2    H312544   3.200   0.403  14.600  0.1526 -0.6605  0.7160
  850MPD2     N12545   3.435   0.518  14.972 -1.0508  0.0673 -0.1738
  850MPD2    H512546   3.510   0.458  14.940 -1.7641  1.1758 -4.0461
  850MPD2    N112547   2.977   0.689  14.866 -0.0656 -0.5468 -0.2324
  850MPD2    H712548   2.927   0.717  14.783 -0.2429 -1.0890 -0.3105
  851MPD2     C12549   3.083   0.253  15.650  0.1102 -0.4902 -0.3259
  851MPD2    C112550   3.084   0.254  15.509 -0.3443 -0.1442 -0.1124
  851MPD2    C212551   3.125   0.141  15.438 -0.1571 -0.3337  0.4089
  851MPD2    C312552   3.179   0.032  15.502 -0.3790 -0.3504  0.1828
  851MPD2    C412553   3.171   0.031  15.640 -0.1671 -0.0036 -0.4575
  851MPD2    C512554   3.127   0.140  15.712 -0.1879 -0.0454 -0.7806
  851MPD2     H12555   3.124   0.141  15.329  1.2515 -0.5310  0.4015
  851MPD2    H112556   3.219   4.689  15.697 -0.5165  0.7355  0.8409
  851MPD2    H212557   3.049   0.326  15.723  0.4360 -1.2672  0.6064
  851MPD2    H312558   3.135   0.132  15.820  1.0821  1.5506 -0.7587
  851MPD2     N12559   3.241   4.663  15.426 -0.5786  0.7801 -0.1078
  851MPD2    H512560   3.232   4.665  15.325 -2.1876 -0.1463  0.0099
  851MPD2    N112561   3.066   0.380  15.445  0.3082  0.2344  0.0901
  851MPD2    H712562   3.056   0.459  15.508  0.3513  0.7109 -0.5064
  852MPD2     C12563   3.496   3.519  10.135  0.2618  0.4592  0.3112
  852MPD2    C112564   3.495   3.468  10.265 -0.4555  0.4547 -0.2352
  852MPD2    C212565   3.614   3.463  10.330  0.0898  0.0095 -1.0352
  852MPD2    C312566   3.729   3.508  10.268  0.1021  0.2995  0.5359
  852MPD2    C412567   3.734   3.549  10.133 -0.4411 -0.0283 -0.3287
  852MPD2    C512568   3.618   3.557  10.077 -0.1996  0.2725 -0.7141
  852MPD2     H12569   3.630   3.408  10.422  2.8379 -1.6745 -2.5539
  852MPD2    H112570   3.822   3.588  10.085 -0.0892 -1.3837 -0.7886
  852MPD2    H212571   3.406   3.519  10.075 -0.7285  2.2623  1.7957
  852MPD2    H312572   3.624   3.587   9.973 -1.6648  1.8840 -0.3382
  852MPD2     N12573   3.847   3.473  10.330 -0.1003 -0.0089 -0.6974
  852MPD2    H512574   3.830   3.437  10.423  2.2186  1.7993  0.4435
  852MPD2    N112575   3.381   3.424  10.336  0.7498  0.5000  0.4575
  852MPD2    H712576   3.393   3.406  10.435 -1.3335 -1.1386  0.4141
  853MPD2     C12577   0.701   2.285  12.102  0.0888  0.2950  0.0123
  853MPD2    C112578   0.614   2.377  12.050  0.5388 -0.2621 -0.2166
  853MPD2    C212579   0.589   2.372  11.909 -0.3221 -0.3790  1.1797
  853MPD2    C312580   0.659   2.274  11.830  0.1778 -0.1497 -1.0278
  853MPD2    C412581   0.754   2.197  11.891  0.5867 -0.9505 -0.6156
  853MPD2    C512582   0.769   2.197  12.022  0.5847  0.0520 -0.2456
  853MPD2     H12583   0.507   2.434  11.875 -0.3403 -0.6050  0.8147
  853MPD2    H112584   0.816   2.131  11.832 -1.3264 -2.3040 -1.1101
  853MPD2    H212585   0.727   2.280  12.208 -1.5195  1.4166  0.4674
  853MPD2    H312586   0.836   2.124  12.066 -0.9436 -1.5833 -0.6095
  853MPD2     N12587   0.645   2.267  11.692 -0.5763  0.3603 -0.5744
  853MPD2    H512588   0.703   2.195  11.651 -0.3032  0.0031  0.4261
  853MPD2    N112589   0.554   2.463  12.147  0.1220 -0.2969  0.6747
  853MPD2    H712590   0.581   2.443  12.243  1.9962  0.2932  0.2736
  854MPD2     C12591   2.215   2.129  12.606 -0.9304  0.1965 -0.2800
  854MPD2    C112592   2.186   2.202  12.718 -0.1865 -0.6311  0.5320
  854MPD2    C212593   2.251   2.179  12.837 -0.6244  0.0422 -0.0046
  854MPD2    C312594   2.355   2.089  12.837 -0.1888 -0.0835 -0.1816
  854MPD2    C412595   2.375   2.013  12.729  0.3251  0.8028 -0.2042
  854MPD2    C512596   2.306   2.033  12.615 -1.0925  0.6583  0.4616
  854MPD2     H12597   2.223   2.240  12.922 -1.2824 -0.1737 -0.0648
  854MPD2    H112598   2.445   1.931  12.720  0.0873  0.5233  0.5703
  854MPD2    H212599   2.157   2.135  12.514 -1.2274 -0.6367 -0.1571
  854MPD2    H312600   2.309   1.955  12.539 -0.4240  0.3298  0.8245
  854MPD2     N12601   2.443   2.076  12.947 -0.2911  0.3462 -0.8397
  854MPD2    H512602   2.521   2.011  12.946  1.7415  2.7644  0.0535
  854MPD2    N112603   2.095   2.311  12.691 -0.0321 -0.3342  0.4425
  854MPD2    H712604   2.076   2.347  12.598 -2.0379 -0.6497  0.7331
  855MPD2     C12605   2.372   2.347  13.960 -0.2954 -0.8440  0.2102
  855MPD2    C112606   2.430   2.224  13.940 -0.4232  0.6601 -0.6330
  855MPD2    C212607   2.464   2.183  13.807 -0.1270  0.1875 -0.6550
  855MPD2    C312608   2.446   2.263  13.699  0.0756 -0.2923  0.1772
  855MPD2    C412609   2.406   2.391  13.729  0.9096  0.8669 -0.8422
  855MPD2    C512610   2.365   2.429  13.851 -0.0536 -0.2045  0.5730
  855MPD2     H12611   2.493   2.080  13.790 -0.1544  0.0566  0.0607
  855MPD2    H112612   2.405   2.471  13.655  0.0706  0.4673 -1.2746
  855MPD2    H212613   2.336   2.379  14.057 -0.1779 -0.1501  0.0232
  855MPD2    H312614   2.329   2.530  13.858  0.0988 -0.0693 -0.5935
  855MPD2     N12615   2.484   2.223  13.565  0.0523 -0.0792  0.6012
  855MPD2    H512616   2.457   2.289  13.493 -0.9332 -1.3882 -0.2313
  855MPD2    N112617   2.455   2.129  14.044  0.6248  0.0466 -0.2094
  855MPD2    H712618   2.490   2.037  14.021  0.3563 -0.6612  2.1626
  856MPD2     C12619   4.718   2.794  14.142  0.2749 -0.0753  0.2954
  856MPD2    C112620   4.677   2.931  14.130  0.0891 -0.3019 -0.6321
  856MPD2    C212621   4.550   2.953  14.084  0.2339  0.3467 -0.7925
  856MPD2    C312622   4.452   2.857  14.058 -0.1869  0.5707  0.2430
  856MPD2    C412623   4.500   2.723  14.067 -0.0427 -0.2640  1.4943
  856MPD2    C512624   4.628   2.696  14.104  0.2513 -0.0846 -0.4242
  856MPD2     H12625   4.522   3.057  14.074  0.6465  0.5703  0.3899
  856MPD2    H112626   4.435   2.639  14.046  1.2426 -1.1060  0.8903
  856MPD2    H212627   0.086   2.776  14.167  0.4456  1.5406  0.7345
  856MPD2    H312628   4.666   2.594  14.108  1.9142  0.5730  0.1808
  856MPD2     N12629   4.317   2.877  14.042  0.5189  0.1991 -0.4363
  856MPD2    H512630   4.272   2.789  14.021  3.3861 -1.7859  1.7746
  856MPD2    N112631   0.025   3.043  14.169 -0.1107  0.0538  0.4190
  856MPD2    H712632   4.726   3.138  14.161 -0.6023  0.0107  1.9726
  857MPD2     C12633   1.374   0.991  12.591  0.5643 -0.4600 -0.2435
  857MPD2    C112634   1.497   0.960  12.644  0.4249  0.7914  0.3363
  857MPD2    C212635   1.554   1.041  12.737  0.2794  0.2006 -0.0833
  857MPD2    C312636   1.492   1.157  12.767  0.3514 -0.7068  0.8122
  857MPD2    C412637   1.384   1.203  12.691  0.0580  0.4004  0.5478
  857MPD2    C512638   1.321   1.115  12.606 -1.0282 -0.5635 -0.7675
  857MPD2     H12639   1.642   1.011  12.793  2.1083  0.4507 -2.8346
  857MPD2    H112640   1.329   1.292  12.719 -1.3097  0.4293 -2.2503
  857MPD2    H212641   1.322   0.924  12.524  1.0406 -0.8518 -0.2138
  857MPD2    H312642   1.224   1.131  12.560 -1.5705  0.7038  0.8330
  857MPD2     N12643   1.553   1.239  12.861  0.3414 -0.3050  0.1651
  857MPD2    H512644   1.608   1.187  12.930 -1.0009 -1.9586 -0.0057
  857MPD2    N112645   1.555   0.832  12.614 -0.2948  1.4902 -0.1393
  857MPD2    H712646   1.488   0.765  12.579  0.0285  1.3456 -0.4833
  858MPD2     C12647   1.149   4.521  16.519 -0.6212 -0.0096  0.5008
  858MPD2    C112648   1.234   4.549  16.420 -0.1521  0.2087 -1.0920
  858MPD2    C212649   1.219   4.682  16.368  0.5458 -0.3491 -0.0982
  858MPD2    C312650   1.144   0.044  16.429 -0.4930  0.4181  0.2060
  858MPD2    C412651   1.071   0.004  16.538 -0.1243  0.5269 -0.2316
  858MPD2    C512652   1.057   4.606  16.572 -0.2946 -0.4359  0.1818
  858MPD2     H12653   1.267   4.708  16.274  0.9025 -1.5641 -0.2542
  858MPD2    H112654   1.010   0.077  16.591  0.8221 -0.2969  1.9826
  858MPD2    H212655   1.157   4.422  16.562 -0.1440 -0.3454 -0.3599
  858MPD2    H312656   0.998   4.580  16.658 -0.1500  1.4903  0.8547
  858MPD2     N12657   1.156   0.183  16.397 -0.2767  0.1657 -0.0732
  858MPD2    H512658   1.114   0.246  16.465  0.4890  0.9845 -0.3580
  858MPD2    N112659   1.308   4.440  16.363 -1.2231 -0.3438 -0.1369
  858MPD2    H712660   1.307   4.348  16.407 -0.6055  0.1686  0.9580
  859MPD2     C12661   0.572   2.268  15.778  0.4078  0.5206  0.6267
  859MPD2    C112662   0.573   2.218  15.648  0.4990 -0.2087 -0.1758
  859MPD2    C212663   0.502   2.102  15.621  0.5602  0.3331 -0.1188
  859MPD2    C312664   0.437   2.039  15.722  0.9157  0.3618  0.3222
  859MPD2    C412665   0.426   2.091  15.848  0.1730  1.0649  0.1829
  859MPD2    C512666   0.492   2.211  15.871 -0.8116 -0.0231 -0.6614
  859MPD2     H12667   0.516   2.071  15.518 -0.2812  0.7892 -0.3657
  859MPD2    H112668   0.367   2.038  15.921  0.3579 -0.3891 -0.7253
  859MPD2    H212669   0.623   2.362  15.797  0.3498  0.7145 -0.1802
  859MPD2    H312670   0.489   2.262  15.967 -0.1758  1.3770 -1.3911
  859MPD2     N12671   0.366   1.918  15.694  0.0578 -0.6287 -0.9673
  859MPD2    H512672   0.322   1.869  15.771 -0.4305 -0.2547 -1.0062
  859MPD2    N112673   0.640   2.275  15.537 -0.4038 -0.0980 -0.4908
  859MPD2    H712674   0.637   2.235  15.444  0.9432 -0.9925 -0.1516
  860MPD2     C12675   3.786   2.739  12.046  0.0541  0.4167  0.5577
  860MPD2    C112676   3.793   2.661  12.162 -0.2225 -0.4758  0.0219
  860MPD2    C212677   3.675   2.632  12.233 -0.2922 -0.4032 -0.1280
  860MPD2    C312678   3.558   2.692  12.189  0.1678 -0.4115 -0.1678
  860MPD2    C412679   3.556   2.763  12.069 -0.3830  0.2677  0.1333
  860MPD2    C512680   3.668   2.792  12.002 -0.5913  0.9235 -0.9057
  860MPD2     H12681   3.686   2.559  12.312 -2.4861 -1.6288 -0.9434
  860MPD2    H112682   3.467   2.805  12.023 -0.2759  2.1737  1.6991
  860MPD2    H212683   3.876   2.776  11.999 -0.5495 -0.4483 -1.2612
  860MPD2    H312684   3.666   2.845  11.908 -1.3126  0.2999 -1.2358
  860MPD2     N12685   3.441   2.669  12.256  0.1151 -0.0137 -0.8507
  860MPD2    H512686   3.449   2.629  12.348  1.6570 -0.2619 -1.0940
  860MPD2    N112687   3.916   2.600  12.209 -0.4792 -0.3793 -0.1099
  860MPD2    H712688   3.899   2.533  12.283 -0.9332 -0.2240 -0.0759
  861MPD2     C12689   2.373   0.626  11.179  0.2144 -0.0481  0.0620
  861MPD2    C112690   2.255   0.585  11.221 -0.3328  0.3344 -0.0706
  861MPD2    C212691   2.141   0.607  11.149 -0.6339  0.0554  0.4988
  861MPD2    C312692   2.146   0.668  11.020  0.2865  0.3786  1.0644
  861MPD2    C412693   2.267   0.708  10.974  0.8993  0.5794 -0.6612
  861MPD2    C512694   2.376   0.689  11.055 -0.0888 -0.3301  0.2388
  861MPD2     H12695   2.044   0.590  11.193  0.2377  0.9478  2.7640
  861MPD2    H112696   2.281   0.756  10.878  0.9093 -0.9713 -1.4271
  861MPD2    H212697   2.469   0.602  11.223  1.3223  0.7622 -1.9218
  861MPD2    H312698   2.471   0.737  11.034 -0.1630 -0.4218 -0.2968
  861MPD2     N12699   2.042   0.690  10.934  0.4769  0.1151 -0.1580
  861MPD2    H512700   2.059   0.740  10.847 -1.3981  1.9549  0.5265
  861MPD2    N112701   2.232   0.534  11.351  0.0248  0.5369 -0.0964
  861MPD2    H712702   2.142   0.504  11.388 -0.3788  1.5620 -0.2268
  862MPD2     C12703   1.563   0.651  10.333  0.3431  0.2773 -0.5455
  862MPD2    C112704   1.656   0.668  10.437  1.1627 -0.3415  0.7220
  862MPD2    C212705   1.648   0.578  10.538 -0.8672 -0.3431  0.1581
  862MPD2    C312706   1.561   0.470  10.539 -0.8206  0.2260  0.5798
  862MPD2    C412707   1.465   0.467  10.439 -0.0929 -0.7975  0.5070
  862MPD2    C512708   1.475   0.552  10.333 -0.5065 -0.9726 -0.2404
  862MPD2     H12709   1.729   0.575  10.609 -1.5866  0.9535  1.0489
  862MPD2    H112710   1.391   0.388  10.443 -1.4752  0.4295 -0.7536
  862MPD2    H212711   1.563   0.713  10.244  0.5652  1.2369  0.1254
  862MPD2    H312712   1.414   0.548  10.243  0.7533 -0.4540 -1.1139
  862MPD2     N12713   1.555   0.370  10.639  0.5719  0.1132 -0.2865
  862MPD2    H512714   1.492   0.291  10.626  0.0262  1.0824 -3.4912
  862MPD2    N112715   1.758   0.768  10.425  0.0011 -0.5735  0.5835
  862MPD2    H712716   1.759   0.813  10.334 -2.7478 -2.1386 -0.2253
  863MPD2     C12717   4.663   3.129  16.988  0.0165  0.9281 -1.0682
  863MPD2    C112718   4.710   3.257  16.976  0.2494 -0.4341  0.1536
  863MPD2    C212719   0.063   3.307  17.069 -0.0703 -0.2217 -0.5010
  863MPD2    C312720   0.112   3.219  17.171  0.2341 -0.1030 -0.0873
  863MPD2    C412721   0.064   3.086  17.182  0.8848  0.0666 -0.3198
  863MPD2    C512722   4.722   3.044  17.077 -0.3127 -0.6035  0.0860
  863MPD2     H12723   0.107   3.406  17.065  0.1130 -0.2601  0.6722
  863MPD2    H112724   0.107   3.016  17.253 -1.2459  0.4755  1.3785
  863MPD2    H212725   4.594   3.096  16.912 -1.2486  1.8559 -0.3316
  863MPD2    H312726   4.697   2.938  17.074  0.1778 -0.6950 -0.8303
  863MPD2     N12727   0.190   3.266  17.274 -0.3358 -0.3386  0.4713
  863MPD2    H512728   0.217   3.193  17.339  0.0106 -1.2306 -0.6755
  863MPD2    N112729   4.647   3.339  16.878  0.0937  0.2267 -0.0743
  863MPD2    H712730   4.593   3.298  16.803  0.5202  0.3760 -0.4685
  864MPD2     C12731   0.154   0.583  16.896 -0.1604 -0.1297  0.2937
  864MPD2    C112732   0.238   0.491  16.832 -0.4735 -0.2136 -0.0098
  864MPD2    C212733   0.310   0.519  16.712  0.3804  0.1291  0.2491
  864MPD2    C312734   0.288   0.648  16.654 -0.0440 -0.2270  0.7239
  864MPD2    C412735   0.203   0.734  16.713  0.0340  0.1650  0.1025
  864MPD2    C512736   0.144   0.707  16.838 -0.8699 -0.8664  0.3949
  864MPD2     H12737   0.371   0.445  16.663  0.8128  1.1076 -0.6742
  864MPD2    H112738   0.184   0.830  16.666  2.8602 -0.0114 -1.4051
  864MPD2    H212739   0.095   0.559  16.983 -0.3509 -0.4848  0.0693
  864MPD2    H312740   0.082   0.789  16.871  1.1218  0.6182  0.4625
  864MPD2     N12741   0.347   0.688  16.531  0.2909  0.1518  0.5686
  864MPD2    H512742   0.307   0.774  16.495  0.9075  0.2174  0.0236
  864MPD2    N112743   0.236   0.359  16.887  0.7189  0.0584  0.1005
  864MPD2    H712744   0.154   0.339  16.944  1.6712 -1.5431  0.9112
  865MPD2     C12745   0.502   0.476  15.612  0.4849  0.0844 -0.1571
  865MPD2    C112746   0.486   0.424  15.734  0.3410  0.0253 -0.1170
  865MPD2    C212747   0.432   0.501  15.836 -0.4923  0.4823 -0.1441
  865MPD2    C312748   0.402   0.636  15.806  0.0281 -0.1017 -0.8352
  865MPD2    C412749   0.426   0.692  15.680 -0.1140  0.2489  0.0153
  865MPD2    C512750   0.472   0.607  15.583 -0.2662 -0.0272 -0.4966
  865MPD2     H12751   0.402   0.466  15.934  3.4632  1.0880  1.2752
  865MPD2    H112752   0.418   0.798  15.657  1.7291  0.6624  1.3077
  865MPD2    H212753   0.539   0.416  15.529 -0.2059 -3.6734  2.2419
  865MPD2    H312754   0.490   0.646  15.483  2.1892 -0.8164 -0.3522
  865MPD2     N12755   0.364   0.728  15.908  0.3715 -0.5857 -0.0581
  865MPD2    H512756   0.354   0.827  15.887  0.9413 -0.5375 -0.1127
  865MPD2    N112757   0.542   0.295  15.750  0.2262 -0.3595  0.4779
  865MPD2    H712758   0.590   0.255  15.670  0.4770  2.8386 -0.9609
  866MPD2     C12759   2.648   0.913  11.769 -0.5767  0.1842  0.3040
  866MPD2    C112760   2.695   0.873  11.645 -0.0872 -1.1296 -0.5062
  866MPD2    C212761   2.607   0.905  11.540  0.1657 -0.3328  0.2164
  866MPD2    C312762   2.491   0.975  11.562  0.0951  0.4174  0.1984
  866MPD2    C412763   2.460   1.024  11.687 -0.6878 -0.8654 -0.0796
  866MPD2    C512764   2.542   0.990  11.791  0.7128  0.1840 -0.0554
  866MPD2     H12765   2.646   0.869  11.445  0.9260 -2.5524  1.3745
  866MPD2    H112766   2.374   1.084  11.714  1.6592  1.4230  2.1845
  866MPD2    H212767   2.707   0.892  11.857 -0.1906  1.3663  0.3250
  866MPD2    H312768   2.522   1.024  11.893  0.9220  0.4871 -0.1160
  866MPD2     N12769   2.392   0.973  11.461 -0.5068  0.2444 -0.3599
  866MPD2    H512770   2.295   1.000  11.475 -0.3640  0.2871  0.5666
  866MPD2    N112771   2.810   0.786  11.643  0.3255  0.0782  0.7663
  866MPD2    H712772   2.847   0.747  11.729  3.0127  0.9999  0.0617
  867MPD2     C12773   4.029   4.324  16.757  0.2338  0.7645 -0.0841
  867MPD2    C112774   4.055   4.324  16.890  0.2732  0.1042  0.2879
  867MPD2    C212775   4.028   4.438  16.964  0.3954 -0.5921 -0.0561
  867MPD2    C312776   3.950   4.534  16.908 -0.3426  0.2398 -0.6325
  867MPD2    C412777   3.909   4.526  16.777  0.6484  1.0404 -0.1777
  867MPD2    C512778   3.952   4.423  16.702  0.3811  0.5866 -0.2555
  867MPD2     H12779   4.079   4.444  17.059 -0.0119 -0.2428  0.1431
  867MPD2    H112780   3.832   4.589  16.733 -2.0336 -1.6336  0.6667
  867MPD2    H212781   4.065   4.250  16.687  0.4012 -0.3918  1.2277
  867MPD2    H312782   3.908   4.419  16.603  0.0400  0.1309 -0.0845
  867MPD2     N12783   3.917   4.656  16.972  0.3055 -0.0805  0.0033
  867MPD2    H512784   3.866   4.721  16.912 -0.7283  1.4951  2.5791
  867MPD2    N112785   4.149   4.231  16.933 -0.1100  0.1687  0.0341
  867MPD2    H712786   4.184   4.167  16.861  0.9860  0.8251 -0.0212
  868MPD2     C12787   1.527   4.326  13.227 -0.8699 -0.3045 -0.8250
  868MPD2    C112788   1.521   4.198  13.271 -0.0773  0.1061 -0.2739
  868MPD2    C212789   1.463   4.178  13.398  0.3105 -0.2585 -0.6472
  868MPD2    C312790   1.398   4.280  13.456  0.1813 -0.5292 -0.2449
  868MPD2    C412791   1.409   4.416  13.416 -0.2519  0.4644  0.2475
  868MPD2    C512792   1.471   4.438  13.295  0.4708 -0.1309 -0.2950
  868MPD2     H12793   1.469   4.082  13.448  1.5272  1.4130  2.3947
  868MPD2    H112794   1.360   4.506  13.451 -0.8247  0.6593 -1.0557
  868MPD2    H212795   1.581   4.354  13.137  2.3557  1.3598  1.6417
  868MPD2    H312796   1.492   4.536  13.255  2.5592 -0.4555 -0.0158
  868MPD2     N12797   1.335   4.246  13.580  0.4420 -0.0832  0.4124
  868MPD2    H512798   1.356   4.158  13.625 -0.4585 -1.2091 -1.3419
  868MPD2    N112799   1.582   4.094  13.199 -0.3768 -0.0214 -0.1528
  868MPD2    H712800   1.624   4.132  13.115  1.3262 -1.0614  0.2261
  869MPD2     C12801   1.569   1.478   0.571 -0.1159 -0.3228  0.4704
  869MPD2    C112802   1.544   1.495   0.702 -0.2776 -0.7858  0.0986
  869MPD2    C212803   1.600   1.599   0.778 -0.4740  0.2472 -0.6853
  869MPD2    C312804   1.676   1.693   0.712  0.0150 -0.2632 -0.0734
  869MPD2    C412805   1.703   1.675   0.580  0.1459 -0.1053 -0.2674
  869MPD2    C512806   1.644   1.573   0.510  0.1485  1.3018  0.3417
  869MPD2     H12807   1.571   1.614   0.881  1.3567  0.6074 -0.2214
  869MPD2    H112808   1.760   1.740   0.515  1.7030  0.2041  1.3956
  869MPD2    H212809   1.534   1.395   0.510  1.7481 -1.2678  0.6759
  869MPD2    H312810   1.660   1.565   0.403  0.6102  1.2020  0.4182
  869MPD2     N12811   1.726   1.807   0.776  0.0674  0.3696 -0.0753
  869MPD2    H512812   1.802   1.851   0.724  0.5303 -0.2809  0.0517
  869MPD2    N112813   1.458   1.403   0.757  0.3835  0.0098  0.3784
  869MPD2    H712814   1.408   1.335   0.700 -0.9702  0.6545  0.7826
  870MPD2     C12815   2.181   0.444   1.511  0.0130 -0.7092  0.1042
  870MPD2    C112816   2.084   0.362   1.446  0.0768 -0.7499 -0.2761
  870MPD2    C212817   1.970   0.418   1.398 -0.1167  0.5136 -0.9917
  870MPD2    C312818   1.945   0.556   1.418 -0.0188 -0.2964  1.0279
  870MPD2    C412819   2.038   0.627   1.490  0.1069  0.0059 -0.0124
  870MPD2    C512820   2.158   0.579   1.529 -0.6626 -0.7826 -0.0418
  870MPD2     H12821   1.902   0.367   1.331  1.6667 -3.7837  0.5176
  870MPD2    H112822   2.030   0.733   1.508  0.1943  0.3223 -1.7670
  870MPD2    H212823   2.274   0.400   1.546  1.6657 -0.2903 -3.8135
  870MPD2    H312824   2.226   0.644   1.583  0.2500 -1.6088 -0.1932
  870MPD2     N12825   1.825   0.613   1.368  0.4698 -0.1522 -0.2257
  870MPD2    H512826   1.766   0.555   1.310 -0.2459 -0.1102  0.4700
  870MPD2    N112827   2.116   0.223   1.432  0.2904  0.4795 -0.3257
  870MPD2    H712828   2.209   0.194   1.460  0.5936  0.9725 -0.8225
  871MPD2     C12829   3.234   0.270  16.477 -0.8044  0.2980  1.0206
  871MPD2    C112830   3.172   0.229  16.595 -0.6777 -0.6776 -0.6705
  871MPD2    C212831   3.172   0.088  16.621  0.0953 -0.2152 -0.0899
  871MPD2    C312832   3.227   4.734  16.529 -0.3660  0.0161 -0.1420
  871MPD2    C412833   3.307   0.050  16.428  0.4941  0.1651 -0.2458
  871MPD2    C512834   3.298   0.181  16.395 -0.8378  0.7134 -0.3319
  871MPD2     H12835   3.127   0.050  16.712 -1.0146  2.0187  0.2850
  871MPD2    H112836   3.363   4.722  16.360 -1.0655 -0.8239 -0.5933
  871MPD2    H212837   3.257   0.374  16.458  1.1352 -0.4176 -0.4379
  871MPD2    H312838   3.342   0.225  16.306  1.3175 -0.7548  0.0092
  871MPD2     N12839   3.204   4.593  16.549  0.7594  0.6976 -0.0726
  871MPD2    H512840   3.155   4.557  16.630 -1.5906  1.1054 -1.3055
  871MPD2    N112841   3.128   0.324  16.684  0.1603  0.3447 -0.2480
  871MPD2    H712842   3.143   0.420  16.656  3.1750  0.3558  1.3786
  872MPD2     C12843   4.484   2.402  13.680  0.1827 -0.2236 -0.0183
  872MPD2    C112844   4.464   2.531  13.728  0.4208 -0.0157  0.1697
  872MPD2    C212845   4.337   2.560  13.776  0.0993 -0.0486  0.5241
  872MPD2    C312846   4.237   2.459  13.770  0.1218  0.0080 -0.2043
  872MPD2    C412847   4.265   2.335  13.725  0.3805 -0.3701  0.5307
  872MPD2    C512848   4.386   2.309  13.673  0.1961 -0.3771  0.2069
  872MPD2     H12849   4.323   2.660  13.815  0.5065  0.4688 -0.6287
  872MPD2    H112850   4.190   2.256  13.730 -0.5308  0.3251 -2.6300
  872MPD2    H212851   4.576   2.378  13.627 -0.0036  2.5778 -1.5624
  872MPD2    H312852   4.406   2.208  13.639  0.7801 -0.1799 -0.0336
  872MPD2     N12853   4.111   2.473  13.832  0.2611 -0.5362  0.5189
  872MPD2    H512854   4.044   2.397  13.825 -0.3633 -0.2250  3.3547
  872MPD2    N112855   4.563   2.630  13.746  0.9722 -0.4536  0.4809
  872MPD2    H712856   4.535   2.716  13.793  0.1082 -0.0191 -0.8104
  873MPD2     C12857   1.158   2.299   1.044  0.0678  0.2170 -0.1487
  873MPD2    C112858   1.033   2.252   1.045  0.0964  0.3716 -0.1659
  873MPD2    C212859   1.010   2.120   1.018 -0.4073  0.3951 -0.1567
  873MPD2    C312860   1.119   2.035   0.994  0.6602 -0.1921 -0.3368
  873MPD2    C412861   1.250   2.087   1.012  0.0401  0.3583  0.0833
  873MPD2    C512862   1.266   2.222   1.026 -0.2198  0.2698 -0.5910
  873MPD2     H12863   0.914   2.075   0.996  0.7199 -2.4896  0.7532
  873MPD2    H112864   1.343   2.031   1.008 -0.1804  0.0368 -0.4651
  873MPD2    H212865   1.189   2.402   1.063  2.5709 -0.2894 -1.4956
  873MPD2    H312866   1.367   2.255   1.049 -0.4040  1.5608 -1.6708
  873MPD2     N12867   1.113   1.895   0.973 -0.6340 -0.3235 -0.0288
  873MPD2    H512868   1.202   1.847   0.974 -0.3504  0.2194  1.1796
  873MPD2    N112869   0.929   2.350   1.059  0.5734 -0.6047  0.6037
  873MPD2    H712870   0.972   2.440   1.078 -0.3056 -0.2300  0.8180
  874MPD2     C12871   0.890   3.001  16.203 -0.3677 -1.0393  0.1465
  874MPD2    C112872   0.880   2.991  16.341  0.3144  0.2926 -0.0608
  874MPD2    C212873   0.991   3.026  16.411 -0.4437 -0.9408 -0.2760
  874MPD2    C312874   1.110   3.061  16.349  0.1039 -0.1248 -0.1077
  874MPD2    C412875   1.116   3.076  16.212  0.3824 -0.3026  0.2141
  874MPD2    C512876   1.004   3.048  16.140  0.0190  0.2272 -0.1296
  874MPD2     H12877   0.993   3.032  16.520  0.2037  0.9850 -0.3870
  874MPD2    H112878   1.203   3.095  16.151 -0.2110  0.7431 -0.3024
  874MPD2    H212879   0.801   2.972  16.149 -1.3579 -0.2969  1.3617
  874MPD2    H312880   1.007   3.049  16.032 -2.2394 -3.1505 -0.2206
  874MPD2     N12881   1.217   3.082  16.441  0.3697  0.1284 -0.1657
  874MPD2    H512882   1.202   3.059  16.539  0.8749 -1.0051 -0.3473
  874MPD2    N112883   0.771   2.927  16.407  0.0868 -0.7548 -0.3416
  874MPD2    H712884   0.696   2.901  16.344  1.7537 -0.4129 -2.4829
  875MPD2     C12885   1.823   1.059  14.230  0.2810 -0.2869  0.3689
  875MPD2    C112886   1.687   1.063  14.223 -0.5554 -0.3588  0.4694
  875MPD2    C212887   1.620   1.112  14.330 -0.3022  0.3588  0.1506
  875MPD2    C312888   1.682   1.170  14.439 -0.1797 -0.1128  0.5215
  875MPD2    C412889   1.818   1.156  14.448 -0.1968  0.0763 -0.2967
  875MPD2    C512890   1.893   1.103  14.343  1.1025  0.1989 -0.1854
  875MPD2     H12891   1.513   1.120  14.314  0.1944  0.6443 -2.9458
  875MPD2    H112892   1.877   1.201  14.527 -1.3153 -0.9772  1.1370
  875MPD2    H212893   1.894   1.033  14.152 -2.9066  1.4632 -3.0998
  875MPD2    H312894   1.998   1.127  14.331  1.2113  0.0571  0.5018
  875MPD2     N12895   1.607   1.221  14.550 -0.1860  0.0816  0.3268
  875MPD2    H512896   1.654   1.272  14.624  0.7593 -1.6976  0.9597
  875MPD2    N112897   1.617   1.037  14.106 -0.2019  0.5066  0.0282
  875MPD2    H712898   1.518   1.058  14.096  0.2245  2.3434 -0.3104
  876MPD2     C12899   0.801   2.596  16.177 -0.1268  0.3347  0.2922
  876MPD2    C112900   0.823   2.531  16.054 -0.4029 -0.1672 -0.7542
  876MPD2    C212901   0.788   2.394  16.052  0.2880  0.3471  0.1087
  876MPD2    C312902   0.764   2.324  16.165  0.0553 -0.2386  0.3026
  876MPD2    C412903   0.741   2.391  16.285 -0.2422  1.1927 -0.3089
  876MPD2    C512904   0.763   2.525  16.290  0.2479 -0.1208  0.3412
  876MPD2     H12905   0.805   2.350  15.955 -0.7031 -1.2262  0.6487
  876MPD2    H112906   0.717   2.345  16.381  0.5717  0.6573 -0.3697
  876MPD2    H212907   0.812   2.703  16.182  0.7743  0.3489 -2.1130
  876MPD2    H312908   0.770   2.569  16.388  2.9268 -0.1435  0.1522
  876MPD2     N12909   0.751   2.188  16.152 -0.0461  0.2810 -0.1384
  876MPD2    H512910   0.777   2.145  16.064 -0.4752 -0.1785 -0.0477
  876MPD2    N112911   0.854   2.606  15.942 -0.3274  0.0181  0.2631
  876MPD2    H712912   0.818   2.570  15.854 -0.6723  0.4240  0.2373
  877MPD2     C12913   0.626   2.865  15.264  0.2885 -0.2945  0.7468
  877MPD2    C112914   0.762   2.836  15.245 -0.6355  0.1301  0.6941
  877MPD2    C212915   0.817   2.843  15.120 -0.2538  0.4055  0.0625
  877MPD2    C312916   0.740   2.859  15.012 -0.2427  0.1225  0.3317
  877MPD2    C412917   0.602   2.881  15.022  0.1868  0.1831  0.3950
  877MPD2    C512918   0.547   2.882  15.153 -0.4909 -0.0857 -0.5165
  877MPD2     H12919   0.924   2.844  15.109 -0.2951 -2.1980 -0.7444
  877MPD2    H112920   0.540   2.880  14.934  1.1422  2.1021 -0.2902
  877MPD2    H212921   0.579   2.861  15.361 -0.9843  1.8790  0.2289
  877MPD2    H312922   0.440   2.891  15.170 -0.8689  0.3960 -3.1159
  877MPD2     N12923   0.780   2.823  14.884  0.8323  0.0125 -0.0847
  877MPD2    H512924   0.709   2.830  14.811  2.6887  1.6777 -1.7042
  877MPD2    N112925   0.842   2.815  15.363  0.4470  0.5915  0.1596
  877MPD2    H712926   0.944   2.813  15.366  0.3765 -1.7649  0.6434
  878MPD2     C12927   1.266   1.506  13.011  0.1919 -0.3877 -0.0014
  878MPD2    C112928   1.314   1.624  13.074 -0.0658 -0.0555 -0.7669
  878MPD2    C212929   1.308   1.639  13.217  0.5213  0.9436 -0.2636
  878MPD2    C312930   1.232   1.544  13.287 -0.0468  0.0267 -0.3159
  878MPD2    C412931   1.186   1.432  13.228 -0.2538 -0.1959 -0.2358
  878MPD2    C512932   1.200   1.419  13.093 -0.5454  0.7129  0.6639
  878MPD2     H12933   1.339   1.730  13.267 -0.0959  1.1775 -0.3055
  878MPD2    H112934   1.119   1.361  13.276  1.0338 -2.8914 -2.4632
  878MPD2    H212935   1.274   1.491  12.904  0.4745 -1.1022  0.1141
  878MPD2    H312936   1.147   1.330  13.059  0.9782  0.9940 -2.4647
  878MPD2     N12937   1.215   1.581  13.421  0.1465  0.6774 -0.0621
  878MPD2    H512938   1.262   1.667  13.449 -0.6123  0.4472  1.9196
  878MPD2    N112939   1.365   1.718  12.985 -0.0237 -0.2996  0.2241
  878MPD2    H712940   1.368   1.699  12.885 -1.9578 -0.9356  0.2858
  879MPD2     C12941   0.811   3.615  17.154 -0.3909 -0.4383 -0.1006
  879MPD2    C112942   0.826   3.488  17.208  0.6165 -0.2253  0.3118
  879MPD2    C212943   0.729   3.393  17.182 -0.5158  0.6781  0.1035
  879MPD2    C312944   0.618   3.431  17.119  0.0557  0.2954  0.5309
  879MPD2    C412945   0.590   3.560  17.093  0.1178  0.0264  0.3070
  879MPD2    C512946   0.688   3.655  17.105  0.1573 -0.5699 -0.6543
  879MPD2     H12947   0.732   3.295  17.229  2.1707  0.9514  0.5179
  879MPD2    H112948   0.491   3.594  17.063  1.6747  3.5968 -0.8298
  879MPD2    H212949   0.896   3.682  17.160  0.5109 -1.7001  1.1741
  879MPD2    H312950   0.681   3.757  17.071  0.2878 -0.3339  0.0137
  879MPD2     N12951   0.516   3.344  17.069 -0.0676 -0.0351  0.5885
  879MPD2    H512952   0.450   3.376  16.999 -0.7418  1.9407  2.1421
  879MPD2    N112953   0.946   3.462  17.286  0.7365  0.0957  0.3824
  879MPD2    H712954   1.019   3.532  17.283 -0.8776  1.7206 -1.7303
  880MPD2     C12955   1.649   0.166   0.137 -0.0104  0.4063  0.2940
  880MPD2    C112956   1.730   0.226   0.233  0.3974 -0.1829  0.7025
  880MPD2    C212957   1.823   0.151   0.302  0.0530  0.8346 -0.2976
  880MPD2    C312958   1.844   0.021   0.271 -0.7538  0.1005  0.3781
  880MPD2    C412959   1.766   4.692   0.174  0.1136 -0.0059  0.0227
  880MPD2    C512960   1.666   0.033   0.119 -0.7409 -0.5030 -0.2813
  880MPD2     H12961   1.870   0.183   0.394 -1.4468 -0.0123  0.7557
  880MPD2    H112962   1.772   4.586   0.152 -0.6669 -0.3576  1.4503
  880MPD2    H212963   1.577   0.231   0.088 -0.1474 -0.7092 -0.9696
  880MPD2    H312964   1.592   4.729   0.050 -1.5799 -0.1497  0.4203
  880MPD2     N12965   1.931   4.695   0.362  0.1494 -0.6332  0.7007
  880MPD2    H512966   1.968   0.011   0.440 -0.2195 -0.7904  0.9787
  880MPD2    N112967   1.702   0.358   0.254 -0.5300 -0.2405  0.5416
  880MPD2    H712968   1.644   0.401   0.182  1.1388 -0.8610 -1.1535
  881MPD2     C12969   2.126   1.223  17.636  0.6442  0.0101  0.2728
  881MPD2    C112970   2.096   1.106  17.584 -0.1148  0.1374  0.2173
  881MPD2    C212971   2.047   1.008  17.672 -0.3314  0.4035  0.1241
  881MPD2    C312972   2.013   1.040   0.057  0.4110  0.4731 -0.2991
  881MPD2    C412973   2.031   1.169   0.098  0.1013 -0.3530 -0.1123
  881MPD2    C512974   2.088   1.260   0.019 -0.5119 -0.4020 -0.3132
  881MPD2     H12975   2.021   0.908  17.640  0.0456  0.6505 -0.9473
  881MPD2    H112976   1.996   1.204   0.194 -1.0939 -0.0314 -0.6619
  881MPD2    H212977   2.183   1.300  17.585  1.0494 -1.8511 -2.0482
  881MPD2    H312978   2.116   1.357   0.060 -1.5402  0.1193 -0.8403
  881MPD2     N12979   1.942   0.951   0.147  0.3437 -0.2804 -0.2957
  881MPD2    H512980   1.932   0.972   0.246 -1.3786 -0.0612 -0.5152
  881MPD2    N112981   2.147   1.073  17.455  0.2379 -0.7877 -0.1502
  881MPD2    H712982   2.189   1.153  17.409  0.1848 -2.4875 -3.1519
  882MPD2     C12983   1.088   2.742  14.076  0.8484 -0.4679 -0.0831
  882MPD2    C112984   1.060   2.779  14.201  0.3449 -0.0180 -0.7415
  882MPD2    C212985   0.922   2.798  14.231 -0.5640 -0.2737 -0.4856
  882MPD2    C312986   0.822   2.776  14.141 -0.2918 -0.0837 -0.3178
  882MPD2    C412987   0.862   2.739  14.011  0.3581 -0.1800  0.2922
  882MPD2    C512988   0.994   2.728  13.980  0.2580  0.3891 -0.3150
  882MPD2     H12989   0.897   2.847  14.325  1.6270 -2.7753  1.4075
  882MPD2    H112990   0.785   2.724  13.936  1.3640  0.2216 -0.8155
  882MPD2    H212991   1.186   2.751  14.031 -0.3660  0.4855 -2.5123
  882MPD2    H312992   1.028   2.709  13.879  1.2684 -3.1136  0.6659
  882MPD2     N12993   0.676   2.789  14.161  0.0241 -0.0974  0.1647
  882MPD2    H512994   0.606   2.769  14.090 -0.1315  0.8374  0.0651
  882MPD2    N112995   1.161   2.802  14.291  0.7753 -0.7176  0.5978
  882MPD2    H712996   1.255   2.801  14.253  0.6650 -2.6557  0.3845
  883MPD2     C12997   2.218   2.866  15.879  0.3011  0.1916  0.2317
  883MPD2    C112998   2.330   2.877  15.802 -0.3736  0.1304  0.8781
  883MPD2    C212999   2.452   2.861  15.865  0.6331 -0.1931 -0.3507
  883MPD2    C313000   2.466   2.854  16.005  0.1773  0.3978 -0.4181
  883MPD2    C413001   2.350   2.838  16.079  0.1303 -0.7526 -0.3925
  883MPD2    C513002   2.226   2.837  16.017  0.4851  0.6352 -0.2136
  883MPD2     H13003   2.540   2.873  15.803  0.1196 -0.7596 -1.1856
  883MPD2    H113004   2.340   2.824  16.186 -0.2477 -1.1726 -0.4788
  883MPD2    H213005   2.121   2.878  15.831 -0.9789 -0.4317  2.6556
  883MPD2    H313006   2.136   2.824  16.075  0.1570 -0.4235 -0.9654
  883MPD2     N13007   2.598   2.871  16.061 -0.1364 -0.0716 -0.1014
  883MPD2    H513008   2.674   2.881  15.996  0.9273 -3.2970  0.6404
  883MPD2    N113009   2.335   2.897  15.658  0.1273 -0.2883 -0.0785
  883MPD2    H713010   2.428   2.891  15.617  0.6231 -0.3460  1.0705
  884MPD2     C13011   0.120   3.453  15.370  0.5011  0.3458 -0.4319
  884MPD2    C113012   0.088   3.474  15.238  0.0237  0.1800  0.1044
  884MPD2    C213013   4.692   3.510  15.205  0.0136  0.6021  0.3871
  884MPD2    C313014   4.591   3.508  15.308 -0.4670 -0.0931 -0.0663
  884MPD2    C413015   4.629   3.480  15.431 -0.0759  0.1801  0.3573
  884MPD2    C513016   0.024   3.460  15.469 -0.3190  0.0150  0.5099
  884MPD2     H13017   4.650   3.526  15.106 -1.6039 -1.4652  0.7508
  884MPD2    H113018   4.548   3.481  15.503 -0.8300 -1.8065 -0.4528
  884MPD2    H213019   0.219   3.429  15.408  0.5188 -0.0440 -0.7278
  884MPD2    H313020   0.048   3.426  15.569  0.0678  1.9967  1.0809
  884MPD2     N13021   4.450   3.523  15.270  0.1048 -0.4539  0.4292
  884MPD2    H513022   4.428   3.541  15.173  1.4988 -2.0493 -0.1781
  884MPD2    N113023   0.178   3.463  15.131 -0.1178  0.3675 -0.1987
  884MPD2    H713024   0.138   3.486  15.041 -0.0227 -0.7872 -0.5318
  885MPD2     C13025   2.308   4.067   0.367  0.1471  0.3705  0.7215
  885MPD2    C113026   2.411   3.980   0.348 -0.2451 -0.4637  0.1659
  885MPD2    C213027   2.469   3.969   0.218  0.3865 -0.1967 -0.2130
  885MPD2    C313028   2.430   4.042   0.115  0.3085 -0.1226  0.0471
  885MPD2    C413029   2.325   4.136   0.133 -0.1029  0.2954 -0.1045
  885MPD2    C513030   2.271   4.145   0.260 -0.2892 -0.7914  0.0731
  885MPD2     H13031   2.557   3.907   0.212  0.9483  0.3589  2.4425
  885MPD2    H113032   2.284   4.205   0.059  1.2498  0.2919 -0.8756
  885MPD2    H213033   2.264   4.081   0.465 -3.3483  2.5923 -1.1608
  885MPD2    H313034   2.199   4.226   0.265  0.0085 -0.4168 -1.5973
  885MPD2     N13035   2.473   4.004  17.727  0.7772  0.5081 -0.3368
  885MPD2    H513036   2.529   3.919  17.724 -1.2233 -0.8523  0.4032
  885MPD2    N113037   2.455   3.906   0.462  0.3592 -0.0328  0.2510
  885MPD2    H713038   2.403   3.910   0.549  1.4720  3.2698  0.7913
  886MPD2     C13039   4.122   2.671  15.683  0.7636 -1.0964  0.7408
  886MPD2    C113040   4.258   2.657  15.709  0.4917 -0.0637  0.1416
  886MPD2    C213041   4.342   2.714  15.613  0.7003 -0.0145 -0.9791
  886MPD2    C313042   4.300   2.776  15.495  0.3508 -0.2354  0.0833
  886MPD2    C413043   4.164   2.796  15.477 -0.3487 -0.0962  0.4379
  886MPD2    C513044   4.076   2.740  15.568 -0.2653 -0.1964 -0.5729
  886MPD2     H13045   4.449   2.700  15.623  0.4399 -0.6945  0.7414
  886MPD2    H113046   4.115   2.830  15.386 -2.7934 -1.7953  1.1492
  886MPD2    H213047   4.052   2.615  15.743 -1.7346  2.1255  0.8726
  886MPD2    H313048   3.971   2.756  15.546 -0.1546 -0.5066 -1.3572
  886MPD2     N13049   4.379   2.813  15.381 -0.0334  0.4786  0.5674
  886MPD2    H513050   4.338   2.863  15.303 -0.8034 -1.4572 -0.2450
  886MPD2    N113051   4.321   2.586  15.814  0.2269  0.2330  0.5194
  886MPD2    H713052   4.423   2.586  15.817  0.2782 -0.6360 -1.3985
  887MPD2     C13053   0.240   2.446  16.087  0.7836 -0.0138 -0.1195
  887MPD2    C113054   0.141   2.516  16.015  0.0204 -1.1000  0.5928
  887MPD2    C213055   0.188   2.622  15.945  0.3622  0.1283  0.2764
  887MPD2    C313056   0.317   2.676  15.947 -0.1266  0.5696  0.2076
  887MPD2    C413057   0.409   2.607  16.013  0.1577 -0.4824 -0.7106
  887MPD2    C513058   0.371   2.489  16.079  0.1585 -0.2088 -0.2222
  887MPD2     H13059   0.111   2.682  15.899 -0.4915 -0.9482  0.3184
  887MPD2    H113060   0.513   2.637  16.005  0.4161 -1.0459  0.4733
  887MPD2    H213061   0.215   2.362  16.151  1.8410 -1.9394 -2.2374
  887MPD2    H313062   0.449   2.438  16.136 -0.8414 -0.9835  0.4402
  887MPD2     N13063   0.353   2.800  15.881  0.7248  0.9311  0.2702
  887MPD2    H513064   0.273   2.837  15.830  0.8585  0.3902 -0.3202
  887MPD2    N113065   0.006   2.482  15.999 -0.0688  0.2982  0.1325
  887MPD2    H713066   4.692   2.530  15.925  1.1809 -0.5397 -1.2530
  888MPD2     C13067   1.372   2.070  14.658  0.4360 -0.1823 -0.3658
  888MPD2    C113068   1.344   2.099  14.790 -0.3602 -0.6409  0.1106
  888MPD2    C213069   1.426   2.194  14.850  0.0766  0.6264  0.7060
  888MPD2    C313070   1.525   2.257  14.772  0.0120 -0.0257  0.1928
  888MPD2    C413071   1.546   2.227  14.640  1.0529  0.4398  0.5449
  888MPD2    C513072   1.474   2.123  14.587 -0.2594  0.0912 -0.1740
  888MPD2     H13073   1.417   2.207  14.957  1.6592  0.4887  0.8559
  888MPD2    H113074   1.633   2.261  14.585 -0.3260  1.9627 -0.6739
  888MPD2    H213075   1.322   1.985  14.613  1.0796  0.1999 -1.8155
  888MPD2    H313076   1.498   2.086  14.488  1.7085  0.7926  0.0308
  888MPD2     N13077   1.617   2.343  14.844  0.2730  0.4686  0.6547
  888MPD2    H513078   1.592   2.380  14.935  0.7059  0.2788  0.8512
  888MPD2    N113079   1.258   2.015  14.865  0.4134  0.0420  0.3232
  888MPD2    H713080   1.250   2.029  14.965  0.0098 -0.4237  0.3536
  889MPD2     C13081   1.839   1.930  12.746  0.4043 -0.0620  0.6942
  889MPD2    C113082   1.811   1.932  12.882 -0.7090 -1.1391 -0.0354
  889MPD2    C213083   1.770   2.049  12.944 -1.2788  0.5205 -0.0251
  889MPD2    C313084   1.761   2.169  12.879 -0.5605 -0.4313 -1.0632
  889MPD2    C413085   1.800   2.167  12.745 -0.4720  0.0145  0.1926
  889MPD2    C513086   1.831   2.053  12.675 -0.5887  0.0828 -0.2155
  889MPD2     H13087   1.730   2.041  13.044  0.1717 -0.9293  0.4360
  889MPD2    H113088   1.804   2.260  12.690  0.2438 -1.3744 -2.0992
  889MPD2    H213089   1.844   1.836  12.692 -1.8502  0.2467 -0.0796
  889MPD2    H313090   1.839   2.047  12.567  1.0959 -0.8250 -0.0374
  889MPD2     N13091   1.720   2.283  12.946  0.0232 -0.3969  0.2367
  889MPD2    H513092   1.709   2.278  13.047  0.6557  0.2146  0.3337
  889MPD2    N113093   1.778   1.806  12.926  0.1456  0.1488  0.5195
  889MPD2    H713094   1.781   1.731  12.858 -1.4016  0.8852 -0.3782
  890MPD2     C13095   0.452   3.700  14.514 -0.2455 -0.0196 -0.1290
  890MPD2    C113096   0.573   3.702  14.445 -0.0944  0.2703  0.2401
  890MPD2    C213097   0.669   3.614  14.482  0.0415  0.2937  0.0323
  890MPD2    C313098   0.643   3.528  14.585  1.1108 -0.3470 -0.8543
  890MPD2    C413099   0.525   3.515  14.641 -0.2731  0.1910  0.3632
  890MPD2    C513100   0.425   3.600  14.603 -0.4360 -0.8971 -0.1101
  890MPD2     H13101   0.766   3.620  14.433 -0.6297 -1.2841 -1.5164
  890MPD2    H113102   0.514   3.442  14.720  1.5648 -1.7517 -1.1654
  890MPD2    H213103   0.386   3.786  14.502  1.0224  1.1302  1.1618
  890MPD2    H313104   0.338   3.603  14.668 -0.1316 -0.9713  0.2976
  890MPD2     N13105   0.739   3.431  14.606 -0.0710 -0.2810  0.0232
  890MPD2    H513106   0.824   3.456  14.556  0.7189  0.8644  1.9292
  890MPD2    N113107   0.591   3.805  14.346  0.6423 -0.1400 -0.5054
  890MPD2    H713108   0.508   3.860  14.329  0.3383  0.1414  1.8170
  891MPD2     C13109   3.692   2.096  16.848  0.3506  0.1454  0.7401
  891MPD2    C113110   3.564   2.054  16.854 -0.1698  0.4095  0.4597
  891MPD2    C213111   3.541   1.925  16.903 -0.0129  0.2300  0.1133
  891MPD2    C313112   3.638   1.839  16.929 -0.5509  0.5378  0.2036
  891MPD2    C413113   3.762   1.890  16.939 -0.6640  0.1001 -0.2334
  891MPD2    C513114   3.791   2.019  16.899  0.1495 -0.0194 -0.5242
  891MPD2     H13115   3.439   1.887  16.905 -0.3577  1.1104 -0.5181
  891MPD2    H113116   3.841   1.830  16.983 -0.3645 -0.2753 -1.2814
  891MPD2    H213117   3.726   2.196  16.826  0.5922  0.0227  0.5520
  891MPD2    H313118   3.891   2.059  16.909 -0.3152  1.4022 -1.5032
  891MPD2     N13119   3.609   1.705  16.955 -0.1906  0.4839  0.3411
  891MPD2    H513120   3.512   1.675  16.946  0.3891 -0.4405 -2.7128
  891MPD2    N113121   3.466   2.145  16.823  0.1043 -0.0257  0.9262
  891MPD2    H713122   3.490   2.237  16.787  0.9065 -0.0557  1.3648
  892MPD2     C13123   0.097   3.148  14.948  0.8938 -0.4436 -0.5691
  892MPD2    C113124   0.030   3.108  14.836 -0.0060 -0.2713 -0.0341
  892MPD2    C213125   0.094   3.035  14.739 -0.1064 -0.5571 -0.3531
  892MPD2    C313126   0.228   3.002  14.743 -0.1152  0.3383  0.1492
  892MPD2    C413127   0.301   3.060  14.851 -0.3695  0.0909  0.0630
  892MPD2    C513128   0.231   3.123  14.956 -0.3180  0.2764 -0.3929
  892MPD2     H13129   0.028   3.010  14.657  0.4889 -0.7132 -0.7862
  892MPD2    H113130   0.403   3.027  14.871 -0.5931 -0.9679 -0.5727
  892MPD2    H213131   0.043   3.195  15.029 -0.4942  2.9739 -3.4595
  892MPD2    H313132   0.279   3.151  15.050 -1.2163 -0.5309  0.3022
  892MPD2     N13133   0.298   2.918  14.645  0.6782 -0.8192 -0.5191
  892MPD2    H513134   0.399   2.910  14.645  0.7855  0.7086  2.2043
  892MPD2    N113135   4.631   3.152  14.807 -0.5635 -0.2090 -0.2128
  892MPD2    H713136   4.588   3.121  14.721 -1.2399 -2.6404  0.9989
  893MPD2     C13137   1.599   2.465   1.877  0.9007 -0.0424  0.0878
  893MPD2    C113138   1.505   2.366   1.862  0.2837  0.1720  1.0646
  893MPD2    C213139   1.376   2.375   1.918  0.1100 -0.4559 -0.5002
  893MPD2    C313140   1.347   2.485   1.999 -0.7411  0.1369  0.2072
  893MPD2    C413141   1.441   2.580   2.014  0.3280  0.5062  0.1338
  893MPD2    C513142   1.561   2.569   1.958  0.1657  0.2399 -0.2767
  893MPD2     H13143   1.298   2.308   1.884 -0.0451 -0.2988 -0.4619
  893MPD2    H113144   1.421   2.670   2.071 -2.5749 -2.5698  3.9405
  893MPD2    H213145   1.699   2.445   1.838 -0.0990  0.2302 -2.6063
  893MPD2    H313146   1.643   2.635   1.985 -1.2567  2.1877 -0.7243
  893MPD2     N13147   1.213   2.489   2.050 -0.0433 -0.3680  0.3166
  893MPD2    H513148   1.147   2.415   2.027 -0.4908  0.3007 -0.5199
  893MPD2    N113149   1.542   2.256   1.783  0.1534 -0.5679  0.1139
  893MPD2    H713150   1.642   2.254   1.763  0.3311  0.9110  0.8387
  894MPD2     C13151   3.810   3.025   1.010 -0.2390 -0.3575  0.5199
  894MPD2    C113152   3.789   3.135   1.091  0.0064  0.3797  0.2719
  894MPD2    C213153   3.866   3.245   1.079  0.7510 -0.2232  0.1155
  894MPD2    C313154   3.953   3.261   0.973  1.1081  0.3617  0.2119
  894MPD2    C413155   3.984   3.154   0.895 -0.6500  0.1525 -0.2376
  894MPD2    C513156   3.909   3.037   0.915 -0.2976  0.3014 -0.3329
  894MPD2     H13157   3.847   3.318   1.157  1.6108  1.6462 -1.4352
  894MPD2    H113158   4.053   3.158   0.812 -1.0686 -0.9585 -0.6428
  894MPD2    H213159   3.753   2.933   1.012  0.8675 -1.0534  0.2590
  894MPD2    H313160   3.932   2.950   0.855  2.8484  0.1971  1.0186
  894MPD2     N13161   4.033   3.373   0.956 -0.4483 -0.2311 -0.1570
  894MPD2    H513162   4.109   3.375   0.889 -0.6626 -0.6521 -0.4133
  894MPD2    N113163   3.681   3.140   1.188 -0.7885  0.4698  0.5478
  894MPD2    H713164   3.676   3.221   1.249 -0.5205  1.6143 -0.9766
  895MPD2     C13165   4.605   1.449  13.628  0.4039 -0.0472 -0.3469
  895MPD2    C113166   4.499   1.459  13.717  0.0189  0.4953  0.2790
  895MPD2    C213167   4.487   1.364  13.814 -0.4625 -0.0435 -0.4426
  895MPD2    C313168   4.570   1.246  13.817  0.6573 -0.2922 -0.2715
  895MPD2    C413169   4.673   1.242  13.729 -0.1036  0.5475  0.1041
  895MPD2    C513170   4.693   1.339  13.637 -0.0201 -0.5557  0.5783
  895MPD2     H13171   4.399   1.358  13.876  1.2177  2.6968  2.2419
  895MPD2    H113172   0.000   1.154  13.731 -0.6996  0.1240  0.5007
  895MPD2    H213173   4.611   1.527  13.553 -1.6227 -0.9393 -1.4180
  895MPD2    H313174   0.033   1.328  13.560 -0.3867 -0.7377  0.2459
  895MPD2     N13175   4.531   1.136  13.896 -0.3969  0.1245  0.2831
  895MPD2    H513176   4.580   1.047  13.890  0.7293  0.6232  2.0277
  895MPD2    N113177   4.403   1.562  13.708  0.1243 -0.2797  1.0256
  895MPD2    H713178   4.311   1.545  13.747 -0.0217 -2.0769 -0.1040
  896MPD2     C13179   0.724   4.347   1.342  0.1571 -0.0184  0.1747
  896MPD2    C113180   0.745   4.279   1.229 -0.2278  0.1639 -0.2886
  896MPD2    C213181   0.641   4.219   1.158  0.7052 -0.4223  0.1815
  896MPD2    C313182   0.515   4.225   1.210 -0.1393  0.5066  0.3133
  896MPD2    C413183   0.494   4.287   1.330  0.7278 -0.7047  0.3485
  896MPD2    C513184   0.593   4.355   1.388 -0.0014  0.7411  0.2096
  896MPD2     H13185   0.649   4.187   1.055 -3.9611  1.6185 -0.8336
  896MPD2    H113186   0.401   4.283   1.385  1.1022  0.5477  1.0895
  896MPD2    H213187   0.808   4.377   1.403 -1.3139  1.9733  1.2295
  896MPD2    H313188   0.583   4.396   1.488  1.5894  3.0735 -0.5873
  896MPD2     N13189   0.413   4.152   1.155  0.1787 -0.0614 -0.1004
  896MPD2    H513190   0.450   4.077   1.097 -0.8703 -1.0748  0.5546
  896MPD2    N113191   0.876   4.284   1.185  0.6644  0.3374 -0.3628
  896MPD2    H713192   0.939   4.326   1.252  1.3522 -1.1100 -0.1062
  897MPD2     C13193   3.203   2.059  10.921 -0.0585  0.4636  0.0096
  897MPD2    C113194   3.181   1.992  10.804 -0.0963 -0.1394  0.4067
  897MPD2    C213195   3.132   1.868  10.802  0.2789  0.7664 -0.0657
  897MPD2    C313196   3.089   1.813  10.923 -0.0045 -0.4123 -0.0433
  897MPD2    C413197   3.109   1.887  11.038 -0.0158 -0.1508 -0.2705
  897MPD2    C513198   3.159   2.012  11.037  0.6182  0.3510 -0.0109
  897MPD2     H13199   3.090   1.820  10.715 -2.5712  1.7038  0.7949
  897MPD2    H113200   3.068   1.858  11.135  1.8134  0.7166  0.7670
  897MPD2    H213201   3.252   2.156  10.913  1.1688 -0.2314 -0.7656
  897MPD2    H313202   3.162   2.071  11.128  1.3576  2.7712 -1.6131
  897MPD2     N13203   3.004   1.700  10.916  0.3762 -0.3839 -1.2598
  897MPD2    H513204   2.944   1.692  10.835  0.5279 -0.3573 -1.3758
  897MPD2    N113205   3.209   2.066  10.689  0.1828  0.5627 -0.1183
  897MPD2    H713206   3.238   2.163  10.704  0.4721  0.8026 -2.2890
  898MPD2     C13207   3.628   2.052  17.281  0.9356 -0.2072 -0.8407
  898MPD2    C113208   3.758   2.078  17.299 -0.2870 -0.7562  0.2075
  898MPD2    C213209   3.804   2.203  17.300 -0.0925  0.6780  0.8925
  898MPD2    C313210   3.724   2.309  17.258 -0.0682  0.1914 -0.0833
  898MPD2    C413211   3.590   2.285  17.229  0.2921 -0.0865  0.1040
  898MPD2    C513212   3.545   2.155  17.245  0.2375 -0.3394  0.4624
  898MPD2     H13213   3.909   2.223  17.318  0.5812 -1.1535 -1.0286
  898MPD2    H113214   3.518   2.359  17.198 -0.2392  0.1394  1.8570
  898MPD2    H213215   3.580   1.957  17.303  0.8750  0.4184  1.7786
  898MPD2    H313216   3.440   2.137  17.227  0.1007  0.3224  0.6022
  898MPD2     N13217   3.773   2.438  17.253  0.0875  0.1407  0.2467
  898MPD2    H513218   3.867   2.449  17.288 -0.5297  0.9844  1.6476
  898MPD2    N113219   3.849   1.975  17.318  0.3732 -0.1640  0.4385
  898MPD2    H713220   3.946   2.000  17.333  0.9034 -0.1893 -3.0702
  899MPD2     C13221   0.894   3.041  17.667  0.6543  1.1771 -0.2037
  899MPD2    C113222   0.755   3.034  17.645  0.2662 -0.6622 -0.4818
  899MPD2    C213223   0.683   2.919  17.685 -0.0951 -0.6032 -0.3209
  899MPD2    C313224   0.743   2.815   0.008 -0.6044 -0.5991  1.1558
  899MPD2    C413225   0.873   2.825   0.030  0.2185  0.2939  0.5863
  899MPD2    C513226   0.949   2.939  17.737  0.0709 -0.2467 -0.0319
  899MPD2     H13227   0.576   2.916  17.667 -0.4891  1.7749  1.6255
  899MPD2    H113228   0.918   2.738   0.075 -3.3994 -1.2877  1.1832
  899MPD2    H213229   0.956   3.121  17.629  2.7024 -0.0732  0.4781
  899MPD2    H313230   1.054   2.929   0.022  0.3315 -0.9830 -1.2556
  899MPD2     N13231   0.686   2.704   0.071 -0.2765  0.5007  0.6001
  899MPD2    H513232   0.753   2.637   0.107  0.0178  0.6155  0.2731
  899MPD2    N113233   0.692   3.143  17.579 -0.0258 -0.2534 -0.1013
  899MPD2    H713234   0.748   3.207  17.524  1.0377  0.1581  1.4421
  900MPD2     C13235   4.451   3.886  12.654 -0.1139 -0.1603 -0.6804
  900MPD2    C113236   4.461   3.749  12.663  0.7574 -0.3616 -0.3889
  900MPD2    C213237   4.340   3.678  12.685  0.1371  1.0836  0.3829
  900MPD2    C313238   4.218   3.744  12.712  0.5580  0.0331  0.0272
  900MPD2    C413239   4.218   3.880  12.738  0.2820 -0.8119  0.1216
  900MPD2    C513240   4.332   3.946  12.691 -0.0080  0.4466 -0.1929
  900MPD2     H13241   4.346   3.570  12.674  0.5587  1.2061 -0.5501
  900MPD2    H113242   4.129   3.930  12.775 -0.3735 -1.8706 -0.0281
  900MPD2    H213243   4.536   3.954  12.654  0.5923 -1.0483 -2.2107
  900MPD2    H313244   4.327   4.054  12.695 -1.7260  0.3888 -0.4851
  900MPD2     N13245   4.103   3.666  12.744 -0.0279 -0.7671  0.2466
  900MPD2    H513246   4.129   3.568  12.752  2.2209 -0.3041 -1.1650
  900MPD2    N113247   4.586   3.690  12.672 -0.2809 -0.5459 -0.0396
  900MPD2    H713248   4.667   3.739  12.634 -0.4666  0.6271  1.0940
  901MPD2     C13249   0.525   2.943  13.091  0.2312  0.4160 -0.0699
  901MPD2    C113250   0.590   3.046  13.034 -0.4285  0.3922  0.5903
  901MPD2    C213251   0.524   3.169  13.011 -0.3759  0.4050 -0.4718
  901MPD2    C313252   0.392   3.182  13.047  0.4557 -0.3244  0.2889
  901MPD2    C413253   0.328   3.075  13.105  0.0193  0.4869  0.0625
  901MPD2    C513254   0.397   2.959  13.128 -0.0762  0.4241 -0.3858
  901MPD2     H13255   0.582   3.255  12.979 -0.0965  0.8898  1.3176
  901MPD2    H113256   0.228   3.074  13.144  0.0805 -1.1949  0.1713
  901MPD2    H213257   0.573   2.850  13.119  1.2692  0.2758 -2.3415
  901MPD2    H313258   0.339   2.879  13.173 -0.0666 -0.5812 -2.1582
  901MPD2     N13259   0.320   3.298  13.014 -0.1653  0.5326  0.2656
  901MPD2    H513260   0.387   3.368  12.982  0.5984 -0.8467 -1.1586
  901MPD2    N113261   0.727   3.030  12.987  0.1035  0.0240 -0.4464
  901MPD2    H713262   0.770   2.940  13.008  0.0895  0.2989  0.7425
  902MPD2     C13263   0.225   2.122  13.060 -0.0246  0.0546  0.1531
  902MPD2    C113264   0.199   2.157  12.928 -0.5322  0.3449  0.2369
  902MPD2    C213265   0.250   2.074  12.831 -0.2778 -0.4219  0.0248
  902MPD2    C313266   0.325   1.955  12.860  0.4823 -0.0058 -0.4538
  902MPD2    C413267   0.348   1.928  12.993 -0.0494 -0.6526 -0.4408
  902MPD2    C513268   0.303   2.015  13.095 -1.1923 -0.5664  0.5574
  902MPD2     H13269   0.213   2.087  12.730 -0.5035  0.0004  0.1616
  902MPD2    H113270   0.404   1.841  13.024 -0.1707 -0.4434  0.3448
  902MPD2    H213271   0.198   2.178  13.149 -1.3090 -1.9044  0.9858
  902MPD2    H313272   0.332   1.990  13.196  2.0888 -1.6739 -0.6835
  902MPD2     N13273   0.373   1.879  12.754 -0.0405  0.5888 -0.2150
  902MPD2    H513274   0.394   1.784  12.781  0.7429 -0.3953 -4.3775
  902MPD2    N113275   0.131   2.278  12.898 -0.3200 -0.4047 -0.1464
  902MPD2    H713276   0.115   2.337  12.979  1.7191  2.1315 -1.5917
  903MPD2     C13277   0.236   2.258  12.138  0.0442  0.1516 -0.7142
  903MPD2    C113278   0.160   2.162  12.197  0.1304  0.7022  0.1874
  903MPD2    C213279   0.034   2.196  12.246 -0.3797  0.2810  0.5682
  903MPD2    C313280   4.713   2.321  12.225  0.3685  0.2442 -0.1563
  903MPD2    C413281   0.048   2.406  12.144 -0.0327 -0.2908 -0.4923
  903MPD2    C513282   0.177   2.379  12.111 -0.5320 -0.3298 -0.2127
  903MPD2     H13283   4.707   2.122  12.294  0.9949 -1.3073 -0.0918
  903MPD2    H113284   0.016   2.507  12.119 -2.5815 -0.9418  0.0551
  903MPD2    H213285   0.339   2.254  12.105  0.2058  1.5876 -0.3868
  903MPD2    H313286   0.234   2.448  12.050 -0.1604 -0.3260  0.1424
  903MPD2     N13287   4.581   2.342  12.248  0.3526 -0.2247 -0.2427
  903MPD2    H513288   4.533   2.268  12.299 -0.0673  1.0044  1.1597
  903MPD2    N113289   0.229   2.040  12.227  0.0918  0.2762 -0.5900
  903MPD2    H713290   0.325   2.037  12.196 -0.3476 -0.2187 -1.8693
  904MPD2     C13291   4.241   1.991  13.931  0.1883  0.2687 -0.0483
  904MPD2    C113292   4.217   1.853  13.935 -1.0358 -0.1555  0.2968
  904MPD2    C213293   4.327   1.766  13.932  0.4891 -1.0726 -0.1268
  904MPD2    C313294   4.457   1.811  13.935 -0.5571 -0.4767 -0.2141
  904MPD2    C413295   4.476   1.947  13.932 -0.2402 -0.0986  0.2313
  904MPD2    C513296   4.372   2.028  13.918 -0.0500 -0.0383 -0.1919
  904MPD2     H13297   4.319   1.662  13.959  2.1379 -1.2869 -0.4532
  904MPD2    H113298   4.574   1.993  13.944 -0.4720  0.7951 -1.3926
  904MPD2    H213299   4.166   2.069  13.924  1.1834  1.1608 -0.7695
  904MPD2    H313300   4.394   2.134  13.930  0.1840 -0.2603  1.3125
  904MPD2     N13301   4.565   1.719  13.960 -0.4238  0.0731 -0.1430
  904MPD2    H513302   4.538   1.622  13.975  2.9071 -0.5919  1.3922
  904MPD2    N113303   4.085   1.801  13.943  0.0524  0.1723  0.1759
  904MPD2    H713304   4.078   1.703  13.919 -0.7067  0.3244 -0.2387
  905MPD2     C13305   3.605   1.141  13.850 -0.3507  0.5681 -0.3651
  905MPD2    C113306   3.717   1.209  13.885 -0.4545 -0.2463  0.3875
  905MPD2    C213307   3.836   1.140  13.896 -0.2844 -0.0786 -0.1246
  905MPD2    C313308   3.843   1.010  13.866 -0.5386  0.3858  0.6068
  905MPD2    C413309   3.727   0.940  13.830  0.2894  0.1162 -0.4416
  905MPD2    C513310   3.609   1.008  13.828 -0.6528 -0.4770 -0.6256
  905MPD2     H13311   3.928   1.192  13.922 -0.6240  0.5727 -0.2197
  905MPD2    H113312   3.731   0.834  13.808  1.2450  0.3048 -1.1584
  905MPD2    H213313   3.505   1.182  13.849 -0.1506  1.0388 -1.2311
  905MPD2    H313314   3.513   0.963  13.805 -0.6555 -1.0758  0.5385
  905MPD2     N13315   3.964   0.935  13.884 -0.1161 -0.1981 -0.3862
  905MPD2    H513316   3.958   0.833  13.887  0.1096 -0.1418  2.3092
  905MPD2    N113317   3.693   1.350  13.922 -0.1998  0.0903 -0.1440
  905MPD2    H713318   3.595   1.374  13.936  0.3400  3.4408 -1.8688
  906MPD2     C13319   1.651   1.850  11.212  0.2886 -0.4505  0.5747
  906MPD2    C113320   1.646   1.745  11.123  1.1369 -0.3203  0.4387
  906MPD2    C213321   1.605   1.626  11.166 -0.0210  0.4163  0.4129
  906MPD2    C313322   1.535   1.601  11.287  0.6292 -0.4418 -0.6454
  906MPD2    C413323   1.534   1.707  11.374  0.4486  0.7906 -0.1262
  906MPD2    C513324   1.584   1.827  11.336 -0.1180 -0.1426 -0.5002
  906MPD2     H13325   1.607   1.550  11.089  1.3336 -0.8749  1.7050
  906MPD2    H113326   1.504   1.707  11.479  1.0427 -1.1884  0.0471
  906MPD2    H213327   1.694   1.947  11.189  1.6441 -0.9000  1.1705
  906MPD2    H313328   1.590   1.906  11.410  1.0506 -0.4243 -0.2748
  906MPD2     N13329   1.459   1.484  11.299 -0.1387 -0.2710 -0.1381
  906MPD2    H513330   1.469   1.419  11.222 -1.2998  2.3181 -2.5159
  906MPD2    N113331   1.680   1.761  10.986 -0.5117  0.1893 -0.2835
  906MPD2    H713332   1.671   1.678  10.929 -0.4194 -2.0259  2.9183
  907MPD2     C13333   4.547   0.960  16.121  0.4460  0.0435 -0.9388
  907MPD2    C113334   4.555   0.844  16.051 -0.1255  0.5736  0.7847
  907MPD2    C213335   4.619   0.740  16.109  0.1617  0.3755  0.0707
  907MPD2    C313336   4.658   0.750  16.242  0.1546 -0.1168  0.7052
  907MPD2    C413337   4.655   0.872  16.307 -0.6390 -0.2946  0.1651
  907MPD2    C513338   4.603   0.981  16.243  0.5749  0.4667  0.8176
  907MPD2     H13339   4.629   0.646  16.056  0.6881  0.6783 -0.3712
  907MPD2    H113340   4.680   0.889  16.411 -0.3408  1.6528 -0.2120
  907MPD2    H213341   4.507   1.050  16.074  0.6429  0.3602 -0.5012
  907MPD2    H313342   4.627   1.080  16.282 -3.1653  1.2248  1.1489
  907MPD2     N13343   4.700   0.630  16.312 -0.6653 -0.6035  0.2942
  907MPD2    H513344   4.713   0.546  16.255 -1.1063 -0.4940  0.0322
  907MPD2    N113345   4.521   0.822  15.913  0.3612 -0.5441  0.5704
  907MPD2    H713346   4.540   0.732  15.869 -1.4336 -1.0413  0.8207
  908MPD2     C13347   3.552   1.871   9.751 -0.0346  0.0638  0.4419
  908MPD2    C113348   3.501   1.788   9.852 -0.2408  0.0484  0.2745
  908MPD2    C213349   3.439   1.844   9.959 -0.8056 -0.5590 -0.3863
  908MPD2    C313350   3.426   1.981   9.970  0.6088 -0.1474 -0.0706
  908MPD2    C413351   3.488   2.060   9.876  0.0021 -0.1039  0.3523
  908MPD2    C513352   3.541   2.006   9.766  0.4180 -0.7632  0.0997
  908MPD2     H13353   3.388   1.782  10.031 -2.5189  0.7591 -0.4526
  908MPD2    H113354   3.479   2.168   9.885 -0.6931 -0.1048 -0.3663
  908MPD2    H213355   3.596   1.839   9.657 -0.4375  0.6839  0.0529
  908MPD2    H313356   3.571   2.078   9.691 -0.2289 -0.9791 -0.3627
  908MPD2     N13357   3.368   2.024  10.093 -0.3419 -0.0690  0.0811
  908MPD2    H513358   3.342   1.950  10.158  0.5957  0.9201  1.5878
  908MPD2    N113359   3.506   1.648   9.840  0.1127  0.6937 -0.4816
  908MPD2    H713360   3.467   1.597   9.919  3.0109  1.7065  1.5883
  909MPD2     C13361   3.127   4.022  11.942  0.1521 -0.0402  1.1181
  909MPD2    C113362   3.135   4.153  11.914 -0.6917 -0.2996  0.8186
  909MPD2    C213363   3.087   4.246  12.008  0.0976  0.2654  0.0325
  909MPD2    C313364   3.018   4.203  12.121 -0.6243 -0.1485 -0.3909
  909MPD2    C413365   3.005   4.068  12.148  0.7123 -0.4736 -0.9433
  909MPD2    C513366   3.060   3.983  12.056  0.0372  0.3291 -0.2066
  909MPD2     H13367   3.091   4.348  11.970  2.0256  0.2308  0.1398
  909MPD2    H113368   2.955   4.024  12.233  0.0169 -0.6386 -1.4441
  909MPD2    H213369   3.161   3.948  11.871 -1.7397 -1.0267  1.2273
  909MPD2    H313370   3.048   3.877  12.071  2.6765 -0.1713 -1.5425
  909MPD2     N13371   2.959   4.306  12.199 -0.0349 -0.5961  0.0115
  909MPD2    H513372   2.976   4.400  12.165 -0.2571 -0.1757  1.0642
  909MPD2    N113373   3.194   4.201  11.793 -0.0141 -0.2553 -0.2449
  909MPD2    H713374   3.213   4.300  11.802  0.8436 -0.4614  0.1461
  910MPD2     C13375   3.992   1.218  16.306  0.4841  0.4072  0.2102
  910MPD2    C113376   4.072   1.172  16.205  0.1339 -0.3294 -0.0235
  910MPD2    C213377   4.051   1.226  16.077 -0.6009  0.4607  0.2292
  910MPD2    C313378   3.958   1.320  16.049 -0.5556 -0.6454 -0.2625
  910MPD2    C413379   3.873   1.356  16.157  0.6005 -0.4705 -0.3701
  910MPD2    C513380   3.886   1.303  16.280 -0.4384  0.6807 -0.4649
  910MPD2     H13381   4.093   1.180  15.988  0.4764 -0.3771  1.1493
  910MPD2    H113382   3.803   1.436  16.135 -0.4313 -1.8303 -1.9932
  910MPD2    H213383   3.987   1.169  16.403  0.8149  1.1003  0.5711
  910MPD2    H313384   3.815   1.335  16.356 -0.2393 -0.6790  0.2902
  910MPD2     N13385   3.936   1.375  15.923 -0.3034 -0.2439 -0.1754
  910MPD2    H513386   3.853   1.433  15.913 -0.6453 -0.5190  1.0259
  910MPD2    N113387   4.161   1.060  16.223  0.2549 -0.1501  0.5030
  910MPD2    H713388   4.221   1.041  16.143  0.3063 -1.0993  0.7755
  911MPD2     C13389   1.748   1.851  16.362  0.2635 -0.2521  0.2766
  911MPD2    C113390   1.793   1.964  16.431  0.1675 -0.2682 -0.0917
  911MPD2    C213391   1.709   2.076  16.419 -0.3605 -0.2905  0.4492
  911MPD2    C313392   1.584   2.068  16.361  0.0181  0.4904  0.3255
  911MPD2    C413393   1.546   1.948  16.301  1.3410 -0.8132  0.1634
  911MPD2    C513394   1.628   1.842  16.301 -0.5780 -0.3033 -0.0821
  911MPD2     H13395   1.752   2.166  16.461  1.0256  0.3670 -2.4294
  911MPD2    H113396   1.446   1.940  16.259  2.1613  0.3682 -2.0135
  911MPD2    H213397   1.806   1.759  16.364  1.9978  0.8509  0.3777
  911MPD2    H313398   1.591   1.747  16.264  0.1558 -0.7090  0.2131
  911MPD2     N13399   1.496   2.173  16.352 -0.1291 -0.1585 -0.1151
  911MPD2    H513400   1.406   2.172  16.304 -1.8656  0.9908  3.0607
  911MPD2    N113401   1.922   1.963  16.483  0.8654  1.0391  0.4090
  911MPD2    H713402   1.976   1.876  16.481 -1.4746 -0.4010 -0.6006
  912MPD2     C13403   1.195   2.277  15.695  0.1161  0.3305  1.4250
  912MPD2    C113404   1.203   2.223  15.824 -1.2215  0.2028 -0.2796
  912MPD2    C213405   1.170   2.093  15.836 -0.4634 -0.6762  0.0893
  912MPD2    C313406   1.138   2.015  15.734 -0.3501 -0.1193  0.7660
  912MPD2    C413407   1.131   2.063  15.612 -0.3634 -0.3905  0.1760
  912MPD2    C513408   1.160   2.198  15.589 -0.1930 -0.5783 -0.4591
  912MPD2     H13409   1.165   2.049  15.935 -0.0533  2.4398  1.4783
  912MPD2    H113410   1.105   2.007  15.523  0.8169  1.3276 -1.2705
  912MPD2    H213411   1.202   2.383  15.675  0.2493  0.1153  0.3363
  912MPD2    H313412   1.163   2.243  15.490  0.7204 -1.2591 -0.7453
  912MPD2     N13413   1.123   1.880  15.765 -0.1751  0.3700  0.5658
  912MPD2    H513414   1.158   1.855  15.857 -1.6632 -1.2084  0.7125
  912MPD2    N113415   1.246   2.305  15.936  0.1119 -0.1044 -0.0816
  912MPD2    H713416   1.273   2.403  15.926  0.0342 -0.0488  0.2521
  913MPD2     C13417   2.649   3.249  10.401  0.2373 -0.4387  0.7081
  913MPD2    C113418   2.725   3.336  10.487  0.1530 -0.2731  0.5267
  913MPD2    C213419   2.814   3.419  10.429  0.2311 -0.1949 -0.2257
  913MPD2    C313420   2.835   3.424  10.292  0.4071  0.4212  0.5131
  913MPD2    C413421   2.765   3.338  10.215  0.2729 -0.5588  0.0041
  913MPD2    C513422   2.671   3.245  10.268 -0.1119  0.3585  0.4403
  913MPD2     H13423   2.870   3.486  10.494  0.5331 -0.1336 -0.5494
  913MPD2    H113424   2.773   3.338  10.107  2.8326 -1.1103  0.1817
  913MPD2    H213425   2.572   3.190  10.447 -3.5433  3.1427 -1.0155
  913MPD2    H313426   2.610   3.187  10.200  1.3426 -0.0559 -0.5149
  913MPD2     N13427   2.921   3.518  10.228  1.0636  0.3729 -0.8938
  913MPD2    H513428   2.912   3.514  10.127  1.4622  1.7791 -0.9723
  913MPD2    N113429   2.713   3.324  10.629  0.3446  0.4790 -0.0177
  913MPD2    H713430   2.660   3.249  10.671 -0.8994  1.1447 -0.3837
  914MPD2     C13431   0.629   3.146  12.055  0.0979 -0.2735 -0.2723
  914MPD2    C113432   0.631   3.246  12.147 -0.4459  0.1548 -0.4100
  914MPD2    C213433   0.680   3.208  12.275 -0.2157  0.5062 -0.1426
  914MPD2    C313434   0.707   3.073  12.309 -0.4148 -0.4802 -0.6737
  914MPD2    C413435   0.703   2.973  12.216 -0.0243 -0.4790 -0.0380
  914MPD2    C513436   0.658   3.008  12.089  0.4213  0.4557  0.6167
  914MPD2     H13437   0.695   3.281  12.354 -0.5462  0.1513  0.2483
  914MPD2    H113438   0.707   2.868  12.243  0.1099 -1.1548 -2.6364
  914MPD2    H213439   0.600   3.172  11.954 -0.7197  1.3993  0.3949
  914MPD2    H313440   0.642   2.929  12.016  0.7738 -0.3829  1.4401
  914MPD2     N13441   0.762   3.047  12.437  0.3128  0.6977 -0.7168
  914MPD2    H513442   0.782   3.132  12.490 -1.2155 -0.3913  1.6202
  914MPD2    N113443   0.601   3.380  12.109 -0.0804  0.4702 -0.3055
  914MPD2    H713444   0.564   3.403  12.017 -1.9260 -0.6574  0.1505
  915MPD2     C13445   2.882   3.437  15.700 -0.2928  1.4170 -0.0060
  915MPD2    C113446   2.749   3.455  15.714 -0.4824  0.3804 -0.2876
  915MPD2    C213447   2.706   3.503  15.841 -0.0275  0.6031 -0.3211
  915MPD2    C313448   2.801   3.515  15.938 -0.8332  0.5149  0.3445
  915MPD2    C413449   2.937   3.506  15.921 -0.8141 -0.7856  0.1181
  915MPD2    C513450   2.970   3.458  15.796 -0.9794  0.5551  0.0065
  915MPD2     H13451   2.604   3.530  15.862 -0.3894  0.5371 -1.9987
  915MPD2    H113452   3.010   3.524  15.999  2.4937 -2.3786 -2.6070
  915MPD2    H213453   2.919   3.381  15.615 -0.7340  1.5925 -0.3182
  915MPD2    H313454   3.072   3.447  15.762  0.2754 -0.9610  4.2902
  915MPD2     N13455   2.742   3.558  16.063  0.2058 -0.1020 -0.4509
  915MPD2    H513456   2.641   3.563  16.069  0.3535  0.9010  1.1732
  915MPD2    N113457   2.661   3.416  15.616 -0.5723  0.4530  0.1315
  915MPD2    H713458   2.693   3.388  15.524 -1.3865 -0.8310  0.2333
  916MPD2     C13459   0.757   1.890  15.629  0.4286  0.3291  0.2869
  916MPD2    C113460   0.733   1.791  15.721  0.1461  0.4522 -0.2702
  916MPD2    C213461   0.735   1.663  15.663  0.6739  0.3391 -0.2224
  916MPD2    C313462   0.757   1.644  15.526  0.0389  0.6046 -0.2377
  916MPD2    C413463   0.778   1.743  15.439 -0.2649  0.2614  0.5999
  916MPD2    C513464   0.781   1.867  15.489 -0.0210  0.4759  0.1985
  916MPD2     H13465   0.707   1.574  15.718 -0.7396  0.8386 -0.1138
  916MPD2    H113466   0.806   1.728  15.335 -0.8584  0.7051  0.3814
  916MPD2    H213467   0.765   1.993  15.664  1.1315  1.0671 -2.0177
  916MPD2    H313468   0.826   1.951  15.437 -1.5394  1.1318 -0.0414
  916MPD2     N13469   0.764   1.508  15.478 -0.5289 -0.1214 -0.0207
  916MPD2    H513470   0.771   1.443  15.556  0.4053  0.9066  0.7567
  916MPD2    N113471   0.699   1.824  15.851 -0.0432  0.6334  0.1819
  916MPD2    H713472   0.695   1.922  15.881  0.7333  1.1681 -1.5073
  917MPD2     C13473   1.742   3.768  11.239  0.5158 -0.3669 -0.3580
  917MPD2    C113474   1.825   3.784  11.353  0.9805  0.1225  0.3249
  917MPD2    C213475   1.926   3.878  11.345 -0.1130  0.0931  0.5178
  917MPD2    C313476   1.945   3.959  11.233  1.0636  0.1474  0.3700
  917MPD2    C413477   1.864   3.942  11.122  0.5920 -0.1868 -0.4954
  917MPD2    C513478   1.766   3.848  11.135 -0.4123  0.1492 -0.5785
  917MPD2     H13479   1.989   3.889  11.432  2.4988 -0.5265 -1.2932
  917MPD2    H113480   1.874   4.000  11.031  1.8389  0.4588  0.0548
  917MPD2    H213481   1.660   3.698  11.247  0.8425 -0.6645  0.3939
  917MPD2    H313482   1.701   3.834  11.049 -2.2861  0.3659  0.8100
  917MPD2     N13483   2.045   4.048  11.220  0.4314  0.4153  0.0110
  917MPD2    H513484   2.047   4.102  11.135  0.9763 -1.7423 -1.3424
  917MPD2    N113485   1.793   3.712  11.473  0.1078 -0.5070 -0.0458
  917MPD2    H713486   1.736   3.630  11.456 -1.5645  1.3283 -3.2109
  918MPD2     C13487   1.672   4.198  12.285  0.1399  0.1445 -0.4169
  918MPD2    C113488   1.798   4.184  12.223 -0.2326  0.1680  0.9194
  918MPD2    C213489   1.825   4.072  12.147  0.4318 -0.0658  0.3494
  918MPD2    C313490   1.731   3.970  12.145  0.3280  0.2548  0.2428
  918MPD2    C413491   1.613   3.978  12.225 -0.7429  0.2274 -0.1191
  918MPD2    C513492   1.577   4.099  12.287 -0.3737  0.3600  0.1389
  918MPD2     H13493   1.920   4.055  12.097  1.2385 -1.1619  2.2376
  918MPD2    H113494   1.544   3.894  12.231 -0.1560 -0.2689 -0.2296
  918MPD2    H213495   1.667   4.287  12.347  1.2449 -0.5348  0.6607
  918MPD2    H313496   1.486   4.110  12.345 -0.0827  1.2043  0.4280
  918MPD2     N13497   1.764   3.862  12.066  0.7837  0.3806 -0.7661
  918MPD2    H513498   1.854   3.860  12.018  0.4040  1.9168 -1.5622
  918MPD2    N113499   1.884   4.294  12.233  0.0117 -0.6711 -0.2456
  918MPD2    H713500   1.849   4.372  12.289 -0.4179 -1.5967  0.7666
  919MPD2     C13501   2.449   2.982  11.970 -0.7859  0.2189  0.3448
  919MPD2    C113502   2.372   2.882  11.911  0.8232 -0.0409  0.8004
  919MPD2    C213503   2.301   2.906  11.793  0.4061  0.0437 -0.1382
  919MPD2    C313504   2.330   3.026  11.726  0.4246 -0.2397  0.2242
  919MPD2    C413505   2.414   3.120  11.780  0.4619  0.1804  0.4281
  919MPD2    C513506   2.469   3.100  11.904 -0.3392  0.3198  0.0282
  919MPD2     H13507   2.242   2.828  11.746 -0.9431  1.6320 -1.1182
  919MPD2    H113508   2.441   3.213  11.733  0.6084  0.7447  1.6186
  919MPD2    H213509   2.502   2.962  12.063  0.3141 -1.5434 -0.6639
  919MPD2    H313510   2.535   3.172  11.951  0.7724 -0.3627 -0.4764
  919MPD2     N13511   2.282   3.055  11.598  0.5318 -0.2435  0.4638
  919MPD2    H513512   2.307   3.149  11.567  0.9766 -0.4721  0.1277
  919MPD2    N113513   2.357   2.759  11.978 -0.8610 -0.1879 -0.1321
  919MPD2    H713514   2.329   2.684  11.914  3.0514 -1.4869 -0.3089
  920MPD2     C13515   2.536   3.604  10.826  0.6724 -0.1623 -0.2318
  920MPD2    C113516   2.423   3.551  10.774 -0.2526  0.6880 -0.0533
  920MPD2    C213517   2.337   3.485  10.857  0.4948  0.0514 -0.3687
  920MPD2    C313518   2.361   3.470  10.998 -0.2912  0.0054 -0.3095
  920MPD2    C413519   2.473   3.532  11.048 -0.5426 -0.4765 -0.4174
  920MPD2    C513520   2.559   3.601  10.961  0.9324  0.0717 -0.0688
  920MPD2     H13521   2.244   3.443  10.820 -1.2630  2.0636  1.8101
  920MPD2    H113522   2.483   3.543  11.155 -1.9089 -0.9254 -0.2397
  920MPD2    H213523   2.602   3.665  10.764  1.0356  0.9866  1.2656
  920MPD2    H313524   2.652   3.643  10.997  0.4961  1.6345 -0.7570
  920MPD2     N13525   2.271   3.382  11.070  0.0471 -1.0185  0.4665
  920MPD2    H513526   2.203   3.338  11.008 -1.2250  2.4537 -0.6116
  920MPD2    N113527   2.382   3.565  10.640 -0.3712  0.1515  0.0201
  920MPD2    H713528   2.301   3.518  10.603 -0.6910  0.4627  0.3250
  921MPD2     C13529   2.740   2.259  17.168  0.5243 -0.3542 -0.3224
  921MPD2    C113530   2.768   2.269  17.036 -0.4049 -0.9755  0.4954
  921MPD2    C213531   2.668   2.235  16.947 -0.6715  1.4429  0.2668
  921MPD2    C313532   2.546   2.206  16.987  0.1037  0.5309  0.2049
  921MPD2    C413533   2.509   2.221  17.118 -0.2815 -0.3502  0.1159
  921MPD2    C513534   2.613   2.247  17.214  0.3574  0.7517 -0.4925
  921MPD2     H13535   2.686   2.227  16.840 -1.2875 -3.0619  0.4804
  921MPD2    H113536   2.410   2.203  17.157 -0.0539 -0.9109  0.4237
  921MPD2    H213537   2.820   2.290  17.234  1.8540 -2.6182 -0.8848
  921MPD2    H313538   2.595   2.240  17.320  1.1078  1.3107 -0.3284
  921MPD2     N13539   2.457   2.174  16.884 -0.0546 -0.4388 -1.2471
  921MPD2    H513540   2.509   2.177  16.796 -2.3185  1.1680 -2.5329
  921MPD2    N113541   2.903   2.297  16.987  0.4212 -0.2804 -0.1443
  921MPD2    H713542   2.976   2.278  17.056 -0.1809  2.8354  1.3505
  922MPD2     C13543   3.089   4.219   0.416 -0.0739  0.1086  0.3881
  922MPD2    C113544   3.009   4.328   0.416  0.2187 -0.4872  0.7647
  922MPD2    C213545   2.942   4.364   0.296  0.1069 -0.8640  0.5402
  922MPD2    C313546   2.950   4.285   0.185 -0.0466  0.6091  0.0780
  922MPD2    C413547   3.024   4.170   0.196  0.1932  0.3880 -0.1165
  922MPD2    C513548   3.104   4.147   0.304 -0.0461  0.5560  0.1203
  922MPD2     H13549   2.868   4.443   0.302  0.0245 -0.8838 -0.2573
  922MPD2    H113550   3.051   4.112   0.108 -0.3214 -0.6823  0.4324
  922MPD2    H213551   3.157   4.191   0.496  0.7983  0.4523 -0.2281
  922MPD2    H313552   3.186   4.077   0.290  0.9632  1.8088 -0.3141
  922MPD2     N13553   2.880   4.315   0.068  0.7363 -0.0964  0.1090
  922MPD2    H513554   2.807   4.384   0.081  0.2115 -0.1724 -2.5244
  922MPD2    N113555   3.003   4.408   0.532  0.2805 -0.6397 -0.0591
  922MPD2    H713556   2.958   4.499   0.523  1.0308 -0.2466  0.2083
  923MPD2     C13557   0.094   2.112   8.936  0.1368 -0.4366 -0.3570
  923MPD2    C113558   0.154   2.217   9.014  0.7741 -0.3603  0.0658
  923MPD2    C213559   0.290   2.223   9.029 -0.6516  0.0495 -0.6060
  923MPD2    C313560   0.374   2.128   8.981  0.5987  0.4206  0.5970
  923MPD2    C413561   0.317   2.017   8.921  0.3203  0.3016 -0.5186
  923MPD2    C513562   0.181   2.014   8.888 -0.5740  0.8900  0.1480
  923MPD2     H13563   0.337   2.304   9.083  0.3390 -0.7207 -0.3056
  923MPD2    H113564   0.379   1.930   8.904  0.5041 -0.2693  3.0907
  923MPD2    H213565   4.724   2.096   8.921 -0.1235  1.3090 -0.3717
  923MPD2    H313566   0.148   1.922   8.841 -0.6003  0.6614  0.6064
  923MPD2     N13567   0.512   2.117   9.019 -0.2885 -0.3318 -0.1793
  923MPD2    H513568   0.556   2.025   9.020 -0.1063 -0.2179  1.9538
  923MPD2    N113569   0.067   2.312   9.074  0.8254  0.0026  0.2451
  923MPD2    H713570   4.704   2.299   9.058  1.3532 -1.7258 -1.6111
  924MPD2     C13571   0.079   4.578  16.006  0.1774  0.0272 -0.9524
  924MPD2    C113572   0.001   4.571  16.118 -0.4046  0.8356  0.4694
  924MPD2    C213573   0.030   4.665  16.220  1.0729  0.1289 -0.7074
  924MPD2    C313574   0.134   0.024  16.206 -0.0889 -0.3908  0.7764
  924MPD2    C413575   0.209   0.027  16.090 -0.0256 -1.0821 -0.1405
  924MPD2    C513576   0.183   4.667  15.995  0.4139  0.4602 -0.3895
  924MPD2     H13577   4.712   4.672  16.313  1.5293 -0.5310 -0.3952
  924MPD2    H113578   0.290   0.097  16.076 -2.5277  1.7938 -0.1503
  924MPD2    H213579   0.061   4.502  15.930  2.9777 -1.4501 -0.1321
  924MPD2    H313580   0.252   4.663  15.911  1.5188 -1.4399  0.6099
  924MPD2     N13581   0.138   0.122  16.308 -0.5997 -0.5667  0.0864
  924MPD2    H513582   0.073   0.106  16.385 -1.0234 -1.6707 -0.4854
  924MPD2    N113583   4.629   4.479  16.130  0.0402  0.2477 -0.1130
  924MPD2    H713584   4.612   4.425  16.046  0.6873 -3.5159  2.1829
  925MPD2     C13585   3.853   2.444  14.588 -0.1010 -0.6565  0.3596
  925MPD2    C113586   3.752   2.519  14.531  0.2461  0.4781 -0.2141
  925MPD2    C213587   3.648   2.570  14.607 -1.0845  0.3907 -0.2512
  925MPD2    C313588   3.643   2.546  14.741  0.0622  0.2453 -0.4765
  925MPD2    C413589   3.739   2.478  14.798  0.5934  0.6649  0.7380
  925MPD2    C513590   3.841   2.427  14.728  0.0235  0.4148 -0.2664
  925MPD2     H13591   3.575   2.629  14.553 -0.6004  0.4211 -0.8689
  925MPD2    H113592   3.748   2.452  14.902  3.8800 -0.7170  0.1312
  925MPD2    H213593   3.938   2.403  14.534 -1.0039 -2.4847  0.3411
  925MPD2    H313594   3.916   2.368  14.779 -0.8029  0.6266  1.1837
  925MPD2     N13595   3.543   2.590  14.828  0.0472 -0.1542 -0.2474
  925MPD2    H513596   3.553   2.548  14.919 -2.0107  0.1944  0.1487
  925MPD2    N113597   3.755   2.550  14.394 -0.4179  0.7504 -0.0997
  925MPD2    H713598   3.668   2.584  14.356 -0.2149 -1.0157 -2.1628
  926MPD2     C13599   2.714   0.782  13.264  0.3772 -0.0636 -0.4278
  926MPD2    C113600   2.730   0.912  13.253 -0.0885 -0.3487  0.2156
  926MPD2    C213601   2.829   0.971  13.175  0.2292 -0.2514 -0.3215
  926MPD2    C313602   2.917   0.892  13.107  0.4311  0.2084  0.5198
  926MPD2    C413603   2.898   0.758  13.112 -0.3929 -0.4696  0.0900
  926MPD2    C513604   2.801   0.702  13.191 -0.3200  0.3295  0.1899
  926MPD2     H13605   2.826   1.079  13.160  1.3263 -0.1358  0.3729
  926MPD2    H113606   2.974   0.700  13.062  0.9674  0.0107  1.6080
  926MPD2    H213607   2.637   0.730  13.321 -0.7461  0.2915 -1.6207
  926MPD2    H313608   2.786   0.595  13.200 -0.6628  0.5984  2.8315
  926MPD2     N13609   3.033   0.944  13.045 -0.0827  0.1410  0.0821
  926MPD2    H513610   3.097   0.867  13.028 -1.3788 -1.2750  1.6685
  926MPD2    N113611   2.650   0.996  13.331  0.2212  0.1355 -0.4301
  926MPD2    H713612   2.670   1.095  13.338  0.2794  0.0648  0.3500
  927MPD2     C13613   1.546   3.564  17.689 -0.0468 -0.1569 -0.7200
  927MPD2    C113614   1.587   3.456   0.019  1.0674 -0.3601  0.1810
  927MPD2    C213615   1.677   3.358  17.717  0.4560  0.1990  0.4390
  927MPD2    C313616   1.735   3.385  17.591 -0.1581 -0.3527 -0.2620
  927MPD2    C413617   1.697   3.495  17.515  0.4555 -1.0119 -0.2042
  927MPD2    C513618   1.600   3.579  17.564  0.1037 -0.9344  0.3218
  927MPD2     H13619   1.707   3.280   0.043 -0.0165 -0.8325 -0.5445
  927MPD2    H113620   1.742   3.517  17.419 -0.4087  2.8885  0.2398
  927MPD2    H213621   1.465   3.627  17.723 -0.3548 -1.3404  0.7711
  927MPD2    H313622   1.577   3.668  17.506  0.0449 -0.4293  1.1270
  927MPD2     N13623   1.833   3.289  17.549  0.1265 -0.0985 -0.0564
  927MPD2    H513624   1.850   3.223  17.624  1.7329 -0.1819 -0.5019
  927MPD2    N113625   1.515   3.450   0.140  0.3117 -0.1901 -0.0482
  927MPD2    H713626   1.434   3.511   0.151 -0.0196 -0.5816 -0.3173
  928MPD2     C13627   0.010   1.461   1.183 -0.4373  0.6890  0.1648
  928MPD2    C113628   4.641   1.543   1.142  0.1055  0.0026 -0.4320
  928MPD2    C213629   4.609   1.559   1.008  0.1417 -0.3745  0.5839
  928MPD2    C313630   4.686   1.502   0.912 -0.2756 -0.2291 -0.1615
  928MPD2    C413631   0.049   1.413   0.946 -0.2294 -0.3657 -0.5619
  928MPD2    C513632   0.070   1.385   1.082  0.4646 -0.2083 -0.0377
  928MPD2     H13633   4.543   1.634   0.967  0.0613 -0.2727  0.8939
  928MPD2    H113634   0.100   1.341   0.884  2.3830  1.2580 -0.2814
  928MPD2    H213635   0.052   1.455   1.283  0.7988  1.3657 -0.3176
  928MPD2    H313636   0.140   1.304   1.101  2.2677  0.9583 -1.7436
  928MPD2     N13637   4.678   1.547   0.772 -0.2255  0.0188  0.9644
  928MPD2    H513638   4.640   1.640   0.757  0.7010 -0.0455 -1.8041
  928MPD2    N113639   4.589   1.618   1.247  0.8839  0.0804  0.2318
  928MPD2    H713640   4.634   1.612   1.338  0.7426 -0.1040  0.2911
  929MPD2     C13641   0.817   1.954   9.978 -0.2131  0.0624  0.2928
  929MPD2    C113642   0.698   1.898   9.978  0.1068  0.2854  0.0603
  929MPD2    C213643   0.599   1.974   9.931 -0.6570  0.3874  0.2756
  929MPD2    C313644   0.613   2.110   9.903 -0.1165 -0.2928 -0.1580
  929MPD2    C413645   0.739   2.169   9.905  0.7494  0.3481  0.2035
  929MPD2    C513646   0.844   2.084   9.932 -0.4066  0.0603  0.4892
  929MPD2     H13647   0.499   1.935   9.945 -0.4595 -0.6080 -1.1245
  929MPD2    H113648   0.771   2.272   9.893  3.2645 -0.5570 -0.7822
  929MPD2    H213649   0.902   1.900  10.017 -1.2937 -1.0999  1.0348
  929MPD2    H313650   0.945   2.124   9.929 -1.1455  2.0275  1.9530
  929MPD2     N13651   0.503   2.197   9.874  0.0983  0.3177  0.0545
  929MPD2    H513652   0.534   2.293   9.863  1.4887 -0.0402  0.7531
  929MPD2    N113653   0.680   1.768  10.029 -0.5236  0.2693 -0.1787
  929MPD2    H713654   0.755   1.710  10.064 -0.1372  0.7605 -0.1866
  930MPD2     C13655   1.749   4.273  14.198 -0.3513 -0.1975 -0.4447
  930MPD2    C113656   1.869   4.211  14.173  0.7911  1.0446  0.3976
  930MPD2    C213657   1.876   4.115  14.071  0.3257  0.1636 -0.0603
  930MPD2    C313658   1.766   4.079  14.002 -0.4651  0.6612 -0.2163
  930MPD2    C413659   1.646   4.143  14.026  0.6292  0.2498  0.3096
  930MPD2    C513660   1.636   4.236  14.127 -0.0374 -0.0271 -0.2987
  930MPD2     H13661   1.972   4.065  14.061  0.6403  1.1114 -1.8242
  930MPD2    H113662   1.555   4.114  13.975  0.7852 -0.1435  0.2489
  930MPD2    H213663   1.738   4.351  14.274 -2.9254 -1.8402  0.8715
  930MPD2    H313664   1.547   4.297  14.132 -0.7397 -0.9633 -1.5265
  930MPD2     N13665   1.770   3.984  13.899  0.1755  0.2305 -0.1482
  930MPD2    H513666   1.683   3.967  13.850 -0.1092  0.7535  0.1762
  930MPD2    N113667   1.987   4.257  14.236  0.2882 -0.1154 -0.1938
  930MPD2    H713668   1.976   4.349  14.278 -2.0009 -0.6724  0.4217
  931MPD2     C13669   1.897   3.255   0.749 -0.4246 -0.0232 -0.0550
  931MPD2    C113670   1.773   3.275   0.797  0.6353 -0.1652  0.2489
  931MPD2    C213671   1.746   3.249   0.928 -0.0666  0.4677 -0.7533
  931MPD2    C313672   1.844   3.178   1.002  1.1081  0.0447 -0.1327
  931MPD2    C413673   1.965   3.152   0.946  0.2610  0.0257  0.2046
  931MPD2    C513674   1.994   3.191   0.821 -0.3191  0.7270  0.0547
  931MPD2     H13675   1.641   3.242   0.955 -0.0612  1.6708 -0.4088
  931MPD2    H113676   2.047   3.104   0.999  1.6866  0.5436 -1.5612
  931MPD2    H213677   1.921   3.283   0.647  0.4358  0.2504  0.2159
  931MPD2    H313678   2.084   3.157   0.772 -0.1789  0.9874  0.1303
  931MPD2     N13679   1.809   3.121   1.126  0.1748 -0.2375 -0.3409
  931MPD2    H513680   1.869   3.044   1.153  0.1138 -0.4082 -0.6954
  931MPD2    N113681   1.682   3.320   0.702  0.2779  0.0286  0.0081
  931MPD2    H713682   1.696   3.326   0.602  2.1308 -0.1219  0.2529
  932MPD2     C13683   3.932   2.565  11.730  0.3951  0.4400  0.3300
  932MPD2    C113684   4.061   2.541  11.783 -0.6375 -0.1541  0.0823
  932MPD2    C213685   4.074   2.436  11.863  0.6088  0.0271  0.4716
  932MPD2    C313686   3.968   2.343  11.888  0.0571 -0.4102  0.8528
  932MPD2    C413687   3.853   2.363  11.809  0.7821 -0.2482  0.0339
  932MPD2    C513688   3.833   2.473  11.733 -0.0075 -0.1308 -0.3997
  932MPD2     H13689   4.169   2.400  11.901 -0.3997 -0.1005  2.8816
  932MPD2    H113690   3.776   2.286  11.810  0.4319  0.0809 -2.7479
  932MPD2    H213691   3.913   2.646  11.660  3.1907  0.3437 -0.5461
  932MPD2    H313692   3.735   2.490  11.690  0.9883 -0.5207 -2.8330
  932MPD2     N13693   3.971   2.222  11.967 -0.3196  0.2209 -0.6686
  932MPD2    H513694   3.898   2.154  11.946 -1.4909  1.7865 -1.6668
  932MPD2    N113695   4.175   2.627  11.773  0.2438 -1.1163 -0.2036
  932MPD2    H713696   4.261   2.598  11.819  0.9226  0.6994 -0.3138
  933MPD2     C13697   4.056   2.248   1.674  0.1232 -0.1551 -0.2059
  933MPD2    C113698   4.075   2.200   1.547 -0.3657  0.6583  0.4769
  933MPD2    C213699   3.973   2.226   1.454 -0.2724  0.1246 -0.1636
  933MPD2    C313700   3.851   2.281   1.486  0.4794 -0.6861 -0.7693
  933MPD2    C413701   3.835   2.323   1.619  0.5254  0.4623  0.0722
  933MPD2    C513702   3.936   2.303   1.703  0.2169 -0.3100  0.0761
  933MPD2     H13703   3.989   2.202   1.349  2.6619  1.4988 -0.0189
  933MPD2    H113704   3.753   2.387   1.652 -1.9992 -2.5259 -0.3673
  933MPD2    H213705   4.128   2.244   1.755 -0.8922  0.6118  0.7163
  933MPD2    H313706   3.919   2.346   1.802  0.5293 -1.5928  0.6795
  933MPD2     N13707   3.763   2.299   1.382 -0.3954 -0.1526 -0.4304
  933MPD2    H513708   3.803   2.285   1.290 -0.1900 -0.1252 -0.3450
  933MPD2    N113709   4.192   2.132   1.521 -1.2179 -0.7678  0.1425
  933MPD2    H713710   4.267   2.128   1.590 -1.7111  1.1597  0.7976
  934MPD2     C13711   0.388   4.148   2.198 -0.3382  0.5544  0.3505
  934MPD2    C113712   0.505   4.089   2.146 -0.3788  0.1091 -0.4047
  934MPD2    C213713   0.503   4.004   2.038 -0.8453 -0.0989  0.9873
  934MPD2    C313714   0.382   3.986   1.982  0.5286 -0.1008  0.0610
  934MPD2    C413715   0.263   4.054   2.017  0.4444  0.1080 -0.1952
  934MPD2    C513716   0.271   4.135   2.126 -0.3860 -0.3737  0.8821
  934MPD2     H13717   0.596   3.962   2.001 -0.4699  1.1832  0.4424
  934MPD2    H113718   0.171   4.040   1.961  0.8800  0.0222 -0.8798
  934MPD2    H213719   0.396   4.214   2.284  0.7224  0.1674  0.5474
  934MPD2    H313720   0.185   4.201   2.138 -0.5276 -0.1571 -1.3189
  934MPD2     N13721   0.366   3.898   1.873 -0.0708 -0.4123  0.0567
  934MPD2    H513722   0.274   3.863   1.846 -0.3822  0.3447  0.1544
  934MPD2    N113723   0.632   4.113   2.207 -0.0469 -0.5003 -0.1642
  934MPD2    H713724   0.710   4.061   2.170  1.1581  1.8350 -0.8709
  935MPD2     C13725   1.097   3.505   1.344 -0.8329 -0.2677  0.2221
  935MPD2    C113726   0.994   3.412   1.316 -0.2228  0.4548 -0.0934
  935MPD2    C213727   0.867   3.442   1.367  0.3838 -0.3130  0.1041
  935MPD2    C313728   0.844   3.553   1.443  0.2579  0.6003 -0.0037
  935MPD2    C413729   0.944   3.641   1.465 -0.1394 -0.4918 -0.2413
  935MPD2    C513730   1.072   3.615   1.423 -0.0518 -0.1769  0.5270
  935MPD2     H13731   0.792   3.365   1.353  0.9400 -0.9046  0.3698
  935MPD2    H113732   0.934   3.737   1.514 -1.0018 -0.7099  0.0042
  935MPD2    H213733   1.193   3.513   1.294 -0.3267  1.4314  1.4685
  935MPD2    H313734   1.153   3.687   1.434  0.2315  0.2353 -4.4660
  935MPD2     N13735   0.721   3.584   1.497 -0.1996 -0.3466 -0.0255
  935MPD2    H513736   0.711   3.663   1.560  3.0781  1.3857 -1.7032
  935MPD2    N113737   1.024   3.289   1.245 -0.0318 -0.0712  0.8093
  935MPD2    H713738   0.945   3.231   1.217  0.8632 -1.8845  1.9847
  936MPD2     C13739   0.129   0.320  12.140 -0.3668  0.1031  0.8309
  936MPD2    C113740   0.068   0.403  12.230 -0.0459 -0.0803 -0.7225
  936MPD2    C213741   0.067   0.544  12.203 -0.1434  0.7472  0.0165
  936MPD2    C313742   0.129   0.594  12.088  0.5148 -0.1825 -0.1629
  936MPD2    C413743   0.184   0.509  11.992 -0.5724  0.5508 -0.5026
  936MPD2    C513744   0.177   0.372  12.018 -0.0905  0.4613 -0.5594
  936MPD2     H13745   0.028   0.608  12.281  1.7866  3.8367 -1.5553
  936MPD2    H113746   0.223   0.547  11.898  0.1484 -0.9576 -0.8097
  936MPD2    H213747   0.138   0.212  12.152 -2.5522 -0.4971 -2.9487
  936MPD2    H313748   0.210   0.303  11.941 -0.1322 -0.0630 -0.1088
  936MPD2     N13749   0.139   0.734  12.075 -0.2575  0.1519 -0.3638
  936MPD2    H513750   0.111   0.797  12.150 -0.1841  1.4172 -1.3893
  936MPD2    N113751   0.023   0.359  12.358  0.2027  1.1693 -0.5153
  936MPD2    H713752   4.718   0.426  12.422  2.1840 -0.1487  2.1385
  937MPD2     C13753   2.589   2.245  11.636  0.6740 -0.2065  0.2209
  937MPD2    C113754   2.580   2.377  11.690  0.1568  0.7734 -0.2194
  937MPD2    C213755   2.615   2.487  11.609  0.2675  0.2601  0.1805
  937MPD2    C313756   2.648   2.469  11.474 -0.1641  0.9352 -1.3372
  937MPD2    C413757   2.658   2.340  11.425 -0.2208 -0.2760 -0.2369
  937MPD2    C513758   2.630   2.231  11.508  0.9516  0.2544  0.5447
  937MPD2     H13759   2.587   2.586  11.642  1.1208  0.9097 -1.0493
  937MPD2    H113760   2.683   2.324  11.321  0.4014 -0.2958 -0.0851
  937MPD2    H213761   2.583   2.160  11.702 -2.9845  0.3292  0.5540
  937MPD2    H313762   2.637   2.131  11.467 -1.0265 -1.0514  3.3866
  937MPD2     N13763   2.673   2.582  11.394 -0.3109  0.1624 -0.1755
  937MPD2    H513764   2.651   2.672  11.437  0.3730 -0.4300  1.4407
  937MPD2    N113765   2.537   2.402  11.819 -0.1588  0.3920 -0.1339
  937MPD2    H713766   2.537   2.500  11.848 -0.7041  0.6227 -0.9007
  938MPD2     C13767   4.414   2.624   0.748  0.0181  0.1120 -0.0927
  938MPD2    C113768   4.338   2.734   0.786 -0.2948  1.5122 -0.2480
  938MPD2    C213769   4.260   2.737   0.897  0.4504 -0.6280  0.5481
  938MPD2    C313770   4.245   2.622   0.973 -0.0062  0.0238  0.9325
  938MPD2    C413771   4.307   2.507   0.925  0.0883  0.2722  0.4841
  938MPD2    C513772   4.393   2.512   0.816  0.1755  0.2748  0.1671
  938MPD2     H13773   4.217   2.833   0.923  1.8471  0.4097 -0.9512
  938MPD2    H113774   4.307   2.411   0.976 -1.8697 -0.0915 -0.2149
  938MPD2    H213775   4.486   2.621   0.667  0.0887 -0.1122 -0.0232
  938MPD2    H313776   4.452   2.429   0.777  1.2958  1.0836  0.1423
  938MPD2     N13777   4.174   2.612   1.092 -0.4840  0.1849  0.1305
  938MPD2    H513778   4.179   2.522   1.139 -0.0221 -0.1182 -0.4900
  938MPD2    N113779   4.344   2.857   0.716  0.3247  0.0139 -0.2309
  938MPD2    H713780   4.291   2.936   0.750  1.6097  0.7975 -0.0458
  939MPD2     C13781   0.818   0.141  17.565 -0.4352 -0.3157 -0.7362
  939MPD2    C113782   0.870   0.216  17.672 -0.9499  0.3288  0.1912
  939MPD2    C213783   0.931   0.336  17.647  0.4556 -0.4014  0.0916
  939MPD2    C313784   0.928   0.395  17.515 -0.5936 -0.6879  0.4714
  939MPD2    C413785   0.872   0.322  17.410 -0.1131 -0.5256  0.1508
  939MPD2    C513786   0.820   0.194  17.444 -0.4829  0.5016  0.7309
  939MPD2     H13787   0.977   0.394  17.726 -2.3874  2.2266 -0.1536
  939MPD2    H113788   0.869   0.351  17.305 -1.5411  1.5053  0.7702
  939MPD2    H213789   0.784   0.038  17.574  0.2592 -0.6556 -1.9180
  939MPD2    H313790   0.774   0.145  17.358 -0.5903  0.2161  0.9523
  939MPD2     N13791   1.013   0.503  17.488  0.4129  1.0089  0.6831
  939MPD2    H513792   1.054   0.557  17.564  2.4995  0.5278 -0.1182
  939MPD2    N113793   0.867   0.148   0.054  0.3642  0.0094  0.4379
  939MPD2    H713794   0.831   0.053   0.057 -2.7971  1.1857 -0.2452
  940MPD2     C13795   0.470   0.600  13.032 -0.6397  0.3390  0.7814
  940MPD2    C113796   0.382   0.500  12.986  0.1690 -0.1107 -0.1740
  940MPD2    C213797   0.387   0.477  12.847  0.4498  0.0087  0.1155
  940MPD2    C313798   0.470   0.554  12.762  0.2216 -0.1922  0.6410
  940MPD2    C413799   0.546   0.656  12.818 -0.2066 -0.6539 -0.2610
  940MPD2    C513800   0.545   0.676  12.950 -0.9003 -0.0768  0.1058
  940MPD2     H13801   0.312   0.405  12.815  0.7851 -0.4254  0.3048
  940MPD2    H113802   0.608   0.723  12.760 -2.5812  0.8813 -0.9805
  940MPD2    H213803   0.482   0.632  13.135  0.7932 -1.1353  1.0707
  940MPD2    H313804   0.610   0.749  12.997 -2.4263  1.0377  0.4701
  940MPD2     N13805   0.481   0.533  12.621 -0.5647 -0.2345  0.4718
  940MPD2    H513806   0.535   0.595  12.561 -0.0216 -1.8574 -0.7308
  940MPD2    N113807   0.301   0.417  13.064 -0.0381 -0.5707  0.5297
  940MPD2    H713808   0.263   0.333  13.023 -0.5104 -0.8398  1.5098
  941MPD2     C13809   4.564   0.389   9.580  0.1981 -0.6269  0.0855
  941MPD2    C113810   4.635   0.340   9.683 -0.5444 -0.8422  0.5042
  941MPD2    C213811   4.575   0.238   9.756  0.1859  0.7405  0.1187
  941MPD2    C313812   4.446   0.189   9.723 -0.0991 -0.2361  0.2917
  941MPD2    C413813   4.372   0.248   9.618 -0.5350 -0.0425  0.1690
  941MPD2    C513814   4.438   0.344   9.548  0.4315  0.1307  0.9866
  941MPD2     H13815   4.625   0.216   9.849 -1.3864 -1.5331  0.4401
  941MPD2    H113816   4.266   0.228   9.603 -0.9447  2.7598 -0.7567
  941MPD2    H213817   4.593   0.471   9.514 -1.6648  0.4650  0.6182
  941MPD2    H313818   4.385   0.392   9.467 -1.2286 -3.3807 -0.0004
  941MPD2     N13819   4.387   0.070   9.796  0.0193  0.4198  0.1469
  941MPD2    H513820   4.298   0.030   9.766  0.1393  2.4259 -2.8837
  941MPD2    N113821   0.026   0.391   9.727 -0.1194  0.2120  0.2230
  941MPD2    H713822   0.062   0.362   9.817  0.3925 -0.2213 -0.1229
  942MPD2     C13823   4.300   2.427   9.392  0.8222 -0.0865  0.1526
  942MPD2    C113824   4.412   2.444   9.470 -0.2747 -0.3743 -0.4952
  942MPD2    C213825   4.510   2.355   9.453 -0.5015  0.2589  0.2248
  942MPD2    C313826   4.517   2.248   9.363  0.0321  0.0562 -0.4392
  942MPD2    C413827   4.406   2.244   9.276 -0.2303  0.3686  0.3745
  942MPD2    C513828   4.300   2.324   9.299  0.0278  0.4376  0.0668
  942MPD2     H13829   4.592   2.359   9.524  0.8305 -0.1579 -1.2796
  942MPD2    H113830   4.406   2.171   9.196  2.8071 -0.0256  0.7321
  942MPD2    H213831   4.212   2.491   9.397  0.7859 -0.0501 -0.9680
  942MPD2    H313832   4.207   2.320   9.245 -0.1987  1.5303  0.3727
  942MPD2     N13833   4.622   2.156   9.345  0.1371  0.1585  0.5718
  942MPD2    H513834   4.606   2.093   9.268  0.4224 -1.0928  1.5404
  942MPD2    N113835   4.418   2.547   9.568 -0.2488  0.1076 -0.2071
  942MPD2    H713836   4.496   2.544   9.633 -0.3851 -1.5412 -0.1207
  943MPD2     C13837   3.888   0.471  10.080 -0.2559  0.0783 -0.0242
  943MPD2    C113838   3.770   0.428  10.137  0.3985  1.0163  0.2511
  943MPD2    C213839   3.698   0.519  10.213  0.1267  0.6892  0.4887
  943MPD2    C313840   3.734   0.654  10.232 -0.8460 -0.1779  0.2899
  943MPD2    C413841   3.856   0.690  10.180 -0.7108  0.5856  0.2654
  943MPD2    C513842   3.927   0.604  10.105  0.3391  0.6428  0.2415
  943MPD2     H13843   3.595   0.490  10.230  1.0330 -3.3555 -0.8666
  943MPD2    H113844   3.902   0.787  10.196 -2.7982  1.9326 -1.8910
  943MPD2    H213845   3.947   0.401  10.022 -0.7385 -0.3887  0.0533
  943MPD2    H313846   4.018   0.641  10.057 -0.9409  0.7481 -2.1141
  943MPD2     N13847   3.660   0.749  10.311 -0.1353 -0.2215 -0.4028
  943MPD2    H513848   3.685   0.846  10.299  1.8969 -0.6279  0.4823
  943MPD2    N113849   3.730   0.300  10.112 -0.0084  0.0804 -0.2328
  943MPD2    H713850   3.794   0.261  10.043  1.9644  1.0002  1.0875
  944MPD2     C13851   3.051   3.948  10.899 -0.1823  0.1961 -0.1346
  944MPD2    C113852   3.105   4.039  10.984 -0.5785  0.6973  0.1886
  944MPD2    C213853   3.059   4.036  11.116  0.6523 -0.4836 -0.7288
  944MPD2    C313854   2.963   3.944  11.157  0.5230  0.3507 -0.4160
  944MPD2    C413855   2.917   3.857  11.071  0.2426  0.1744  0.0663
  944MPD2    C513856   2.961   3.851  10.943 -0.6655  0.1596 -0.6106
  944MPD2     H13857   3.114   4.094  11.189 -0.8768  0.9703 -0.7135
  944MPD2    H113858   2.844   3.786  11.108  0.0711  0.0173 -0.5729
  944MPD2    H213859   3.077   3.950  10.794  0.4365 -1.3698 -0.0088
  944MPD2    H313860   2.929   3.785  10.864 -2.0419  0.8890 -0.6741
  944MPD2     N13861   2.920   3.925  11.297  0.7053  0.4587  0.1286
  944MPD2    H513862   2.859   3.845  11.313 -0.5030  1.5315  0.9350
  944MPD2    N113863   3.193   4.135  10.926 -0.0578  0.0461  0.0200
  944MPD2    H713864   3.211   4.131  10.826  0.5354 -0.3675  0.1403
    1TMC1    C113865   0.950   4.647  14.643 -0.6868 -0.2353  0.3753
    1TMC1    C213866   0.929   4.606  14.769  0.3979  0.1426 -0.0890
    1TMC1    C313867   0.809   4.541  14.794 -0.1035  0.1151 -0.5363
    1TMC1    C413868   0.868   4.624  14.535  1.4919 -0.0831  0.4250
    1TMC1    C513869   0.760   4.541  14.567  0.5540 -0.2739 -0.5249
    1TMC1    C613870   0.733   4.502  14.690  0.1083  0.8757 -0.0942
    1TMC1     C13871   1.058   0.008  14.628 -0.9095  0.3564 -0.1126
    1TMC1     O13872   1.150   4.735  14.710  0.5290  0.4838 -0.0339
    1TMC1     H13873   0.984   4.649  14.851 -0.7341  0.7874  0.3303
    1TMC1    H113874   0.890   4.646  14.431 -0.3150  0.0108  0.0579
    1TMC1    H213875   0.636   4.457  14.711  1.3107 -2.0730 -0.9318
    1TMC1    C713876   0.658   4.514  14.466 -0.6240  0.7029  0.0108
    1TMC1    C813877   0.780   4.489  14.927  0.4177 -0.2920  0.5096
    1TMC1    O113878   0.612   4.587  14.379 -0.1659  0.2665 -0.3117
    1TMC1    O213879   0.868   4.468  15.012 -0.7223  0.1301 -0.2063
    1TMC1    O313880   0.597   4.401  14.490 -0.3928  0.0029 -0.3923
    1TMC1    H313881   0.657   4.340  14.538 -0.4192  1.0277  0.9494
    1TMC1    O513882   0.648   4.500  14.958  0.2889 -0.3162 -0.1314
    1TMC1    H513883   0.592   4.525  14.881  1.9068  1.1221 -0.8361
    2MPD2     C13884   1.347   0.343  14.386 -0.2984  0.3763 -0.2801
    2MPD2    C113885   1.221   0.361  14.340  0.0355  0.3890  0.5878
    2MPD2    C213886   1.126   0.271  14.383  0.3512 -0.3956 -0.0339
    2MPD2    C313887   1.156   0.165  14.469 -0.1508 -0.3464 -0.0790
    2MPD2    C413888   1.289   0.137  14.505  0.3826 -0.0465 -0.0273
    2MPD2    C513889   1.383   0.231  14.458  0.3619 -1.1019  0.2415
    2MPD2     H13890   1.021   0.285  14.359  0.4824  0.5162 -0.0778
    2MPD2    H113891   1.319   0.056  14.570 -0.5326  0.2620  0.7797
    2MPD2    H213892   1.421   0.408  14.340  0.0606  1.3396  1.6508
    2MPD2    H313893   1.488   0.212  14.480  0.3261 -1.2120  0.3138
    2MPD2     N13894   1.055   0.078  14.507 -0.8384  0.6554 -1.5345
    2MPD2    H513895   0.978   0.086  14.441 -1.2695  0.9690 -0.9983
    2MPD2    N113896   1.191   0.478  14.269 -0.1320  0.0748  0.4891
    2MPD2    H713897   1.259   0.553  14.260  1.2911 -1.1952  0.6089
    3TMC2    C113898   1.092   0.642  14.144 -0.0292  0.1862 -0.7507
    3TMC2    C213899   1.172   0.733  14.214  0.6552  0.4208 -0.1231
    3TMC2    C313900   1.208   0.843  14.144  0.3042 -0.3783 -0.5545
    3TMC2    C413901   1.026   0.676  14.032  0.2762  0.7791 -0.0647
    3TMC2    C513902   1.047   0.790  13.974  0.4179 -0.3470 -0.5473
    3TMC2    C613903   1.141   0.870  14.025 -0.8488 -0.0353  0.1759
    3TMC2     C13904   1.074   0.504  14.192  0.5666  0.0713  0.6385
    3TMC2     O13905   0.993   0.421  14.152 -0.3625  0.5058 -0.1608
    3TMC2     H13906   1.229   0.711  14.303 -0.7807 -1.6719  0.2827
    3TMC2    H113907   0.959   0.597  13.998  1.6331 -1.0150  1.4268
    3TMC2    H213908   1.167   0.964  13.978  0.2392 -1.1084 -1.3744
    3TMC2    C713909   0.976   0.818  13.854  0.3907 -0.2461 -0.3473
    3TMC2    C813910   1.287   0.946  14.198 -0.6100 -0.2366  0.1576
    3TMC2    O113911   1.037   0.890  13.773 -0.7230 -0.4964  0.4544
    3TMC2    O213912   1.325   1.028  14.119 -0.4207  0.5052 -0.4498
    3TMC2    O513913   1.240   0.963  14.322 -0.3300  0.6062 -0.5101
    3TMC2    H513914   1.177   0.896  14.356  0.5988 -0.5163 -0.9665
    4TMC2    C113915   0.018   0.514  13.749 -0.3737 -0.4342 -0.1551
    4TMC2    C213916   4.706   0.462  13.865  0.0174 -0.6843  0.4621
    4TMC2    C313917   0.044   0.481  13.974 -0.4440  0.5821 -0.6916
    4TMC2    C413918   0.138   0.579  13.742 -0.3029 -0.3876  0.4553
    4TMC2    C513919   0.211   0.598  13.856 -0.2169 -0.8009  0.9950
    4TMC2    C613920   0.159   0.556  13.978 -0.8764 -0.4222 -0.6600
    4TMC2     C13921   4.673   0.491  13.627 -0.2936 -0.2011  0.0504
    4TMC2     O13922   4.575   0.421  13.639  0.2842 -0.0207  0.1256
    4TMC2     H13923   4.607   0.418  13.872 -0.5111  0.8920  2.8476
    4TMC2    H113924   0.181   0.607  13.647 -0.1904 -0.7206  0.4091
    4TMC2    H213925   0.214   0.565  14.071  0.1476  1.2689 -1.4237
    4TMC2    C713926   0.340   0.669  13.854  0.7086 -0.4199 -0.5386
    4TMC2    C813927   4.728   0.440  14.101 -0.0123  0.6036 -0.0217
    4TMC2    O113928   0.381   0.684  13.970 -0.4678 -0.5297 -0.1556
    4TMC2    O213929   0.052   0.466  14.208 -0.2468  0.1679  0.0218
    4TMC2    O513930   4.624   0.356  14.088 -0.0079  0.2688  0.1511
    4TMC2    H513931   4.587   0.359  13.997  1.4473  3.7247 -0.3413
    5MPD2     C13932   4.561   0.561  13.124 -0.2193 -0.8221  0.2406
    5MPD2    C113933   4.638   0.665  13.169 -0.4504  0.6420 -0.4458
    5MPD2    C213934   4.692   0.658  13.295  0.4149 -0.3501  0.0374
    5MPD2    C313935   4.651   0.564  13.387  0.2273 -0.1619  0.6348
    5MPD2    C413936   4.571   0.467  13.348  0.3574 -0.6001 -0.0557
    5MPD2    C513937   4.530   0.464  13.212 -0.0750  0.1250  0.2495
    5MPD2     H13938   0.022   0.738  13.323 -0.9417  0.6622  0.3467
    5MPD2    H113939   4.535   0.390  13.415 -0.2459  0.4233  0.8000
    5MPD2    H213940   4.534   0.568  13.019 -2.0473 -0.4053  0.7349
    5MPD2    H313941   4.462   0.387  13.180  0.1828  1.2393 -2.9925
    5MPD2     N13942   4.706   0.569  13.517  0.0660 -0.3822 -0.5216
    5MPD2    H513943   0.040   0.638  13.539  1.0972 -1.0500 -1.7710
    5MPD2    N113944   4.654   0.786  13.087  0.0772 -0.6244 -0.0975
    5MPD2    H713945   4.605   0.792  12.999 -1.8209 -0.8608  0.9531
    6MPD1     C13946   4.223   2.666  13.407  0.2306 -0.6149  0.3497
    6MPD1    C113947   4.355   2.654  13.366  0.1135  0.1534  0.4104
    6MPD1    C213948   4.396   2.524  13.338 -0.5514  0.2305 -0.6852
    6MPD1    C313949   4.316   2.415  13.355 -0.5519 -0.7726 -0.2852
    6MPD1    C413950   4.194   2.435  13.414 -0.4142 -0.8039 -0.3585
    6MPD1    C513951   4.144   2.558  13.440 -0.5676  0.9346 -0.2189
    6MPD1     H13952   4.497   2.506  13.305 -0.1219  0.6125  0.4274
    6MPD1    H113953   4.141   2.345  13.444  0.4580 -1.4224 -0.6662
    6MPD1    H213954   4.175   2.763  13.421 -0.4467 -0.9234  0.1786
    6MPD1    H313955   4.046   2.585  13.478 -0.4980  0.6312  0.1903
    6MPD1     N13956   4.355   2.278  13.343  0.3068 -0.0389 -0.3817
    6MPD1    H513957   4.289   2.207  13.374 -0.8901  0.4738 -1.7482
    6MPD1    N113958   4.441   2.765  13.338 -0.2488 -0.4187 -0.3483
    6MPD1    H613959   4.541   2.745  13.349 -0.0399 -0.2088 -1.8529
    6MPD1    H713960   4.417   2.836  13.407 -1.5486  0.4757 -1.7407
    7MPD2     C13961   4.205   1.527  13.105 -0.0122 -0.3493 -0.2173
    7MPD2    C113962   4.334   1.568  13.100 -0.2452  0.1256  0.1146
    7MPD2    C213963   4.427   1.491  13.018 -0.1634 -0.2104 -0.2058
    7MPD2    C313964   4.387   1.376  12.961 -1.2307  0.3841 -0.4326
    7MPD2    C413965   4.255   1.342  12.954  0.5152  0.0668 -0.3542
    7MPD2    C513966   4.163   1.417  13.036 -0.4051  0.0762  0.2882
    7MPD2     H13967   4.535   1.500  13.021 -0.4269  2.5982  0.3238
    7MPD2    H113968   4.228   1.255  12.897  0.9455 -0.8129  0.7825
    7MPD2    H213969   4.132   1.585  13.161  2.1488  0.4526  1.7690
    7MPD2    H313970   4.063   1.378  13.023 -0.2689 -0.5051  0.9625
    7MPD2     N13971   4.490   1.302  12.898 -1.2026 -0.1205  0.3531
    7MPD2    H513972   4.586   1.333  12.907 -1.2511  0.0338  0.3356
    7MPD2    N113973   4.388   1.687  13.154 -0.4838  0.0279 -0.0335
    7MPD2    H713974   4.484   1.706  13.128 -0.6266  1.5285  0.5128
    8TMC3    C113975   4.616   1.117  12.850 -0.2156 -0.6712  0.0625
    8TMC3    C213976   4.616   1.005  12.925  0.0204  0.4886  0.5136
    8TMC3    C313977   4.727   0.988  13.006  0.0776 -0.1487  0.2979
    8TMC3    C413978   4.722   1.204  12.840  0.0523 -0.5397  0.6702
    8TMC3    C513979   0.093   1.195  12.922  0.4628  0.1823  0.1365
    8TMC3    C613980   0.099   1.085  13.007  0.2355  0.2970  0.7458
    8TMC3     C13981   4.484   1.173  12.845 -0.5083 -0.2300  0.6093
    8TMC3     O13982   4.393   1.098  12.825  0.5337 -0.2550 -0.2370
    8TMC3     H13983   4.524   0.957  12.957  2.3516 -3.8750  0.5415
    8TMC3    H113984   4.720   1.282  12.765 -1.1832  0.7357  2.0375
    8TMC3    H213985   0.176   1.078  13.084 -0.0291 -1.9466  0.8061
    8TMC3    C713986   0.106   1.324  12.990 -0.0778 -0.3021 -0.2238
    8TMC3    C813987   4.722   0.899  13.124 -0.2585 -0.2202  0.5521
    8TMC3    O113988   0.004   1.389  12.973 -0.2584 -0.4328  0.4307
    8TMC3    O213989   0.074   0.913  13.209 -0.0636 -0.1600 -0.0586
    9TMC3    C113990   4.498   2.100  13.296 -0.5034 -0.2033  0.2714
    9TMC3    C213991   4.628   2.058  13.305 -0.9534 -0.5157 -0.6628
    9TMC3    C313992   4.655   1.923  13.302  0.3581  0.2424  0.2019
    9TMC3    C413993   4.392   2.009  13.283 -0.5165  0.2446 -0.0296
    9TMC3    C513994   4.423   1.875  13.279 -0.0393 -0.0430 -0.8721
    9TMC3    C613995   4.552   1.829  13.288 -0.4368 -0.1376  0.0792
    9TMC3     C13996   4.474   2.238  13.276  0.5062  0.0689 -0.0197
    9TMC3     O13997   4.565   2.305  13.230  0.9386  0.2296  0.5331
    9TMC3     H13998   4.712   2.126  13.313  0.2597 -1.8408 -2.5219
    9TMC3    H113999   4.290   2.035  13.257 -0.6128 -1.2846 -1.1674
    9TMC3    H214000   4.579   1.724  13.299  0.4276  0.1562  0.7803
    9TMC3    C714001   4.320   1.785  13.224  0.4229 -0.7688 -1.0416
    9TMC3    C814002   0.056   1.873  13.310 -0.5772  0.1667 -0.3920
    9TMC3    O114003   4.206   1.797  13.257 -0.2060  0.1023 -0.2092
    9TMC3    O214004   0.138   1.914  13.395  0.4408  1.1253 -0.6177
   10MPD2     C14005   0.386   1.485  13.174 -0.1173  0.1985  0.3066
   10MPD2    C114006   0.255   1.459  13.126 -0.5123 -0.2558 -0.2997
   10MPD2    C214007   0.156   1.556  13.159 -0.4519 -0.2039 -0.0840
   10MPD2    C314008   0.178   1.673  13.220 -0.5571  0.1618  0.1313
   10MPD2    C414009   0.308   1.699  13.259 -0.1324 -0.2722  0.0603
   10MPD2    C514010   0.408   1.608  13.233 -0.5315 -0.2811 -0.4146
   10MPD2     H14011   0.054   1.543  13.128  0.0106  0.0359 -1.6801
   10MPD2    H114012   0.337   1.799  13.290  0.8034 -0.9589  1.4635
   10MPD2    H214013   0.479   1.432  13.157  0.3855  0.5216  2.0176
   10MPD2    H314014   0.508   1.640  13.258 -0.0849 -2.0682  0.1057
   10MPD2     N14015   0.073   1.769  13.221  0.3342  0.2157 -0.3209
   10MPD2    H514016   4.734   1.752  13.154 -1.1897 -0.3759  1.5392
   10MPD2    N114017   0.226   1.341  13.058  0.5460 -0.5039 -0.0081
   10MPD2    H714018   0.301   1.273  13.062 -0.4166 -1.4468  2.0000
   11MPD2     C14019   0.771   0.866  13.646 -0.7237 -0.2944  0.2636
   11MPD2    C114020   0.743   0.810  13.767  0.1530  0.6436 -0.2136
   11MPD2    C214021   0.619   0.760  13.803  0.2287  0.2536  0.3663
   11MPD2    C314022   0.516   0.769  13.714 -0.4357 -0.4829 -0.2750
   11MPD2    C414023   0.540   0.830  13.592  0.4743  0.0387 -0.4724
   11MPD2    C514024   0.665   0.874  13.560 -0.0497  0.5136 -0.3468
   11MPD2     H14025   0.604   0.717  13.902  1.5236 -0.6094  0.1925
   11MPD2    H114026   0.460   0.833  13.519 -0.5331  1.7795  0.6855
   11MPD2    H214027   0.867   0.908  13.616 -1.1135 -1.1312 -2.2242
   11MPD2    H314028   0.676   0.932  13.469 -2.7780 -0.9703 -1.6428
   11MPD2     N14029   0.385   0.718  13.737 -0.1658 -0.0657  0.5410
   11MPD2    H514030   0.332   0.705  13.652  2.3462 -0.7816 -0.9052
   11MPD2    N114031   0.839   0.793  13.865  0.2095 -0.7768  0.7910
   11MPD2    H714032   0.813   0.748  13.953 -0.9634 -0.0748  0.8006
    1MPD1     C14033   3.131   3.459   0.072 -0.4116  0.0061 -0.1453
    1MPD1    C114034   3.178   3.333   0.093 -0.3823 -0.4284  0.5780
    1MPD1    C214035   3.080   3.232   0.108  0.0726  0.3337 -0.4547
    1MPD1    C314036   2.942   3.251   0.086 -0.0247 -0.2439  0.6144
    1MPD1    C414037   2.905   3.375   0.051  0.0591 -0.1668  0.2931
    1MPD1    C514038   2.995   3.475   0.056  0.0128  0.8866  0.2311
    1MPD1     H14039   3.117   3.133   0.132 -0.1047  0.7071  1.3617
    1MPD1    H114040   2.802   3.400   0.026 -0.2356 -2.1147 -0.3789
    1MPD1    H214041   3.191   3.549   0.083 -0.1058 -0.1354 -0.6667
    1MPD1    H314042   2.964   3.576   0.030 -2.4846  0.1307  0.2717
    1MPD1     N14043   2.845   3.150   0.080  0.5511  0.3373  0.3790
    1MPD1    H514044   2.749   3.172   0.058  0.0979 -1.2155  0.8236
    1MPD1    N114045   3.309   3.306   0.125 -0.0496 -0.0899 -0.0243
    1MPD1    H614046   3.327   3.208   0.103  1.2770 -0.3652  2.3018
    1MPD1    H714047   3.372   3.361   0.068  0.2410 -1.4445 -1.0237
    2MPD1     C14048   2.894   2.169   0.391 -0.2506  0.4118 -0.0152
    2MPD1    C114049   2.980   2.279   0.403 -0.7875  0.7338 -0.3435
    2MPD1    C214050   2.935   2.401   0.352  0.3817 -0.6867  0.0612
    2MPD1    C314051   2.805   2.416   0.299  0.4759 -0.1678  0.1852
    2MPD1    C414052   2.721   2.303   0.295 -0.4429 -0.3561  0.5014
    2MPD1    C514053   2.770   2.185   0.336  0.5050 -0.1170 -0.4176
    2MPD1     H14054   3.001   2.487   0.351  1.4862 -1.5426 -0.6330
    2MPD1    H114055   2.623   2.310   0.250 -0.9143  0.3088  1.6469
    2MPD1    H214056   2.920   2.075   0.438  0.9425  1.4341  1.3525
    2MPD1    H314057   2.704   2.100   0.322  0.1445  0.5120 -2.5224
    2MPD1     N14058   2.776   2.549   0.245  0.1658  0.0864  0.0009
    2MPD1    H514059   2.845   2.623   0.257 -0.9745  1.2029 -0.3763
    2MPD1    N114060   3.104   2.264   0.459 -0.5174  0.5681 -0.0412
    2MPD1    H614061   3.110   2.231   0.555  0.2807  0.8579  0.0078
    2MPD1    H714062   3.157   2.351   0.459 -0.3193  0.4484 -1.0132
    3TMC3    C114063   2.665   2.716   0.110 -0.2607 -0.4360  0.1664
    3TMC3    C214064   2.559   2.750   0.031  0.2465  0.1091  0.1483
    3TMC3    C314065   2.562   2.877  17.720 -0.2485 -0.1891  0.3577
    3TMC3    C414066   2.769   2.804   0.138  0.5681  0.2646 -0.3637
    3TMC3    C514067   2.751   2.937   0.100 -1.4597  0.2745 -0.4503
    3TMC3    C614068   2.645   2.973   0.019 -0.3586  0.3166 -0.0127
    3TMC3     C14069   2.665   2.580   0.171  0.5143 -0.0329 -0.6569
    3TMC3     O14070   2.575   2.509   0.132  0.1565  0.9008  0.0563
    3TMC3     H14071   2.487   2.675   0.002  0.8764  0.4007 -2.2114
    3TMC3    H114072   2.852   2.770   0.199  0.8705  0.7565 -0.4967
    3TMC3    H214073   2.627   3.073  17.723  0.5740  0.1321 -0.9444
    3TMC3    C714074   2.870   3.020   0.115 -0.2496 -0.0953 -0.0630
    3TMC3    C814075   2.507   2.894  17.586 -0.2523  0.4906  0.6647
    3TMC3    O114076   2.965   2.970   0.169  0.2648 -0.5810  0.0369
    3TMC3    O214077   2.534   2.999  17.530 -0.4282 -0.5251  0.6144
    4MPD1     C14078   2.151   2.871  17.226  0.1081  0.4780 -0.3044
    4MPD1    C114079   2.154   2.752  17.291  0.5171 -0.0962  0.2884
    4MPD1    C214080   2.220   2.745  17.413 -0.2888  0.1504  0.4645
    4MPD1    C314081   2.303   2.850  17.457 -0.3612 -0.6439  0.1923
    4MPD1    C414082   2.294   2.962  17.385 -0.0370  0.4247 -0.1142
    4MPD1    C514083   2.218   2.973  17.279 -0.4206 -0.0969 -0.1719
    4MPD1     H14084   2.207   2.662  17.482 -0.5537  1.8515  2.4618
    4MPD1    H114085   2.340   3.053  17.423 -1.1465  0.6887  0.6198
    4MPD1    H214086   2.082   2.894  17.145 -2.3599 -0.6171  1.4760
    4MPD1    H314087   2.221   3.068  17.227  2.5011  0.0821  0.3228
    4MPD1     N14088   2.396   2.819  17.558 -0.1161 -0.3543  0.7232
    4MPD1    H514089   2.389   2.729  17.603 -1.7610 -0.9657 -0.7788
    4MPD1    N114090   2.079   2.642  17.252  0.1849  0.6116  0.3034
    4MPD1    H614091   2.053   2.641  17.154 -1.9228 -1.1358  0.8765
    4MPD1    H714092   2.133   2.557  17.269 -0.5567  0.0682 -0.0536
    1TCq1    O114093   4.420   1.953  11.892  0.1446 -0.8234  0.4032
    1TCq1    C114094   4.385   1.849  11.808  0.3689 -0.6637  0.7497
    1TCq1    O214095   4.289   1.856  11.736 -0.2605 -0.0786  0.5972
    1TCq1    C214096   4.396   1.741  11.899  0.5119  0.2740  1.0016
    1TCq1    C314097   4.277   1.690  11.946 -0.1115 -0.5078  0.3472
    1TCq1    C414098   4.271   1.572  12.005  0.0152  0.1885 -0.8452
    1TCq1    C514099   4.387   1.515  12.050 -0.2612 -0.0473 -0.0122
    1TCq1    C614100   4.501   1.561  11.992 -0.0032  0.4397 -0.6007
    1TCq1    C714101   4.513   1.672  11.915  0.1433 -1.0588  0.2618
    1TCq1    C814102   4.631   1.510  12.034 -0.0783  0.5660  0.3038
    1TCq1    O414103   4.733   1.569  11.998  0.2750  1.0459  0.0165
    1TCq1    C914104   4.146   1.522  12.060  0.0661  0.1354 -0.4560
    1TCq1    O514105   4.046   1.583  12.027  0.4140 -0.1014  0.4722
    1TCq1    O614106   4.148   1.416  12.124 -0.1053 -0.2385  0.1512
    1TCq1    H114107   4.483   1.917  11.958 -0.4571  0.7473  1.8349
    1TCq1    H214108   4.183   1.727  11.908  0.1834  0.6228  0.6855
    1TCq1    H314109   4.373   1.420  12.100 -2.3582  1.1684  1.6758
    1TCq1    H414110   4.611   1.710  11.889  0.3308 -1.0657  0.9728
    2MPD1     C14111   0.157   1.280  12.406  0.0476  0.5175  0.2315
    2MPD1    C114112   0.032   1.228  12.397 -0.4424 -0.2499 -0.5362
    2MPD1    C214113   4.687   1.273  12.300  0.0163  0.1716  0.1449
    2MPD1    C314114   4.724   1.364  12.198  0.0436 -1.0200 -0.0510
    2MPD1    C414115   0.117   1.400  12.200  0.3717 -0.3474  0.0260
    2MPD1    C514116   0.199   1.352  12.297  0.4601 -0.6677 -0.1389
    2MPD1     H14117   4.584   1.239  12.306 -0.4452  1.4755 -0.4837
    2MPD1    H114118   0.156   1.465  12.123  0.5727  2.0108  2.1294
    2MPD1    H214119   0.218   1.271  12.494 -0.5337  4.3456  1.0272
    2MPD1    H314120   0.303   1.382  12.304 -0.0442  0.5729  2.1578
    2MPD1     N14121   4.619   1.411  12.122  0.1454 -0.2907 -0.8864
    2MPD1    H514122   4.524   1.378  12.139  0.6445  0.4493  3.1769
    2MPD1    N114123   0.001   1.143  12.505 -0.0922  0.0661  0.1776
    2MPD1    H614124   0.086   1.109  12.549  0.2409 -0.7923 -1.1387
    2MPD1    H714125   4.674   1.069  12.477 -2.0648  1.6853  0.3750
    1TMC1    C114126   2.566   0.979   0.719 -0.6442  0.2702 -0.5204
    1TMC1    C214127   2.616   0.867   0.780  0.1550 -0.3001  0.8945
    1TMC1    C314128   2.739   0.821   0.739 -0.6921 -0.2419  0.7285
    1TMC1    C414129   2.638   1.044   0.620 -0.1679  0.1159  0.2846
    1TMC1    C514130   2.764   0.997   0.585  0.5232 -0.1276  0.4884
    1TMC1    C614131   2.816   0.898   0.659 -0.2167  0.1904 -1.1650
    1TMC1     C14132   2.449   1.046   0.769 -0.6267  0.2051  0.0701
    1TMC1     O14133   2.450   1.168   0.745  0.3642  0.1828  0.4899
    1TMC1     H14134   2.556   0.814   0.854  0.6803 -1.1774  0.6876
    1TMC1    H114135   2.615   1.144   0.584 -1.7851  0.5723  2.6219
    1TMC1    H214136   2.924   0.881   0.659 -0.1967  0.3307  0.1163
    1TMC1    C714137   2.858   1.095   0.531  0.2739 -0.0340 -0.3312
    1TMC1    C814138   2.784   0.686   0.783  0.1678  0.0772  0.1653
    1TMC1    O114139   2.965   1.112   0.586 -0.5414 -0.2249  0.3604
    1TMC1    O214140   2.903   0.644   0.775  0.5688  0.5818  0.8232
    1TMC1    O314141   2.843   1.084   0.399  0.1699  0.4901  0.3749
    1TMC1    H314142   2.764   1.034   0.370  1.4228 -0.7782 -0.8785
    1TMC1    O514143   2.677   0.610   0.788 -0.1484  0.1404  0.1782
    1TMC1    H514144   2.605   0.642   0.729 -1.3419  0.5523  1.8597
    2MPD1     C14145   2.055   1.098   1.093 -0.1226  0.3854  0.6041
    2MPD1    C114146   2.096   0.965   1.090  0.9573 -0.0781  0.0047
    2MPD1    C214147   2.179   0.926   0.996 -0.0373 -0.1497 -0.3443
    2MPD1    C314148   2.259   1.019   0.927 -0.0150  0.1216 -0.5000
    2MPD1    C414149   2.226   1.155   0.940  0.4117  0.6352  0.8478
    2MPD1    C514150   2.119   1.188   1.014 -0.6147  0.0915  0.5149
    2MPD1     H14151   2.210   0.825   0.974 -0.1854 -0.7423  2.1749
    2MPD1    H114152   2.287   1.234   0.898 -0.8152 -0.3175 -2.7031
    2MPD1    H214153   1.975   1.139   1.153 -0.9815 -0.4453  0.0121
    2MPD1    H314154   2.097   1.294   1.026 -2.1127 -0.1310 -0.2320
    2MPD1     N14155   2.364   0.968   0.850  0.2553  0.4058 -0.0363
    2MPD1    H514156   2.397   0.873   0.864  0.7071  0.2741 -1.9386
    2MPD1    N114157   2.023   0.865   1.166 -0.3338 -0.3836 -0.2739
    2MPD1    H614158   1.995   0.904   1.255 -0.8488  0.0844 -0.6439
    2MPD1    H714159   2.088   0.787   1.178 -0.7266 -0.8895 -1.3356
    1MPD1     C14160   1.182   1.721  12.226 -0.3273  0.4860  0.6345
    1MPD1    C114161   1.193   1.830  12.146  0.7548  0.8720  0.6591
    1MPD1    C214162   1.317   1.870  12.111  0.3426  0.1785 -0.1621
    1MPD1    C314163   1.438   1.796  12.129 -0.2194 -0.0769 -0.1528
    1MPD1    C414164   1.418   1.677  12.187 -0.5841 -0.4648  0.3666
    1MPD1    C514165   1.292   1.642  12.232  0.5854 -0.7952 -0.2338
    1MPD1     H14166   1.322   1.950  12.038 -0.3258 -0.8119 -1.3088
    1MPD1    H114167   1.500   1.612  12.218  0.9235  0.0727 -2.5013
    1MPD1    H214168   1.090   1.688  12.274  0.9804 -1.1049  2.0390
    1MPD1    H314169   1.286   1.544  12.278  0.7798 -1.8093 -2.4019
    1MPD1     N14170   1.560   1.847  12.079  0.0834 -0.4663 -0.6530
    1MPD1    H514171   1.559   1.940  12.040 -1.0528 -1.0038 -1.9144
    1MPD1    N114172   1.094   1.916  12.137  0.7075  0.1475 -0.2017
    1MPD1    H614173   1.096   1.987  12.064  2.7291 -1.4373 -1.7002
    1MPD1    H714174   1.003   1.870  12.135  0.7572  0.0695 -0.8310
    2MPD1     C14175   1.480   2.053  10.694 -0.3077  0.5524 -0.2462
    2MPD1    C114176   1.462   1.997  10.569  0.0376  0.3993 -0.1671
    2MPD1    C214177   1.557   2.010  10.473  0.6617 -0.4438  0.1228
    2MPD1    C314178   1.674   2.076  10.498 -0.6019 -0.5300 -0.1595
    2MPD1    C414179   1.702   2.113  10.627 -0.3109  0.4870 -0.0791
    2MPD1    C514180   1.605   2.108  10.726 -0.2219  0.9454 -0.2623
    2MPD1     H14181   1.538   1.984  10.370 -4.0498  1.9040  0.4015
    2MPD1    H114182   1.799   2.150  10.659  0.5373 -0.8536 -1.1247
    2MPD1    H214183   1.407   2.054  10.774  0.9547 -1.2595  0.9221
    2MPD1    H314184   1.632   2.135  10.827  0.0340 -0.7270  0.1090
    2MPD1     N14185   1.778   2.094  10.404  0.1617  1.0429 -0.1584
    2MPD1    H514186   1.855   2.154  10.430 -1.6879  2.8905  1.0575
    2MPD1    N114187   1.344   1.920  10.551 -0.1786  0.1164  0.0516
    2MPD1    H614188   1.322   1.888  10.457  1.0985  0.2009 -0.2782
    2MPD1    H714189   1.262   1.968  10.587 -1.5510  0.2486 -3.1994
    3MPD1     C14190   1.993   2.308   9.382 -0.2448  0.3530 -0.2466
    3MPD1    C114191   1.975   2.419   9.464  0.1144 -0.1837  0.3407
    3MPD1    C214192   1.950   2.395   9.606 -0.0688 -0.1994 -0.6262
    3MPD1    C314193   1.972   2.266   9.659 -0.9324  0.3510 -0.8665
    3MPD1    C414194   2.002   2.160   9.569 -0.6251  0.3212  0.0836
    3MPD1    C514195   2.004   2.183   9.435 -0.1332  0.1730  0.4191
    3MPD1     H14196   1.924   2.480   9.669 -0.5507 -0.5336 -0.3720
    3MPD1    H114197   2.020   2.061   9.609 -1.6241  0.6862  1.4294
    3MPD1    H214198   2.008   2.314   9.275 -0.3891 -1.8281 -0.3921
    3MPD1    H314199   2.040   2.100   9.376 -1.1524 -0.5592  0.8160
    3MPD1     N14200   1.949   2.250   9.794  0.0545  0.2675 -0.4756
    3MPD1    H514201   1.911   2.323   9.853  1.1463  0.0574  0.4640
    3MPD1    N114202   1.929   2.542   9.415  0.1810 -0.4319 -0.6380
    3MPD1    H614203   1.971   2.553   9.323 -0.1469  0.1545 -0.7164
    3MPD1    H714204   1.960   2.616   9.477 -0.1226  2.0009 -3.4052
    4MPD2     C14205   1.779   2.389  11.658  0.4181  0.5945  0.0023
    4MPD2    C114206   1.899   2.341  11.689  0.6952  0.5326 -0.1904
    4MPD2    C214207   2.011   2.380  11.611  0.1928  0.1615 -0.6992
    4MPD2    C314208   1.993   2.450  11.495  0.2893  0.7406  0.6691
    4MPD2    C414209   1.866   2.499  11.464  0.6038  0.4211  0.0216
    4MPD2    C514210   1.763   2.468  11.550 -0.3088 -0.3786 -0.5639
    4MPD2     H14211   2.109   2.339  11.632 -0.5204 -1.2732 -0.1675
    4MPD2    H114212   1.834   2.555  11.377 -0.2669 -0.1799 -0.0421
    4MPD2    H214213   1.694   2.369  11.721  2.7668  0.1893  3.0595
    4MPD2    H314214   1.660   2.499  11.531 -0.2471 -0.3831 -0.9174
    4MPD2     N14215   2.104   2.456  11.410 -0.6660  0.1455  0.2289
    4MPD2    H514216   2.186   2.404  11.437  0.7640  2.4217  0.2943
    4MPD2    N114217   1.925   2.244  11.789 -0.0564  0.1881  0.3278
    4MPD2    H714218   2.018   2.205  11.787 -0.0724  0.1946 -1.0152
    5TMC3    C114219   1.882   2.069  11.954 -0.0220  0.4321 -0.4241
    5TMC3    C214220   1.782   2.003  12.011 -0.3965  0.7378  0.2405
    5TMC3    C314221   1.793   1.862  12.019 -0.5895  0.2225 -0.6399
    5TMC3    C414222   1.990   2.006  11.899  0.0051 -0.0643  0.2165
    5TMC3    C514223   2.000   1.868  11.904  0.4063  0.0928  0.0997
    5TMC3    C614224   1.900   1.796  11.958  0.5839 -0.1807 -0.8898
    5TMC3     C14225   1.827   2.182  11.876  0.2990 -0.3821 -0.2021
    5TMC3     O14226   1.716   2.223  11.905  0.1283  0.8366 -0.1366
    5TMC3     H14227   1.693   2.052  12.048 -0.9637  0.4487 -0.7349
    5TMC3    H114228   2.081   2.064  11.888 -0.1589  0.4269  1.4653
    5TMC3    H214229   1.900   1.688  11.967 -0.5945 -0.2892 -2.3113
    5TMC3    C714230   2.105   1.795  11.827  0.1554  0.7858 -0.0073
    5TMC3    C814231   1.686   1.779  12.073 -0.3440  0.1941 -0.1544
    5TMC3    O114232   2.089   1.674  11.811 -0.4014  0.1063  0.0961
    5TMC3    O214233   1.709   1.662  12.102  0.9126 -0.2393 -0.0223
    6TMC3    C114234   1.880   2.109  10.193  0.0971  0.0743  0.1266
    6TMC3    C214235   1.874   2.134  10.058 -0.1443 -0.0174 -0.0788
    6TMC3    C314236   1.998   2.165  10.001 -0.6953 -0.1970  0.5596
    6TMC3    C414237   1.994   2.121  10.262 -0.2800 -0.0816  0.1461
    6TMC3    C514238   2.108   2.144  10.198 -0.0945  0.4063  0.5128
    6TMC3    C614239   2.116   2.163  10.070  0.4153  0.0517  0.1581
    6TMC3     C14240   1.758   2.083  10.268  0.0397  0.2593  0.0367
    6TMC3     O14241   1.667   2.051  10.197 -0.6289 -0.2674  0.5003
    6TMC3     H14242   1.784   2.125   9.998 -0.4951 -0.3756  0.5103
    6TMC3    H114243   1.999   2.075  10.360 -1.2931  1.9706  1.1728
    6TMC3    H214244   2.214   2.169  10.023 -0.3531 -2.0943 -1.7222
    6TMC3    C714245   2.232   2.137  10.277  0.0762 -0.5304  0.4941
    6TMC3    C814246   2.009   2.145   9.857 -0.5248  0.4240  0.0594
    6TMC3    O114247   2.331   2.104  10.218  0.0141 -0.2948 -0.0194
    6TMC3    O214248   2.096   2.064   9.826 -1.0588  0.7084 -0.1216
    7MPD2     C14249   2.332   1.830  11.381 -0.3015 -0.2080 -0.2598
    7MPD2    C114250   2.324   1.951  11.436 -0.2340  0.6906 -0.0587
    7MPD2    C214251   2.296   1.966  11.567 -0.1776  0.4615 -0.2270
    7MPD2    C314252   2.246   1.856  11.629  0.0545  0.0944 -0.3488
    7MPD2    C414253   2.246   1.727  11.576 -0.4174 -0.1126  0.5136
    7MPD2    C514254   2.304   1.720  11.453  0.3459  0.3651  1.1026
    7MPD2     H14255   2.314   2.061  11.617 -0.2797 -0.1652  1.0100
    7MPD2    H114256   2.216   1.636  11.627 -0.0319 -2.5221 -3.5587
    7MPD2    H214257   2.370   1.818  11.280  0.5246  1.4310 -0.1379
    7MPD2    H314258   2.317   1.626  11.402 -1.0957 -0.2742  1.9113
    7MPD2     N14259   2.185   1.886  11.757  0.1856  0.6032  0.1513
    7MPD2    H514260   2.185   1.983  11.788  1.0656  0.8969 -0.7852
    7MPD2    N114261   2.351   2.063  11.354  0.5007  0.9155 -0.3131
    7MPD2    H714262   2.379   2.045  11.258  1.5319  0.4535  0.0754
    8TMC3    C114263   2.363   2.285  11.273  0.5672  0.4653  0.3467
    8TMC3    C214264   2.349   2.225  11.146 -0.7364  0.1044  0.3209
    8TMC3    C314265   2.281   2.313  11.056  0.6679 -0.3730  0.0134
    8TMC3    C414266   2.319   2.408  11.306  0.2121 -0.3122  0.7981
    8TMC3    C514267   2.230   2.476  11.221  0.0504 -0.4768 -0.1537
    8TMC3    C614268   2.213   2.426  11.096  0.6799  0.2106 -0.2875
    8TMC3     C14269   2.332   2.193  11.384  0.3230 -0.4114 -1.0272
    8TMC3     O14270   2.291   2.245  11.490 -0.3033  0.1339 -0.0659
    8TMC3     H14271   2.386   2.127  11.117 -0.2479 -0.3028  2.2824
    8TMC3    H114272   2.333   2.452  11.404 -2.8904  0.7443  0.7736
    8TMC3    H214273   2.158   2.485  11.023  1.9050  1.5385 -0.1461
    8TMC3    C714274   2.110   2.522  11.286 -0.2774  0.3390 -0.1286
    8TMC3    C814275   2.267   2.276  10.917 -0.9240  0.3898 -0.1679
    8TMC3    O114276   2.016   2.564  11.216  0.0054  0.3509 -0.1392
    8TMC3    O214277   2.180   2.336  10.853  0.1964 -0.5089 -0.2292
    9MPD2     C14278   2.483   2.059  10.707 -0.1556  0.2372  0.2089
    9MPD2    C114279   2.378   2.138  10.737  0.5217  0.5921 -0.3003
    9MPD2    C214280   2.283   2.178  10.641  0.5538  0.8943 -0.3245
    9MPD2    C314281   2.296   2.128  10.514  0.0107  0.1254  0.0776
    9MPD2    C414282   2.405   2.042  10.484 -0.4419  0.0817  0.3072
    9MPD2    C514283   2.485   2.000  10.585  0.4524 -0.1991 -0.4753
    9MPD2     H14284   2.193   2.226  10.675 -0.9879 -1.8133 -0.5883
    9MPD2    H114285   2.415   1.989  10.390  2.1355  0.1450  0.5341
    9MPD2    H214286   2.565   2.025  10.769 -0.8216 -0.6433  0.6059
    9MPD2    H314287   2.559   1.931  10.545  1.1035  1.3097 -1.8548
    9MPD2     N14288   2.209   2.167  10.409 -0.2703 -0.7911  0.1755
    9MPD2    H514289   2.126   2.219  10.436  0.4177 -0.8642  2.3940
    9MPD2    N114290   2.359   2.182  10.873  0.1871  0.9954  0.0473
    9MPD2    H714291   2.429   2.147  10.936 -1.5812 -1.8597  0.3951
    1MPD1     C14292   1.903   1.614  16.063  0.4713  0.5543  0.1566
    1MPD1    C114293   1.772   1.609  16.026 -0.5197  0.5521  0.5803
    1MPD1    C214294   1.676   1.575  16.116 -0.8802 -0.2591 -0.1662
    1MPD1    C314295   1.706   1.519  16.236 -0.4959  0.5899 -0.1801
    1MPD1    C414296   1.844   1.492  16.262  0.6275 -0.1806 -0.2015
    1MPD1    C514297   1.938   1.551  16.183  0.6636  0.6179 -0.2591
    1MPD1     H14298   1.571   1.587  16.092 -0.3157  0.6007 -2.1527
    1MPD1    H114299   1.873   1.448  16.357 -0.4444 -1.6992 -0.5789
    1MPD1    H214300   1.988   1.658  16.011 -0.9787  0.4958 -2.3003
    1MPD1    H314301   2.043   1.543  16.209  1.0046  1.3384 -1.4574
    1MPD1     N14302   1.608   1.464  16.324  0.0382  0.2495 -0.1725
    1MPD1    H514303   1.654   1.407  16.395 -1.3365 -0.4217  0.1737
    1MPD1    N114304   1.726   1.668  15.908 -0.7996  0.2782 -0.0738
    1MPD1    H614305   1.643   1.617  15.878 -0.0843 -1.1495  0.4098
    1MPD1    H714306   1.794   1.673  15.833 -0.9806 -0.7244 -0.2958
    2TMC2    C114307   1.186   1.343  16.484  0.9685  0.1152  0.2020
    2TMC2    C214308   1.220   1.385  16.610  0.3706 -0.0764 -0.2755
    2TMC2    C314309   1.352   1.411  16.630  0.0383  0.7966 -0.1328
    2TMC2    C414310   1.279   1.337  16.386  0.0808  0.2448  0.0009
    2TMC2    C514311   1.405   1.381  16.414 -0.1512 -0.4277 -0.2379
    2TMC2    C614312   1.449   1.406  16.534  0.6578  0.9722  0.2592
    2TMC2     C14313   1.044   1.337  16.453  0.2077 -0.2705  0.5186
    2TMC2     O14314   0.964   1.368  16.539  0.5592  1.0309 -0.3580
    2TMC2     H14315   1.145   1.392  16.689  2.1411  1.1953  1.2827
    2TMC2    H114316   1.253   1.324  16.281 -1.2662 -0.5108  0.4367
    2TMC2    H214317   1.542   1.458  16.550  0.5540  1.9438 -2.3113
    2TMC2    C714318   1.472   1.450  16.307 -0.6405 -0.0727 -0.5874
    2TMC2    C814319   1.376   1.468  16.762 -0.4789 -0.0663 -0.5673
    2TMC2    O114320   1.399   1.504  16.223 -0.3296 -0.5320 -0.5183
    2TMC2    O214321   1.315   1.571  16.789 -0.0019 -0.0644 -0.0398
    2TMC2    O514322   1.507   1.443  16.770 -0.0431 -0.6133  0.4549
    2TMC2    H514323   1.519   1.347  16.753 -1.2656 -0.6900  0.0232
    3MPD1     C14324   0.634   1.208  16.157 -0.5657  0.1257 -0.4862
    3MPD1    C114325   0.746   1.143  16.109 -0.2332  0.1461 -0.1033
    3MPD1    C214326   0.873   1.183  16.161 -0.2373  0.4270  0.6970
    3MPD1    C314327   0.888   1.269  16.268  0.4756 -0.2086 -0.0924
    3MPD1    C414328   0.775   1.333  16.313  0.4155  0.1495 -0.0986
    3MPD1    C514329   0.650   1.307  16.250 -0.7506  0.0028 -0.1275
    3MPD1     H14330   0.962   1.137  16.120 -1.5026 -2.7407  1.4894
    3MPD1    H114331   0.776   1.398  16.400  1.0345  2.7237 -2.0093
    3MPD1    H214332   0.534   1.194  16.116 -0.0239 -0.5105 -1.5969
    3MPD1    H314333   0.563   1.359  16.290 -0.5424 -0.3843  0.8219
    3MPD1     N14334   1.015   1.279  16.324  0.2335  0.6491  0.3451
    3MPD1    H514335   1.083   1.234  16.264  0.9458 -0.6214  2.0952
    3MPD1    N114336   0.739   1.068  15.988 -0.2253  0.3135  0.7876
    3MPD1    H614337   0.810   0.996  15.985 -1.7731 -1.1357 -0.6898
    3MPD1    H714338   0.645   1.036  15.967 -0.0390 -0.2920  0.8919
    1TMC1    C114339   3.720   0.138  12.808 -0.5330 -0.1991  0.6824
    1TMC1    C214340   3.663   0.218  12.905 -0.2887 -0.0521 -0.2764
    1TMC1    C314341   3.531   0.233  12.913  0.1524  0.1979 -0.0027
    1TMC1    C414342   3.634   0.062  12.729  0.5265 -0.1532  0.6273
    1TMC1    C514343   3.497   0.077  12.741 -0.2996 -1.0588  0.4361
    1TMC1    C614344   3.445   0.162  12.831 -0.3870  0.4197 -0.4378
    1TMC1     C14345   3.856   0.113  12.814  0.9006 -0.3252  0.1156
    1TMC1     O14346   3.903   0.052  12.720 -0.1156 -0.1237  0.0086
    1TMC1     H14347   3.719   0.291  12.963 -0.5493 -1.7092  2.0935
    1TMC1    H114348   3.679   0.012  12.644  3.4220  3.9593 -0.2521
    1TMC1    H214349   3.341   0.182  12.852  0.6449  1.7303  3.4257
    1TMC1    C714350   3.418   0.020  12.633 -0.0592 -0.0089 -0.0167
    1TMC1    C814351   3.513   0.371  12.956 -0.3080 -0.5982  0.1987
    1TMC1    O114352   3.458   4.731  12.517 -0.3620  0.1690 -0.0159
    1TMC1    O214353   3.589   0.464  12.931  0.4590  0.3399  0.1037
    1TMC1    O314354   3.291   0.006  12.675 -0.0883 -0.6937  0.0219
    1TMC1    H314355   3.281   4.736  12.772  0.9751 -0.5901  0.1349
    1TMC1    O514356   3.468   0.355  13.080 -0.1273  0.3145  0.0798
    1TMC1    H514357   3.423   0.268  13.092  1.0221 -0.0169  1.9705
    2MPD2     C14358   4.147   0.132  12.878  0.0022  0.1580  0.2306
    2MPD2    C114359   4.047   0.121  12.973 -0.3169 -0.2914  0.1393
    2MPD2    C214360   4.080   0.133  13.109 -0.4991 -0.1033 -0.3031
    2MPD2    C314361   4.207   0.143  13.156 -0.1663 -0.1150 -0.0055
    2MPD2    C414362   4.312   0.141  13.065 -0.7481  0.2341 -0.1844
    2MPD2    C514363   4.276   0.143  12.932  0.1548 -0.1368  0.2027
    2MPD2     H14364   3.998   0.123  13.179 -0.7847  0.6168 -0.5339
    2MPD2    H114365   4.415   0.157  13.095 -0.5394  0.8686 -1.2714
    2MPD2    H214366   4.134   0.115  12.772  0.3341  1.6668 -0.0411
    2MPD2    H314367   4.366   0.125  12.874  0.6903  1.6838  0.4917
    2MPD2     N14368   4.218   0.159  13.294  0.6588  0.0930  0.5533
    2MPD2    H514369   4.131   0.163  13.347 -0.8039 -3.2260 -1.6020
    2MPD2    N114370   3.911   0.116  12.941 -0.2309 -0.8399  0.0847
    2MPD2    H714371   3.848   0.143  13.016  1.3352 -0.3032  1.2250
    3TCq1    O114372   4.416   0.012  13.815  0.1345  0.1673 -0.1800
    3TCq1    C114373   4.447   0.149  13.831 -0.0116 -0.3752 -0.2451
    3TCq1    O214374   4.476   0.208  13.934 -0.3598  0.0434 -0.3627
    3TCq1    C214375   4.369   0.213  13.727 -0.1748  0.3974 -0.1740
    3TCq1    C314376   4.265   0.298  13.748  0.0430 -0.2940 -0.0983
    3TCq1    C414377   4.201   0.352  13.640 -0.4581 -0.0357 -0.1119
    3TCq1    C514378   4.222   0.306  13.513 -0.6699 -0.1696  0.4578
    3TCq1    C614379   4.324   0.215  13.495 -0.3477  0.0062  0.8424
    3TCq1    C714380   4.392   0.163  13.598 -0.0690  0.9401 -0.1120
    3TCq1    C814381   4.336   0.152  13.363  0.6219 -0.5991  0.1926
    3TCq1    O414382   4.448   0.122  13.323 -0.5931 -0.0006  0.5641
    3TCq1    C914383   4.084   0.436  13.653 -0.7946  0.6664 -0.0445
    3TCq1    O514384   4.096   0.556  13.692 -0.1155 -0.4437  0.2381
    3TCq1    O614385   3.978   0.390  13.605 -0.9436  0.9074  0.2228
    3TCq1    H114386   4.364   0.001  13.732 -0.4509  1.2938  0.0349
    3TCq1    H214387   4.265   0.337  13.849 -2.0800  0.0268 -0.2370
    3TCq1    H314388   4.174   0.350  13.427  1.4364 -1.3657 -1.3271
    3TCq1    H414389   4.467   0.090  13.567 -2.2953 -0.9782 -1.0007
    1MPD2     C14390   3.814   1.441  15.086  0.1860 -0.3376 -0.1302
    1MPD2    C114391   3.733   1.354  15.160 -0.5387  0.2073  0.1438
    1MPD2    C214392   3.795   1.293  15.274 -0.3186 -0.0999  0.2024
    1MPD2    C314393   3.927   1.317  15.306  0.5582 -0.4031  0.4412
    1MPD2    C414394   4.003   1.400  15.226 -0.1595  0.6104  0.4613
    1MPD2    C514395   3.942   1.468  15.120 -0.5059  0.3404 -0.2721
    1MPD2     H14396   3.738   1.213  15.320 -1.1929  1.0476  1.1083
    1MPD2    H114397   4.110   1.413  15.241  0.1927  0.4374 -1.8688
    1MPD2    H214398   3.789   1.487  14.991 -0.3697 -0.7548 -0.1904
    1MPD2    H314399   4.002   1.544  15.071  0.8005 -1.5991 -1.6713
    1MPD2     N14400   3.984   1.234  15.402  0.2640 -0.1134  0.0932
    1MPD2    H514401   3.929   1.156  15.437  0.8535 -0.0893  1.0643
    1MPD2    N114402   3.608   1.316  15.120 -0.3648 -0.3582 -0.2406
    1MPD2    H714403   3.560   1.364  15.044 -0.4680  1.1500  0.7739
    2TMC3    C114404   3.398   1.212  15.108  0.8506  1.2672  0.1606
    2TMC3    C214405   3.352   1.086  15.106 -0.1495 -0.5875  0.1295
    2TMC3    C314406   3.318   1.038  14.982  0.0539  0.1836 -0.7887
    2TMC3    C414407   3.383   1.299  15.006 -0.4017 -0.6916 -0.1171
    2TMC3    C514408   3.326   1.254  14.887  0.3664  0.1182  0.3741
    2TMC3    C614409   3.301   1.123  14.872  0.5520 -0.2160 -0.6068
    2TMC3     C14410   3.520   1.230  15.182  0.1111  0.9430  0.3739
    2TMC3     O14411   3.548   1.134  15.255  0.2064  0.3753  0.5286
    2TMC3     H14412   3.332   1.025  15.193 -1.0898 -0.3058  0.1087
    2TMC3    H114413   3.382   1.404  15.035  0.4331 -0.9765  0.9327
    2TMC3    H214414   3.266   1.080  14.779  0.2828 -1.9349  0.2733
    2TMC3    C714415   3.270   1.350  14.793  0.5684 -0.8109  0.2034
    2TMC3    C814416   3.414   0.936  14.938 -0.2933 -0.4078  0.2041
    2TMC3    O114417   3.196   1.304  14.707 -0.5535 -0.2198  0.4632
    2TMC3    O214418   3.442   0.927  14.821 -0.1614  0.2393 -0.0826
    3TCq1    O114419   4.017   2.137  14.406  0.4835 -0.4902 -0.1691
    3TCq1    C114420   3.889   2.107  14.389  0.3597 -0.3259 -0.0655
    3TCq1    O214421   3.840   2.078  14.281 -0.2699 -0.9866  0.8421
    3TCq1    C214422   3.822   2.118  14.523 -0.1661 -0.0775  0.0523
    3TCq1    C314423   3.890   2.079  14.637 -0.3235  0.4082  0.1761
    3TCq1    C414424   3.821   2.054  14.753 -0.8036 -0.2575  0.6530
    3TCq1    C514425   3.684   2.052  14.745  0.0188  0.3733  0.8161
    3TCq1    C614426   3.618   2.082  14.630 -0.8521  0.5066  0.3673
    3TCq1    C714427   3.686   2.114  14.515 -0.6691 -0.1466  0.2832
    3TCq1    C814428   3.486   2.026  14.606 -0.4242 -0.4451  0.5869
    3TCq1    O414429   3.431   2.076  14.509 -0.2597 -0.1818  0.4487
    3TCq1    C914430   3.893   2.041  14.872 -0.2963 -0.2678  1.0546
    3TCq1    O514431   4.017   2.035  14.865 -0.6864  0.2612  0.1623
    3TCq1    O614432   3.828   2.030  14.977 -1.0109 -0.2049  0.2037
    3TCq1    H114433   4.037   2.170  14.497  2.2904 -0.4188 -0.5837
    3TCq1    H214434   3.998   2.071  14.642 -0.3946 -1.0808 -0.6823
    3TCq1    H314435   3.633   2.041  14.839 -0.0149 -1.0850  0.6268
    3TCq1    H414436   3.639   2.149  14.424 -0.1864  0.0455  0.1122
    4MPD2     C14437   3.282   1.806  14.560  0.1349 -0.2847 -0.1336
    4MPD2    C114438   3.380   1.805  14.657 -0.3830  0.4814 -0.8735
    4MPD2    C214439   3.394   1.684  14.735 -0.2873  0.3691  0.3729
    4MPD2    C314440   3.316   1.578  14.717 -0.0092  0.6752  0.6504
    4MPD2    C414441   3.231   1.573  14.608 -0.1153  0.7602 -0.7223
    4MPD2    C514442   3.211   1.691  14.530  0.5948 -0.1141 -0.2357
    4MPD2     H14443   3.480   1.686  14.800 -1.1146 -1.8909  1.5387
    4MPD2    H114444   3.163   1.494  14.577  0.3598  0.2289 -0.4115
    4MPD2    H214445   3.269   1.897  14.502 -0.3153  0.7887  1.6266
    4MPD2    H314446   3.139   1.686  14.449  1.3383 -5.0662 -0.6116
    4MPD2     N14447   3.334   1.473  14.799  0.3728  0.0682  0.2528
    4MPD2    H514448   3.407   1.482  14.870  0.6540  1.2899 -0.1822
    4MPD2    N114449   3.476   1.909  14.676  0.2790 -0.1118 -0.6048
    4MPD2    H714450   3.551   1.875  14.735 -0.2829  0.8130  0.6650
    5TMC2    C114451   4.022   0.903  15.428 -0.1144 -0.0618 -0.0966
    5TMC2    C214452   4.017   0.868  15.563  0.3232  0.1553  0.3065
    5TMC2    C314453   4.084   0.946  15.646  1.1598  0.2158 -0.6155
    5TMC2    C414454   4.090   1.008  15.373 -0.5839  0.6837  0.4822
    5TMC2    C514455   4.142   1.092  15.474  0.0398  0.6039  0.3096
    5TMC2    C614456   4.148   1.057  15.612 -0.3375 -0.5316 -0.8741
    5TMC2     C14457   3.900   0.868  15.350  0.0583 -0.8888 -0.7145
    5TMC2     O14458   3.797   0.843  15.414  0.5263  1.0928 -0.4825
    5TMC2     H14459   3.969   0.776  15.594  1.7235 -0.2717  1.2155
    5TMC2    H114460   4.078   1.043  15.271 -2.3951 -2.5596 -0.3953
    5TMC2    H214461   4.185   1.120  15.692 -1.6367 -0.6390 -0.1859
    5TMC2    C714462   4.113   1.229  15.438 -0.8464  0.3910 -0.5346
    5TMC2    C814463   4.108   0.896  15.778 -0.2641 -0.4325 -0.2057
    5TMC2    O114464   4.201   1.318  15.437 -0.2472 -0.1401  0.3908
    5TMC2    O214465   4.150   0.964  15.876  0.1311  0.1321 -0.1228
    5TMC2    O514466   4.140   0.765  15.755  0.1164 -0.0421 -0.6639
    5TMC2    H514467   4.187   0.718  15.826 -0.2685  1.3361  0.4970
    6MPD2     C14468   3.669   0.781  14.902  0.2833 -0.6889  0.5601
    6MPD2    C114469   3.636   0.855  15.017 -0.8743 -0.2872 -0.5483
    6MPD2    C214470   3.721   0.868  15.122  1.0882 -0.2390  0.2023
    6MPD2    C314471   3.851   0.812  15.114 -0.2470 -0.4280 -0.3736
    6MPD2    C414472   3.888   0.746  14.999 -0.3024  0.2241 -0.1630
    6MPD2    C514473   3.797   0.731  14.900 -0.0403  0.2668  0.7977
    6MPD2     H14474   3.697   0.932  15.206 -2.9777 -2.2143  0.5455
    6MPD2    H114475   3.990   0.717  14.977 -0.5313  1.3170 -2.6933
    6MPD2    H214476   3.596   0.755  14.826 -0.4932 -0.4705  1.2237
    6MPD2    H314477   3.823   0.680  14.808 -2.9861 -2.1886  1.3404
    6MPD2     N14478   3.940   0.833  15.218  0.1164 -1.4097  0.6558
    6MPD2    H514479   4.037   0.808  15.202  0.3863  0.3838 -0.4283
    6MPD2    N114480   3.508   0.918  15.036  0.0957  0.4048  0.0437
    6MPD2    H714481   3.487   0.958  15.127  1.4959  3.3109 -0.8962
  945NH4     N114482   3.175   3.082   8.282 -0.4012 -0.3298  0.4505
  945NH4     H214483   3.251   3.127   8.227 -0.1215 -2.8190 -1.1912
  945NH4     H314484   3.113   3.163   8.302 -0.5130  0.0589 -1.5038
  945NH4     H414485   3.204   3.047   8.376 -2.0044 -3.1211 -0.1149
  945NH4     H514486   3.114   3.010   8.238  1.2648 -2.4738  1.6800
  946SOD     NA14487   0.578   2.197  12.635 -0.4864  0.1671 -0.7857
  947SOD     NA14488   1.721   1.999  13.506  0.3358  0.4314  0.3564
  948SOD     NA14489   4.157   1.952  11.020  0.1856 -0.1660  0.0806
  949SOD     NA14490   0.142   3.955  16.955  0.1907  0.0757  0.5858
  950SOD     NA14491   3.214   3.429  15.274 -0.5282 -0.3421 -0.0452
  951SOD     NA14492   1.683   1.370   8.418 -0.3381  0.0017  0.0739
  952SOD     NA14493   0.132   2.621  11.708  0.0328  0.3687 -0.2555
  953SOL     OW14494   3.967   0.803   7.597 -0.0987 -0.4048  0.2461
  953SOL    HW114495   3.966   0.755   7.515 -0.7483  1.2794 -0.7407
  953SOL    HW214496   4.000   0.742   7.663  1.2022 -1.6014 -1.5410
  954SOL     OW14497   4.659   0.593   5.467 -0.0305 -0.3348 -0.4712
  954SOL    HW114498   4.605   0.532   5.417 -0.5311  1.4694 -2.1097
  954SOL    HW214499   4.677   0.655   5.397 -0.1884 -0.3485 -0.5244
  955SOL     OW14500   0.506   1.660   7.986  0.0521  0.1981 -0.1464
  955SOL    HW114501   0.557   1.702   7.917 -0.5090  0.9538 -0.1074
  955SOL    HW214502   0.418   1.668   7.950 -0.0885  0.5926  0.2779
  956SOL     OW14503   3.617   1.957   1.028  0.4814 -0.6172 -0.1103
  956SOL    HW114504   3.538   1.910   1.056 -0.0893 -0.0845 -0.8383
  956SOL    HW214505   3.600   1.990   0.940  1.7045 -1.0549 -0.5087
  957SOL     OW14506   4.218   3.326   7.321 -0.4862 -0.7718  0.1876
  957SOL    HW114507   4.242   3.256   7.261 -1.3393 -2.5549  1.8985
  957SOL    HW214508   4.216   3.272   7.400 -0.6330  1.3040  1.5968
  958SOL     OW14509   3.388   0.624   4.925  0.3102  0.2519  0.3545
  958SOL    HW114510   3.390   0.577   5.009  0.7448 -0.1429  0.1271
  958SOL    HW214511   3.341   0.702   4.956 -1.6433 -1.4644  1.7628
  959SOL     OW14512   1.815   4.118   6.468  0.2473 -0.7888  0.4735
  959SOL    HW114513   1.860   4.038   6.497  3.4932 -0.5379 -3.8914
  959SOL    HW214514   1.723   4.095   6.462  0.4572 -0.9358 -2.1576
  960SOL     OW14515   0.601   1.296   7.246 -0.4034 -0.0167  0.3344
  960SOL    HW114516   0.607   1.249   7.163  1.5711 -0.1586  0.5621
  960SOL    HW214517   0.511   1.285   7.276  0.1163 -0.7386  1.6077
  961SOL     OW14518   2.005   2.907   1.143  0.2299 -0.2764  0.3438
  961SOL    HW114519   2.080   2.952   1.181  0.3594 -1.1108  1.0814
  961SOL    HW214520   2.022   2.816   1.169 -0.8416 -0.4715  0.3543
  962SOL     OW14521   0.072   3.784   8.737  0.4769  1.2067  0.5823
  962SOL    HW114522   0.095   3.871   8.769 -0.2005  1.3069  0.7936
  962SOL    HW214523   0.097   3.735   8.815  0.2724 -0.6857 -0.5411
  963SOL     OW14524   3.363   0.510   5.175 -0.5339  0.8132  0.2273
  963SOL    HW114525   3.325   0.523   5.262 -1.1730 -1.8018  0.3450
  963SOL    HW214526   3.417   0.435   5.200 -1.1368  0.4581  0.4622
  964SOL     OW14527   2.515   3.570  11.388  0.2372 -0.1917  0.3267
  964SOL    HW114528   2.464   3.505  11.341 -0.9107  0.9489 -0.0036
  964SOL    HW214529   2.583   3.512  11.423 -0.0855 -0.0368  1.2046
  965SOL     OW14530   4.333   0.854   6.602 -0.2344  0.2041  0.5820
  965SOL    HW114531   4.296   0.932   6.643 -0.3384 -0.8551  2.5302
  965SOL    HW214532   4.277   0.780   6.628  0.4046 -0.2396  0.7127
  966SOL     OW14533   2.250   0.230   7.410  0.2563 -0.6142  0.1103
  966SOL    HW114534   2.304   0.267   7.341  0.3205 -1.0927 -0.0984
  966SOL    HW214535   2.166   0.223   7.365 -1.0679 -1.1805  2.6355
  967SOL     OW14536   1.952   4.479   4.347 -0.6565  0.2865 -0.1727
  967SOL    HW114537   1.919   4.567   4.363 -1.1329 -0.5437  3.4056
  967SOL    HW214538   1.893   4.438   4.409  1.6715 -1.1724  1.1042
  968SOL     OW14539   1.946   0.782   7.866 -0.2269 -0.1663  0.2243
  968SOL    HW114540   1.918   0.764   7.776  1.4774  0.3997 -0.4334
  968SOL    HW214541   1.934   0.877   7.867  1.1445  0.0064  0.3933
  969SOL     OW14542   2.517   0.298   9.600  0.4649  0.2498 -0.2658
  969SOL    HW114543   2.476   0.310   9.514 -1.9107  1.6652  1.0591
  969SOL    HW214544   2.553   0.383   9.624  2.1493 -0.1914 -1.2173
  970SOL     OW14545   2.665   0.756   5.402  0.0557  0.5509  0.0054
  970SOL    HW114546   2.683   0.824   5.337  0.4440  1.5474  1.1464
  970SOL    HW214547   2.681   0.680   5.346  1.0206  0.0676  0.9472
  971SOL     OW14548   3.259   2.425   3.016  0.3339 -0.2144  0.5947
  971SOL    HW114549   3.242   2.477   2.937 -0.9064  0.5849  1.4078
  971SOL    HW214550   3.355   2.422   3.021  0.2111 -1.5984  1.9909
  972SOL     OW14551   3.094   1.352   7.548 -0.1022 -0.0947  0.0684
  972SOL    HW114552   3.038   1.275   7.547 -0.1544 -0.1066  2.1464
  972SOL    HW214553   3.040   1.419   7.591 -1.3770 -1.4719  0.6083
  973SOL     OW14554   0.817   1.680   8.872 -0.5123 -0.0631  0.5247
  973SOL    HW114555   0.834   1.756   8.815 -2.6778  2.0911  2.8149
  973SOL    HW214556   0.841   1.723   8.954 -0.5496  0.6105  0.1857
  974SOL     OW14557   0.218   2.730  11.167 -0.0087  0.1781  0.4240
  974SOL    HW114558   0.298   2.679  11.172  1.2715  2.3191  1.6878
  974SOL    HW214559   0.243   2.807  11.218  0.7428  0.5914 -0.5867
  975SOL     OW14560   3.208   2.424   8.626  0.0761  0.4178 -0.3216
  975SOL    HW114561   3.230   2.332   8.613 -1.5173  0.6692 -4.6427
  975SOL    HW214562   3.126   2.433   8.577  0.3501 -1.1478 -1.0743
  976SOL     OW14563   4.176   3.393  12.762  0.5449 -0.1037  0.3128
  976SOL    HW114564   4.126   3.318  12.731  1.7328 -0.7656  0.0181
  976SOL    HW214565   4.241   3.351  12.819 -0.2622  0.0515  1.3470
  977SOL     OW14566   3.390   4.194   1.244 -0.7552 -0.1948  0.6990
  977SOL    HW114567   3.450   4.178   1.316 -0.7011  2.0637  1.1528
  977SOL    HW214568   3.445   4.161   1.173 -0.8813 -0.8910  0.9237
  978SOL     OW14569   2.483   0.467   1.389  0.4075  0.3443 -0.0977
  978SOL    HW114570   2.483   0.562   1.401 -1.0402  0.2530  0.5726
  978SOL    HW214571   2.510   0.436   1.475  1.0309  0.1983 -0.3440
  979SOL     OW14572   2.469   2.228   5.145  0.3956  0.3831  0.1179
  979SOL    HW114573   2.457   2.292   5.215 -1.0231  0.6970 -0.4128
  979SOL    HW214574   2.419   2.151   5.171  1.2197 -0.1918  0.0220
  980SOL     OW14575   0.045   3.262   4.128 -0.2990  0.2156  0.1575
  980SOL    HW114576   0.068   3.323   4.059 -0.7199  3.2678  2.6911
  980SOL    HW214577   0.120   3.255   4.187 -0.9877 -1.4086  0.8367
  981SOL     OW14578   3.373   2.096   8.250  0.4142 -0.3868  0.3567
  981SOL    HW114579   3.348   2.010   8.216 -1.4885  0.3396 -0.0435
  981SOL    HW214580   3.468   2.084   8.249  0.7102  1.8507  0.6178
  982SOL     OW14581   4.061   3.738  11.182  0.6893 -0.5719  0.1500
  982SOL    HW114582   3.978   3.749  11.137  0.2465  0.1515  1.1462
  982SOL    HW214583   4.034   3.681  11.254 -3.3760 -1.3677 -2.0617
  983SOL     OW14584   1.051   2.466   4.689  0.1577  0.0736 -0.0889
  983SOL    HW114585   0.990   2.539   4.680 -1.0730 -0.8066  1.1356
  983SOL    HW214586   1.061   2.435   4.599 -1.3583 -1.6727  0.3281
  984SOL     OW14587   0.756   0.884   4.871 -0.4342 -0.4811 -0.0201
  984SOL    HW114588   0.696   0.896   4.945  1.1190 -0.7605  1.2901
  984SOL    HW214589   0.703   0.828   4.814 -2.8755  0.8489  0.9393
  985SOL     OW14590   0.046   3.938   7.153  0.4773 -0.6478 -0.2716
  985SOL    HW114591   0.052   3.860   7.098 -0.8454 -0.9372  0.0136
  985SOL    HW214592   4.721   3.898   7.214  0.1077 -1.8749 -1.4431
  986SOL     OW14593   4.525   1.944   7.637  0.1237  0.4160 -0.1501
  986SOL    HW114594   4.608   1.919   7.677  0.5601  0.3776 -1.0910
  986SOL    HW214595   4.537   2.013   7.572 -0.0844  0.6318  0.0404
  987SOL     OW14596   3.102   1.212   6.555 -1.4405 -0.4952 -0.0703
  987SOL    HW114597   3.143   1.282   6.504  0.4619 -1.6571 -0.1482
  987SOL    HW214598   3.120   1.133   6.504  1.4091 -1.0729  1.8407
  988SOL     OW14599   1.195   0.286   4.124 -0.1734  0.2312  0.5996
  988SOL    HW114600   1.138   0.238   4.064 -1.5662  1.4016  1.0028
  988SOL    HW214601   1.143   0.279   4.204  0.5443  0.2211  1.0616
  989SOL     OW14602   2.438   4.072   5.305 -0.2673 -0.5029  0.2719
  989SOL    HW114603   2.358   4.089   5.255 -0.6027 -2.0084  0.2912
  989SOL    HW214604   2.467   4.160   5.329 -2.5602 -0.1744  1.8728
  990SOL     OW14605   1.275   4.514   8.988 -0.5675 -0.3021  0.0925
  990SOL    HW114606   1.258   4.550   8.901  1.4112 -3.4939 -1.6360
  990SOL    HW214607   1.353   4.556   9.022  1.2726 -3.6020  0.0031
  991SOL     OW14608   2.823   1.208   6.998  0.1656 -0.1311 -0.1340
  991SOL    HW114609   2.872   1.209   6.916  0.2348 -0.6042 -0.1025
  991SOL    HW214610   2.779   1.292   7.000 -1.3153 -0.9594  2.0300
  992SOL     OW14611   2.166   4.323   5.337  0.0619 -0.3747 -0.3154
  992SOL    HW114612   2.087   4.342   5.386  1.0107 -0.0076  1.0690
  992SOL    HW214613   2.190   4.235   5.369 -0.3776 -0.5148 -0.3769
  993SOL     OW14614   2.227   0.046   8.190  0.1027 -0.0539  0.4898
  993SOL    HW114615   2.259   0.089   8.269 -0.2461 -2.5755  2.0215
  993SOL    HW214616   2.164   0.110   8.158 -0.0153 -1.7224 -2.6369
  994SOL     OW14617   3.987   3.086   3.342  0.3236  0.7009  0.0495
  994SOL    HW114618   3.931   3.154   3.305 -0.2453  0.8112  1.1210
  994SOL    HW214619   3.967   3.087   3.436 -2.1156 -0.7444 -0.4520
  995SOL     OW14620   0.699   0.208   9.134  0.3135 -0.0718  0.3919
  995SOL    HW114621   0.720   0.269   9.063  2.3485 -0.5071  0.6369
  995SOL    HW214622   0.741   0.132   9.094 -1.1512 -0.3151 -0.6890
  996SOL     OW14623   2.794   1.576  12.354 -0.3421 -0.0694 -0.1122
  996SOL    HW114624   2.853   1.652  12.344  0.4184 -0.6883 -0.3470
  996SOL    HW214625   2.810   1.555  12.262  1.9893  0.9013  0.0467
  997SOL     OW14626   0.534   4.269   4.440 -0.0084 -0.0476  0.0506
  997SOL    HW114627   0.569   4.358   4.444 -1.0295  0.4010 -0.9978
  997SOL    HW214628   0.444   4.283   4.469 -0.0243  0.8527 -0.4396
  998SOL     OW14629   2.939   2.406  11.762 -0.2012 -0.0160  0.3686
  998SOL    HW114630   2.950   2.387  11.855  1.9351 -0.3520  0.0442
  998SOL    HW214631   2.906   2.323  11.728 -0.5302  1.2414 -2.3555
  999SOL     OW14632   3.442   2.111   3.669 -0.0939 -0.2938  0.0639
  999SOL    HW114633   3.364   2.081   3.622 -0.5507  2.9200 -1.2133
  999SOL    HW214634   3.401   2.179   3.721  1.1452  1.8999 -1.8417
 1000SOL     OW14635   3.561   3.389   5.496  0.3018  0.3284  0.2780
 1000SOL    HW114636   3.493   3.427   5.440 -0.1849 -1.8381 -0.6132
 1000SOL    HW214637   3.606   3.324   5.442 -1.3669  0.6727 -1.5460
 1001SOL     OW14638   4.458   1.478   8.675  0.0990  0.0098  0.3883
 1001SOL    HW114639   4.467   1.551   8.613  1.4494  1.1356  1.9127
 1001SOL    HW214640   4.546   1.477   8.711  0.5545  1.0252 -0.6837
 1002SOL     OW14641   2.217   0.928   2.367 -0.1948 -0.0092  0.1690
 1002SOL    HW114642   2.211   0.921   2.463  0.0127 -0.0762  0.1772
 1002SOL    HW214643   2.295   0.876   2.347  0.2491  1.4987 -2.0333
 1003SOL     OW14644   1.809   4.132   3.565  0.5266  0.1717  0.6899
 1003SOL    HW114645   1.787   4.198   3.500  0.5671  1.9980  2.5131
 1003SOL    HW214646   1.791   4.186   3.642  1.3111 -1.0149  1.7078
 1004SOL     OW14647   1.366   0.924   0.540  0.4548 -0.5039  0.1071
 1004SOL    HW114648   1.435   0.872   0.580 -0.4298 -0.5688  1.5497
 1004SOL    HW214649   1.294   0.865   0.564  0.2910 -1.0019 -1.5867
 1005SOL     OW14650   1.352   0.428  12.267  0.2478  0.2737 -0.0914
 1005SOL    HW114651   1.279   0.463  12.318 -0.4249 -0.6782 -0.3968
 1005SOL    HW214652   1.428   0.479  12.293  0.4417 -0.7936  1.3755
 1006SOL     OW14653   2.321   0.292   3.426 -0.1564  0.2792 -0.2642
 1006SOL    HW114654   2.342   0.199   3.416 -2.9921 -0.3494 -0.3682
 1006SOL    HW214655   2.230   0.289   3.454  1.3518  0.1474  4.6532
 1007SOL     OW14656   0.147   3.403   4.952  0.2768 -0.4782 -0.1014
 1007SOL    HW114657   0.106   3.325   4.915 -3.2810  2.4928 -2.4163
 1007SOL    HW214658   0.103   3.408   5.037 -1.1949  0.3255 -0.9099
 1008SOL     OW14659   3.436   4.355   0.685 -0.4940 -0.2606 -0.3832
 1008SOL    HW114660   3.452   4.338   0.592  2.9318  1.1347 -0.0631
 1008SOL    HW214661   3.512   4.413   0.695  0.0651 -0.8529 -1.1973
 1009SOL     OW14662   3.235   0.467  17.351 -0.7050  0.2621 -0.2537
 1009SOL    HW114663   3.247   0.508  17.266 -0.8238  0.8525  0.0170
 1009SOL    HW214664   3.140   0.476  17.349 -0.6954  0.3167 -0.4395
 1010SOL     OW14665   4.048   0.614   7.130  0.1377  0.4713 -0.2832
 1010SOL    HW114666   4.058   0.538   7.072  0.5409 -0.0925  0.5131
 1010SOL    HW214667   4.001   0.675   7.074 -0.3239 -1.5236 -2.1031
 1011SOL     OW14668   4.608   3.683   2.201 -0.1858  0.0488  0.4788
 1011SOL    HW114669   4.690   3.696   2.153  0.2361 -3.0164  0.3857
 1011SOL    HW214670   4.606   3.588   2.204  0.7264 -0.0100 -0.6825
 1012SOL     OW14671   4.044   3.790   6.233  0.2139 -0.0651 -0.3126
 1012SOL    HW114672   4.038   3.781   6.328 -1.0086 -2.0693 -0.5884
 1012SOL    HW214673   4.040   3.885   6.219 -1.0358  0.0399  0.8382
 1013SOL     OW14674   3.938   1.699   5.446  0.0863  0.0779 -0.4349
 1013SOL    HW114675   3.952   1.609   5.414  1.0690  0.1176 -0.1127
 1013SOL    HW214676   3.846   1.705   5.471 -0.1058  1.1715 -1.3954
 1014SOL     OW14677   2.784   2.245   3.422  0.0661  0.5607  0.4586
 1014SOL    HW114678   2.783   2.259   3.516  0.7698 -0.1935  0.5772
 1014SOL    HW214679   2.855   2.181   3.426  1.1466  1.4875 -3.3308
 1015SOL     OW14680   2.051   3.872   5.833 -0.7686  0.3057  0.2046
 1015SOL    HW114681   1.998   3.890   5.910  1.6003 -1.2376  2.1780
 1015SOL    HW214682   2.038   3.778   5.823  1.1990  0.0241  0.3281
 1016SOL     OW14683   0.008   1.418   2.942 -0.0546 -0.2739 -0.0515
 1016SOL    HW114684   4.729   1.428   3.036  0.6497  1.2065 -0.0965
 1016SOL    HW214685   4.684   1.479   2.899  0.1335 -0.2738 -0.3171
 1017SOL     OW14686   0.683   0.405   0.885  0.4739 -0.4094 -0.0138
 1017SOL    HW114687   0.698   0.500   0.878 -0.7869 -0.3266 -1.4727
 1017SOL    HW214688   0.737   0.383   0.809 -0.9800  1.6034 -1.6334
 1018SOL     OW14689   4.705   0.137   8.723 -0.0646 -0.2746 -0.0821
 1018SOL    HW114690   4.665   0.218   8.757  1.3374 -0.0894  1.1156
 1018SOL    HW214691   4.636   0.078   8.752  2.3805 -1.9675  2.1588
 1019SOL     OW14692   0.625   1.691   3.645 -0.3034  0.0410  0.1023
 1019SOL    HW114693   0.581   1.629   3.703 -2.0872  0.1896 -1.0732
 1019SOL    HW214694   0.647   1.642   3.565  0.6877  2.0991 -0.8841
 1020SOL     OW14695   0.970   2.758   4.922  0.0203  0.0354 -0.5629
 1020SOL    HW114696   1.062   2.782   4.909  0.0087 -0.3681 -1.3855
 1020SOL    HW214697   0.948   2.819   4.992 -0.4343 -1.6201  0.7222
 1021SOL     OW14698   2.239   2.947  14.121  0.2334  0.3433  0.2948
 1021SOL    HW114699   2.165   2.922  14.177  1.0472  1.7564  1.9995
 1021SOL    HW214700   2.302   2.898  14.174  2.0460  0.3283 -1.8616
 1022SOL     OW14701   1.991   1.448  17.349 -0.7568 -0.1221  0.1134
 1022SOL    HW114702   1.930   1.459  17.276  0.5502  1.2489 -0.7906
 1022SOL    HW214703   1.937   1.426  17.424 -0.5471 -0.7915  0.0683
 1023SOL     OW14704   3.074   2.503   4.615 -0.2566  0.0897  0.1722
 1023SOL    HW114705   3.167   2.489   4.633 -0.4808 -0.7872  0.6572
 1023SOL    HW214706   3.031   2.501   4.701  0.4127  1.7033  0.5420
 1024SOL     OW14707   3.937   3.055   2.317 -0.2069  0.1332  0.3768
 1024SOL    HW114708   4.001   3.054   2.388 -0.4290  3.3114  0.6125
 1024SOL    HW214709   3.948   3.144   2.284  0.3677  0.2640  0.9347
 1025SOL     OW14710   0.086   1.677   6.883  0.0218 -0.0690 -0.7437
 1025SOL    HW114711   0.131   1.752   6.843 -0.7685  1.4862  1.2623
 1025SOL    HW214712   0.100   1.608   6.818 -2.0356 -1.8594  0.7074
 1026SOL     OW14713   4.624   3.912   8.229  0.6367 -0.6119 -0.4284
 1026SOL    HW114714   4.704   3.948   8.194  0.2909 -1.8937 -2.5395
 1026SOL    HW214715   4.635   3.945   8.318 -0.3090 -1.0534 -0.1448
 1027SOL     OW14716   4.061   3.738   8.872 -0.0922  0.1162 -0.6558
 1027SOL    HW114717   4.116   3.668   8.907 -0.9676 -1.3937 -2.2788
 1027SOL    HW214718   3.984   3.705   8.920 -1.2717  2.3224 -1.0373
 1028SOL     OW14719   3.050   3.163   4.962 -0.0951  0.2303 -0.4492
 1028SOL    HW114720   3.134   3.172   4.917  1.7259  1.0750  3.1590
 1028SOL    HW214721   3.019   3.253   4.948  0.5344  0.7429  1.4174
 1029SOL     OW14722   1.301   2.567  15.812 -0.3462  0.2272  0.7111
 1029SOL    HW114723   1.362   2.633  15.844 -1.1531  0.3691  2.0053
 1029SOL    HW214724   1.265   2.592  15.727  0.2433 -0.7606  0.1779
 1030SOL     OW14725   0.899   0.006   4.766 -0.0795  0.2309  0.1879
 1030SOL    HW114726   0.909   0.099   4.745 -0.0582  0.3091  0.5453
 1030SOL    HW214727   0.971   4.700   4.719 -2.0709 -3.5414  0.5634
 1031SOL     OW14728   3.916   2.723   4.045 -0.4751  0.3406  0.0399
 1031SOL    HW114729   3.836   2.746   3.997 -0.9558  1.1200  1.2075
 1031SOL    HW214730   3.900   2.782   4.119 -3.1350  0.4529 -0.6053
 1032SOL     OW14731   1.999   4.733   8.634 -0.2412 -0.0997  0.1542
 1032SOL    HW114732   2.071   4.735   8.697 -0.0161 -0.7310 -0.0768
 1032SOL    HW214733   1.938   0.036   8.697  0.4619 -2.7750  2.5173
 1033SOL     OW14734   1.240   1.449   3.801  0.0881  0.3051  0.4868
 1033SOL    HW114735   1.200   1.532   3.776  0.4537 -0.2668 -1.9624
 1033SOL    HW214736   1.213   1.399   3.724 -0.3650  1.6779 -0.2418
 1034SOL     OW14737   0.808   0.611   9.888  0.4794  0.6781  0.3894
 1034SOL    HW114738   0.848   0.686   9.931  3.1511 -0.3197 -0.3457
 1034SOL    HW214739   0.788   0.649   9.803  1.8427 -3.2223 -1.7002
 1035SOL     OW14740   3.593   2.198   4.790 -0.5122  0.3191  0.0311
 1035SOL    HW114741   3.594   2.162   4.878  0.9020  2.5310  0.9225
 1035SOL    HW214742   3.675   2.159   4.760  0.4958  0.7998  2.2107
 1036SOL     OW14743   0.801   2.266   3.042  0.0811 -0.4055  0.4244
 1036SOL    HW114744   0.857   2.328   2.996 -1.6996 -0.4433 -1.7983
 1036SOL    HW214745   0.858   2.189   3.043  1.3753  0.5357 -0.1511
 1037SOL     OW14746   4.364   1.768   5.161  0.1305 -0.2138  0.6266
 1037SOL    HW114747   4.292   1.786   5.100  1.4146 -0.6620 -1.0449
 1037SOL    HW214748   4.376   1.859   5.186 -2.5840  0.6317 -1.0158
 1038SOL     OW14749   1.600   0.724  15.441  0.8639  0.0934 -0.2441
 1038SOL    HW114750   1.519   0.766  15.470  0.1785 -3.4524  3.0717
 1038SOL    HW214751   1.607   0.653  15.505  0.4726 -1.0293 -1.4279
 1039SOL     OW14752   3.006   1.819   8.069 -0.1776  0.0828  0.2396
 1039SOL    HW114753   3.072   1.832   8.001 -0.7290  1.2662 -0.0884
 1039SOL    HW214754   3.004   1.724   8.061 -0.3481  0.0100  1.0535
 1040SOL     OW14755   2.423   1.310  12.494  0.1105  0.2684 -0.1904
 1040SOL    HW114756   2.336   1.348  12.505  0.9078  1.9041  0.3911
 1040SOL    HW214757   2.391   1.220  12.492 -0.7844  0.6582 -3.6780
 1041SOL     OW14758   3.074   1.429   8.904  0.5918  0.3439 -0.6473
 1041SOL    HW114759   3.030   1.471   8.978 -0.2905 -1.0194 -0.4051
 1041SOL    HW214760   3.153   1.484   8.911  1.0106  0.0879 -3.2477
 1042SOL     OW14761   2.622   1.193   6.285 -0.4479  0.3090  0.0298
 1042SOL    HW114762   2.716   1.196   6.303 -0.2021 -2.6071 -0.7482
 1042SOL    HW214763   2.627   1.237   6.199 -0.2560 -2.2881 -1.2749
 1043SOL     OW14764   1.553   1.109   1.651  0.6062  0.1231  0.0837
 1043SOL    HW114765   1.536   1.029   1.700  0.7866  0.2304  0.3248
 1043SOL    HW214766   1.517   1.179   1.706  0.9751 -0.7943  1.5042
 1044SOL     OW14767   0.419   2.272   6.163 -0.2134 -0.2584  0.0971
 1044SOL    HW114768   0.487   2.204   6.158  0.1781  0.2527 -1.5615
 1044SOL    HW214769   0.470   2.351   6.183  2.1036 -1.3538 -1.4344
 1045SOL     OW14770   3.672   2.777   2.317  0.3620 -1.0928 -0.2351
 1045SOL    HW114771   3.681   2.861   2.273 -0.3262 -0.1849  1.3954
 1045SOL    HW214772   3.690   2.719   2.243  1.5409  1.6723 -2.0796
 1046SOL     OW14773   2.394   2.767   8.476 -0.1103 -0.1404  0.5163
 1046SOL    HW114774   2.462   2.806   8.422 -0.1664  0.1068  0.6208
 1046SOL    HW214775   2.449   2.719   8.538 -1.1706 -0.9338  0.8500
 1047SOL     OW14776   3.212   3.251   6.693  0.0189 -0.2320 -0.3067
 1047SOL    HW114777   3.229   3.157   6.682  1.4795 -0.2833  2.5885
 1047SOL    HW214778   3.263   3.294   6.624  3.1608 -0.4979  1.8327
 1048SOL     OW14779   3.002   3.072  12.377 -0.3404 -0.4934 -0.6192
 1048SOL    HW114780   3.023   3.163  12.396 -4.8553  0.7667 -1.6476
 1048SOL    HW214781   3.093   3.041  12.372 -0.0678 -0.3552  3.3365
 1049SOL     OW14782   1.232   1.367   8.746  0.0086 -0.0905  0.2199
 1049SOL    HW114783   1.298   1.436   8.750 -0.7533  0.6970 -0.6562
 1049SOL    HW214784   1.270   1.308   8.682  0.4341 -0.8170  1.1395
 1050SOL     OW14785   3.735   2.378   8.479 -0.1229 -0.2523 -0.5000
 1050SOL    HW114786   3.830   2.380   8.473 -0.1112  0.7247 -0.1118
 1050SOL    HW214787   3.719   2.284   8.476 -1.4826 -0.0578  0.3844
 1051SOL     OW14788   2.443   2.939  13.932 -0.2739 -0.4054  0.1728
 1051SOL    HW114789   2.476   3.029  13.923 -1.4293  0.0385  0.4570
 1051SOL    HW214790   2.383   2.951  14.005 -0.5972  3.2520 -0.6727
 1052SOL     OW14791   1.611   3.418   9.740 -0.1484 -0.3766  0.5280
 1052SOL    HW114792   1.645   3.503   9.767 -0.0938 -0.7159  1.5355
 1052SOL    HW214793   1.664   3.399   9.663 -0.7908 -0.2959  0.0621
 1053SOL     OW14794   0.897   1.865   7.442  0.1256  0.4199 -0.2493
 1053SOL    HW114795   0.802   1.849   7.448 -0.0282  1.4994  0.2150
 1053SOL    HW214796   0.913   1.804   7.369 -0.2517  2.0904 -1.7150
 1054SOL     OW14797   3.064   0.799   7.599  0.0006  0.6114  0.6476
 1054SOL    HW114798   3.156   0.821   7.583 -0.4382  2.0781  0.1455
 1054SOL    HW214799   3.059   0.709   7.567 -1.0331  1.4130 -1.4405
 1055SOL     OW14800   2.125   4.555  11.517  0.5171 -0.0065  0.0623
 1055SOL    HW114801   2.218   4.547  11.540  0.0227 -1.7892  1.3855
 1055SOL    HW214802   2.107   4.648  11.529 -1.0353  0.0860 -3.0694
 1056SOL     OW14803   4.025   1.498  16.827 -0.4639 -0.5369  0.3399
 1056SOL    HW114804   3.962   1.544  16.883  1.0442 -1.5440  2.8603
 1056SOL    HW214805   4.061   1.457  16.905 -0.1671 -0.2026  0.3795
 1057SOL     OW14806   0.470   3.828   8.563  0.3680  0.2891  0.0767
 1057SOL    HW114807   0.426   3.849   8.646  0.1630 -0.8407  0.2554
 1057SOL    HW214808   0.401   3.865   8.508 -0.4941 -0.5778  0.5615
 1058SOL     OW14809   0.496   2.889  12.709 -0.9205 -0.4583  0.5258
 1058SOL    HW114810   0.440   2.951  12.756  0.9318  2.6150 -1.2999
 1058SOL    HW214811   0.563   2.850  12.765 -0.2384  0.3336  0.2670
 1059SOL     OW14812   0.155   0.133   4.951  0.4779  0.2430 -1.0085
 1059SOL    HW114813   0.218   0.100   5.016  0.7120  1.1778 -0.7670
 1059SOL    HW214814   0.072   0.087   4.963  0.7388  0.1732  0.4850
 1060SOL     OW14815   0.130   0.619   4.645  0.0249 -0.4545  0.2295
 1060SOL    HW114816   0.106   0.569   4.567 -1.1468 -1.4209  1.2237
 1060SOL    HW214817   0.168   0.554   4.704  0.0899 -0.4174  0.2295
 1061SOL     OW14818   3.994   4.329   4.348  0.2975  0.1070 -0.2531
 1061SOL    HW114819   4.027   4.360   4.432  1.5022 -0.6210 -0.4537
 1061SOL    HW214820   3.906   4.297   4.362 -0.6234  3.4438  1.6390
 1062SOL     OW14821   2.965   1.676  15.295 -0.1086 -0.5866  0.4101
 1062SOL    HW114822   3.035   1.736  15.320  1.2988 -1.8061 -0.6292
 1062SOL    HW214823   2.988   1.673  15.202 -0.1924  1.1108  0.3227
 1063SOL     OW14824   2.756   3.167   1.754  0.1479 -0.2560 -0.4805
 1063SOL    HW114825   2.784   3.078   1.775  0.1658 -0.2738 -0.5776
 1063SOL    HW214826   2.812   3.183   1.678  1.6469 -2.7874  0.0741
 1064SOL     OW14827   2.359   3.804  15.204  0.7143  0.0171 -0.1798
 1064SOL    HW114828   2.414   3.868  15.159 -0.5501  0.0933 -1.6281
 1064SOL    HW214829   2.308   3.772  15.130  2.9580 -0.5995 -1.4341
 1065SOL     OW14830   3.324   1.730  11.233  0.0175 -0.2093 -0.1572
 1065SOL    HW114831   3.239   1.747  11.275  0.4693  0.6792  0.3889
 1065SOL    HW214832   3.305   1.649  11.184 -0.7316  0.3397 -0.7866
 1066SOL     OW14833   0.993   3.552   7.610 -0.5184  0.5713 -0.5012
 1066SOL    HW114834   1.012   3.640   7.576  0.5564  0.3696 -0.4275
 1066SOL    HW214835   0.978   3.508   7.526 -0.4207  2.1696 -1.3567
 1067SOL     OW14836   0.413   1.158  10.583 -0.6275  0.1106 -0.0298
 1067SOL    HW114837   0.411   1.251  10.559 -0.7714  0.7944  2.6087
 1067SOL    HW214838   0.507   1.142  10.589 -0.8046 -0.5764  0.7439
 1068SOL     OW14839   4.452   0.444   2.853  0.5014 -0.0079 -0.3775
 1068SOL    HW114840   4.425   0.384   2.784 -0.3936 -1.0594  0.8941
 1068SOL    HW214841   4.470   0.527   2.808  0.0104 -0.1218 -0.7877
 1069SOL     OW14842   1.876   3.304  10.016 -0.5356  0.0982  0.1654
 1069SOL    HW114843   1.899   3.240   9.948  0.1953  0.3851  0.1457
 1069SOL    HW214844   1.861   3.251  10.094 -0.2116 -0.2665 -0.0205
 1070SOL     OW14845   4.063   0.017   2.350 -0.5659  0.1874 -0.3598
 1070SOL    HW114846   4.153   4.723   2.354 -0.5454 -0.0298 -2.3807
 1070SOL    HW214847   4.051   0.045   2.441  1.2467  1.5447 -0.5552
 1071SOL     OW14848   0.041   3.901  12.632  0.0074 -0.4894  0.2894
 1071SOL    HW114849   0.048   3.997  12.633 -0.4261 -0.4524 -0.7361
 1071SOL    HW214850   0.056   3.882  12.540  2.6476 -0.3104  0.6681
 1072SOL     OW14851   0.589   1.893  11.170  0.7528 -0.4850  0.4813
 1072SOL    HW114852   0.635   1.809  11.177  0.2313 -0.6879  1.4540
 1072SOL    HW214853   0.661   1.951  11.145  1.7008 -0.0664  4.1961
 1073SOL     OW14854   0.538   3.788  10.333  0.4609  0.1930 -0.0675
 1073SOL    HW114855   0.552   3.723  10.402  1.6017 -0.0610 -0.5495
 1073SOL    HW214856   0.457   3.760  10.291  0.6484 -0.1952 -0.1717
 1074SOL     OW14857   3.317   4.265   8.005 -0.4146 -0.2670  0.3228
 1074SOL    HW114858   3.392   4.267   8.065  0.7436 -0.2797 -1.1164
 1074SOL    HW214859   3.245   4.283   8.065 -0.6873  2.2473 -0.7419
 1075SOL     OW14860   3.787   4.151   7.374  0.2078 -0.6745  0.0422
 1075SOL    HW114861   3.788   4.244   7.397 -3.5009 -1.2922  2.5653
 1075SOL    HW214862   3.774   4.106   7.457  2.7297  0.2401  0.9483
 1076SOL     OW14863   4.241   0.619   5.930 -0.6557 -0.2787  0.7134
 1076SOL    HW114864   4.200   0.698   5.895 -3.6210 -2.0051  0.2722
 1076SOL    HW214865   4.231   0.557   5.857  1.6103 -1.3099  1.2891
 1077SOL     OW14866   4.469   1.001   2.739 -0.0071 -0.7698 -0.0039
 1077SOL    HW114867   4.513   1.025   2.821 -0.7401  0.2804  0.0851
 1077SOL    HW214868   4.540   1.040   2.688  1.4578 -0.0470  2.5697
 1078SOL     OW14869   3.903   0.048   1.525 -0.0857  0.1869  0.5031
 1078SOL    HW114870   3.917   4.689   1.516  0.8538  0.3424  0.2784
 1078SOL    HW214871   3.966   0.107   1.483  0.9921 -1.0519  0.3702
 1079SOL     OW14872   2.524   4.620   7.920 -0.5635 -0.6839  0.6581
 1079SOL    HW114873   2.463   4.680   7.877  0.3590  1.6071  2.6095
 1079SOL    HW214874   2.532   4.547   7.858 -0.7838 -1.1386  1.1598
 1080SOL     OW14875   0.957   4.059   8.091 -0.1445 -0.3513 -0.4016
 1080SOL    HW114876   1.013   4.126   8.132 -1.4534 -0.4153  1.4576
 1080SOL    HW214877   1.023   4.002   8.052  0.2086 -0.6600  0.6782
 1081SOL     OW14878   3.731   1.488   0.264  0.5853  0.0613  0.0703
 1081SOL    HW114879   3.651   1.507   0.312 -0.1147  0.6490 -1.3296
 1081SOL    HW214880   3.762   1.578   0.251 -0.6909  0.1481 -2.4105
 1082SOL     OW14881   2.739   0.766   8.221 -0.2867  0.0186 -0.5607
 1082SOL    HW114882   2.691   0.688   8.250 -0.1017  0.5568  1.1734
 1082SOL    HW214883   2.688   0.839   8.256 -0.1597 -0.7875  1.3070
 1083SOL     OW14884   0.252   0.967  16.456  0.2237  0.1456  0.4228
 1083SOL    HW114885   0.251   1.007  16.369 -0.7108  0.3006  0.5110
 1083SOL    HW214886   0.235   1.038  16.518 -0.8884  0.5365 -0.3312
 1084SOL     OW14887   3.682   0.236  10.481  0.3190  0.1362  0.2228
 1084SOL    HW114888   3.662   0.143  10.472  2.0988 -0.2447  0.2045
 1084SOL    HW214889   3.622   0.270  10.414  1.4235  0.3259 -0.6660
 1085SOL     OW14890   4.155   0.193   4.677  0.0309  0.5297  0.2057
 1085SOL    HW114891   4.114   0.134   4.614  0.8900 -0.2330  0.3526
 1085SOL    HW214892   4.075   0.231   4.712 -0.2884  0.2354 -0.2146
 1086SOL     OW14893   3.061   0.256   8.196  0.1292  0.7965 -0.1280
 1086SOL    HW114894   2.973   0.219   8.189  1.4596 -2.2011 -1.0459
 1086SOL    HW214895   3.115   0.181   8.170 -0.2540  1.1292 -1.8809
 1087SOL     OW14896   3.646   1.156   5.093  0.3886  0.0109  0.0821
 1087SOL    HW114897   3.701   1.191   5.023  0.9253 -1.6931 -0.3683
 1087SOL    HW214898   3.675   1.065   5.100 -1.9054 -0.7005  0.3457
 1088SOL     OW14899   0.774   3.012   7.778  0.0717 -0.0178  0.2959
 1088SOL    HW114900   0.824   2.984   7.702  2.1177 -1.3995  2.1692
 1088SOL    HW214901   0.684   2.998   7.749  0.0540  1.7061 -0.4827
 1089SOL     OW14902   3.988   2.099   6.542 -0.1241  0.0895 -0.6022
 1089SOL    HW114903   3.939   2.162   6.595  0.3872  0.9105 -1.1228
 1089SOL    HW214904   4.044   2.066   6.612 -1.6880 -0.0400  0.6093
 1090SOL     OW14905   0.188   3.726   7.782 -0.3777  0.6185 -0.2023
 1090SOL    HW114906   0.218   3.684   7.702 -1.3097 -2.8406  1.2494
 1090SOL    HW214907   0.264   3.713   7.839 -1.4484  0.0262  1.1047
 1091SOL     OW14908   2.789   4.641  11.092 -0.0452 -0.0967  0.0052
 1091SOL    HW114909   2.800   4.732  11.116 -0.0783 -0.0242 -0.2514
 1091SOL    HW214910   2.831   4.630  11.006 -1.0134 -1.2842 -0.3280
 1092SOL     OW14911   4.434   2.633  10.528  0.5492  0.7914 -0.2423
 1092SOL    HW114912   4.360   2.651  10.586 -0.8370 -0.6067 -1.5848
 1092SOL    HW214913   4.393   2.584  10.457  1.0315 -0.1054  0.1010
 1093SOL     OW14914   0.704   4.008  12.863 -0.0268 -0.7818 -0.1304
 1093SOL    HW114915   0.710   4.083  12.803 -1.1895 -1.1493 -0.6951
 1093SOL    HW214916   0.673   4.061  12.937  0.7021 -0.6015  0.0517
 1094SOL     OW14917   0.972   4.267   6.036  0.2718 -0.1640  0.2010
 1094SOL    HW114918   1.028   4.328   6.083  0.1854 -0.6931  0.9820
 1094SOL    HW214919   0.901   4.250   6.099 -0.1922  1.3143  0.0715
 1095SOL     OW14920   1.882   0.798   0.866 -0.6471  0.0953  0.3582
 1095SOL    HW114921   1.922   0.858   0.930 -1.4921 -0.0793  1.0457
 1095SOL    HW214922   1.807   0.846   0.833 -0.6080 -0.4912 -0.5822
 1096SOL     OW14923   4.195   3.504  11.366 -0.1168  0.0417  0.6135
 1096SOL    HW114924   4.277   3.537  11.401 -0.1647  3.2315 -2.2515
 1096SOL    HW214925   4.135   3.530  11.436 -0.2530  1.5524 -0.0642
 1097SOL     OW14926   0.495   3.817   5.423  0.0884  0.0068 -0.0409
 1097SOL    HW114927   0.544   3.829   5.504 -1.1346  0.1012  0.6876
 1097SOL    HW214928   0.409   3.825   5.465 -0.0367  1.2342 -0.5030
 1098SOL     OW14929   3.668   2.597   1.810  0.6106  0.4529  0.1796
 1098SOL    HW114930   3.653   2.604   1.715  1.4011 -0.1248  0.0112
 1098SOL    HW214931   3.718   2.678   1.824  1.3987  0.2459 -1.3858
 1099SOL     OW14932   1.923   0.898   1.687  0.2463 -0.0697  0.0785
 1099SOL    HW114933   1.911   0.818   1.739  0.8065 -0.1131  0.1448
 1099SOL    HW214934   1.907   0.858   1.601  2.4223 -0.9504  0.0755
 1100SOL     OW14935   3.689   0.794   5.706 -0.1388  0.2456 -0.3664
 1100SOL    HW114936   3.730   0.759   5.785 -1.1176 -3.3484 -1.4475
 1100SOL    HW214937   3.744   0.872   5.696  1.9191 -1.0931  0.4732
 1101SOL     OW14938   2.189   3.803  16.746 -0.2352  0.2868  0.1653
 1101SOL    HW114939   2.093   3.806  16.750 -0.2919 -0.7748 -0.4840
 1101SOL    HW214940   2.203   3.743  16.819 -2.4872 -1.6770 -1.0461
 1102SOL     OW14941   0.971   4.527  11.863 -0.4653 -0.0967 -0.2813
 1102SOL    HW114942   1.035   4.522  11.934 -1.5591  0.2375  0.7284
 1102SOL    HW214943   1.005   4.584  11.795 -2.4315  2.2930  0.7359
 1103SOL     OW14944   3.586   0.059  17.449 -0.2903 -0.0310  0.5142
 1103SOL    HW114945   3.604   0.030  17.539  2.6765  0.0388 -0.0635
 1103SOL    HW214946   3.514   0.120  17.465 -0.0101  0.0891  1.3469
 1104SOL     OW14947   4.720   4.635   7.741 -0.5787 -0.1378 -0.1643
 1104SOL    HW114948   4.691   4.546   7.722 -0.7445 -0.1419  0.1018
 1104SOL    HW214949   0.079   4.632   7.750 -0.5925  0.2079  0.1237
 1105SOL     OW14950   2.816   3.363   4.062 -0.3163 -0.2900 -0.1626
 1105SOL    HW114951   2.830   3.455   4.084 -1.0081 -0.1586 -0.2963
 1105SOL    HW214952   2.750   3.382   3.996 -0.7995 -0.1538  0.3558
 1106SOL     OW14953   2.495   2.483  13.133 -0.5636  0.3199  0.6053
 1106SOL    HW114954   2.542   2.561  13.104 -1.0346  0.5602  0.4849
 1106SOL    HW214955   2.425   2.476  13.068 -0.1912 -2.5039  0.4829
 1107SOL     OW14956   1.885   4.731   2.986  0.2856  0.3045  0.2504
 1107SOL    HW114957   1.793   0.021   2.994  0.1070 -0.2535 -0.0665
 1107SOL    HW214958   1.881   4.655   2.929 -1.4031 -2.1936  3.7149
 1108SOL     OW14959   2.571   4.321   4.975 -0.3353  0.0525 -0.3000
 1108SOL    HW114960   2.501   4.377   5.008 -1.5784 -1.2506 -0.6980
 1108SOL    HW214961   2.554   4.337   4.882  0.1471 -2.5290 -0.8326
 1109SOL     OW14962   1.356   0.719   3.371 -0.2780 -0.5131  0.0576
 1109SOL    HW114963   1.403   0.801   3.355 -1.7150  0.0113 -1.4123
 1109SOL    HW214964   1.383   0.691   3.459 -0.2198 -1.4356 -0.2514
 1110SOL     OW14965   4.276   4.270   1.167 -0.4581  0.4599  0.1612
 1110SOL    HW114966   4.364   4.305   1.180 -0.5086 -0.2035  2.2901
 1110SOL    HW214967   4.216   4.345   1.172  0.5250  1.2432  0.1258
 1111SOL     OW14968   3.713   0.156   7.998 -0.0813  0.4472  0.5593
 1111SOL    HW114969   3.694   0.100   7.923 -0.0190  0.1510  0.7686
 1111SOL    HW214970   3.794   0.123   8.036  0.3313  0.1949 -0.5483
 1112SOL     OW14971   0.151   3.100   4.910 -0.0566  0.5301 -0.1412
 1112SOL    HW114972   0.060   3.074   4.928  0.8196 -1.5493  1.2524
 1112SOL    HW214973   0.162   3.068   4.821  0.9551 -1.6790  0.7682
 1113SOL     OW14974   0.136   1.148   8.679  0.2098  0.0560 -0.3602
 1113SOL    HW114975   0.061   1.106   8.638  0.9627 -2.4614  0.8569
 1113SOL    HW214976   0.156   1.084   8.747 -0.7935 -0.6835 -0.7640
 1114SOL     OW14977   1.171   2.206   5.396 -1.1387 -0.0437 -0.3580
 1114SOL    HW114978   1.235   2.185   5.464 -1.5470  0.2746  0.1199
 1114SOL    HW214979   1.162   2.301   5.403 -0.8516 -0.2081  2.4011
 1115SOL     OW14980   1.640   3.584   2.606  0.0424 -0.1978  0.2150
 1115SOL    HW114981   1.692   3.503   2.608  0.6428  0.2032  0.5978
 1115SOL    HW214982   1.572   3.560   2.543  0.9676  1.1209 -1.2587
 1116SOL     OW14983   4.474   1.350   3.817 -0.3066 -0.6931 -0.1771
 1116SOL    HW114984   4.561   1.384   3.793 -0.1975 -0.4949  0.5148
 1116SOL    HW214985   4.428   1.433   3.831 -0.6722 -0.8006 -0.7502
 1117SOL     OW14986   3.059   2.548   0.022  0.4808  0.1730  0.0615
 1117SOL    HW114987   2.980   2.523  17.717  0.6598  1.6271 -0.9823
 1117SOL    HW214988   3.058   2.639  17.738 -1.9662  0.5370  1.3669
 1118SOL     OW14989   1.293   1.917  14.170  0.2364 -0.0431 -0.3694
 1118SOL    HW114990   1.265   1.902  14.260  3.5341 -0.5388  0.5847
 1118SOL    HW214991   1.268   2.008  14.151  0.7543  0.0665 -0.5274
 1119SOL     OW14992   0.958   1.173  13.803 -0.1278 -0.5432 -0.0398
 1119SOL    HW114993   1.024   1.208  13.863  0.4753 -1.7389 -0.0060
 1119SOL    HW214994   0.993   1.084  13.800  1.7301  0.0955  2.4402
 1120SOL     OW14995   1.930   4.584  17.219  0.0158  0.8890 -0.2160
 1120SOL    HW114996   1.884   4.604  17.137  1.5900  0.0589 -1.2834
 1120SOL    HW214997   1.856   4.542  17.263  1.6440 -2.4444 -0.6821
 1121SOL     OW14998   1.555   3.331   3.293 -0.3623  0.4606  0.2577
 1121SOL    HW114999   1.495   3.294   3.358 -1.4730  0.5985 -0.6919
 1121SOL    HW215000   1.603   3.260   3.251  1.0670  0.6861  1.5176
 1122SOL     OW15001   3.280   0.039   5.276  0.3862  0.5472  0.5042
 1122SOL    HW115002   3.264   4.682   5.292  1.3901  0.5704  1.6325
 1122SOL    HW215003   3.228   0.055   5.198 -1.3015 -4.6673  0.5603
 1123SOL     OW15004   4.616   0.467   4.351 -0.0920 -0.2649 -0.5140
 1123SOL    HW115005   4.650   0.407   4.285 -2.3244 -2.3181  0.1966
 1123SOL    HW215006   4.526   0.435   4.358 -0.1853 -0.0721 -0.8390
 1124SOL     OW15007   3.073   0.622   6.757 -0.1389  0.1870  0.1715
 1124SOL    HW115008   3.124   0.696   6.726 -1.3079  0.5533 -0.8737
 1124SOL    HW215009   2.984   0.644   6.729 -0.6419  0.5486  2.0208
 1125SOL     OW15010   2.054   0.191   9.693 -0.1183  0.0137 -1.1585
 1125SOL    HW115011   2.049   0.281   9.725  1.9193 -0.6690  1.1074
 1125SOL    HW215012   2.148   0.181   9.683  0.1347  0.5052  0.6506
 1126SOL     OW15013   0.614   0.698   4.561  0.5287  0.3750 -0.0469
 1126SOL    HW115014   0.520   0.709   4.578  0.3409  0.7703 -1.3377
 1126SOL    HW215015   0.625   0.793   4.556  3.1850  0.1176  0.8872
 1127SOL     OW15016   1.501   2.841  17.119 -0.2225 -0.2367  0.4253
 1127SOL    HW115017   1.529   2.761  17.075  1.6694  1.1306 -0.8837
 1127SOL    HW215018   1.413   2.816  17.145 -0.9036  1.0272 -0.7027
 1128SOL     OW15019   1.127   2.499   5.908  0.0945  0.7965  0.2119
 1128SOL    HW115020   1.183   2.431   5.871 -1.5768 -0.1413 -0.5867
 1128SOL    HW215021   1.072   2.449   5.968  1.9020 -0.0675  1.1442
 1129SOL     OW15022   0.074   2.558   5.564 -0.1966  0.0783 -0.0595
 1129SOL    HW115023   0.028   2.636   5.597  0.9828  0.4508  0.6947
 1129SOL    HW215024   0.093   2.516   5.648  0.2350  0.7705  0.1919
 1130SOL     OW15025   4.730   1.248   2.696 -0.5930 -0.5171 -0.1530
 1130SOL    HW115026   4.691   1.334   2.681  0.7435 -0.3911 -2.9712
 1130SOL    HW215027   0.017   1.261   2.788  0.7282  2.8747 -0.9535
 1131SOL     OW15028   0.552   0.386  16.184 -0.3550  0.8552 -0.0402
 1131SOL    HW115029   0.524   0.370  16.093 -1.3806 -0.2787  0.4679
 1131SOL    HW215030   0.464   0.397  16.220  0.0485 -0.3156  1.2849
 1132SOL     OW15031   0.116   0.417   5.069  0.2754  0.0077 -0.0057
 1132SOL    HW115032   0.041   0.473   5.088  1.3029  1.9616 -1.7118
 1132SOL    HW215033   0.090   0.342   5.015 -0.1819  0.4664 -0.4346
 1133SOL     OW15034   2.516   2.739   7.539 -0.5025  0.3751 -0.1115
 1133SOL    HW115035   2.581   2.701   7.598 -0.0092 -0.3481 -1.1360
 1133SOL    HW215036   2.508   2.660   7.485  0.1129  0.2202  0.0277
 1134SOL     OW15037   3.640   4.635   3.108 -0.0479 -0.0722 -0.4648
 1134SOL    HW115038   3.583   4.693   3.157 -0.8690  0.4847 -2.0585
 1134SOL    HW215039   3.577   4.572   3.072 -0.4051 -0.3300  0.6039
 1135SOL     OW15040   2.887   4.668  15.218  0.1764 -0.9076  0.2979
 1135SOL    HW115041   2.970   4.708  15.193  0.2565 -0.1195  1.8969
 1135SOL    HW215042   2.926   4.585  15.248  0.1809 -0.9359  0.2149
 1136SOL     OW15043   4.226   1.881   7.463 -0.3115  0.0704  0.3865
 1136SOL    HW115044   4.288   1.890   7.535  2.2613  0.7546 -1.9592
 1136SOL    HW215045   4.259   1.940   7.396  0.3008  0.6938  1.2403
 1137SOL     OW15046   4.530   2.226   8.975  0.0754 -0.6674 -0.2873
 1137SOL    HW115047   4.529   2.137   9.007  1.0762  0.6507  3.3309
 1137SOL    HW215048   4.473   2.213   8.899 -0.8112  2.2387 -0.1482
 1138SOL     OW15049   0.970   3.649   2.844 -0.1045  0.0588 -0.0670
 1138SOL    HW115050   0.970   3.731   2.893  1.3950  0.5401 -0.8613
 1138SOL    HW215051   0.958   3.581   2.910  0.3996  2.2078  2.2281
 1139SOL     OW15052   1.945   1.012   6.650  0.3469 -0.1843 -0.2183
 1139SOL    HW115053   1.908   0.979   6.568  1.9208 -1.2251 -0.5247
 1139SOL    HW215054   1.884   1.075   6.689  1.2478 -0.4322  1.6162
 1140SOL     OW15055   4.624   0.653  11.646 -0.2272 -0.7905 -0.4207
 1140SOL    HW115056   4.643   0.565  11.679  1.1259 -1.6171 -3.3396
 1140SOL    HW215057   4.715   0.680  11.647  0.0066 -1.6384  1.1607
 1141SOL     OW15058   3.490   4.634   5.720 -0.1940 -0.5513 -0.1524
 1141SOL    HW115059   3.479   4.552   5.673 -2.2931 -0.3338 -0.0465
 1141SOL    HW215060   3.514   4.600   5.806  0.3637  2.5264  0.9120
 1142SOL     OW15061   0.964   1.832   6.970  0.7926  0.2132  0.5127
 1142SOL    HW115062   1.023   1.821   7.044  1.1096 -0.3516  0.1722
 1142SOL    HW215063   0.902   1.896   7.006 -0.5583 -1.4838  1.2287
 1143SOL     OW15064   2.772   2.914   4.476 -0.0304  0.6016 -0.2326
 1143SOL    HW115065   2.677   2.918   4.485 -0.2911 -0.9379 -2.1478
 1143SOL    HW215066   2.800   2.992   4.523 -0.5406  0.5903  0.0889
 1144SOL     OW15067   1.932   4.595   5.112  0.3796  0.4970 -0.1553
 1144SOL    HW115068   1.985   4.674   5.101  0.6332  0.5499  1.4460
 1144SOL    HW215069   1.879   4.598   5.033  1.0768  1.0943 -0.5947
 1145SOL     OW15070   4.723   3.648   6.570 -0.7049  0.0133  0.3354
 1145SOL    HW115071   0.020   3.692   6.492 -0.9475 -1.3531 -0.5456
 1145SOL    HW215072   4.662   3.579   6.544 -0.7240  0.1972 -0.1008
 1146SOL     OW15073   3.654   1.428   7.139  0.2770 -0.0484  0.7710
 1146SOL    HW115074   3.592   1.432   7.212 -1.7114 -1.0572 -0.8732
 1146SOL    HW215075   3.642   1.518   7.109  0.0907  0.1165  1.3460
 1147SOL     OW15076   0.316   3.671   3.405 -0.1879 -0.3433  0.3412
 1147SOL    HW115077   0.380   3.741   3.421  0.0390 -0.8177  1.5339
 1147SOL    HW215078   0.286   3.664   3.496 -2.3168  0.4233 -0.3102
 1148SOL     OW15079   1.326   3.890   6.283 -0.0480  0.1885  0.9350
 1148SOL    HW115080   1.316   3.980   6.314  1.6823 -0.0009  2.0098
 1148SOL    HW215081   1.242   3.849   6.306  0.7801 -1.1671  1.5016
 1149SOL     OW15082   2.176   2.134   7.990  0.1357 -0.3613  0.5384
 1149SOL    HW115083   2.231   2.068   8.032 -2.1723 -1.0615  2.4626
 1149SOL    HW215084   2.234   2.189   7.936  0.0956 -0.0832  0.7769
 1150SOL     OW15085   2.552   1.874   7.255  0.2658 -0.0607 -0.1802
 1150SOL    HW115086   2.503   1.792   7.247 -1.0181  0.7715 -0.9619
 1150SOL    HW215087   2.507   1.917   7.182 -1.3005  1.3475  1.6170
 1151SOL     OW15088   4.522   4.035   7.797  0.2997  0.0082  0.7763
 1151SOL    HW115089   4.500   3.943   7.815  1.8262 -0.3656  0.7133
 1151SOL    HW215090   4.488   4.077   7.877 -1.1654  0.1178  0.0949
 1152SOL     OW15091   2.315   4.437   5.095 -0.2202  0.6895 -0.5941
 1152SOL    HW115092   2.237   4.382   5.093 -0.0678  0.5029 -1.4669
 1152SOL    HW215093   2.369   4.401   5.166 -1.0691  1.7208  0.5760
 1153SOL     OW15094   0.897   1.478  16.778  0.0894  0.1119 -0.2172
 1153SOL    HW115095   0.912   1.469  16.684  0.1506 -0.1321 -0.1830
 1153SOL    HW215096   0.822   1.419  16.792 -0.9908  1.2077 -1.3154
 1154SOL     OW15097   4.164   1.258   3.388  0.6712  0.2110  0.1862
 1154SOL    HW115098   4.103   1.223   3.322  1.0941  2.2726 -1.2851
 1154SOL    HW215099   4.146   1.351   3.375 -3.9229 -0.2440  3.6685
 1155SOL     OW15100   4.617   3.104  10.451  0.1480  0.1497  0.1617
 1155SOL    HW115101   4.621   3.074  10.360 -0.2290 -0.7584  0.4471
 1155SOL    HW215102   4.559   3.179  10.441  1.9930  1.2728 -2.1767
 1156SOL     OW15103   3.418   2.984  10.015 -0.3966  0.0273 -0.5005
 1156SOL    HW115104   3.453   3.066   9.980 -0.7779  0.5752  0.4250
 1156SOL    HW215105   3.465   2.913   9.971  0.6276 -0.4333  1.3743
 1157SOL     OW15106   2.391   1.986   7.903  0.1522  0.1545 -0.1849
 1157SOL    HW115107   2.393   1.976   7.808 -0.6582 -0.7073 -0.1089
 1157SOL    HW215108   2.484   1.973   7.926  0.5470  0.0450 -1.8738
 1158SOL     OW15109   1.161   0.449   4.761 -0.3728 -0.1039  0.4305
 1158SOL    HW115110   1.156   0.396   4.841  0.3879  0.1586  0.6533
 1158SOL    HW215111   1.159   0.383   4.692 -0.3572  1.1975 -0.8014
 1159SOL     OW15112   3.467   0.341   7.841  0.4480 -0.0145 -0.4184
 1159SOL    HW115113   3.551   0.343   7.796  0.3007  0.6234 -0.6687
 1159SOL    HW215114   3.459   0.429   7.878  0.0429 -1.1885  2.2714
 1160SOL     OW15115   3.460   3.121  11.605 -0.0490 -0.3107  0.7566
 1160SOL    HW115116   3.509   3.203  11.604 -0.8467  0.1708  1.6086
 1160SOL    HW215117   3.390   3.137  11.669 -1.2398  3.6483 -1.5247
 1161SOL     OW15118   3.269   1.976   1.964  0.5207 -0.2213 -0.4538
 1161SOL    HW115119   3.321   1.907   1.923  0.9506  1.0502 -2.0132
 1161SOL    HW215120   3.324   2.051   1.943  0.1853 -0.2946 -1.5905
 1162SOL     OW15121   3.721   3.487   9.116  0.0430 -0.2626  0.4642
 1162SOL    HW115122   3.740   3.406   9.069 -2.1520  0.1576 -1.1430
 1162SOL    HW215123   3.664   3.463   9.189 -0.4043 -0.6326 -0.0112
 1163SOL     OW15124   2.658   0.529   6.624  0.3274  0.1595  0.0997
 1163SOL    HW115125   2.583   0.575   6.662 -0.3855 -0.3224 -0.7181
 1163SOL    HW215126   2.728   0.593   6.641  0.0225  0.1958  1.2531
 1164SOL     OW15127   1.977   1.188   3.968  0.4169 -0.1810 -0.1066
 1164SOL    HW115128   1.917   1.261   3.953  0.7805 -0.0131 -0.7481
 1164SOL    HW215129   2.038   1.211   3.898  1.2966  2.5016  1.5672
 1165SOL     OW15130   2.805   1.202  14.600 -0.2778 -0.1017  0.5531
 1165SOL    HW115131   2.836   1.147  14.672  1.0842 -1.6116 -1.2159
 1165SOL    HW215132   2.819   1.285  14.646  2.3797 -0.3339  0.1545
 1166SOL     OW15133   3.132   1.508   5.457 -0.5349  0.0077  0.2866
 1166SOL    HW115134   3.088   1.565   5.393 -0.8885  0.3431  0.8346
 1166SOL    HW215135   3.089   1.428   5.427 -0.7065  0.1355  0.1875
 1167SOL     OW15136   2.727   1.760   3.046  0.4783 -0.0909 -0.3874
 1167SOL    HW115137   2.736   1.835   2.987  0.3226  0.0315 -0.2576
 1167SOL    HW215138   2.680   1.700   2.989 -0.9432 -1.0933  1.8417
 1168SOL     OW15139   0.720   1.236   1.338  0.4146 -0.0366 -0.1070
 1168SOL    HW115140   0.722   1.173   1.266 -0.3602 -1.0557  0.7594
 1168SOL    HW215141   0.626   1.247   1.353  0.4804  1.0869 -0.5009
 1169SOL     OW15142   0.396   0.893  10.627 -0.0586  0.3966 -0.4963
 1169SOL    HW115143   0.388   0.898  10.722  0.5077  2.0248 -0.5281
 1169SOL    HW215144   0.397   0.984  10.596  0.8799  0.1724 -1.1119
 1170SOL     OW15145   0.866   3.337   2.700  0.2404  0.2889 -0.1126
 1170SOL    HW115146   0.871   3.424   2.662  0.4053  0.1927 -0.3088
 1170SOL    HW215147   0.858   3.355   2.794  1.5475 -0.8122  0.2108
 1171SOL     OW15148   1.378   0.573   5.002  0.2065 -0.4318 -0.0417
 1171SOL    HW115149   1.360   0.505   5.067 -0.7062  0.5081  0.6869
 1171SOL    HW215150   1.289   0.582   4.967 -0.3001 -0.9420  1.1290
 1172SOL     OW15151   3.309   1.454   2.154 -0.2734  0.0672 -0.0537
 1172SOL    HW115152   3.333   1.518   2.221  3.1348 -1.7271  0.4514
 1172SOL    HW215153   3.384   1.455   2.095 -0.6123  0.6868 -0.4663
 1173SOL     OW15154   2.867   1.485  14.283  0.1862  0.1886 -0.5895
 1173SOL    HW115155   2.935   1.488  14.216  0.8544  0.8289  0.1050
 1173SOL    HW215156   2.791   1.482  14.225 -0.6002  1.8189  0.3544
 1174SOL     OW15157   0.865   2.096  15.905 -0.0504  0.4225 -0.1562
 1174SOL    HW115158   0.927   2.133  15.842 -0.9712  0.1968 -1.1937
 1174SOL    HW215159   0.913   2.020  15.938 -1.1614  0.3496  1.2495
 1175SOL     OW15160   4.297   0.290  16.353  0.2627 -0.3168 -0.7598
 1175SOL    HW115161   4.207   0.269  16.331 -0.5415  1.1565  1.1229
 1175SOL    HW215162   4.286   0.345  16.431  0.6863  0.7666 -1.4553
 1176SOL     OW15163   2.551   4.725   2.508  0.4605 -0.6829 -0.5173
 1176SOL    HW115164   2.557   4.714   2.414 -2.7330  2.2348 -1.0710
 1176SOL    HW215165   2.590   4.642   2.536 -0.3167 -1.4755 -1.7863
 1177SOL     OW15166   3.510   3.266  10.568  0.4457  0.4312 -0.1955
 1177SOL    HW115167   3.579   3.212  10.530  1.0295  2.3324 -1.8405
 1177SOL    HW215168   3.550   3.266  10.655 -1.7311 -0.6251  0.8010
 1178SOL     OW15169   2.349   3.423   1.717 -0.3635 -0.2584  0.0515
 1178SOL    HW115170   2.437   3.454   1.695 -1.1823  0.5987 -2.0161
 1178SOL    HW215171   2.328   3.480   1.791  1.2408  2.7193 -1.7874
 1179SOL     OW15172   3.885   0.070  15.019  0.1385 -0.0004 -0.1031
 1179SOL    HW115173   3.952   0.052  14.954 -0.6664 -2.8647 -0.1429
 1179SOL    HW215174   3.878   0.165  15.007 -0.1256  0.0618  0.4873
 1180SOL     OW15175   2.217   1.559  17.471 -0.2440  0.8456 -0.0587
 1180SOL    HW115176   2.209   1.594  17.560 -0.8440  0.1050  0.1762
 1180SOL    HW215177   2.131   1.590  17.441 -0.0569  1.6520  0.2253
 1181SOL     OW15178   3.043   0.299   1.967  0.3684 -0.2108 -0.1665
 1181SOL    HW115179   3.121   0.301   1.912 -0.7564  2.2875 -1.6595
 1181SOL    HW215180   3.075   0.246   2.041  1.3007  1.2777  0.4971
 1182SOL     OW15181   0.472   0.897   5.881 -0.1113  0.1295 -0.1062
 1182SOL    HW115182   0.498   0.809   5.854  3.1216  0.5458  1.5524
 1182SOL    HW215183   0.441   0.885   5.971  0.8674  0.9518  0.3381
 1183SOL     OW15184   1.904   2.739  16.335  0.3963 -1.0744 -0.0905
 1183SOL    HW115185   1.881   2.807  16.271 -0.1109 -2.0084 -0.8965
 1183SOL    HW215186   1.999   2.754  16.331  0.5407 -2.2405 -1.2626
 1184SOL     OW15187   3.770   1.536   6.706  0.2208  0.5069  0.4024
 1184SOL    HW115188   3.757   1.476   6.779 -3.3772  1.0183  0.1622
 1184SOL    HW215189   3.824   1.479   6.651 -0.2027 -1.5942  2.1650
 1185SOL     OW15190   3.310   3.507   2.971  0.9043 -0.5827  0.2205
 1185SOL    HW115191   3.320   3.565   3.047 -1.3821 -1.1321  0.9155
 1185SOL    HW215192   3.363   3.546   2.901  0.1414 -1.1704 -0.6799
 1186SOL     OW15193   3.707   4.481  12.511 -0.1051  0.3940  0.3389
 1186SOL    HW115194   3.788   4.507  12.556  1.2905 -1.0455 -1.3517
 1186SOL    HW215195   3.701   4.556  12.453  2.7915 -1.0139 -1.8066
 1187SOL     OW15196   3.812   1.209   1.912  0.3355 -0.2119 -0.5119
 1187SOL    HW115197   3.870   1.258   1.854  0.3458 -1.2214 -1.3460
 1187SOL    HW215198   3.754   1.181   1.841 -2.0841 -2.5835  2.3942
 1188SOL     OW15199   1.363   4.392   9.705  0.5503  0.2716 -0.4224
 1188SOL    HW115200   1.443   4.339   9.698  1.3728  1.4503  0.1095
 1188SOL    HW215201   1.318   4.317   9.745  3.1553 -1.7183 -1.2314
 1189SOL     OW15202   3.445   1.238   1.446 -0.2418 -0.5003  0.1697
 1189SOL    HW115203   3.500   1.160   1.456  0.5305 -0.1235 -1.1283
 1189SOL    HW215204   3.501   1.304   1.487 -1.8866  1.2369 -0.4136
 1190SOL     OW15205   2.658   1.813   5.582 -0.9583 -0.1134 -0.0614
 1190SOL    HW115206   2.686   1.731   5.623  0.6469  0.2032 -0.5331
 1190SOL    HW215207   2.726   1.821   5.515  0.3942 -2.8138  1.0082
 1191SOL     OW15208   3.528   3.284   2.114  0.2535  0.0433  0.4906
 1191SOL    HW115209   3.581   3.224   2.167 -3.5640 -0.6580  3.5373
 1191SOL    HW215210   3.598   3.340   2.082  1.4873 -2.2288 -0.7878
 1192SOL     OW15211   2.264   4.244   4.746  0.5532 -0.1922 -0.0927
 1192SOL    HW115212   2.170   4.233   4.729 -0.2993  1.0537  3.8010
 1192SOL    HW215213   2.281   4.333   4.717 -1.4601 -0.3874 -1.8841
 1193SOL     OW15214   0.586   0.879  11.552 -0.6873  0.0709 -0.2904
 1193SOL    HW115215   0.561   0.802  11.604 -0.9627  0.6147  0.3814
 1193SOL    HW215216   0.580   0.946  11.620  1.5483 -1.7574  1.7072
 1194SOL     OW15217   0.499   0.883  14.630 -0.0249 -0.4225 -1.0051
 1194SOL    HW115218   0.435   0.855  14.695  0.2298 -0.4849 -0.7791
 1194SOL    HW215219   0.450   0.889  14.548 -1.4100 -0.1003 -0.1559
 1195SOL     OW15220   4.114   1.651  11.284  0.1080  0.1623 -0.4597
 1195SOL    HW115221   4.134   1.559  11.297  0.1223  0.3802  1.0681
 1195SOL    HW215222   4.177   1.672  11.216  0.0037  2.4593  0.1386
 1196SOL     OW15223   2.279   2.547  12.920 -0.0445 -0.3312  0.0015
 1196SOL    HW115224   2.275   2.576  12.829  0.3225  0.6134  0.2897
 1196SOL    HW215225   2.213   2.477  12.923 -1.1869  0.6744 -2.7260
 1197SOL     OW15226   0.581   4.394   8.528 -0.4372 -0.4962 -0.2273
 1197SOL    HW115227   0.552   4.308   8.495 -0.1023  0.1926 -2.2884
 1197SOL    HW215228   0.494   4.432   8.535 -0.4478 -0.2685 -1.5818
 1198SOL     OW15229   2.902   0.797   3.742 -0.7100  0.3958  0.0713
 1198SOL    HW115230   2.942   0.883   3.758  2.8975 -1.4689  1.0432
 1198SOL    HW215231   2.941   0.775   3.658 -0.8169  1.0640 -0.1594
 1199SOL     OW15232   3.073   0.657   1.960  0.0159 -0.2159  0.0040
 1199SOL    HW115233   3.121   0.608   1.893 -0.3751 -0.3636 -0.1677
 1199SOL    HW215234   3.072   0.604   2.039 -0.9005  2.5269  1.8229
 1200SOL     OW15235   4.171   2.495   3.668 -0.7331  0.0468  0.1719
 1200SOL    HW115236   4.212   2.458   3.590 -1.1131  0.5440 -0.2544
 1200SOL    HW215237   4.220   2.439   3.729 -1.0644  0.3672  0.7357
 1201SOL     OW15238   1.922   4.143   7.522 -0.3854 -0.0855 -0.4632
 1201SOL    HW115239   2.001   4.177   7.480  0.5109 -2.6220 -0.7993
 1201SOL    HW215240   1.950   4.059   7.557 -0.4433  0.2774  0.4541
 1202SOL     OW15241   2.143   1.369  12.530  0.0319 -0.6395  0.1259
 1202SOL    HW115242   2.110   1.302  12.470  0.1070 -1.9938  1.5842
 1202SOL    HW215243   2.084   1.349  12.603 -0.3615  0.9632  0.2353
 1203SOL     OW15244   0.267   1.208  10.818  0.1513 -0.3512 -0.4069
 1203SOL    HW115245   0.319   1.194  10.738  0.9313  0.5309 -0.0679
 1203SOL    HW215246   0.325   1.266  10.867 -2.2766  0.7764  1.1208
 1204SOL     OW15247   3.363   0.764   2.867 -0.5017 -0.3395 -0.2091
 1204SOL    HW115248   3.316   0.764   2.784  0.1634  0.6082 -0.5733
 1204SOL    HW215249   3.402   0.851   2.862  1.9432 -1.4990 -1.0951
 1205SOL     OW15250   3.153   2.786  11.292  0.4199  0.7527  0.0361
 1205SOL    HW115251   3.115   2.727  11.358  1.0088 -1.5791 -1.6746
 1205SOL    HW215252   3.217   2.836  11.342 -0.7331  0.3514  1.8917
 1206SOL     OW15253   2.896   4.646   0.149  0.0932  0.5043  0.1929
 1206SOL    HW115254   2.974   4.614   0.105 -0.3060  0.1799 -0.2777
 1206SOL    HW215255   2.923   4.734   0.175 -0.0469  0.6431 -0.1171
 1207SOL     OW15256   1.525   3.435   5.905 -0.5341 -0.4882  0.0269
 1207SOL    HW115257   1.574   3.374   5.850  0.6395  0.3937  0.1058
 1207SOL    HW215258   1.564   3.424   5.992 -1.1835  0.0430  0.3898
 1208SOL     OW15259   1.693   4.307   3.359  0.2410 -0.0530  0.3801
 1208SOL    HW115260   1.678   4.391   3.317 -0.4815  1.0024  2.7548
 1208SOL    HW215261   1.621   4.314   3.422 -0.5249  1.3546 -0.6800
 1209SOL     OW15262   3.688   2.550  11.366  0.6238 -0.3552 -0.1435
 1209SOL    HW115263   3.729   2.628  11.403 -2.4184  1.2383 -0.1599
 1209SOL    HW215264   3.598   2.576  11.381  0.9911  0.3614  0.8263
 1210SOL     OW15265   2.159   1.268   4.154 -0.4790  0.5625  0.2720
 1210SOL    HW115266   2.089   1.212   4.121  0.4881 -0.9967  0.8962
 1210SOL    HW215267   2.114   1.353   4.154 -0.7710  0.4080 -0.2102
 1211SOL     OW15268   3.397   3.367  17.267 -0.6721  0.2216 -0.1802
 1211SOL    HW115269   3.364   3.456  17.256  2.5383  1.7770  2.8987
 1211SOL    HW215270   3.478   3.367  17.217 -1.1014  1.8572 -0.8883
 1212SOL     OW15271   2.976   2.222   5.488  0.0860 -0.5816  0.7532
 1212SOL    HW115272   2.946   2.302   5.531  0.9794  0.8757 -1.3445
 1212SOL    HW215273   3.045   2.252   5.430 -1.0356 -1.3191 -0.9648
 1213SOL     OW15274   0.362   3.187   2.363 -0.1799  0.2999 -0.2465
 1213SOL    HW115275   0.454   3.205   2.343 -0.4043  1.1244 -0.5452
 1213SOL    HW215276   0.332   3.268   2.405 -1.5270  0.2577 -1.1188
 1214SOL     OW15277   2.664   0.861  15.171  0.1888 -0.1402 -1.0296
 1214SOL    HW115278   2.627   0.776  15.190 -0.2059 -0.1086 -1.6509
 1214SOL    HW215279   2.719   0.839  15.095  0.8825 -0.8914 -0.3096
 1215SOL     OW15280   0.307   2.337   7.824 -0.1868  0.2561  0.0962
 1215SOL    HW115281   0.391   2.304   7.793  0.0946 -0.4235  1.6211
 1215SOL    HW215282   0.249   2.312   7.752 -0.0058 -0.4580  0.2004
 1216SOL     OW15283   1.737   2.623   2.228  0.3991 -0.7800 -0.1351
 1216SOL    HW115284   1.728   2.529   2.212 -0.0180 -0.9743  1.2261
 1216SOL    HW215285   1.793   2.655   2.158  1.4678 -0.8203  0.6964
 1217SOL     OW15286   2.008   1.520  10.113  0.2255  0.1655 -0.8506
 1217SOL    HW115287   2.021   1.480  10.199 -0.2518 -1.2646 -1.4449
 1217SOL    HW215288   1.930   1.487  10.069 -0.1509 -2.2653  1.6485
 1218SOL     OW15289   0.766   3.028   8.943  0.1478 -0.0919  0.4827
 1218SOL    HW115290   0.830   3.099   8.937 -3.5009  3.2896  1.5711
 1218SOL    HW215291   0.687   3.060   8.900  0.8094  2.3228  1.0567
 1219SOL     OW15292   3.561   4.270  13.094  0.1288 -0.2350 -0.8330
 1219SOL    HW115293   3.473   4.307  13.085  0.3681  0.6462  0.3525
 1219SOL    HW215294   3.606   4.330  13.153 -2.9663  1.4713 -0.1827
 1220SOL     OW15295   0.759   0.231  16.907 -0.3976  0.2748  0.0465
 1220SOL    HW115296   0.679   0.279  16.885 -1.0127  0.8796  3.5815
 1220SOL    HW215297   0.807   0.295  16.959 -0.7463  0.5624  0.0136
 1221SOL     OW15298   2.906   2.851   8.430  0.5615 -0.0285 -0.6497
 1221SOL    HW115299   2.962   2.904   8.487 -2.2114  0.8665  1.2411
 1221SOL    HW215300   2.951   2.860   8.346  0.2685 -0.7646 -0.8870
 1222SOL     OW15301   2.962   2.043   8.231 -0.3970  0.0677  0.2645
 1222SOL    HW115302   2.869   2.042   8.208  0.5072 -0.7035 -3.2558
 1222SOL    HW215303   2.987   1.968   8.177 -0.9649  0.6051 -0.7341
 1223SOL     OW15304   1.406   3.675   2.158  0.1285 -0.6017 -0.1227
 1223SOL    HW115305   1.427   3.753   2.211 -0.2897  0.8692 -2.1170
 1223SOL    HW215306   1.347   3.716   2.094 -0.2971  1.6406  1.6949
 1224SOL     OW15307   2.609   2.177   8.976  0.3102  0.3981 -0.2811
 1224SOL    HW115308   2.548   2.232   8.927  0.6081 -0.0240 -1.1116
 1224SOL    HW215309   2.677   2.165   8.911 -1.2172  0.3550 -1.8797
 1225SOL     OW15310   2.857   4.335   4.491  0.3790 -0.0518  0.7736
 1225SOL    HW115311   2.783   4.335   4.430 -2.0554  0.8616  3.7051
 1225SOL    HW215312   2.821   4.278   4.559  0.1987 -2.0110 -0.9758
 1226SOL     OW15313   2.696   3.096   8.299  0.2582 -0.2772 -0.3186
 1226SOL    HW115314   2.609   3.133   8.285  0.4941  0.2242 -0.4554
 1226SOL    HW215315   2.684   3.037   8.373 -1.8871  0.8880  0.2686
 1227SOL     OW15316   3.780   2.612  10.097  0.0471  0.9898 -0.0870
 1227SOL    HW115317   3.725   2.538  10.070 -1.9649  2.3282  0.3038
 1227SOL    HW215318   3.804   2.599  10.188  0.9422 -1.6190 -0.6904
 1228SOL     OW15319   1.707   4.049   2.658  0.7617 -0.0932  0.2410
 1228SOL    HW115320   1.706   3.971   2.713 -0.0649 -1.3552 -1.5478
 1228SOL    HW215321   1.770   4.014   2.595 -0.0090 -1.6319  0.3185
 1229SOL     OW15322   0.423   0.924   7.825 -0.3346  0.3562 -0.7171
 1229SOL    HW115323   0.503   0.959   7.865 -0.1472 -1.7442  0.7454
 1229SOL    HW215324   0.440   0.920   7.731 -1.4976  2.6135 -1.0229
 1230SOL     OW15325   4.391   4.150  11.134  0.2028  0.0632 -0.2113
 1230SOL    HW115326   4.448   4.187  11.201 -0.3905 -0.3980  0.5466
 1230SOL    HW215327   4.314   4.200  11.160  0.2053  0.5636 -1.1794
 1231SOL     OW15328   2.019   0.398   2.229 -1.1053 -0.0974  0.2404
 1231SOL    HW115329   2.095   0.418   2.284 -1.6471 -2.1639  1.7296
 1231SOL    HW215330   1.983   0.316   2.262  2.5252 -1.5640  0.5216
 1232SOL     OW15331   2.702   3.027   7.433  0.4179  0.5610 -0.3974
 1232SOL    HW115332   2.731   3.102   7.381  0.2626  1.6238  1.0380
 1232SOL    HW215333   2.772   2.965   7.413 -2.0744 -2.4971  0.4410
 1233SOL     OW15334   3.088   4.062   6.029  0.2765  0.8156 -0.0991
 1233SOL    HW115335   3.092   4.021   5.943 -0.1974 -0.7925  0.6572
 1233SOL    HW215336   3.012   4.034   6.079 -1.1474  2.2821 -1.4462
 1234SOL     OW15337   3.883   4.040   2.790  0.5932 -0.2848  0.0172
 1234SOL    HW115338   3.873   3.971   2.725 -1.0275  0.2677 -0.3306
 1234SOL    HW215339   3.967   4.072   2.759  1.8025 -1.9392  1.6020
 1235SOL     OW15340   2.280   3.183   9.439 -0.5363 -0.1178  0.6775
 1235SOL    HW115341   2.346   3.249   9.460 -1.8930  1.3497  0.3351
 1235SOL    HW215342   2.312   3.138   9.361 -0.7148  0.5467  0.2145
 1236SOL     OW15343   4.733   0.904   7.574  0.3015 -0.1007 -0.3006
 1236SOL    HW115344   4.669   0.953   7.626  1.0049  0.5020 -0.0027
 1236SOL    HW215345   4.734   0.948   7.489 -1.4408  1.2265  0.3803
 1237SOL     OW15346   1.983   0.049   1.794  0.5040  0.1885  0.3095
 1237SOL    HW115347   1.906   0.042   1.851 -0.4639  0.8208 -0.9461
 1237SOL    HW215348   1.993   4.692   1.773  1.5560  0.6407 -1.1859
 1238SOL     OW15349   0.039   0.259  10.024  0.0419 -0.2172 -0.6712
 1238SOL    HW115350   4.698   0.238  10.076  1.7661 -0.4475  1.7592
 1238SOL    HW215351   0.057   0.344  10.063 -0.0601  0.5834 -2.3387
 1239SOL     OW15352   2.907   1.098   8.953 -0.9096 -0.1782 -0.1239
 1239SOL    HW115353   2.878   1.142   8.873 -0.9883 -0.2817 -0.1528
 1239SOL    HW215354   2.829   1.046   8.974  0.5884 -0.7682  3.9649
 1240SOL     OW15355   1.676   1.583   1.184 -0.0612  0.4584  0.2903
 1240SOL    HW115356   1.625   1.559   1.107 -0.5676  0.1329  0.7233
 1240SOL    HW215357   1.603   1.618   1.234 -1.6035  1.7195 -2.8908
 1241SOL     OW15358   4.617   1.966  11.565  0.1053  0.0801 -0.2951
 1241SOL    HW115359   4.685   1.938  11.625 -0.0316 -1.5543 -0.8759
 1241SOL    HW215360   4.594   1.884  11.521 -0.9325  1.1119 -1.6846
 1242SOL     OW15361   2.095   0.693   2.497  0.2308  0.3243 -0.3914
 1242SOL    HW115362   2.162   0.633   2.528 -0.2276  1.2669  2.4965
 1242SOL    HW215363   2.096   0.763   2.563 -0.2025 -1.8246  1.9306
 1243SOL     OW15364   2.876   4.173  13.144 -0.0280  0.6315  0.2047
 1243SOL    HW115365   2.800   4.153  13.089 -0.0225 -2.5024  1.3073
 1243SOL    HW215366   2.852   4.263  13.168  1.6058  1.1128  0.0119
 1244SOL     OW15367   4.057   0.500   4.481 -0.0996  0.1225 -0.2208
 1244SOL    HW115368   4.015   0.577   4.521  0.8270  2.0976 -3.0470
 1244SOL    HW215369   4.052   0.534   4.391  1.3015 -0.2208 -0.4164
 1245SOL     OW15370   4.484   2.174  16.989 -0.1685 -0.0455  0.5822
 1245SOL    HW115371   4.455   2.259  17.022 -3.0147 -0.8646  0.1512
 1245SOL    HW215372   4.451   2.172  16.899  0.1697 -2.7525  0.5205
 1246SOL     OW15373   0.288   0.182   3.013  0.2636 -0.2192  0.2287
 1246SOL    HW115374   0.225   0.246   2.980  0.3890 -0.8840 -1.2788
 1246SOL    HW215375   0.246   0.157   3.095  0.7261 -2.8232 -0.3400
 1247SOL     OW15376   4.205   3.013   1.093 -0.0018 -0.0839 -0.0028
 1247SOL    HW115377   4.228   3.038   1.004 -0.7154  1.4725  0.2579
 1247SOL    HW215378   4.140   2.945   1.075 -1.2586  1.1253 -0.0057
 1248SOL     OW15379   1.509   4.407  11.727  0.0116 -0.0054 -0.1539
 1248SOL    HW115380   1.585   4.458  11.700  1.2300 -1.1449  1.1395
 1248SOL    HW215381   1.551   4.367  11.802 -0.6803  0.7096  0.6175
 1249SOL     OW15382   1.251   3.244  13.327 -0.0826 -0.1830 -0.7719
 1249SOL    HW115383   1.318   3.294  13.279 -0.0728 -0.6435 -1.2454
 1249SOL    HW215384   1.199   3.315  13.364 -0.0309 -0.1108 -0.8374
 1250SOL     OW15385   1.996   1.155   2.548  0.1478  0.2984  0.7143
 1250SOL    HW115386   1.923   1.216   2.549  0.1482  0.2876  1.3276
 1250SOL    HW215387   1.938   1.081   2.530  3.1053 -1.5468 -1.2540
 1251SOL     OW15388   0.101   4.289  15.715  0.2588 -0.5011 -0.0933
 1251SOL    HW115389   0.056   4.293  15.799  0.8422  0.9791  0.1324
 1251SOL    HW215390   0.187   4.252  15.733 -0.7525 -3.2681 -0.9032
 1252SOL     OW15391   0.537   0.101  16.215 -0.0549 -0.2025 -0.3040
 1252SOL    HW115392   0.507   0.188  16.188  0.0849  0.4043  1.4860
 1252SOL    HW215393   0.627   0.125  16.239 -0.7810  0.3353  1.9380
 1253SOL     OW15394   4.585   0.446   6.990  0.1920 -0.4774  0.4442
 1253SOL    HW115395   4.584   0.378   6.922  0.3184  1.2037 -1.2332
 1253SOL    HW215396   4.491   0.459   7.007  0.1418  1.8524 -1.5438
 1254SOL     OW15397   3.629   0.904   4.029 -0.2995  0.2641 -0.2774
 1254SOL    HW115398   3.688   0.829   4.036  0.0642  0.2802 -3.0356
 1254SOL    HW215399   3.666   0.963   4.095 -0.0157 -0.7071  0.4209
 1255SOL     OW15400   2.373   1.486   0.024  0.1877 -0.4252  0.3649
 1255SOL    HW115401   2.312   1.554  17.741  0.1970  0.0826  1.6637
 1255SOL    HW215402   2.389   1.430  17.691 -0.1304  0.1465 -0.1138
 1256SOL     OW15403   2.890   3.005  16.718  0.5785  0.3677 -0.4984
 1256SOL    HW115404   2.896   2.920  16.675  2.4561 -0.4749  1.4035
 1256SOL    HW215405   2.797   3.016  16.737  0.1499 -0.2238 -2.2965
 1257SOL     OW15406   3.586   1.633  16.309 -0.8116  0.6520  0.2381
 1257SOL    HW115407   3.681   1.646  16.310 -0.9098  1.3450  0.6820
 1257SOL    HW215408   3.561   1.673  16.392 -0.9643 -0.4848  0.7381
 1258SOL     OW15409   1.076   1.942   5.212 -0.1379 -0.4113  0.0457
 1258SOL    HW115410   0.999   1.973   5.165  0.8414  0.0919 -1.2215
 1258SOL    HW215411   1.138   2.016   5.217  1.0002 -1.2743 -1.3739
 1259SOL     OW15412   3.638   4.083   6.404 -0.1083  0.1051  0.9127
 1259SOL    HW115413   3.681   4.159   6.366  1.2574 -1.8183 -1.3925
 1259SOL    HW215414   3.581   4.123   6.470  0.0838  0.7816  0.6680
 1260SOL     OW15415   3.153   1.907  15.988  0.0841 -0.4425  0.3188
 1260SOL    HW115416   3.223   1.914  15.923 -0.5408  0.2420 -0.2787
 1260SOL    HW215417   3.121   1.823  15.957  1.7082 -0.1627 -2.1470
 1261SOL     OW15418   0.848   4.684   4.371  0.2388  0.3469 -0.4072
 1261SOL    HW115419   0.768   4.650   4.332  0.8817 -0.3580 -1.0980
 1261SOL    HW215420   0.905   4.608   4.361 -1.9381 -1.8258  3.6926
 1262SOL     OW15421   3.021   0.444   0.243  0.9453  0.3086  0.2881
 1262SOL    HW115422   3.116   0.445   0.254  1.0950  0.2740 -0.9565
 1262SOL    HW215423   3.026   0.380   0.172 -1.0816  0.8477 -0.3355
 1263SOL     OW15424   0.293   2.127  10.777  0.0032  0.3297  0.3589
 1263SOL    HW115425   0.288   2.161  10.688  0.3853  0.4510  0.3852
 1263SOL    HW215426   0.386   2.139  10.794  0.1983 -0.8546  0.1715
 1264SOL     OW15427   3.146   0.777   7.152 -0.0110 -0.6355 -0.1232
 1264SOL    HW115428   3.201   0.796   7.227 -1.1930  1.0358  0.3286
 1264SOL    HW215429   3.154   0.862   7.109  0.3391 -0.3725  0.4640
 1265SOL     OW15430   1.399   2.008   5.538  0.5882 -0.4443 -0.0216
 1265SOL    HW115431   1.393   1.929   5.484 -0.6984  1.5248 -2.7543
 1265SOL    HW215432   1.319   2.003   5.591  0.3304  1.1405 -0.2644
 1266SOL     OW15433   3.183   0.576  12.409  0.1799  0.1787 -0.4195
 1266SOL    HW115434   3.128   0.623  12.347  0.9654  0.5275 -0.8541
 1266SOL    HW215435   3.250   0.542  12.349  1.5455 -0.2990  1.3858
 1267SOL     OW15436   0.282   3.842  15.171  0.0151  0.2602 -0.3534
 1267SOL    HW115437   0.308   3.880  15.255 -2.5933 -0.7977  0.9587
 1267SOL    HW215438   0.261   3.925  15.128  0.5638  1.1163  1.0297
 1268SOL     OW15439   2.028   4.163  10.429 -0.6989 -0.3407 -0.1004
 1268SOL    HW115440   1.976   4.225  10.481 -2.6280 -3.5245  1.7603
 1268SOL    HW215441   1.966   4.142  10.360 -2.4212  0.5590  1.1676
 1269SOL     OW15442   0.833   0.215   2.539  0.2069  0.2723 -0.1114
 1269SOL    HW115443   0.923   0.233   2.569  0.4473 -0.0462 -0.6499
 1269SOL    HW215444   0.846   0.129   2.500 -1.0249  0.5971 -1.2313
 1270SOL     OW15445   3.091   1.118   8.077  0.1595  0.0537 -0.4384
 1270SOL    HW115446   3.058   1.064   8.149  0.3130 -0.5111 -0.7899
 1270SOL    HW215447   3.028   1.190   8.067 -1.5215 -1.2152  1.0166
 1271SOL     OW15448   4.271   3.055   6.687 -0.2688  0.4806  0.5711
 1271SOL    HW115449   4.201   3.091   6.633 -0.0839  0.1014  0.0830
 1271SOL    HW215450   4.345   3.106   6.654 -0.1494  0.2792  0.5324
 1272SOL     OW15451   0.053   2.405  17.629 -0.6496 -0.2093 -0.5225
 1272SOL    HW115452   0.052   2.427  17.722  0.3474  0.6183 -0.7037
 1272SOL    HW215453   0.064   2.492  17.591 -2.7154 -0.6471 -2.1312
 1273SOL     OW15454   1.011   1.159   8.442  0.2135 -0.2160 -0.2064
 1273SOL    HW115455   1.051   1.245   8.451  1.4550 -0.7545 -0.6189
 1273SOL    HW215456   1.051   1.124   8.362  1.2233  0.1227  0.1576
 1274SOL     OW15457   0.759   3.985  11.303  0.0847 -0.5608  0.3328
 1274SOL    HW115458   0.743   3.950  11.216 -1.1883  0.8397 -0.0074
 1274SOL    HW215459   0.850   4.013  11.295 -0.3532  1.7021  2.9972
 1275SOL     OW15460   3.422   0.319   8.619 -0.2592  0.5815  0.2550
 1275SOL    HW115461   3.364   0.243   8.615  0.1219  0.3395 -0.6357
 1275SOL    HW215462   3.497   0.286   8.668  0.1806 -1.3066 -1.6885
 1276SOL     OW15463   1.697   1.661   3.094 -0.1712 -0.4758  0.0883
 1276SOL    HW115464   1.604   1.674   3.075 -0.0554 -0.1181 -0.2340
 1276SOL    HW215465   1.716   1.662   3.000 -0.7611  1.2656 -0.0249
 1277SOL     OW15466   0.563   3.895   5.717 -0.3539  0.4124 -0.5231
 1277SOL    HW115467   0.560   3.813   5.765 -0.2786 -1.1862 -3.2318
 1277SOL    HW215468   0.473   3.922   5.736 -0.6650 -1.3136  0.4075
 1278SOL     OW15469   0.938   2.230   2.464  0.0034 -0.4493  0.9594
 1278SOL    HW115470   1.014   2.190   2.421 -1.4827 -2.5107  0.2560
 1278SOL    HW215471   0.979   2.308   2.502  0.2221 -0.9159  1.6717
 1279SOL     OW15472   0.355   0.210   7.348  0.2417  0.0252 -0.3874
 1279SOL    HW115473   0.316   0.186   7.432 -1.4702  0.2970 -1.1077
 1279SOL    HW215474   0.407   0.285   7.376 -1.4650  0.9679  0.3128
 1280SOL     OW15475   2.660   3.521   8.740  0.4734  0.2284 -0.6712
 1280SOL    HW115476   2.656   3.573   8.820  0.4108  1.2569 -1.3424
 1280SOL    HW215477   2.670   3.434   8.778  1.4946  0.7079  0.1487
 1281SOL     OW15478   2.096   2.536   8.839  0.7479 -0.3453 -0.0528
 1281SOL    HW115479   2.064   2.620   8.805 -1.7881 -1.9200 -1.5362
 1281SOL    HW215480   2.013   2.492   8.858  2.3661 -2.4427  2.2445
 1282SOL     OW15481   2.676   3.035  17.125 -0.0335  0.2545  0.2631
 1282SOL    HW115482   2.606   3.080  17.078  0.8992  1.3966 -0.0647
 1282SOL    HW215483   2.742   3.105  17.121  0.4202 -0.1354  1.0493
 1283SOL     OW15484   3.755   1.263  17.589  0.2334 -0.0705  0.4368
 1283SOL    HW115485   3.812   1.251  17.513  0.1123 -1.2304  0.5347
 1283SOL    HW215486   3.690   1.324  17.554 -0.3086 -0.7566  0.2370
 1284SOL     OW15487   1.523   1.208   3.677  0.5588 -0.1959  0.0066
 1284SOL    HW115488   1.541   1.269   3.749  4.0491 -2.2202  0.8034
 1284SOL    HW215489   1.495   1.130   3.725  0.8379  0.3115  0.9831
 1285SOL     OW15490   4.700   1.454   8.286 -0.1088  0.1961 -0.4394
 1285SOL    HW115491   0.052   1.477   8.318  0.4877 -3.2316  0.3478
 1285SOL    HW215492   4.677   1.538   8.246 -1.1105  0.1413  0.0357
 1286SOL     OW15493   1.120   3.161   9.173  0.2900 -0.2691 -0.1455
 1286SOL    HW115494   1.114   3.074   9.133 -1.3237 -0.3377  0.2322
 1286SOL    HW215495   1.062   3.213   9.117 -2.6089 -2.1085  1.1880
 1287SOL     OW15496   2.115   3.473   3.504 -0.3876 -0.0527  0.1393
 1287SOL    HW115497   2.151   3.534   3.440  0.3108  0.5579  1.1172
 1287SOL    HW215498   2.048   3.435   3.447 -1.9533  0.9443  1.2968
 1288SOL     OW15499   3.808   3.101  16.043 -0.0078  0.1332 -0.6939
 1288SOL    HW115500   3.900   3.105  16.016  0.9188 -1.3294  2.1704
 1288SOL    HW215501   3.792   3.195  16.048  1.2222  0.2397  1.5797
 1289SOL     OW15502   4.056   3.561   2.117 -0.0573 -0.3380 -0.3358
 1289SOL    HW115503   4.114   3.627   2.079  1.1996 -1.0238  0.3938
 1289SOL    HW215504   4.073   3.559   2.211  0.2486  0.4154 -0.3719
 1290SOL     OW15505   4.725   2.112   3.555 -0.9506  0.2662  0.0645
 1290SOL    HW115506   0.076   2.146   3.535 -1.3603 -0.1920 -2.4771
 1290SOL    HW215507   0.019   2.033   3.600  0.6814  1.0433  0.3603
 1291SOL     OW15508   4.639   0.051   2.934 -0.4639 -0.0443 -0.2166
 1291SOL    HW115509   4.549   0.054   2.967  0.4756  0.3200  2.2547
 1291SOL    HW215510   4.625   0.091   2.848  1.9363  2.3163  0.4702
 1292SOL     OW15511   1.674   4.319   3.720 -0.1262 -0.0864 -0.4646
 1292SOL    HW115512   1.609   4.364   3.667 -0.8021 -0.5148 -0.0136
 1292SOL    HW215513   1.695   4.369   3.799  1.3544 -1.4583  0.0197
 1293SOL     OW15514   2.877   3.520   6.898  0.7943  0.4843  0.3102
 1293SOL    HW115515   2.931   3.554   6.826 -0.1783 -1.0452 -1.1391
 1293SOL    HW215516   2.829   3.450   6.853  2.1864  0.3572 -0.9664
 1294SOL     OW15517   4.386   1.467   1.512  0.2656 -0.5801 -0.7213
 1294SOL    HW115518   4.367   1.430   1.426 -3.3385 -2.2276  0.8100
 1294SOL    HW215519   4.310   1.525   1.509  0.4410 -0.4243 -2.0273
 1295SOL     OW15520   2.977   4.709   9.013  0.4731  0.2212  0.0459
 1295SOL    HW115521   2.960   4.711   9.107 -2.1047  2.0635 -0.4518
 1295SOL    HW215522   2.888   4.715   8.979  0.6769  1.3332 -0.2879
 1296SOL     OW15523   0.257   3.373   2.554 -0.3720 -0.3193  0.4122
 1296SOL    HW115524   0.177   3.395   2.601 -0.8873 -0.6386 -0.3062
 1296SOL    HW215525   0.282   3.286   2.585 -0.5485 -0.3546  0.4543
 1297SOL     OW15526   3.086   1.315   4.992  0.2241  0.3249 -0.2387
 1297SOL    HW115527   3.116   1.354   4.910 -1.9238 -0.9311 -1.6335
 1297SOL    HW215528   3.174   1.304   5.027 -0.0609 -0.9104  0.0950
 1298SOL     OW15529   3.140   3.680  10.666 -0.0620 -0.6675  0.3588
 1298SOL    HW115530   3.052   3.699  10.634  0.6816 -0.1050 -1.3498
 1298SOL    HW215531   3.174   3.769  10.677  1.0606 -0.9887 -0.5041
 1299SOL     OW15532   2.704   3.256   9.667 -0.1141  0.1198 -0.8063
 1299SOL    HW115533   2.786   3.295   9.697 -0.3018  2.0013 -2.8047
 1299SOL    HW215534   2.703   3.177   9.723 -0.0589  0.7735  0.1168
 1300SOL     OW15535   2.167   0.474   7.580  0.1103  0.2646 -0.5405
 1300SOL    HW115536   2.155   0.405   7.515  0.5235 -0.1321 -0.2028
 1300SOL    HW215537   2.098   0.453   7.643  0.4236  3.1907  0.7660
 1301SOL     OW15538   3.284   0.837   5.058  0.5665  0.1551  0.1423
 1301SOL    HW115539   3.259   0.907   4.998 -0.2476  1.3213  1.8321
 1301SOL    HW215540   3.202   0.828   5.106  0.2967  1.9632 -0.0081
 1302SOL     OW15541   1.848   0.893   2.407  0.0334 -0.1167  0.3184
 1302SOL    HW115542   1.815   0.953   2.340 -0.6976 -2.5931 -1.5494
 1302SOL    HW215543   1.887   0.827   2.350  2.0754  1.8955 -0.5780
 1303SOL     OW15544   1.105   1.270   4.234  0.0259 -0.1888 -0.0252
 1303SOL    HW115545   1.166   1.299   4.166  0.5381 -1.5449 -0.1552
 1303SOL    HW215546   1.123   1.176   4.230 -2.2179 -0.7165  2.3691
 1304SOL     OW15547   3.657   4.428   4.281 -0.5106 -0.2011 -0.4283
 1304SOL    HW115548   3.643   4.442   4.187 -0.8084 -0.4039 -0.4147
 1304SOL    HW215549   3.568   4.424   4.316 -0.0358 -0.4975  0.7338
 1305SOL     OW15550   3.012   3.176   6.331  0.2982  0.2933 -0.1900
 1305SOL    HW115551   3.083   3.234   6.359 -1.5497  2.4910 -0.0216
 1305SOL    HW215552   3.059   3.097   6.355 -0.7524 -0.3877 -0.3553
 1306SOL     OW15553   3.989   2.150   7.791  0.1907  0.3445 -0.0770
 1306SOL    HW115554   4.028   2.164   7.877  0.3275  1.0079 -0.2507
 1306SOL    HW215555   3.964   2.241   7.774  1.0851  0.6690  0.3450
 1307SOL     OW15556   2.815   3.295  17.221 -0.6200  0.6121  0.0946
 1307SOL    HW115557   2.840   3.276  17.131  0.8763  1.6569  0.2858
 1307SOL    HW215558   2.799   3.388  17.233 -1.7037  0.2724  1.2875
 1308SOL     OW15559   2.561   4.404   8.498 -0.4295 -0.0879 -0.2387
 1308SOL    HW115560   2.481   4.453   8.480 -0.6835 -1.0833 -1.8255
 1308SOL    HW215561   2.615   4.454   8.437 -0.7743  0.4155 -0.1321
 1309SOL     OW15562   2.467   2.424   4.667  0.4637 -0.1402  0.1441
 1309SOL    HW115563   2.538   2.438   4.730 -0.1279  0.4018  0.6939
 1309SOL    HW215564   2.442   2.512   4.639 -0.1717 -0.4829 -0.3611
 1310SOL     OW15565   1.389   2.437   6.645 -0.1101 -0.0711  0.5787
 1310SOL    HW115566   1.419   2.389   6.723 -2.7879  1.4457  2.5054
 1310SOL    HW215567   1.334   2.505   6.683  1.9136  1.9294 -0.1002
 1311SOL     OW15568   2.972   3.741   7.864  0.4837 -0.0609 -0.0363
 1311SOL    HW115569   2.879   3.737   7.883  0.5702 -0.3959  0.3249
 1311SOL    HW215570   2.964   3.749   7.769  0.5401 -1.4063 -0.1601
 1312SOL     OW15571   2.269   1.232   4.879  0.1344  0.0517 -0.2876
 1312SOL    HW115572   2.283   1.239   4.785  4.4620  1.4224  0.4290
 1312SOL    HW215573   2.325   1.159   4.905  0.1096 -0.3072 -1.2633
 1313SOL     OW15574   0.220   3.851  16.764 -0.1262  0.1174 -0.3988
 1313SOL    HW115575   0.177   3.787  16.708 -1.5536  2.2126 -1.6713
 1313SOL    HW215576   0.296   3.872  16.710 -0.1307 -2.1480 -1.2636
 1314SOL     OW15577   0.561   3.856   7.799  0.0031  0.2534 -0.6458
 1314SOL    HW115578   0.625   3.926   7.811  0.2022 -0.4627  2.2717
 1314SOL    HW215579   0.627   3.786   7.794  0.1944  0.2421  2.1251
 1315SOL     OW15580   0.621   1.815   4.522 -0.1878  0.0249 -0.4369
 1315SOL    HW115581   0.556   1.871   4.479  1.1726  2.1399  0.2615
 1315SOL    HW215582   0.600   1.836   4.612  1.5157 -2.4494  0.5410
 1316SOL     OW15583   2.903   1.589   0.414  0.3116 -0.3167  0.5425
 1316SOL    HW115584   2.966   1.517   0.403  0.5399 -0.1455  0.7225
 1316SOL    HW215585   2.962   1.660   0.390  1.4290 -0.3342  3.2468
 1317SOL     OW15586   1.830   2.179   6.569  0.2104 -0.4441 -0.4361
 1317SOL    HW115587   1.778   2.233   6.509 -0.1062  0.0430  0.2751
 1317SOL    HW215588   1.915   2.178   6.526  0.8257  2.8517  0.6925
 1318SOL     OW15589   2.019   0.602   9.169 -0.0450 -0.3032  0.4907
 1318SOL    HW115590   2.109   0.633   9.174  0.6120 -2.1574 -0.0519
 1318SOL    HW215591   1.966   0.677   9.198  0.2607  0.1695 -0.1787
 1319SOL     OW15592   3.937   0.421   1.452 -0.0764  0.0577  0.9865
 1319SOL    HW115593   4.002   0.351   1.442 -0.7729 -0.1801 -1.8033
 1319SOL    HW215594   3.935   0.447   1.360  0.7859 -0.9202  0.6916
 1320SOL     OW15595   4.463   2.833   7.470  0.8440  0.1016  0.2815
 1320SOL    HW115596   4.502   2.751   7.440  0.3986 -0.6684  1.8044
 1320SOL    HW215597   4.418   2.794   7.545 -1.5834  2.1702 -0.1292
 1321SOL     OW15598   1.845   1.211  12.080 -0.1300 -0.3514  0.1762
 1321SOL    HW115599   1.803   1.294  12.059  2.0484  0.0589 -2.5241
 1321SOL    HW215600   1.906   1.228  12.151  0.1505  3.2338 -0.9094
 1322SOL     OW15601   3.964   0.264   4.323  0.4097 -0.2196  0.4985
 1322SOL    HW115602   4.041   0.291   4.373  0.6710  0.4161 -0.2428
 1322SOL    HW215603   3.913   0.236   4.399 -0.8021  0.4050 -0.0902
 1323SOL     OW15604   0.700   1.250   5.664  0.1128  0.1188 -0.1968
 1323SOL    HW115605   0.733   1.190   5.730  1.6493  0.5242 -0.5812
 1323SOL    HW215606   0.620   1.201   5.645 -1.0343  1.4146  1.3093
 1324SOL     OW15607   1.077   4.685  17.321  0.3660 -0.1653 -0.0317
 1324SOL    HW115608   1.055   4.615  17.382  0.0403  0.2369  0.3083
 1324SOL    HW215609   1.074   4.631  17.242  0.6265 -1.4592  0.8405
 1325SOL     OW15610   2.390   2.965   2.563  0.3408 -0.6135 -0.2609
 1325SOL    HW115611   2.310   2.933   2.604 -1.7983  1.6710 -2.6684
 1325SOL    HW215612   2.441   2.888   2.537  1.0951 -0.6561  1.3470
 1326SOL     OW15613   2.484   0.269   7.931 -0.3938  0.0211 -0.3918
 1326SOL    HW115614   2.417   0.330   7.900  0.1866  0.0437 -1.6139
 1326SOL    HW215615   2.466   0.188   7.884 -2.5074  0.0418  0.3716
 1327SOL     OW15616   2.362   0.013   7.030 -0.3601  0.3845 -0.2012
 1327SOL    HW115617   2.390   0.038   6.942  0.4439 -2.1882 -0.6590
 1327SOL    HW215618   2.299   0.085   7.036  0.4654  1.1106 -0.2521
 1328SOL     OW15619   4.129   3.949   3.508 -0.4776 -0.0437 -0.9289
 1328SOL    HW115620   4.046   3.927   3.549 -0.4303 -0.5260 -1.0864
 1328SOL    HW215621   4.119   4.039   3.477  2.4398  0.9485  1.0399
 1329SOL     OW15622   2.848   2.725  12.989 -0.2031  0.1736 -0.6142
 1329SOL    HW115623   2.918   2.749  13.050  0.5766 -4.0624  0.1314
 1329SOL    HW215624   2.885   2.728  12.901  0.6623 -0.0313 -0.2542
 1330SOL     OW15625   2.574   2.987   2.090 -0.2426 -0.3471 -0.4311
 1330SOL    HW115626   2.631   3.015   2.018  0.2271 -0.0778  0.0503
 1330SOL    HW215627   2.573   3.070   2.136  2.2169 -0.4028 -0.2838
 1331SOL     OW15628   2.476   2.616  17.261  0.1903 -0.0961 -0.6620
 1331SOL    HW115629   2.485   2.576  17.174 -0.3628  0.7935 -1.1212
 1331SOL    HW215630   2.504   2.706  17.248 -0.5182  0.2587  0.2330
 1332SOL     OW15631   3.011   2.409   1.388  0.3354 -0.3068  0.4408
 1332SOL    HW115632   3.058   2.438   1.467  1.8094  1.0951 -0.9564
 1332SOL    HW215633   3.073   2.429   1.318  1.7524 -1.6482  1.3151
 1333SOL     OW15634   1.967   0.677   2.261  0.3844 -0.0601  0.1103
 1333SOL    HW115635   1.981   0.591   2.221 -0.8654  0.0308 -0.5173
 1333SOL    HW215636   2.006   0.671   2.348  0.0110  1.7209  0.3984
 1334SOL     OW15637   1.830   1.407   8.599 -0.0629  0.0055  0.4361
 1334SOL    HW115638   1.787   1.400   8.685 -4.0037 -0.3733 -1.5951
 1334SOL    HW215639   1.917   1.434   8.630  0.5521 -0.0889 -1.1936
 1335SOL     OW15640   2.538   1.300   2.746 -0.2514  0.1832 -0.1588
 1335SOL    HW115641   2.628   1.318   2.775 -0.6998 -1.9404  2.5214
 1335SOL    HW215642   2.523   1.207   2.763  0.3891  0.2153  0.5711
 1336SOL     OW15643   4.000   1.031   8.105 -0.2672 -0.3136  0.3368
 1336SOL    HW115644   4.023   0.941   8.082 -0.8735  0.2148 -2.3311
 1336SOL    HW215645   3.998   1.048   8.199 -0.7201 -0.4308  0.3503
 1337SOL     OW15646   2.777   3.918   8.075 -0.2305  0.4065  0.4818
 1337SOL    HW115647   2.805   3.967   8.152 -0.5776  1.5273 -0.1020
 1337SOL    HW215648   2.819   3.963   8.002 -1.0368  0.0442 -0.2013
 1338SOL     OW15649   4.558   1.629   4.602 -0.4695 -0.3197  0.2467
 1338SOL    HW115650   4.619   1.556   4.605 -1.9306 -1.4831  1.1975
 1338SOL    HW215651   4.482   1.572   4.605  0.4940 -1.5450  1.4052
 1339SOL     OW15652   4.035   3.548   9.496  0.3264  0.1360  0.6258
 1339SOL    HW115653   4.021   3.557   9.590  1.7904  1.2524  0.7391
 1339SOL    HW215654   3.943   3.530   9.480  0.5387  0.2433 -0.7047
 1340SOL     OW15655   4.486   0.768   6.383  0.5177 -0.0554 -0.5459
 1340SOL    HW115656   4.468   0.796   6.473 -0.0722 -0.2957 -0.5882
 1340SOL    HW215657   4.471   0.674   6.382 -2.3280  0.3996  0.5218
 1341SOL     OW15658   2.898   0.400   3.356  0.6926  0.2781  0.0959
 1341SOL    HW115659   2.817   0.439   3.322 -0.9783 -4.1213 -0.9123
 1341SOL    HW215660   2.963   0.454   3.310  0.6679 -0.1474 -0.4360
 1342SOL     OW15661   1.549   1.413  12.494  0.1146  0.2310  0.3710
 1342SOL    HW115662   1.543   1.430  12.588 -3.8064 -1.4089  0.4349
 1342SOL    HW215663   1.612   1.344  12.476 -1.6160 -1.1774 -0.2803
 1343SOL     OW15664   2.854   1.723   6.601 -0.4199  0.1447  0.1434
 1343SOL    HW115665   2.871   1.817   6.609  0.3442 -0.0172  0.4626
 1343SOL    HW215666   2.942   1.688   6.588 -1.5101 -2.2401 -0.7697
 1344SOL     OW15667   4.129   1.878   5.350  0.0740  0.0420 -0.0197
 1344SOL    HW115668   4.062   1.812   5.335  0.0164 -0.2848  1.7142
 1344SOL    HW215669   4.155   1.910   5.263  0.0652  3.4440  1.2093
 1345SOL     OW15670   3.337   2.646   3.188 -0.6722  0.8793  0.7190
 1345SOL    HW115671   3.348   2.602   3.104  1.6370  0.7084  1.1239
 1345SOL    HW215672   3.429   2.662   3.207 -0.5111 -0.6776  1.2719
 1346SOL     OW15673   1.418   2.028  10.069  0.7254 -0.0421 -0.2527
 1346SOL    HW115674   1.504   2.041  10.109  0.5129  0.2954  0.1016
 1346SOL    HW215675   1.425   2.085   9.993 -0.8342 -0.4158 -0.6705
 1347SOL     OW15676   1.260   1.764   5.107 -0.3003 -0.1348 -0.3336
 1347SOL    HW115677   1.305   1.833   5.058 -2.1955 -0.0714 -1.9914
 1347SOL    HW215678   1.183   1.814   5.133  0.1670  0.3625  0.0874
 1348SOL     OW15679   4.699   2.664   7.141  0.1471  0.2187 -0.2796
 1348SOL    HW115680   4.656   2.610   7.207 -1.8451  2.9818  0.6760
 1348SOL    HW215681   4.649   2.744   7.156 -0.2332  0.1115 -0.9886
 1349SOL     OW15682   3.084   4.138  12.927 -0.2744  0.1104 -0.1544
 1349SOL    HW115683   3.075   4.044  12.915  1.7968 -0.0700 -0.3627
 1349SOL    HW215684   3.017   4.156  12.992  2.4516  1.4208  2.2878
 1350SOL     OW15685   0.240   4.045   5.239  0.3139  0.4608  0.3927
 1350SOL    HW115686   0.309   4.024   5.176 -1.1253  1.0993 -1.4044
 1350SOL    HW215687   0.252   4.139   5.248 -2.5754  1.1970 -3.1771
 1351SOL     OW15688   3.162   4.303   4.453  0.1913 -0.1217  0.5422
 1351SOL    HW115689   3.153   4.208   4.450 -0.2129 -0.0268 -1.3764
 1351SOL    HW215690   3.089   4.329   4.397  0.8002  1.0289  0.2883
 1352SOL     OW15691   1.509   3.187  10.527  0.3950 -0.2619 -0.2378
 1352SOL    HW115692   1.522   3.261  10.468 -0.5589  0.1886  0.1048
 1352SOL    HW215693   1.526   3.226  10.613  1.4080  0.5932 -0.8228
 1353SOL     OW15694   2.808   3.741   3.139  0.4486  0.7369  0.0579
 1353SOL    HW115695   2.777   3.652   3.154 -1.2839  1.0622 -1.5985
 1353SOL    HW215696   2.866   3.717   3.067 -1.1311 -1.2331 -0.5746
 1354SOL     OW15697   3.083   0.811   8.451 -0.1871 -0.6098  0.1942
 1354SOL    HW115698   3.052   0.806   8.541  0.4206 -0.0370  0.4342
 1354SOL    HW215699   3.174   0.781   8.463  1.0785  1.8655 -3.2260
 1355SOL     OW15700   2.090   0.882   5.457 -0.1214  0.4246 -0.2334
 1355SOL    HW115701   2.114   0.947   5.523 -2.3799  0.3046  0.6787
 1355SOL    HW215702   2.178   0.879   5.418 -1.3545 -2.1214 -2.8036
 1356SOL     OW15703   0.419   0.344   5.595  0.5108  0.1273  0.6254
 1356SOL    HW115704   0.358   0.274   5.618  1.2253  0.2476  2.8039
 1356SOL    HW215705   0.377   0.415   5.644  0.8974 -0.5622  1.9270
 1357SOL     OW15706   3.510   1.582  15.012  0.4626 -0.0172 -0.1488
 1357SOL    HW115707   3.590   1.597  14.962  0.7731 -2.2469 -0.2921
 1357SOL    HW215708   3.525   1.651  15.077  1.9625 -0.0710 -0.4427
 1358SOL     OW15709   3.894   3.263   3.762  0.0262 -1.0953  0.2295
 1358SOL    HW115710   3.863   3.257   3.852 -1.6709 -1.5333 -0.3969
 1358SOL    HW215711   3.844   3.338   3.730 -0.2201 -0.9209  1.0136
 1359SOL     OW15712   0.111   4.358   6.162 -0.0066 -0.3242  0.3234
 1359SOL    HW115713   0.069   4.363   6.076 -0.1378 -0.8665  0.3542
 1359SOL    HW215714   0.144   4.269   6.164  2.3595  0.5298 -0.7770
 1360SOL     OW15715   1.496   4.717   0.391 -0.4386  0.1134  0.6126
 1360SOL    HW115716   1.552   4.664   0.333 -0.3386 -0.5005  1.2612
 1360SOL    HW215717   1.540   4.717   0.476 -0.5852 -1.4469  0.6988
 1361SOL     OW15718   0.655   0.522  11.461  0.0558  0.3785 -0.4140
 1361SOL    HW115719   0.705   0.452  11.419  1.6391  0.5886  1.1297
 1361SOL    HW215720   0.616   0.466  11.528  2.7329 -1.0204 -0.0683
 1362SOL     OW15721   2.185   1.996   5.624 -0.6084 -0.4183 -0.1340
 1362SOL    HW115722   2.273   2.035   5.618 -0.9639  0.7226  1.9356
 1362SOL    HW215723   2.170   2.005   5.718  1.8449 -0.5390  0.2846
 1363SOL     OW15724   1.531   0.951   4.396  0.2898  0.1767 -0.4528
 1363SOL    HW115725   1.586   1.003   4.338  1.0203 -0.8217 -0.6698
 1363SOL    HW215726   1.568   0.865   4.376  4.0364  1.5803  0.4075
 1364SOL     OW15727   0.040   0.556   1.698 -0.2184 -0.1227  0.7912
 1364SOL    HW115728   4.734   0.470   1.705 -1.2733  0.4028  0.8805
 1364SOL    HW215729   0.074   0.564   1.787  1.7286  0.7832 -0.0164
 1365SOL     OW15730   3.490   1.016   7.267  0.0704  0.0857 -0.4349
 1365SOL    HW115731   3.549   1.077   7.312 -1.1659  0.0576  1.2285
 1365SOL    HW215732   3.545   0.982   7.197 -1.3820  0.4447 -1.7529
 1366SOL     OW15733   4.182   1.814   4.985 -0.3234 -0.7601 -0.4420
 1366SOL    HW115734   4.218   1.814   4.896  1.9561 -1.5169  0.4628
 1366SOL    HW215735   4.088   1.803   4.973 -0.4964 -0.9750  1.0284
 1367SOL     OW15736   3.523   1.484   9.103 -0.0602 -0.3200 -0.8011
 1367SOL    HW115737   3.522   1.403   9.155 -0.4649  0.8354  0.9792
 1367SOL    HW215738   3.551   1.548   9.168 -2.9181 -1.0023  1.0699
 1368SOL     OW15739   2.814   3.987   6.982  0.1365 -0.5061 -0.0627
 1368SOL    HW115740   2.896   4.007   6.937 -0.3340 -1.3965 -1.3221
 1368SOL    HW215741   2.753   4.058   6.961  1.5865  1.1913  1.4629
 1369SOL     OW15742   2.332   0.906   6.026  0.4410  0.0224 -0.4390
 1369SOL    HW115743   2.320   0.925   6.118 -0.1526 -0.5522 -0.3970
 1369SOL    HW215744   2.383   0.825   6.038  1.1358  0.3910 -0.8654
 1370SOL     OW15745   4.258   0.277   8.728 -0.0066  0.0530  0.6523
 1370SOL    HW115746   4.229   0.186   8.728  0.8280 -0.2175  2.3836
 1370SOL    HW215747   4.215   0.298   8.811 -1.1932 -1.7116  0.4688
 1371SOL     OW15748   2.005   0.675   3.737  0.1653  0.2522  0.0487
 1371SOL    HW115749   2.084   0.620   3.743  0.2893  0.4832  0.4582
 1371SOL    HW215750   2.027   0.754   3.785 -0.0622  0.1132  0.3766
 1372SOL     OW15751   4.675   4.374  16.803  0.6612  0.3195  0.0436
 1372SOL    HW115752   4.680   4.441  16.735  0.0501  0.0282 -0.2889
 1372SOL    HW215753   4.587   4.390  16.835  0.0584 -0.0779 -1.4239
 1373SOL     OW15754   2.811   2.199   2.591  0.4235  0.2874  0.2445
 1373SOL    HW115755   2.756   2.222   2.666  0.3013  0.0677  0.2212
 1373SOL    HW215756   2.875   2.270   2.597 -1.2493  1.5839  2.7632
 1374SOL     OW15757   2.903   2.827   1.295  0.4019  0.4339 -0.8133
 1374SOL    HW115758   2.984   2.868   1.266  1.0368  0.3221  0.7941
 1374SOL    HW215759   2.833   2.881   1.258  1.4527  0.6704 -2.4424
 1375SOL     OW15760   0.629   0.419  16.706  0.4847  0.6420 -0.6930
 1375SOL    HW115761   0.554   0.376  16.746  0.3117  0.3657 -1.3243
 1375SOL    HW215762   0.592   0.451  16.624  1.6369  0.9500 -1.1039
 1376SOL     OW15763   2.308   4.168   8.371  0.2685  0.3174  0.4099
 1376SOL    HW115764   2.369   4.225   8.326 -0.6505 -0.1622 -1.4415
 1376SOL    HW215765   2.369   4.118   8.425  0.3960  0.2238  0.1767
 1377SOL     OW15766   2.403   1.133   4.061  0.1680  0.3135  0.1538
 1377SOL    HW115767   2.337   1.201   4.077  0.7626  0.7225  0.8289
 1377SOL    HW215768   2.476   1.176   4.104  1.7062 -2.4600  0.2741
 1378SOL     OW15769   4.464   2.079  16.304 -0.2550 -0.0471  0.0062
 1378SOL    HW115770   4.543   2.101  16.353  0.7997 -0.9085 -1.2835
 1378SOL    HW215771   4.411   2.150  16.339  1.1023  0.0636  1.8209
 1379SOL     OW15772   2.019   2.429   4.539 -0.0506 -0.7866  0.5572
 1379SOL    HW115773   1.952   2.369   4.571 -0.7826  0.7517  1.9190
 1379SOL    HW215774   1.999   2.437   4.446 -1.9510 -0.0435  1.0420
 1380SOL     OW15775   4.328   3.588   7.338  0.4335  0.4643 -0.1566
 1380SOL    HW115776   4.316   3.605   7.245  0.0537  1.9397  0.1697
 1380SOL    HW215777   4.302   3.497   7.353  1.8617  0.1871  0.6960
 1381SOL     OW15778   1.459   3.280   6.532  0.6917  0.7211  0.0772
 1381SOL    HW115779   1.484   3.198   6.491  0.1055  0.5542  0.0574
 1381SOL    HW215780   1.543   3.324   6.546  0.9730  0.5786 -1.2179
 1382SOL     OW15781   0.453   0.752   0.483  0.0704 -0.3672  0.1183
 1382SOL    HW115782   0.462   0.847   0.493  0.9501 -0.5433  0.9710
 1382SOL    HW215783   0.358   0.735   0.481 -0.3029  1.7193 -0.0048
 1383SOL     OW15784   3.911   0.769   6.967  0.0698  0.4183  0.1195
 1383SOL    HW115785   3.930   0.855   6.929  0.7387  1.5957  3.0819
 1383SOL    HW215786   3.870   0.719   6.897  1.5685  0.7692 -1.0128
 1384SOL     OW15787   0.063   1.362   5.628  0.0674  0.4986  0.6882
 1384SOL    HW115788   4.704   1.359   5.622  0.2539 -0.9503 -1.4754
 1384SOL    HW215789   0.083   1.387   5.718 -0.4388  0.5638  0.7848
 1385SOL     OW15790   3.435   1.598   1.053  0.7125  0.0295  0.2992
 1385SOL    HW115791   3.354   1.648   1.046  0.3879 -0.5840 -0.3068
 1385SOL    HW215792   3.416   1.513   1.091 -3.1782  0.2866 -1.0502
 1386SOL     OW15793   4.009   2.368   4.131  0.1830  0.0637  0.2217
 1386SOL    HW115794   3.917   2.387   4.110  0.9600  2.2428 -1.1771
 1386SOL    HW215795   4.000   2.397   4.221 -0.6750 -1.3698  0.6062
 1387SOL     OW15796   0.509   4.158   0.524  0.0919 -0.3776 -0.3435
 1387SOL    HW115797   0.494   4.105   0.446  0.2473 -2.5551  1.1075
 1387SOL    HW215798   0.605   4.152   0.522  0.1071  0.1146 -1.1012
 1388SOL     OW15799   4.128   4.293   1.634 -0.3769  0.4064  0.4627
 1388SOL    HW115800   4.111   4.212   1.586 -2.6463  1.2682 -0.1928
 1388SOL    HW215801   4.070   4.274   1.707 -2.0818  4.7769  0.2782
 1389SOL     OW15802   4.716   2.844   3.730  0.1068  0.5261  0.6406
 1389SOL    HW115803   4.709   2.882   3.817  1.3268  3.0362 -0.3577
 1389SOL    HW215804   4.734   2.752   3.750  1.7402  0.4187 -1.3697
 1390SOL     OW15805   0.676   3.396   4.611  0.7249  0.3337  0.3641
 1390SOL    HW115806   0.629   3.478   4.623 -2.9198 -1.9295  1.6458
 1390SOL    HW215807   0.707   3.387   4.701  2.3316 -0.6864 -0.2872
 1391SOL     OW15808   2.439   1.030   4.956  0.1233  0.2892 -0.2890
 1391SOL    HW115809   2.393   0.946   4.963 -1.2108  1.1602  1.4716
 1391SOL    HW215810   2.472   1.039   5.046 -0.3550  0.0787 -0.0903
 1392SOL     OW15811   4.250   3.723   1.572  1.0145  0.1498 -0.1877
 1392SOL    HW115812   4.229   3.668   1.497  0.1030  0.2523 -0.0028
 1392SOL    HW215813   4.342   3.696   1.583  0.8738 -0.6991 -1.0998
 1393SOL     OW15814   3.340   2.667  13.510  0.1764 -0.3837 -0.2660
 1393SOL    HW115815   3.374   2.579  13.492 -0.3011 -0.1257 -2.4284
 1393SOL    HW215816   3.254   2.657  13.470 -0.6097  0.1649  1.3003
 1394SOL     OW15817   1.807   1.428  17.553 -0.6077  0.1819  0.0058
 1394SOL    HW115818   1.730   1.408  17.501 -0.2084  1.1300 -0.9509
 1394SOL    HW215819   1.802   1.361  17.621  1.2769 -0.7382 -0.7333
 1395SOL     OW15820   0.321   2.959  11.706 -0.7822  0.4498  0.4938
 1395SOL    HW115821   0.391   2.916  11.756 -0.9008  0.8556  0.9964
 1395SOL    HW215822   0.361   3.045  11.693 -1.3314  0.3570 -1.8721
 1396SOL     OW15823   2.828   4.724  10.026 -0.5707  0.1218  0.3142
 1396SOL    HW115824   2.895   0.052  10.000 -1.7281  0.5570 -1.5647
 1396SOL    HW215825   2.864   4.644   9.987 -0.1692 -0.1132  1.1605
 1397SOL     OW15826   4.709   2.221  11.860 -0.1600  1.0115 -0.1858
 1397SOL    HW115827   4.627   2.215  11.811 -0.2327 -1.9062  0.2506
 1397SOL    HW215828   4.668   2.251  11.941 -0.0890 -0.1415  0.2853
 1398SOL     OW15829   1.162   4.685  10.199 -0.2329 -0.0953 -0.3090
 1398SOL    HW115830   1.140   0.024  10.144  0.1744 -0.0572 -0.4162
 1398SOL    HW215831   1.079   4.642  10.175 -0.6505 -0.3617  1.6191
 1399SOL     OW15832   0.817   0.281   4.799  0.2408 -0.4408  0.0647
 1399SOL    HW115833   0.761   0.246   4.729 -1.3645  1.9191  0.1610
 1399SOL    HW215834   0.850   0.359   4.754 -1.2792 -0.4805 -1.1417
 1400SOL     OW15835   4.119   1.629   7.772 -0.5666 -0.1771 -0.1202
 1400SOL    HW115836   4.066   1.663   7.699 -0.9072  1.0839  0.7137
 1400SOL    HW215837   4.201   1.676   7.755 -0.8155  0.4443  0.4344
 1401SOL     OW15838   3.428   2.421   6.125 -0.4142 -0.2143  0.1087
 1401SOL    HW115839   3.388   2.365   6.192 -0.1869  0.7729  1.0760
 1401SOL    HW215840   3.511   2.437   6.169  0.4058  0.5552 -1.7329
 1402SOL     OW15841   3.010   3.905   2.364 -0.3701  0.1509  0.4556
 1402SOL    HW115842   3.044   3.986   2.402  2.1732 -1.4344  1.5427
 1402SOL    HW215843   2.933   3.930   2.313  0.9182 -1.0422 -2.0804
 1403SOL     OW15844   2.121   1.473   6.805 -0.5882  0.1349 -0.3157
 1403SOL    HW115845   2.089   1.409   6.868 -0.2532  0.9300  0.6583
 1403SOL    HW215846   2.062   1.465   6.730  0.0887  0.9297 -0.9376
 1404SOL     OW15847   2.383   1.406   1.777  0.2356  0.1252 -0.1206
 1404SOL    HW115848   2.422   1.482   1.821 -0.1849  0.0361  0.4072
 1404SOL    HW215849   2.379   1.339   1.845 -1.1646 -2.8082 -3.1026
 1405SOL     OW15850   1.990   1.534   7.322  0.9032  0.1675 -0.0908
 1405SOL    HW115851   2.040   1.479   7.383 -0.9209 -2.1125 -0.6802
 1405SOL    HW215852   2.060   1.560   7.262 -0.0530  1.8105 -0.4794
 1406SOL     OW15853   3.587   4.074   1.005  0.2646  0.1543 -0.0993
 1406SOL    HW115854   3.564   3.981   1.011 -0.0551  0.2477  0.1424
 1406SOL    HW215855   3.508   4.111   0.966 -1.5824 -2.2180  1.3907
 1407SOL     OW15856   3.644   4.370  13.352 -0.0278  0.2306  0.2371
 1407SOL    HW115857   3.734   4.348  13.331  0.1131  0.5241  0.5232
 1407SOL    HW215858   3.645   4.449  13.407  1.0802  0.0969  0.4163
 1408SOL     OW15859   2.614   2.560  12.774  0.5358  0.2911  0.7381
 1408SOL    HW115860   2.578   2.623  12.836  0.5095  1.8304 -0.8413
 1408SOL    HW215861   2.539   2.515  12.735  0.3983  1.8558 -0.7824
 1409SOL     OW15862   3.250   4.320  13.054  0.1048 -0.5056  0.2514
 1409SOL    HW115863   3.254   4.393  12.992  0.3752  0.6690  1.6563
 1409SOL    HW215864   3.213   4.244  13.010 -2.5787  0.5245  0.7580
 1410SOL     OW15865   0.404   0.206  15.250 -0.0247 -0.1499 -0.3094
 1410SOL    HW115866   0.386   0.195  15.344 -0.4898 -0.2113 -0.4076
 1410SOL    HW215867   0.374   0.124  15.211 -0.1631 -0.6175  0.7643
 1411SOL     OW15868   4.065   4.218   9.481  0.6214 -0.2142  0.4339
 1411SOL    HW115869   4.140   4.190   9.428 -0.0912 -0.8536 -0.2330
 1411SOL    HW215870   4.105   4.265   9.554 -1.8980  0.7719  1.1688
 1412SOL     OW15871   0.015   1.001   8.382 -0.1132  1.0152  0.1763
 1412SOL    HW115872   0.097   0.955   8.363  0.1664  1.3339  0.6160
 1412SOL    HW215873   0.040   1.088   8.352  0.2295  0.4515 -1.1908
 1413SOL     OW15874   0.133   0.600   8.884  0.5719 -0.3407 -0.0296
 1413SOL    HW115875   0.074   0.629   8.814 -0.4941  3.5994  2.4627
 1413SOL    HW215876   0.211   0.649   8.857 -0.9775  1.2301 -1.6441
 1414SOL     OW15877   3.629   2.815   4.240 -0.6925 -0.3753  0.3653
 1414SOL    HW115878   3.577   2.852   4.312  0.8895  0.8364  0.8816
 1414SOL    HW215879   3.584   2.732   4.224 -0.6678  0.0373 -1.8410
 1415SOL     OW15880   3.977   3.903   9.247 -0.2483  0.1859  0.4631
 1415SOL    HW115881   3.911   3.864   9.190  1.3903 -0.2409 -1.1542
 1415SOL    HW215882   4.047   3.846   9.215 -1.2411 -1.1902  0.7547
 1416SOL     OW15883   4.330   4.507   4.003  0.3023 -0.3428  0.0176
 1416SOL    HW115884   4.286   4.438   4.053  1.2081  0.9560  2.5649
 1416SOL    HW215885   4.298   4.592   4.032  1.1876  0.3698 -1.0730
 1417SOL     OW15886   3.825   4.595   2.269 -0.3044  0.2853  0.2408
 1417SOL    HW115887   3.863   4.530   2.328  1.5492  0.4072 -0.8144
 1417SOL    HW215888   3.899   4.629   2.219 -0.6519 -0.6788 -0.9260
 1418SOL     OW15889   3.702   0.413   7.671 -0.3705  0.4827 -0.0524
 1418SOL    HW115890   3.746   0.473   7.731 -0.2556 -1.1578  1.4876
 1418SOL    HW215891   3.683   0.467   7.594  0.6469  1.9142  0.6962
 1419SOL     OW15892   0.755   3.815   2.626 -0.4104  0.5816  0.5131
 1419SOL    HW115893   0.778   3.786   2.715 -4.5440 -1.8136  0.8385
 1419SOL    HW215894   0.692   3.882   2.652  0.0746  1.5481 -0.8156
 1420SOL     OW15895   3.527   2.975  16.306  0.2802  0.2857 -0.6131
 1420SOL    HW115896   3.507   3.068  16.304 -0.9511  0.0892  2.2730
 1420SOL    HW215897   3.622   2.972  16.294  0.3663  0.7779 -0.0625
 1421SOL     OW15898   3.255   0.705   7.866 -0.0721  0.1796 -0.7666
 1421SOL    HW115899   3.232   0.630   7.811 -1.6175 -1.1358  1.7033
 1421SOL    HW215900   3.178   0.719   7.921  1.0509 -0.1025  0.8815
 1422SOL     OW15901   2.076   3.634   1.081 -0.5711  0.8297  0.1957
 1422SOL    HW115902   1.994   3.678   1.058 -0.0640  0.7394 -1.8557
 1422SOL    HW215903   2.027   3.567   1.128  1.3439  0.7400  2.0662
 1423SOL     OW15904   1.555   4.570   8.512  0.1553  0.2154  0.3259
 1423SOL    HW115905   1.483   4.628   8.487  0.9865  0.7489 -0.8531
 1423SOL    HW215906   1.632   4.616   8.478 -0.2447  0.0558 -0.8242
 1424SOL     OW15907   1.824   1.702  17.536  0.3534  0.4619 -0.6205
 1424SOL    HW115908   1.890   1.703  17.466 -0.7362  0.3329 -1.6583
 1424SOL    HW215909   1.845   1.616  17.571  0.0988 -0.0911 -1.8138
 1425SOL     OW15910   0.032   4.160  12.556 -0.4962  0.0192  0.2311
 1425SOL    HW115911   4.691   4.210  12.528 -0.6719  0.0897  0.8555
 1425SOL    HW215912   0.079   4.222  12.612 -0.1558  0.6739 -0.7598
 1426SOL     OW15913   0.257   4.636   4.321 -0.4476 -0.0488 -0.2203
 1426SOL    HW115914   0.232   4.545   4.333 -0.5704  0.6485  4.7397
 1426SOL    HW215915   0.168   4.672   4.315 -0.0574  1.0469  0.5636
 1427SOL     OW15916   0.090   4.057   0.391 -0.0693  0.3728 -0.0542
 1427SOL    HW115917   0.075   3.972   0.350 -0.5989 -0.4476  1.8136
 1427SOL    HW215918   4.734   4.080   0.403  0.1601  1.9525 -1.3724
 1428SOL     OW15919   1.484   0.488   9.929 -0.6730  0.0660 -0.4989
 1428SOL    HW115920   1.422   0.433   9.881 -1.4852  1.7836 -1.4367
 1428SOL    HW215921   1.513   0.435  10.003  1.5920 -0.6796 -1.9161
 1429SOL     OW15922   1.375   0.465   1.798 -0.3312  0.2294 -0.4239
 1429SOL    HW115923   1.301   0.526   1.792 -0.8065 -0.0903  2.4870
 1429SOL    HW215924   1.450   0.520   1.819 -0.5084  0.5759 -0.7084
 1430SOL     OW15925   3.235   0.422   8.891 -0.2419 -0.1141 -0.4041
 1430SOL    HW115926   3.191   0.378   8.964 -0.9804  2.3553  0.6547
 1430SOL    HW215927   3.288   0.351   8.854  0.8345 -0.0059  0.8983
 1431SOL     OW15928   3.140   3.055   4.490  0.4259  0.4748  0.1223
 1431SOL    HW115929   3.148   2.961   4.505  0.6877  0.1945 -1.7469
 1431SOL    HW215930   3.044   3.061   4.492  0.2850 -1.6018  0.2538
 1432SOL     OW15931   2.876   4.705  16.027 -0.0739 -0.3650  0.0664
 1432SOL    HW115932   2.881   0.039  15.962 -0.5206 -0.2521  0.1545
 1432SOL    HW215933   2.907   0.022  16.100 -1.9877  0.3967  0.3415
 1433SOL     OW15934   0.799   3.580   0.265 -0.5738 -0.3660  0.4759
 1433SOL    HW115935   0.742   3.656   0.250 -0.7222 -0.8287 -1.2241
 1433SOL    HW215936   0.823   3.605   0.355  0.4019 -0.5386  0.2583
 1434SOL     OW15937   3.882   3.935  10.021  0.2902  0.2328  0.6640
 1434SOL    HW115938   3.882   3.866   9.954  1.0896  0.5850  0.3046
 1434SOL    HW215939   3.938   3.900  10.090 -0.0868 -0.4851  0.6044
 1435SOL     OW15940   3.758   0.029   6.282 -0.0700 -0.0958  0.7646
 1435SOL    HW115941   3.774   0.101   6.221 -2.3805 -0.5114 -0.3272
 1435SOL    HW215942   3.729   4.695   6.223 -2.2197  0.5884  0.9961
 1436SOL     OW15943   3.615   3.437   3.339  0.6303 -0.9928 -0.0539
 1436SOL    HW115944   3.600   3.349   3.375  0.2809 -0.5752  0.8249
 1436SOL    HW215945   3.589   3.416   3.250 -0.8629  2.0050 -0.3354
 1437SOL     OW15946   2.229   0.491   5.937  0.5408  0.1932  0.0413
 1437SOL    HW115947   2.244   0.562   5.875  0.7991  0.1876  0.0978
 1437SOL    HW215948   2.134   0.476   5.930  0.3644  0.7887  1.2593
 1438SOL     OW15949   1.319   0.797   9.589 -0.0007 -0.4347  1.2448
 1438SOL    HW115950   1.236   0.751   9.601 -0.1343 -0.3341  0.6836
 1438SOL    HW215951   1.372   0.777   9.666  1.7383 -0.0893  0.1401
 1439SOL     OW15952   4.130   0.821   1.459  0.1019  0.0230 -0.3743
 1439SOL    HW115953   4.085   0.807   1.376 -0.5167 -1.1566  0.1524
 1439SOL    HW215954   4.093   0.906   1.482 -1.3848 -0.5050 -0.8024
 1440SOL     OW15955   0.220   4.410  17.367 -0.4034 -0.0468 -0.3792
 1440SOL    HW115956   0.172   4.398  17.285 -0.7311 -0.0070 -0.1924
 1440SOL    HW215957   0.306   4.446  17.346  0.7136 -3.0016 -0.9332
 1441SOL     OW15958   0.045   2.293  15.304 -0.6363  0.0157  0.3901
 1441SOL    HW115959   4.702   2.248  15.332 -0.1789  0.4665  2.4065
 1441SOL    HW215960   0.042   2.377  15.350  1.3811  0.5830 -0.4992
 1442SOL     OW15961   4.566   2.584   3.560  0.5258 -0.2895 -0.0272
 1442SOL    HW115962   4.579   2.528   3.637  0.4949  0.9714  0.8834
 1442SOL    HW215963   4.654   2.581   3.522 -0.0337  2.7267 -1.4743
 1443SOL     OW15964   4.655   2.143  17.460 -0.3349 -0.7390  0.1610
 1443SOL    HW115965   4.671   2.112  17.371  1.7392 -1.7245  0.8791
 1443SOL    HW215966   4.652   2.059  17.507 -0.7975 -0.4250  0.6909
 1444SOL     OW15967   2.696   1.755   6.947 -0.2708  0.4131 -0.2274
 1444SOL    HW115968   2.642   1.834   6.955 -0.8583 -0.0053 -0.1037
 1444SOL    HW215969   2.659   1.700   6.878  0.1164 -0.4096  0.2299
 1445SOL     OW15970   0.551   0.455  10.333 -0.5310 -0.2452 -0.6287
 1445SOL    HW115971   0.485   0.468  10.265 -0.7074  0.2469 -0.3588
 1445SOL    HW215972   0.630   0.455  10.279  0.4570  0.5415  0.8141
 1446SOL     OW15973   4.256   2.299  17.500 -0.2716  0.0392 -0.0315
 1446SOL    HW115974   4.340   2.338  17.523 -1.6841  3.5729 -0.7846
 1446SOL    HW215975   4.274   2.205  17.508  0.5903  0.1653 -0.5109
 1447SOL     OW15976   1.493   3.816   4.291 -0.2575  0.0794 -0.5905
 1447SOL    HW115977   1.587   3.800   4.285 -0.1210  0.5708  0.3135
 1447SOL    HW215978   1.471   3.860   4.208  0.8128  0.9321 -0.4155
 1448SOL     OW15979   0.466   4.178   8.382  0.1797  0.1726 -0.1271
 1448SOL    HW115980   0.400   4.120   8.345  0.5857 -0.4547  0.1229
 1448SOL    HW215981   0.540   4.141   8.334  0.6782  0.2467  0.5745
 1449SOL     OW15982   0.529   4.632   0.432  0.0743  0.1694 -0.6147
 1449SOL    HW115983   0.477   4.708   0.457 -0.7284 -0.3585 -0.6615
 1449SOL    HW215984   0.492   4.569   0.495  1.4283 -0.4263 -0.4240
 1450SOL     OW15985   3.504   2.028   1.307  0.0436  0.6057  0.4019
 1450SOL    HW115986   3.511   2.062   1.397  3.4804  0.4326  0.2209
 1450SOL    HW215987   3.565   1.955   1.320 -2.1083 -1.7188 -2.5599
 1451SOL     OW15988   0.884   3.785  14.661 -0.5450 -0.6696 -0.6562
 1451SOL    HW115989   0.936   3.780  14.741 -1.7931 -1.2480  0.1234
 1451SOL    HW215990   0.913   3.708  14.611 -1.2335 -0.4023 -1.4628
 1452SOL     OW15991   3.021   2.791   2.452 -0.1347 -0.0565 -0.7282
 1452SOL    HW115992   2.968   2.713   2.468  0.5617 -0.1184  1.1818
 1452SOL    HW215993   3.088   2.799   2.520 -0.1102  2.3999 -1.0335
 1453SOL     OW15994   4.554   3.383   2.946  0.4173 -0.2043 -0.1881
 1453SOL    HW115995   4.608   3.405   3.022 -0.2949  0.1619  0.2112
 1453SOL    HW215996   4.477   3.346   2.990 -1.1361 -0.0632 -2.7799
 1454SOL     OW15997   3.012   3.642   2.984  0.4134 -0.3499  0.0949
 1454SOL    HW115998   3.104   3.622   3.004  0.3062 -0.1800  0.7612
 1454SOL    HW215999   3.001   3.601   2.898  0.3524  0.9615 -0.5276
 1455SOL     OW16000   2.888   1.521   7.569 -0.1431 -0.2612  0.3603
 1455SOL    HW116001   2.930   1.593   7.523 -0.8493 -1.3946 -2.0643
 1455SOL    HW216002   2.796   1.532   7.545 -0.7801  1.4139  3.4923
 1456SOL     OW16003   1.562   4.709  17.018  0.8212 -0.1968 -0.4474
 1456SOL    HW116004   1.563   0.031  17.094  0.6235 -0.2550 -0.4016
 1456SOL    HW216005   1.483   4.732  16.968  1.0090  1.2161 -0.0938
 1457SOL     OW16006   4.362   1.299  14.380  0.0264  0.0187 -1.1199
 1457SOL    HW116007   4.417   1.290  14.302  0.0648 -0.3101 -1.0557
 1457SOL    HW216008   4.314   1.216  14.373 -0.0852  0.0327 -0.5008
 1458SOL     OW16009   0.961   0.777  15.153  0.2879 -0.4917  0.1183
 1458SOL    HW116010   0.974   0.705  15.091 -0.6498  0.3501 -1.0616
 1458SOL    HW216011   1.030   0.838  15.128 -1.5750  1.7877  0.5398
 1459SOL     OW16012   2.909   0.240   3.685  0.4581 -0.1596 -0.2870
 1459SOL    HW116013   2.820   0.272   3.677  0.5091  0.1503  0.3989
 1459SOL    HW216014   2.930   0.214   3.595 -0.4818 -0.9915 -0.2679
 1460SOL     OW16015   1.446   0.708  14.945  0.1388  0.8661 -0.4587
 1460SOL    HW116016   1.421   0.631  14.996 -3.0448  1.0028 -1.8049
 1460SOL    HW216017   1.533   0.717  14.982 -1.2243 -2.0719  3.5064
 1461SOL     OW16018   0.756   0.641   0.777 -0.1831  0.0245 -0.1528
 1461SOL    HW116019   0.847   0.621   0.758  0.1407 -0.3049  1.7821
 1461SOL    HW216020   0.724   0.606   0.693  1.3495 -2.4923  0.3094
 1462SOL     OW16021   2.802   3.719   5.770 -0.5516 -0.2357 -0.0245
 1462SOL    HW116022   2.710   3.740   5.787 -0.0006  1.2688  1.1333
 1462SOL    HW216023   2.843   3.719   5.857 -2.5567  0.4969  0.9164
 1463SOL     OW16024   1.390   1.054   8.673 -0.3304  0.6480  0.1066
 1463SOL    HW116025   1.352   1.125   8.621 -3.0918 -0.0643  1.1117
 1463SOL    HW216026   1.467   1.096   8.710  1.3692  0.1402 -2.8691
 1464SOL     OW16027   3.003   2.655   9.160 -0.0552 -0.9225 -0.0795
 1464SOL    HW116028   3.062   2.700   9.099 -0.4783  1.5652  1.3397
 1464SOL    HW216029   2.944   2.720   9.199 -1.0304 -0.7314 -1.8491
 1465SOL     OW16030   1.246   4.615   2.157 -0.1566  0.4175 -1.0879
 1465SOL    HW116031   1.337   4.601   2.186 -0.4657  1.3552  0.3405
 1465SOL    HW216032   1.255   4.609   2.061  0.0619  0.4541 -1.0716
 1466SOL     OW16033   0.404   4.299  14.928 -0.0989  0.2021 -0.2282
 1466SOL    HW116034   0.379   4.310  15.020 -2.4106  2.7070 -1.1793
 1466SOL    HW216035   0.455   4.218  14.931  1.3314  1.1903  2.4470
 1467SOL     OW16036   1.345   1.272   8.488  0.2023  0.2581  0.5752
 1467SOL    HW116037   1.425   1.323   8.498 -0.2914  0.7495  1.9281
 1467SOL    HW216038   1.377   1.211   8.421 -1.0183 -0.4104  0.5844
 1468SOL     OW16039   1.642   0.350   2.945  0.9648 -0.4560  0.6208
 1468SOL    HW116040   1.576   0.386   2.886 -0.0619 -0.6308  1.6693
 1468SOL    HW216041   1.621   0.396   3.027 -1.0951  1.1849 -0.8188
 1469SOL     OW16042   2.029   1.649   9.546 -0.3746 -0.5185 -0.4061
 1469SOL    HW116043   2.124   1.661   9.546  0.0388 -3.7634  0.7234
 1469SOL    HW216044   2.015   1.628   9.638  0.6912  1.1940  0.1695
 1470SOL     OW16045   0.981   2.087  10.232  0.0320 -0.3609  0.0205
 1470SOL    HW116046   0.977   2.156  10.165  1.0873  1.3780  1.7448
 1470SOL    HW216047   0.949   2.128  10.312 -0.6308  1.1989 -1.0423
 1471SOL     OW16048   2.700   4.307   1.053 -0.3309 -0.7022 -0.2396
 1471SOL    HW116049   2.652   4.390   1.050  2.1566  0.7371  0.2474
 1471SOL    HW216050   2.780   4.329   1.100  0.5641 -2.9533 -0.7302
 1472SOL     OW16051   4.618   3.285  11.732 -0.0073 -0.2980 -0.2181
 1472SOL    HW116052   4.538   3.332  11.756  1.3581  1.2042  1.3133
 1472SOL    HW216053   4.665   3.362  11.702  0.1045 -1.1804 -2.3448
 1473SOL     OW16054   0.922   1.241   5.092 -0.4298  0.7384  0.4836
 1473SOL    HW116055   1.008   1.276   5.114  0.1437  1.2109 -2.5193
 1473SOL    HW216056   0.874   1.302   5.147 -0.9463  0.1483  0.6941
 1474SOL     OW16057   1.134   2.660   3.732 -0.1413  0.1357 -0.0278
 1474SOL    HW116058   1.059   2.686   3.679  0.7950 -0.2946 -1.5868
 1474SOL    HW216059   1.171   2.590   3.677  0.8502 -0.4288  1.3483
 1475SOL     OW16060   0.011   1.267  15.442 -0.5363  0.1421  0.4793
 1475SOL    HW116061   4.668   1.216  15.426 -0.9573 -0.2094  3.5679
 1475SOL    HW216062   4.735   1.277  15.537  3.4530 -2.1668  1.2335
 1476SOL     OW16063   4.649   0.604  17.421 -0.7885  0.2823 -0.0864
 1476SOL    HW116064   4.585   0.536  17.439 -0.5509 -0.0091 -0.3573
 1476SOL    HW216065   4.618   0.664  17.490  0.5945 -0.5965  1.3134
 1477SOL     OW16066   1.890   3.451   7.832 -0.0008 -0.3436  0.2335
 1477SOL    HW116067   1.973   3.419   7.796 -0.1955 -0.1396 -0.4025
 1477SOL    HW216068   1.894   3.436   7.927 -1.1300 -2.9430 -0.1141
 1478SOL     OW16069   0.508   3.371   2.104  0.3068 -0.2926 -0.4485
 1478SOL    HW116070   0.453   3.425   2.162  0.2517 -1.0441  0.1934
 1478SOL    HW216071   0.564   3.441   2.069  0.2932 -0.0062  0.0882
 1479SOL     OW16072   1.826   3.406  15.023 -0.5021 -0.2649 -0.3071
 1479SOL    HW116073   1.753   3.405  15.085 -1.0836  2.4598 -0.9235
 1479SOL    HW216074   1.836   3.500  15.004  0.6588 -0.0089  1.5340
 1480SOL     OW16075   1.805   2.899   2.326 -0.1482  0.3358 -0.5602
 1480SOL    HW116076   1.893   2.864   2.340 -0.1968  0.3909 -0.1037
 1480SOL    HW216077   1.766   2.816   2.299  0.1422  0.7239 -2.1629
 1481SOL     OW16078   3.564   2.488   4.476 -0.2025  0.1191 -0.0634
 1481SOL    HW116079   3.492   2.426   4.482 -2.3222  2.6930  0.9874
 1481SOL    HW216080   3.625   2.429   4.521 -0.4378 -1.4578 -1.8140
 1482SOL     OW16081   3.376   3.362   5.268  0.6663  0.5059  0.2488
 1482SOL    HW116082   3.389   3.268   5.264  1.5526  0.6341  0.0568
 1482SOL    HW216083   3.435   3.395   5.200  0.7389 -0.1121  0.0130
 1483SOL     OW16084   0.398   3.896   8.852  0.1372 -0.0099 -0.5856
 1483SOL    HW116085   0.318   3.945   8.833 -1.1104 -1.2300  1.5346
 1483SOL    HW216086   0.418   3.924   8.941 -0.7266  0.1994 -0.4561
 1484SOL     OW16087   4.543   1.680   9.304 -0.0190  0.1109 -0.3616
 1484SOL    HW116088   4.530   1.726   9.387 -1.2596  0.8806 -0.9823
 1484SOL    HW216089   4.627   1.720   9.279  1.4978 -2.3229  0.8880
 1485SOL     OW16090   4.036   4.653   6.889 -0.2668  0.2429  0.4147
 1485SOL    HW116091   4.096   4.702   6.945  1.5110 -2.8713  1.2215
 1485SOL    HW216092   3.951   4.674   6.928  0.1888  1.5675  0.7228
 1486SOL     OW16093   2.138   0.005   4.117  0.3751 -0.3638  0.3970
 1486SOL    HW116094   2.047   0.028   4.099  0.9164  1.7457  0.2846
 1486SOL    HW216095   2.170   4.734   4.027 -0.5186  3.3682 -0.2446
 1487SOL     OW16096   3.885   1.853   4.975 -0.2109 -0.0351 -0.3442
 1487SOL    HW116097   3.884   1.848   5.070 -2.9589  0.9545 -0.3313
 1487SOL    HW216098   3.825   1.782   4.953 -0.7231  0.3710 -0.2726
 1488SOL     OW16099   2.585   4.105   9.078  0.6325  0.3186  0.2749
 1488SOL    HW116100   2.517   4.075   9.019  0.9214  1.0129 -0.4119
 1488SOL    HW216101   2.635   4.027   9.101  0.8386 -0.0697 -1.5525
 1489SOL     OW16102   3.328   3.247   2.702 -0.4423 -0.3521  0.2949
 1489SOL    HW116103   3.337   3.216   2.612  2.5573 -0.4121  0.6265
 1489SOL    HW216104   3.295   3.336   2.688 -0.6429 -0.4772 -0.0329
 1490SOL     OW16105   2.470   2.816   5.009 -0.5633  0.2151 -0.1893
 1490SOL    HW116106   2.502   2.730   5.037  0.8662  0.3048 -1.5353
 1490SOL    HW216107   2.434   2.797   4.923 -0.9710 -0.9491  0.2297
 1491SOL     OW16108   4.680   4.357   5.576 -0.3118 -0.3255  0.3383
 1491SOL    HW116109   0.008   4.325   5.513 -1.3774  0.0924 -0.9471
 1491SOL    HW216110   0.002   4.401   5.638 -0.6889 -0.7775  1.0148
 1492SOL     OW16111   1.720   1.276   2.215  0.1868 -0.0011  0.1199
 1492SOL    HW116112   1.725   1.340   2.286 -0.2136  2.2249 -1.8414
 1492SOL    HW216113   1.813   1.273   2.193 -0.4417  2.3344 -2.8370
 1493SOL     OW16114   0.258   3.432  12.076 -0.1829 -0.3622  0.3473
 1493SOL    HW116115   0.218   3.385  12.003  2.5811  0.0092 -1.4448
 1493SOL    HW216116   0.350   3.432  12.047  0.1585 -0.7995  1.4554
 1494SOL     OW16117   1.721   0.361   5.874 -0.0309 -0.0644  0.3908
 1494SOL    HW116118   1.678   0.367   5.789 -0.9698 -1.1132  0.8037
 1494SOL    HW216119   1.703   0.270   5.896 -0.7194  0.1462  0.6786
 1495SOL     OW16120   2.154   4.734  11.831  0.5224  0.0481  0.3206
 1495SOL    HW116121   2.105   4.657  11.802  0.9520  0.2111 -0.8568
 1495SOL    HW216122   2.153   0.049  11.750 -1.0226  1.4643  1.2385
 1496SOL     OW16123   3.369   0.741   0.434 -0.0165  0.4992 -0.6840
 1496SOL    HW116124   3.313   0.818   0.427 -1.2020 -0.3055 -0.0877
 1496SOL    HW216125   3.438   0.780   0.380  1.7787 -0.8570  0.6322
 1497SOL     OW16126   1.699   2.684   4.451  0.3405  0.0313  0.2763
 1497SOL    HW116127   1.612   2.645   4.443 -0.6768  1.9936  1.8114
 1497SOL    HW216128   1.749   2.650   4.377 -0.4937 -0.9296  0.1657
 1498SOL     OW16129   3.407   1.739   4.232  0.5011 -0.3175 -0.6140
 1498SOL    HW116130   3.452   1.712   4.151  2.4840 -2.5039  1.1972
 1498SOL    HW216131   3.479   1.789   4.271 -0.4077 -0.0168  0.6774
 1499SOL     OW16132   2.830   1.301   4.667  0.3148  0.4084  0.2174
 1499SOL    HW116133   2.867   1.378   4.710 -0.5304 -0.2617  2.1398
 1499SOL    HW216134   2.793   1.251   4.739 -0.1010 -0.4161 -0.5670
 1500SOL     OW16135   2.132   0.734   3.209  0.1334  0.2825 -0.1320
 1500SOL    HW116136   2.146   0.654   3.158 -1.1294 -0.9383  1.4625
 1500SOL    HW216137   2.160   0.707   3.296 -1.0559 -0.3993  0.0401
 1501SOL     OW16138   3.714   2.343   5.079  0.8658 -0.4943 -0.1828
 1501SOL    HW116139   3.656   2.270   5.058 -0.8335  0.3252  1.5703
 1501SOL    HW216140   3.651   2.400   5.123  2.3044  0.8511  0.1334
 1502SOL     OW16141   3.736   4.542   0.114 -0.1349 -0.0901  0.2199
 1502SOL    HW116142   3.713   4.493   0.193 -1.4842 -0.5024 -0.4175
 1502SOL    HW216143   3.713   4.470   0.054  1.4835 -0.7813  0.4312
 1503SOL     OW16144   1.859   0.013   7.721  0.4992  0.0051 -0.2074
 1503SOL    HW116145   1.879   4.670   7.773 -1.0123 -1.3365 -1.6700
 1503SOL    HW216146   1.773   4.724   7.687  0.2719 -0.8090  0.9605
 1504SOL     OW16147   4.303   3.555   3.082 -0.1331 -0.1342 -0.1206
 1504SOL    HW116148   4.323   3.574   3.174  0.9997 -1.8533 -0.0079
 1504SOL    HW216149   4.383   3.584   3.039 -1.3136  1.0687 -1.4916
 1505SOL     OW16150   0.698   0.902   0.840 -0.0131  0.3894  0.1592
 1505SOL    HW116151   0.750   0.912   0.919  0.4910 -3.4008  0.3156
 1505SOL    HW216152   0.729   0.815   0.814  1.0756  1.3661 -1.8772
 1506SOL     OW16153   4.244   3.967   4.579 -0.0302  0.4840 -0.0771
 1506SOL    HW116154   4.214   3.910   4.508 -0.9730  2.5267 -1.3151
 1506SOL    HW216155   4.164   3.998   4.623  1.2959  1.4910  1.6210
 1507SOL     OW16156   2.694   1.528   4.893 -0.1614  0.3495 -0.0377
 1507SOL    HW116157   2.677   1.481   4.974 -1.6155  2.1648  0.6855
 1507SOL    HW216158   2.605   1.527   4.856 -0.6037  0.2984  1.0307
 1508SOL     OW16159   0.953   3.703   8.663 -0.3244 -0.4362 -0.3581
 1508SOL    HW116160   0.928   3.751   8.584 -1.8169  1.8072  1.4708
 1508SOL    HW216161   1.048   3.712   8.660 -0.2751 -1.2398 -1.2808
 1509SOL     OW16162   3.059   1.452   3.131 -0.4199  0.1412 -0.8527
 1509SOL    HW116163   3.107   1.535   3.133  2.1888 -1.3779  0.0349
 1509SOL    HW216164   3.118   1.393   3.083 -0.3991 -0.9097  0.4897
 1510SOL     OW16165   1.057   2.430   2.563  0.3845 -0.0542  0.3538
 1510SOL    HW116166   1.022   2.494   2.626 -0.5735  1.9418 -2.1962
 1510SOL    HW216167   1.150   2.450   2.564 -0.0801  2.1373  0.4526
 1511SOL     OW16168   4.284   1.263   6.626 -0.3258 -0.2183 -0.7167
 1511SOL    HW116169   4.281   1.184   6.680 -1.8065 -0.0126 -0.5101
 1511SOL    HW216170   4.190   1.277   6.620 -0.0900  1.4141 -0.6186
 1512SOL     OW16171   2.776   1.736   8.213 -0.1199 -0.2016 -0.1349
 1512SOL    HW116172   2.840   1.782   8.160 -0.3278 -1.4764 -1.4857
 1512SOL    HW216173   2.839   1.692   8.271  0.7664  0.4599 -0.5995
 1513SOL     OW16174   0.540   1.957   6.418 -0.0166 -0.1793 -0.1564
 1513SOL    HW116175   0.526   1.863   6.431  2.5519 -0.8311 -1.9500
 1513SOL    HW216176   0.608   1.978   6.482 -1.2427 -0.8969  1.3865
 1514SOL     OW16177   2.955   3.629   4.572 -0.5745 -0.6292  0.5499
 1514SOL    HW116178   2.885   3.695   4.571  0.0361  0.0456  1.8207
 1514SOL    HW216179   2.911   3.550   4.542 -0.6347 -0.1068 -0.7353
 1515SOL     OW16180   0.253   2.344   5.002 -0.3357 -0.2521 -0.3410
 1515SOL    HW116181   0.232   2.251   5.006  2.6334 -0.8624  0.8891
 1515SOL    HW216182   0.274   2.350   5.095 -1.2106  0.1431 -0.1742
 1516SOL     OW16183   0.093   3.676   7.068 -0.3519 -0.4834  0.1955
 1516SOL    HW116184   0.042   3.656   6.990 -1.5800  0.2378  0.7986
 1516SOL    HW216185   0.176   3.684   7.021  0.4987 -1.0018  1.6099
 1517SOL     OW16186   0.885   4.313   4.864  0.2557  0.6289 -0.0520
 1517SOL    HW116187   0.872   4.309   4.769  1.9151  2.2385 -0.3453
 1517SOL    HW216188   0.809   4.368   4.881  0.3246  0.2500  1.4183
 1518SOL     OW16189   3.327   0.606  12.129  1.1379 -0.1759  0.2314
 1518SOL    HW116190   3.393   0.636  12.066 -1.0554  2.3027 -0.8654
 1518SOL    HW216191   3.248   0.611  12.075  0.7236 -1.7958  0.6792
 1519SOL     OW16192   0.561   4.685   2.231  0.1447 -0.4604 -0.1804
 1519SOL    HW116193   0.570   4.611   2.291  0.4451  0.6987  1.1969
 1519SOL    HW216194   0.465   4.689   2.223  0.3138 -1.7272 -2.7240
 1520SOL     OW16195   4.037   3.717   3.755 -0.4653 -0.4667 -0.2010
 1520SOL    HW116196   3.988   3.762   3.686 -0.4432 -0.0547  0.0574
 1520SOL    HW216197   3.979   3.739   3.828 -0.4629 -0.3209 -0.2440
 1521SOL     OW16198   3.974   4.528   1.987  0.2674 -0.2470 -0.7934
 1521SOL    HW116199   3.960   4.434   1.974  0.4369 -0.8800  3.5612
 1521SOL    HW216200   3.899   4.552   1.934 -0.9295 -0.0089  1.0044
 1522SOL     OW16201   1.189   2.072   2.695  0.0646  0.5809 -0.4581
 1522SOL    HW116202   1.274   2.031   2.680 -1.1100 -2.0327 -0.0084
 1522SOL    HW216203   1.140   1.994   2.724  1.7477  0.2133  1.3913
 1523SOL     OW16204   0.547   0.680   9.203  0.2148  0.0380  0.3290
 1523SOL    HW116205   0.460   0.642   9.217  1.6436 -2.7951  1.5152
 1523SOL    HW216206   0.558   0.644   9.115 -1.9060  0.0413  0.0598
 1524SOL     OW16207   0.608   3.659   1.153 -0.2680 -0.4407  0.9958
 1524SOL    HW116208   0.608   3.564   1.158  1.7333 -0.5768 -1.4140
 1524SOL    HW216209   0.548   3.678   1.081 -1.6230 -3.9323  1.2383
 1525SOL     OW16210   1.923   0.962   4.685  0.0281 -0.3607  0.0957
 1525SOL    HW116211   2.013   0.958   4.717  1.3733  1.1531 -3.4986
 1525SOL    HW216212   1.928   1.051   4.650  0.3538  0.3507  1.9547
 1526SOL     OW16213   1.214   3.324   8.521  0.2203  0.5959 -0.0388
 1526SOL    HW116214   1.287   3.279   8.564  0.0058  0.2139 -0.0692
 1526SOL    HW216215   1.264   3.362   8.448 -0.3935  1.5754  0.0566
 1527SOL     OW16216   0.245   1.818  15.984 -0.4758  0.1733 -0.5775
 1527SOL    HW116217   0.188   1.885  16.022  0.1291 -0.1221  0.8303
 1527SOL    HW216218   0.252   1.754  16.054 -1.5671  0.9699  0.2599
 1528SOL     OW16219   1.137   0.507   2.059 -0.3943  0.8276 -0.3013
 1528SOL    HW116220   1.048   0.475   2.075 -0.4317  1.7576  1.2768
 1528SOL    HW216221   1.135   0.512   1.963  0.6760  1.4925 -0.2792
 1529SOL     OW16222   3.701   1.760  13.633  0.0630  0.6290  0.2748
 1529SOL    HW116223   3.677   1.765  13.540 -2.7392 -0.8328  0.9398
 1529SOL    HW216224   3.672   1.669  13.637  0.1298  0.5890 -0.0828
 1530SOL     OW16225   2.324   4.047   6.430  0.1384 -0.7003 -0.1556
 1530SOL    HW116226   2.320   4.081   6.341 -1.2388 -1.0073 -0.2161
 1530SOL    HW216227   2.384   4.104   6.477  1.3749 -1.8640 -0.3097
 1531SOL     OW16228   0.589   3.699  11.576  0.2601  0.4290 -0.0465
 1531SOL    HW116229   0.567   3.790  11.599 -1.9625  0.4755 -2.4474
 1531SOL    HW216230   0.682   3.720  11.585  0.8135 -1.4602 -1.5983
 1532SOL     OW16231   1.669   0.228   8.743 -0.2009 -0.0716  0.4654
 1532SOL    HW116232   1.683   0.134   8.756  0.2036  0.1330  1.5933
 1532SOL    HW216233   1.748   0.266   8.783 -1.0527  0.4766  1.6224
 1533SOL     OW16234   1.967   2.813   3.960 -0.0419 -0.4961 -0.2555
 1533SOL    HW116235   1.946   2.726   3.928  1.0886 -0.1618 -1.8682
 1533SOL    HW216236   1.878   2.847   3.971 -0.3369 -1.5471  0.6039
 1534SOL     OW16237   3.819   1.250   5.537 -0.4538 -0.4268 -0.2285
 1534SOL    HW116238   3.744   1.296   5.576 -0.2030 -0.3070  0.1218
 1534SOL    HW216239   3.881   1.274   5.606  2.3173  1.7320 -3.4612
 1535SOL     OW16240   1.850   0.248  15.913 -0.0284  0.7074 -0.0202
 1535SOL    HW116241   1.787   0.262  15.983 -0.6260 -0.0630 -0.4004
 1535SOL    HW216242   1.885   0.162  15.933 -0.1701 -0.1463 -3.4297
 1536SOL     OW16243   1.316   2.309   2.766  0.0687 -0.0360 -0.4799
 1536SOL    HW116244   1.346   2.333   2.679  1.3033 -0.2444 -0.1261
 1536SOL    HW216245   1.269   2.226   2.761 -0.2396  0.1782 -0.9983
 1537SOL     OW16246   3.756   1.199   8.388 -0.0527 -0.3085  0.5749
 1537SOL    HW116247   3.747   1.285   8.429  0.1697  0.3367 -0.7538
 1537SOL    HW216248   3.850   1.192   8.404 -0.2605 -3.0565  0.5916
 1538SOL     OW16249   4.653   2.324   6.463  0.6160  0.1443  0.1879
 1538SOL    HW116250   4.699   2.344   6.544 -0.0951  0.1179  0.5937
 1538SOL    HW216251   4.588   2.257   6.480 -0.3886  1.1752  0.3846
 1539SOL     OW16252   3.659   1.704   3.315  0.4540 -0.1774  0.1436
 1539SOL    HW116253   3.666   1.733   3.406  1.1119 -1.6140  0.5476
 1539SOL    HW216254   3.750   1.689   3.286 -0.0131 -0.7004 -1.0661
 1540SOL     OW16255   2.973   3.448   2.717  0.2854  0.1510  0.0240
 1540SOL    HW116256   2.916   3.485   2.651 -0.8602 -1.1392  0.3037
 1540SOL    HW216257   3.060   3.465   2.681  1.2780 -2.0385  1.3467
 1541SOL     OW16258   1.986   1.814   6.304  0.3667  0.6738  0.2713
 1541SOL    HW116259   1.985   1.816   6.400 -0.7207  0.5023  0.2624
 1541SOL    HW216260   1.951   1.900   6.285  0.6350  0.4712 -1.1739
 1542SOL     OW16261   3.613   4.380   0.336 -0.0526  0.7590 -0.0644
 1542SOL    HW116262   3.524   4.415   0.346 -0.2246  0.0202  0.9708
 1542SOL    HW216263   3.594   4.288   0.354  0.9398  0.2336 -1.7573
 1543SOL     OW16264   2.189   4.607   5.303 -0.3469  0.1867  0.4419
 1543SOL    HW116265   2.188   4.522   5.346 -0.6048 -1.2053 -2.2602
 1543SOL    HW216266   2.136   4.595   5.223  0.8693  0.9264 -0.4668
 1544SOL     OW16267   2.046   4.417   7.315  0.2935 -0.3709  0.1647
 1544SOL    HW116268   2.103   4.358   7.364 -2.5637 -2.4831  0.8869
 1544SOL    HW216269   2.104   4.434   7.241  0.6637 -0.2440  0.4796
 1545SOL     OW16270   1.623   4.458   5.538  0.0890  0.1512 -0.3725
 1545SOL    HW116271   1.593   4.487   5.452 -0.6609  1.2384  0.2595
 1545SOL    HW216272   1.546   4.461   5.595 -0.3298 -2.1243 -0.8392
 1546SOL     OW16273   2.016   0.456  15.952 -0.0138 -0.4428  0.1764
 1546SOL    HW116274   2.022   0.426  16.042 -0.6487 -0.4923  0.2020
 1546SOL    HW216275   1.950   0.396  15.916 -2.1400  1.9277  0.1596
 1547SOL     OW16276   0.460   0.977   1.448 -0.2765 -0.1767  0.2828
 1547SOL    HW116277   0.531   0.913   1.452 -0.0383  0.0435 -0.3806
 1547SOL    HW216278   0.416   0.961   1.364 -0.5271  1.2611  0.1429
 1548SOL     OW16279   4.047   0.751   4.013  0.0855  0.0549  0.0070
 1548SOL    HW116280   4.040   0.691   3.939  0.8629  0.9806 -0.8097
 1548SOL    HW216281   4.113   0.816   3.989  0.2622 -0.3100 -0.4972
 1549SOL     OW16282   3.498   1.611   6.656  0.3938 -0.1682  0.5619
 1549SOL    HW116283   3.529   1.658   6.579 -0.5151 -0.1457  0.2058
 1549SOL    HW216284   3.580   1.568   6.679  1.1111 -1.1354 -3.7914
 1550SOL     OW16285   4.439   0.312   3.102  0.2470  0.2427 -0.3962
 1550SOL    HW116286   4.417   0.222   3.080 -1.0233  0.1260  1.2866
 1550SOL    HW216287   4.429   0.359   3.020  2.8009  1.7223  0.1281
 1551SOL     OW16288   4.012   4.291   8.726 -0.2180  0.0842 -0.3823
 1551SOL    HW116289   4.005   4.232   8.650  0.9626 -0.3608 -0.1419
 1551SOL    HW216290   3.996   4.231   8.799  0.1445  0.7807  0.2576
 1552SOL     OW16291   3.677   3.819   5.260  0.0163 -0.2146 -0.0468
 1552SOL    HW116292   3.692   3.909   5.234 -0.2872 -0.5230 -1.2602
 1552SOL    HW216293   3.751   3.805   5.320  0.2973 -1.0447 -0.5859
 1553SOL     OW16294   4.162   0.629  12.481  0.0492 -0.2221  0.1493
 1553SOL    HW116295   4.096   0.561  12.495  0.5106 -0.3845  1.5342
 1553SOL    HW216296   4.118   0.708  12.448  1.1731  0.5590  0.4916
 1554SOL     OW16297   2.444   2.554  17.019 -0.2557  0.2884  0.1836
 1554SOL    HW116298   2.470   2.511  16.938  1.0782  0.6293  0.4283
 1554SOL    HW216299   2.356   2.517  17.014 -1.1510  2.2065  1.7473
 1555SOL     OW16300   0.597   0.477   2.342  0.2346 -0.0377  0.2258
 1555SOL    HW116301   0.586   0.480   2.437  0.8821 -0.4052  0.3110
 1555SOL    HW216302   0.585   0.384   2.327  2.5889 -0.6404  2.0062
 1556SOL     OW16303   1.999   1.773  10.244  0.3184  0.4327 -0.4084
 1556SOL    HW116304   1.981   1.687  10.206 -1.3792  0.8339 -0.5058
 1556SOL    HW216305   2.045   1.806  10.167 -1.6334 -0.3110 -1.8924
 1557SOL     OW16306   4.477   3.050   8.038  0.2572  0.3632 -0.2170
 1557SOL    HW116307   4.515   3.137   8.046 -0.9458  1.0198 -1.7821
 1557SOL    HW216308   4.404   3.056   8.101  0.3222 -0.3759 -0.0719
 1558SOL     OW16309   4.653   3.327   4.717  0.4755  0.0370 -0.4604
 1558SOL    HW116310   4.629   3.241   4.683  0.8914  0.6394 -2.2661
 1558SOL    HW216311   4.599   3.341   4.795  0.5668  0.3770 -0.4556
 1559SOL     OW16312   3.025   2.915   7.119  0.4692 -0.1096  0.3125
 1559SOL    HW116313   2.987   2.999   7.093  2.6491  0.8139  0.1194
 1559SOL    HW216314   3.106   2.915   7.068  0.6705  0.5247  0.6190
 1560SOL     OW16315   4.256   4.701  15.121  0.4883  0.4497  0.0477
 1560SOL    HW116316   4.209   4.679  15.041  1.4222  2.8654 -1.1461
 1560SOL    HW216317   4.340   4.733  15.089  2.2630 -3.0815  1.1140
 1561SOL     OW16318   3.021   3.182   4.119  0.2569 -0.0428  0.3327
 1561SOL    HW116319   3.017   3.225   4.204 -0.7699  1.0261 -0.2624
 1561SOL    HW216320   2.965   3.246   4.077  0.1096  0.6989  1.6647
 1562SOL     OW16321   3.422   0.238   4.893  0.3939  0.0115  0.3533
 1562SOL    HW116322   3.465   0.159   4.925 -0.6307 -1.0093 -0.7833
 1562SOL    HW216323   3.485   0.252   4.822  0.4098  0.4885  0.4624
 1563SOL     OW16324   3.614   4.726   2.406  0.3660 -0.8085  0.4469
 1563SOL    HW116325   3.590   4.641   2.442  3.1022 -1.4902  0.6606
 1563SOL    HW216326   3.694   4.700   2.361 -0.1356  0.7111 -1.3083
 1564SOL     OW16327   3.717   1.639   4.895 -0.1411 -0.6336  0.0031
 1564SOL    HW116328   3.639   1.588   4.874 -0.3886  0.8069 -2.5594
 1564SOL    HW216329   3.784   1.575   4.872 -0.3262 -0.6637 -0.4442
 1565SOL     OW16330   4.434   1.589   9.982  0.4156 -0.0986  0.4839
 1565SOL    HW116331   4.428   1.507  10.031 -2.3537 -1.5794 -2.3314
 1565SOL    HW216332   4.409   1.648  10.054 -0.1285 -0.1559  0.3397
 1566SOL     OW16333   1.592   3.336   9.999 -0.2117  0.0856  0.1092
 1566SOL    HW116334   1.569   3.340   9.906  0.0069  0.5735  0.0820
 1566SOL    HW216335   1.687   3.344  10.005 -0.0324 -0.7627 -1.5698
 1567SOL     OW16336   0.104   2.417   6.667 -0.0172 -0.4491  0.0675
 1567SOL    HW116337   0.186   2.374   6.642  0.3914  0.4455 -0.1377
 1567SOL    HW216338   0.138   2.483   6.728  0.2328  0.5555 -1.1455
 1568SOL     OW16339   1.745   2.316   3.617 -0.1069 -0.0781 -0.2471
 1568SOL    HW116340   1.833   2.277   3.622  0.5149  1.3451  0.1486
 1568SOL    HW216341   1.753   2.366   3.536  0.7323 -0.8164 -0.6239
 1569SOL     OW16342   2.770   2.467  14.980  0.2008  0.2604 -0.1485
 1569SOL    HW116343   2.800   2.548  15.022  0.3635  0.5961 -0.8964
 1569SOL    HW216344   2.829   2.473  14.905  0.5745 -1.2190  0.0351
 1570SOL     OW16345   4.532   3.245   6.946 -0.2805 -0.1428  0.3268
 1570SOL    HW116346   4.538   3.310   7.016 -0.5976  1.0258 -0.7363
 1570SOL    HW216347   4.469   3.185   6.985 -2.0710  2.1323  0.9503
 1571SOL     OW16348   1.707   3.238   4.231  0.1565 -0.1436  0.3552
 1571SOL    HW116349   1.798   3.213   4.220 -0.2365 -1.6267  0.4689
 1571SOL    HW216350   1.727   3.331   4.226  0.0352 -0.1406 -0.0448
 1572SOL     OW16351   1.381   3.728   1.732  0.0745  0.1219  0.1181
 1572SOL    HW116352   1.421   3.674   1.664 -0.5181  0.4009 -0.4459
 1572SOL    HW216353   1.459   3.751   1.784  0.6356  0.7725 -1.0196
 1573SOL     OW16354   2.051   4.004   1.813  0.3437  0.5684 -0.0257
 1573SOL    HW116355   2.145   4.007   1.831  0.0118 -0.2004  1.9272
 1573SOL    HW216356   2.033   3.982   1.722  1.1066 -2.4352  0.5278
 1574SOL     OW16357   0.789   4.131  14.903 -0.2194 -0.1312  0.2840
 1574SOL    HW116358   0.851   4.059  14.892  0.2952  0.3088  0.2586
 1574SOL    HW216359   0.846   4.200  14.868 -0.4507 -0.2508 -0.3355
 1575SOL     OW16360   2.155   3.697   8.051 -0.6398  0.2207 -0.1284
 1575SOL    HW116361   2.246   3.675   8.031 -1.3262 -0.7884 -2.0821
 1575SOL    HW216362   2.151   3.640   8.128  0.1107  2.2685  1.4406
 1576SOL     OW16363   1.626   0.254  15.739  0.1561 -0.0432 -0.0094
 1576SOL    HW116364   1.706   0.273  15.787  1.3492  0.8886 -2.3269
 1576SOL    HW216365   1.646   0.172  15.694  3.6165  0.8147 -0.0466
 1577SOL     OW16366   2.747   1.916   2.139  0.1495 -0.0918  0.5506
 1577SOL    HW116367   2.722   1.989   2.195 -0.2929 -1.3171  1.9767
 1577SOL    HW216368   2.842   1.926   2.146  0.2138 -0.6083  0.4476
 1578SOL     OW16369   4.376   2.066   2.848  0.8374 -0.2427 -0.1488
 1578SOL    HW116370   4.438   2.098   2.782  0.7738  1.1873  0.4784
 1578SOL    HW216371   4.314   2.138   2.835  1.5850  0.2944 -0.7944
 1579SOL     OW16372   0.594   0.940  13.158 -0.2592  0.0983  0.3491
 1579SOL    HW116373   0.663   0.911  13.217  1.9459  1.2649 -1.6594
 1579SOL    HW216374   0.517   0.925  13.212  1.6109  0.7512  3.2108
 1580SOL     OW16375   0.539   4.079   7.463 -1.4067  0.2274  0.0837
 1580SOL    HW116376   0.495   4.002   7.499 -1.6952 -0.3204 -1.4616
 1580SOL    HW216377   0.478   4.150   7.486 -0.8744  0.3557  1.1098
 1581SOL     OW16378   0.331   2.508   8.036  0.1676 -0.6749  0.6049
 1581SOL    HW116379   0.328   2.463   7.951 -3.3608 -1.8921  1.3629
 1581SOL    HW216380   0.358   2.593   8.001 -1.9157  0.0663  0.7527
 1582SOL     OW16381   3.347   3.673   6.502 -0.5612 -0.4072  0.4303
 1582SOL    HW116382   3.340   3.767   6.515 -0.8847 -0.2188 -1.0896
 1582SOL    HW216383   3.308   3.666   6.414 -2.0445  0.3631  1.0178
 1583SOL     OW16384   3.263   3.471  12.714 -0.2781  0.6494 -0.6075
 1583SOL    HW116385   3.295   3.499  12.800  0.7157 -0.2155 -0.6928
 1583SOL    HW216386   3.205   3.545  12.697 -2.5231 -0.7569  1.0108
 1584SOL     OW16387   0.368   1.622   4.109 -0.0275  0.3759 -0.0328
 1584SOL    HW116388   0.457   1.611   4.075  0.7676  1.6373  1.6604
 1584SOL    HW216389   0.360   1.717   4.114 -0.3884  0.3596 -0.2871
 1585SOL     OW16390   0.921   0.225   8.206  0.4186  0.1833 -0.0930
 1585SOL    HW116391   0.928   0.183   8.292  1.1471  0.1654 -0.1601
 1585SOL    HW216392   0.982   0.183   8.146  1.1778 -0.1718  0.9290
 1586SOL     OW16393   4.304   2.184   4.892 -0.3355 -0.2245 -0.0969
 1586SOL    HW116394   4.341   2.254   4.945 -1.7726 -1.1807  2.1816
 1586SOL    HW216395   4.233   2.154   4.950 -0.2228 -0.1656  0.0721
 1587SOL     OW16396   0.732   1.940   8.649  0.0713  0.4522 -0.1101
 1587SOL    HW116397   0.641   1.965   8.664 -0.3698 -2.0904  1.4745
 1587SOL    HW216398   0.736   1.975   8.560 -2.4078  0.4025 -0.2493
 1588SOL     OW16399   3.949   4.159   7.130 -0.2781 -0.9104 -0.0189
 1588SOL    HW116400   3.973   4.246   7.100 -0.9576 -0.6816  0.1059
 1588SOL    HW216401   3.904   4.173   7.213  1.1941  1.5611  0.3391
 1589SOL     OW16402   3.874   0.498   6.057  0.0873  0.1203  0.4932
 1589SOL    HW116403   3.825   0.551   6.120 -0.7971  0.2484 -0.2974
 1589SOL    HW216404   3.955   0.495   6.107  0.0191 -1.1858  0.5249
 1590SOL     OW16405   3.332   4.021  13.068  0.6656 -0.5395  0.6004
 1590SOL    HW116406   3.398   4.045  13.003  3.2478 -0.6901  3.1835
 1590SOL    HW216407   3.252   4.025  13.014  1.7435 -0.3054 -0.9744
 1591SOL     OW16408   0.745   2.626   8.634 -0.6279  0.3525  0.0927
 1591SOL    HW116409   0.700   2.700   8.593 -0.5008 -0.5714 -1.6973
 1591SOL    HW216410   0.779   2.664   8.716  0.3397 -1.1434  0.3774
 1592SOL     OW16411   2.432   3.169   4.688  0.6242 -0.0155 -0.7702
 1592SOL    HW116412   2.354   3.127   4.724 -0.5299  1.4629 -1.5182
 1592SOL    HW216413   2.474   3.203   4.767 -1.0925  1.3565 -0.4385
 1593SOL     OW16414   1.801   3.081   5.058 -0.2594 -0.6896 -0.5596
 1593SOL    HW116415   1.871   3.022   5.031  0.4655 -0.4080  0.6919
 1593SOL    HW216416   1.772   3.100   4.969 -2.2558  0.1843  0.2862
 1594SOL     OW16417   2.218   2.888   3.823  0.1351  0.0869  0.1301
 1594SOL    HW116418   2.219   2.820   3.756 -1.1432  1.4167 -1.2476
 1594SOL    HW216419   2.136   2.860   3.864 -0.5017  2.4420  0.4833
 1595SOL     OW16420   1.795   0.424   1.761  0.8448  0.2115  0.1672
 1595SOL    HW116421   1.837   0.376   1.833  0.7692 -0.4587 -0.2410
 1595SOL    HW216422   1.779   0.361   1.691  0.9525 -0.7324  0.9849
 1596SOL     OW16423   2.577   0.793   8.598 -0.0392  0.3047 -0.2641
 1596SOL    HW116424   2.558   0.699   8.592  2.1883 -0.4262  3.9630
 1596SOL    HW216425   2.498   0.828   8.557  2.0950  2.9293 -2.1249
 1597SOL     OW16426   4.117   4.370   8.193 -0.4104 -0.0792  0.4485
 1597SOL    HW116427   4.168   4.342   8.269  1.7916 -1.3662 -1.4853
 1597SOL    HW216428   4.111   4.291   8.139  3.0588 -1.2019  1.6692
 1598SOL     OW16429   0.322   4.474  17.642 -0.3524 -0.1501 -0.2230
 1598SOL    HW116430   0.396   4.416  17.627 -0.4330 -0.0549 -0.9654
 1598SOL    HW216431   0.263   4.460  17.568 -1.6005  0.0251  0.7490
 1599SOL     OW16432   0.556   1.771   2.640  0.2211 -0.1535 -0.5406
 1599SOL    HW116433   0.613   1.847   2.639  1.3812 -0.9768  2.3066
 1599SOL    HW216434   0.629   1.715   2.614  1.1700  1.1191 -0.6096
 1600SOL     OW16435   4.350   2.404  14.495  0.6175 -0.0698 -0.1308
 1600SOL    HW116436   4.359   2.328  14.436 -1.5787  0.3687 -1.0272
 1600SOL    HW216437   4.312   2.464  14.431  0.0347 -1.7186 -1.3331
 1601SOL     OW16438   0.276   2.728   1.252 -0.4101 -0.5709  0.5849
 1601SOL    HW116439   0.317   2.711   1.337 -0.9120  1.7720  1.3112
 1601SOL    HW216440   0.190   2.744   1.290  0.3172  0.5845  1.7538
 1602SOL     OW16441   1.144   0.318  16.678  0.7078 -0.1331  0.4702
 1602SOL    HW116442   1.149   0.270  16.760  0.0281 -1.5113 -0.2846
 1602SOL    HW216443   1.050   0.313  16.661  0.7028 -1.0151  0.7934
 1603SOL     OW16444   4.449   1.999   8.774  0.0216  0.8670 -0.0122
 1603SOL    HW116445   4.514   1.933   8.798 -0.0314  0.3824 -1.1668
 1603SOL    HW216446   4.482   2.032   8.691 -0.8370 -0.9641 -1.0907
 1604SOL     OW16447   0.225   2.771  15.485  0.0926 -0.0214 -0.4101
 1604SOL    HW116448   0.291   2.706  15.506 -0.6321 -0.9143 -0.9203
 1604SOL    HW216449   0.259   2.798  15.400 -0.3643  0.2782 -0.5013
 1605SOL     OW16450   2.162   2.550   2.029 -0.6550 -0.2370  0.3511
 1605SOL    HW116451   2.171   2.515   1.940  2.8788  0.3812  0.4613
 1605SOL    HW216452   2.253   2.567   2.052 -0.1323 -0.5636 -1.4724
 1606SOL     OW16453   2.958   1.174  14.126  0.3182 -0.0470 -0.1705
 1606SOL    HW116454   3.025   1.179  14.195  2.1642 -1.9702 -1.8167
 1606SOL    HW216455   2.963   1.266  14.100 -0.2212 -0.0163 -0.1662
 1607SOL     OW16456   4.220   3.806   9.146 -0.0820 -0.2040 -0.3219
 1607SOL    HW116457   4.200   3.735   9.085  0.6806  0.8156 -1.7711
 1607SOL    HW216458   4.306   3.785   9.183 -0.7670  0.5531  1.6728
 1608SOL     OW16459   2.629   1.296   7.321 -0.7902 -0.8337 -0.3128
 1608SOL    HW116460   2.626   1.200   7.321  0.8901 -0.8819 -1.8009
 1608SOL    HW216461   2.711   1.317   7.276  1.1677 -2.0117  2.6820
 1609SOL     OW16462   0.681   1.963   4.106 -0.7339 -0.2682 -0.1871
 1609SOL    HW116463   0.721   1.946   4.021  1.0406 -0.4442  0.6777
 1609SOL    HW216464   0.594   1.994   4.079  0.1175  2.2748 -0.0713
 1610SOL     OW16465   2.780   0.030   4.946  0.1392 -0.2900  0.2238
 1610SOL    HW116466   2.795   0.117   4.984  1.1443  0.2935 -1.4884
 1610SOL    HW216467   2.771   4.714   5.026 -0.6881 -0.2743  0.1338
 1611SOL     OW16468   3.662   0.983   0.423  0.1627 -0.2628  0.7057
 1611SOL    HW116469   3.614   1.062   0.397  0.4153 -0.8962 -1.6698
 1611SOL    HW216470   3.738   1.035   0.450  0.2029  0.7994 -1.4187
 1612SOL     OW16471   0.210   1.174   7.178 -0.6718  0.3497  0.3523
 1612SOL    HW116472   0.142   1.221   7.130 -0.4813  1.0918  0.8029
 1612SOL    HW216473   0.216   1.093   7.128 -1.0758  0.1563  0.6194
 1613SOL     OW16474   4.002   2.948  11.412 -0.2263 -0.2290 -0.7308
 1613SOL    HW116475   4.030   3.033  11.446  0.5511 -0.8098  0.0749
 1613SOL    HW216476   4.048   2.891  11.473  2.4160  1.2459 -1.3150
 1614SOL     OW16477   1.826   1.381  12.485 -0.0265 -0.7525 -0.3265
 1614SOL    HW116478   1.846   1.474  12.498 -0.3188 -0.8291  0.6203
 1614SOL    HW216479   1.865   1.346  12.565 -0.2660  1.0945  0.5937
 1615SOL     OW16480   3.160   0.919   0.440 -0.2777 -0.3021  0.8470
 1615SOL    HW116481   3.115   0.866   0.374  1.9729  0.4073 -1.2632
 1615SOL    HW216482   3.133   0.883   0.524  1.3332 -0.4621  1.2949
 1616SOL     OW16483   1.648   2.514   9.451  0.0504  0.7466 -0.3904
 1616SOL    HW116484   1.743   2.522   9.449  0.1740 -1.1709 -2.1925
 1616SOL    HW216485   1.614   2.597   9.486  2.1214 -0.0250  3.4253
 1617SOL     OW16486   4.487   2.850   3.575  0.5772 -0.4439  0.0312
 1617SOL    HW116487   4.507   2.757   3.580  2.6816 -0.1280 -2.5477
 1617SOL    HW216488   4.563   2.887   3.620  0.1554 -0.2035  0.5556
 1618SOL     OW16489   3.738   2.635   2.075 -0.0472 -0.5990  0.6747
 1618SOL    HW116490   3.826   2.666   2.055  0.1938 -1.5028  0.3127
 1618SOL    HW216491   3.709   2.615   1.986  0.9639 -0.1443  0.2526
 1619SOL     OW16492   3.118   1.990   0.607 -1.0126  0.3294  0.2715
 1619SOL    HW116493   3.084   1.936   0.536  0.0749  1.5155 -1.1534
 1619SOL    HW216494   3.210   1.966   0.598 -0.9091  0.7701  0.1846
 1620SOL     OW16495   2.357   3.848   3.493 -0.0996  0.2696 -0.4376
 1620SOL    HW116496   2.279   3.815   3.448  0.8092 -0.0816 -1.7188
 1620SOL    HW216497   2.337   3.843   3.587  2.0894 -3.5138 -0.2083
 1621SOL     OW16498   0.756   2.737   3.086 -0.1498  0.2658 -0.2119
 1621SOL    HW116499   0.727   2.825   3.111 -0.3898  0.3918 -0.9318
 1621SOL    HW216500   0.843   2.745   3.046 -0.0201 -1.0438 -0.1844
 1622SOL     OW16501   4.592   0.556  12.457 -0.0253 -1.0090  0.1643
 1622SOL    HW116502   4.551   0.537  12.373  0.1806  0.7686 -0.3419
 1622SOL    HW216503   4.517   0.602  12.495  0.3923  0.3418 -0.6497
 1623SOL     OW16504   2.990   1.601   8.393 -0.4361  0.3200 -0.8481
 1623SOL    HW116505   3.017   1.693   8.391  2.4912 -0.5609 -1.6022
 1623SOL    HW216506   2.994   1.581   8.487  0.4657  0.5817 -0.8305
 1624SOL     OW16507   2.296   4.537  13.287 -0.1433 -0.1365  0.7019
 1624SOL    HW116508   2.349   4.468  13.249 -0.6248  1.2935 -2.6090
 1624SOL    HW216509   2.359   4.607  13.304  0.3369 -0.4026 -0.0080
 1625SOL     OW16510   2.414   4.523   9.144  0.6058 -0.4068  0.7886
 1625SOL    HW116511   2.486   4.497   9.087 -0.0632 -0.4404 -0.0458
 1625SOL    HW216512   2.364   4.442   9.133 -1.7404  1.1911 -0.4047
 1626SOL     OW16513   3.278   4.579  16.875  0.0101  0.1988 -0.7317
 1626SOL    HW116514   3.197   4.593  16.827 -1.3751 -2.8427  0.7209
 1626SOL    HW216515   3.245   4.617  16.957  1.3011  1.2177 -0.6784
 1627SOL     OW16516   3.154   3.913   8.140 -0.2255 -0.5013 -0.5755
 1627SOL    HW116517   3.146   4.008   8.150  2.9344 -0.1177 -1.5201
 1627SOL    HW216518   3.079   3.877   8.186 -0.4134 -1.0445 -1.3104
 1628SOL     OW16519   3.339   2.180   2.661  0.5095  0.3568 -0.3152
 1628SOL    HW116520   3.363   2.262   2.616 -0.5272  0.6604 -0.3196
 1628SOL    HW216521   3.329   2.111   2.595  1.5098  2.2755 -2.4966
 1629SOL     OW16522   0.766   1.455  17.095 -1.2690  0.8594  0.2111
 1629SOL    HW116523   0.701   1.458  17.166  1.1381 -1.9375  2.5231
 1629SOL    HW216524   0.848   1.490  17.129 -0.9917  0.7844 -0.3835
 1630SOL     OW16525   1.398   1.783   2.208  0.0017 -0.2206 -0.0773
 1630SOL    HW116526   1.379   1.869   2.171  1.7254  0.6147  0.9948
 1630SOL    HW216527   1.449   1.817   2.281  0.2990 -1.2272  0.1857
 1631SOL     OW16528   4.470   3.940   4.730  0.2121  0.9608  0.2086
 1631SOL    HW116529   4.459   3.864   4.788 -1.6907 -0.4305 -1.9947
 1631SOL    HW216530   4.385   3.932   4.688 -0.0522 -1.4666  1.1976
 1632SOL     OW16531   2.021   1.398  15.702 -0.5827  0.2734 -0.0232
 1632SOL    HW116532   1.936   1.442  15.707 -0.6923 -0.1964  2.0912
 1632SOL    HW216533   2.002   1.320  15.650 -0.4980 -0.2849  0.7759
 1633SOL     OW16534   2.583   2.851   4.011 -0.1436 -0.9191 -0.6820
 1633SOL    HW116535   2.618   2.940   4.001 -1.6661 -0.2357  0.0536
 1633SOL    HW216536   2.663   2.803   4.030 -0.1957 -1.1286 -0.9880
 1634SOL     OW16537   1.754   3.379  11.256 -0.3976  0.0527 -0.5937
 1634SOL    HW116538   1.775   3.327  11.333 -2.2659 -1.1675 -0.9031
 1634SOL    HW216539   1.835   3.417  11.221 -0.8661 -0.2963 -2.0596
 1635SOL     OW16540   0.042   1.924  11.202  0.1694  0.2520  0.6122
 1635SOL    HW116541   0.118   1.890  11.154  0.7399 -0.7426  2.2323
 1635SOL    HW216542   4.720   1.949  11.130 -0.2133  0.9591  1.1651
 1636SOL     OW16543   1.256   3.888   0.382  0.4504 -0.1660 -0.1189
 1636SOL    HW116544   1.166   3.860   0.395  0.7713 -0.7622  0.8390
 1636SOL    HW216545   1.262   3.973   0.427  0.4044 -0.7733  1.0223
 1637SOL     OW16546   0.246   1.796   1.527  0.7683  0.3692  0.2594
 1637SOL    HW116547   0.174   1.859   1.529  1.3041  0.9553  0.9494
 1637SOL    HW216548   0.217   1.725   1.585  0.9183  0.0706 -0.0311
 1638SOL     OW16549   2.611   2.939  16.718  0.4497 -0.3153  0.4381
 1638SOL    HW116550   2.609   3.020  16.669 -3.2477 -1.5891 -1.5324
 1638SOL    HW216551   2.528   2.937  16.767  0.5593 -0.6216  0.6123
 1639SOL     OW16552   4.114   2.655   4.993  0.1040 -0.1552  0.4544
 1639SOL    HW116553   4.059   2.692   4.924  1.2436 -0.5236 -0.6816
 1639SOL    HW216554   4.069   2.574   5.018 -0.7552 -0.1626 -1.1054
 1640SOL     OW16555   3.712   0.711   0.433 -0.2337 -0.6031 -0.2183
 1640SOL    HW116556   3.633   0.658   0.426 -0.0421 -0.9294  0.1285
 1640SOL    HW216557   3.672   0.798   0.439  0.1548 -0.4638  0.3906
 1641SOL     OW16558   3.997   0.372   1.883 -0.2007 -0.3218 -0.4065
 1641SOL    HW116559   4.082   0.329   1.888  0.2059  0.5650  0.2874
 1641SOL    HW216560   3.945   0.297   1.854 -1.4239 -0.0875  1.2227
 1642SOL     OW16561   4.470   3.887   3.791  0.0941  0.0486 -0.2190
 1642SOL    HW116562   4.375   3.885   3.799  0.2117  0.8875  1.2558
 1642SOL    HW216563   4.497   3.832   3.865 -0.7436 -2.1718 -1.5530
 1643SOL     OW16564   2.664   1.310  11.844  0.0524  0.0677 -0.2588
 1643SOL    HW116565   2.583   1.317  11.895  1.0398  2.8980  0.8963
 1643SOL    HW216566   2.707   1.241  11.894  0.2055  1.1147  1.0532
 1644SOL     OW16567   1.011   1.496   5.778  0.0272  0.5586 -0.1231
 1644SOL    HW116568   1.004   1.401   5.782 -1.7102  0.7527  1.2274
 1644SOL    HW216569   1.097   1.527   5.748  0.0608 -0.3052 -0.8772
 1645SOL     OW16570   1.621   1.965   5.041 -0.1319 -0.1671  0.3712
 1645SOL    HW116571   1.561   1.957   4.967 -0.2462  2.1192  0.2091
 1645SOL    HW216572   1.693   1.910   5.010 -0.0059  0.7352 -0.9049
 1646SOL     OW16573   0.154   1.408   6.971 -0.2042  0.2560 -0.1005
 1646SOL    HW116574   0.151   1.503   6.977 -2.0487  0.1616  0.4773
 1646SOL    HW216575   0.097   1.389   6.897  0.0384  1.2033 -0.5202
 1647SOL     OW16576   2.504   4.664   2.994  0.3306 -0.0273  0.2458
 1647SOL    HW116577   2.555   4.602   3.046 -0.9286  1.4278  3.2575
 1647SOL    HW216578   2.414   4.655   3.025  0.1509 -1.3630 -0.6623
 1648SOL     OW16579   0.531   4.151   6.349 -0.3142 -0.3031 -0.3030
 1648SOL    HW116580   0.558   4.132   6.439 -0.7271 -0.7382 -0.2692
 1648SOL    HW216581   0.599   4.103   6.300 -0.4818 -2.2200  1.3425
 1649SOL     OW16582   2.977   1.198   9.442  0.6166 -0.3630  0.5056
 1649SOL    HW116583   3.022   1.268   9.490 -0.3219  0.7558 -0.2525
 1649SOL    HW216584   2.955   1.239   9.358 -2.7672 -1.9986  0.5669
 1650SOL     OW16585   4.513   0.433   3.633 -0.4670 -0.1258 -0.7662
 1650SOL    HW116586   4.511   0.342   3.661  1.2520  1.0720  3.1474
 1650SOL    HW216587   4.545   0.439   3.543  1.8092 -1.9633 -0.0718
 1651SOL     OW16588   4.406   0.405   6.682  0.0478 -0.4083  0.8073
 1651SOL    HW116589   4.444   0.493   6.688 -3.8540  1.2519  1.3823
 1651SOL    HW216590   4.478   0.345   6.703  0.7027 -0.1883 -0.8479
 1652SOL     OW16591   3.272   2.386   6.839 -0.3274 -0.0828 -0.1213
 1652SOL    HW116592   3.262   2.458   6.900 -1.5259 -1.0065  0.7749
 1652SOL    HW216593   3.351   2.351   6.881 -0.7227 -0.5036  0.2753
 1653SOL     OW16594   1.491   1.081   6.741  0.2041 -0.0180 -0.1686
 1653SOL    HW116595   1.476   1.052   6.651 -1.9111  1.0693 -0.1709
 1653SOL    HW216596   1.400   1.104   6.760 -0.0239 -1.4721  0.4886
 1654SOL     OW16597   2.411   4.428   3.687 -0.8256  0.5492 -0.5812
 1654SOL    HW116598   2.490   4.482   3.692 -0.6473  0.2718 -0.4484
 1654SOL    HW216599   2.400   4.396   3.597 -1.7303  1.8497 -0.9390
 1655SOL     OW16600   4.127   4.700  10.940 -0.4747  0.3109 -0.3237
 1655SOL    HW116601   4.172   4.697  11.025 -2.1538  2.0962  0.6001
 1655SOL    HW216602   4.158   4.619  10.899 -0.4895  0.3525 -0.4163
 1656SOL     OW16603   0.764   0.798  14.544 -0.3517 -0.0094  0.1163
 1656SOL    HW116604   0.676   0.837  14.547 -0.3207  0.1487 -0.8784
 1656SOL    HW216605   0.750   0.719  14.596 -0.2218  1.2628  2.0634
 1657SOL     OW16606   3.837   0.312   5.881  0.2996  0.2325 -0.1157
 1657SOL    HW116607   3.798   0.357   5.807 -1.2249 -1.5417 -0.3964
 1657SOL    HW216608   3.853   0.384   5.943  1.0350 -0.1012  0.0912
 1658SOL     OW16609   0.948   3.147   3.149  0.4118  0.1700  0.2742
 1658SOL    HW116610   0.979   3.115   3.065 -0.3224  0.4310 -0.1014
 1658SOL    HW216611   0.858   3.116   3.152  0.5570 -0.1896  0.9205
 1659SOL     OW16612   4.000   0.235   5.489  0.4649  0.1092  0.1732
 1659SOL    HW116613   4.066   0.303   5.472 -0.7305  1.1780 -0.1939
 1659SOL    HW216614   3.920   0.269   5.450  1.2159  0.4008 -1.1171
 1660SOL     OW16615   0.701   0.640   9.436  0.1491  0.2003  0.3395
 1660SOL    HW116616   0.669   0.691   9.362  2.6046 -0.5642 -1.2465
 1660SOL    HW216617   0.688   0.554   9.395  0.4564  0.0250  0.6071
 1661SOL     OW16618   4.732   4.057   6.513 -1.0552  0.1534  0.5912
 1661SOL    HW116619   4.655   4.009   6.544  0.1699  0.0169  3.4027
 1661SOL    HW216620   4.717   4.150   6.527  1.2768  0.2572  2.4742
 1662SOL     OW16621   1.319   1.004   5.030  0.3960  0.0403 -0.0252
 1662SOL    HW116622   1.380   0.967   4.965  1.7148  0.6014  0.8990
 1662SOL    HW216623   1.235   0.969   5.003 -0.8277  1.3793  2.0701
 1663SOL     OW16624   3.673   2.527   5.869  0.4090  0.4656  0.3554
 1663SOL    HW116625   3.700   2.596   5.929 -0.8191  0.6759  0.6626
 1663SOL    HW216626   3.632   2.456   5.919 -0.0842 -1.0582 -2.2134
 1664SOL     OW16627   1.025   1.852   8.131  0.4815 -0.7131  0.2766
 1664SOL    HW116628   1.016   1.779   8.070 -1.4048  0.3929 -0.7429
 1664SOL    HW216629   1.101   1.894   8.091 -0.8571  1.4058 -0.0350
 1665SOL     OW16630   1.403   2.129   4.485  0.1057  0.2125  0.1220
 1665SOL    HW116631   1.382   2.043   4.520  4.1522 -0.2610  1.4540
 1665SOL    HW216632   1.475   2.110   4.425 -0.8094 -0.2715 -0.8095
 1666SOL     OW16633   0.027   0.977  14.501 -0.0692 -0.9624 -0.2517
 1666SOL    HW116634   0.081   1.042  14.547  0.3906 -1.5300  0.0057
 1666SOL    HW216635   4.714   1.040  14.449 -0.3055  0.0109  1.1443
 1667SOL     OW16636   1.319   2.235  13.480 -0.3583  0.3787  0.0657
 1667SOL    HW116637   1.233   2.278  13.473 -0.3636  0.3730  0.0968
 1667SOL    HW216638   1.346   2.296  13.549 -2.7480  0.3452  1.0363
 1668SOL     OW16639   1.994   1.053   1.431  0.1994 -0.0806  0.1949
 1668SOL    HW116640   2.006   1.048   1.526 -1.3378 -1.0140  0.3367
 1668SOL    HW216641   1.911   1.009   1.415  0.3850 -0.7497  1.0378
 1669SOL     OW16642   1.424   0.066   9.255 -0.3429 -0.0218  0.4942
 1669SOL    HW116643   1.480   0.041   9.329  0.6653 -0.9425 -0.5950
 1669SOL    HW216644   1.342   0.026   9.285 -0.5707  0.3114  0.3206
 1670SOL     OW16645   3.926   3.793   2.965  0.0886 -0.0378 -0.4211
 1670SOL    HW116646   4.018   3.818   2.957  0.4461 -1.5048 -0.7369
 1670SOL    HW216647   3.888   3.881   2.962 -2.5071 -1.1179  1.2889
 1671SOL     OW16648   4.203   2.690   4.040  0.6874  0.2833 -0.3223
 1671SOL    HW116649   4.134   2.626   4.057  1.1248 -0.2382 -0.4725
 1671SOL    HW216650   4.145   2.747   3.991  1.7423  2.6593  1.1770
 1672SOL     OW16651   2.432   1.514   2.256  0.3173  0.0538  0.0562
 1672SOL    HW116652   2.452   1.443   2.317  2.1130  0.7208  0.2346
 1672SOL    HW216653   2.409   1.587   2.313  1.7279  0.1086  0.5527
 1673SOL     OW16654   0.307   4.644   9.259 -0.7083 -0.3497  0.6316
 1673SOL    HW116655   0.362   4.708   9.214  1.4012 -0.8565  2.4643
 1673SOL    HW216656   0.233   4.649   9.199 -0.7099  0.7021  0.7302
 1674SOL     OW16657   3.235   4.143  16.117  0.1678  0.1088  0.3443
 1674SOL    HW116658   3.322   4.183  16.121  0.6289 -0.6146 -2.6057
 1674SOL    HW216659   3.233   4.093  16.198 -1.4593  1.3497  1.0786
 1675SOL     OW16660   3.386   3.144   4.377  0.7568  0.0684  0.2406
 1675SOL    HW116661   3.364   3.216   4.318  0.5537  0.0350  0.2753
 1675SOL    HW216662   3.299   3.116   4.406  0.4142  2.6032  1.6928
 1676SOL     OW16663   2.831   0.747   6.734 -0.2207 -0.1366 -0.5464
 1676SOL    HW116664   2.834   0.789   6.820  1.5102 -1.1972 -0.0857
 1676SOL    HW216665   2.818   0.815   6.668 -0.4464  1.1099  0.7559
 1677SOL     OW16666   0.734   4.244  12.723 -0.6165  0.1852  0.0419
 1677SOL    HW116667   0.662   4.284  12.674 -1.6399 -0.3006  1.1540
 1677SOL    HW216668   0.808   4.302  12.703  1.0863 -1.1185  2.4795
 1678SOL     OW16669   4.187   3.319  11.828 -0.0188  0.3235 -0.4109
 1678SOL    HW116670   4.232   3.279  11.903  0.5081  0.4054 -0.6813
 1678SOL    HW216671   4.132   3.385  11.870 -0.7510 -0.8875  0.5338
 1679SOL     OW16672   0.377   3.508   3.004  0.0068  0.0797 -0.1237
 1679SOL    HW116673   0.457   3.553   2.979  0.7105 -1.6421 -0.9226
 1679SOL    HW216674   0.356   3.455   2.927  0.7958  1.6103 -1.3899
 1680SOL     OW16675   3.441   1.169   1.818  0.2125 -0.2608  0.7122
 1680SOL    HW116676   3.349   1.186   1.839  0.1523  1.7389 -1.1608
 1680SOL    HW216677   3.428   1.133   1.730 -1.0797  1.6422  0.1075
 1681SOL     OW16678   1.887   2.365  16.818 -0.0335  0.4968 -0.5727
 1681SOL    HW116679   1.901   2.271  16.806 -0.6311  0.6167 -2.2393
 1681SOL    HW216680   1.863   2.394  16.730  0.5222 -0.3246 -1.0051
 1682SOL     OW16681   3.029   0.269   0.498  0.2654  0.2613  0.1295
 1682SOL    HW116682   2.992   0.287   0.584 -1.6504 -1.9653 -0.2086
 1682SOL    HW216683   3.002   0.350   0.454  0.1782  1.0089  1.5705
 1683SOL     OW16684   0.877   0.411  12.097 -0.4892  0.0476 -0.1317
 1683SOL    HW116685   0.843   0.441  12.181  1.1993 -0.7430  0.8286
 1683SOL    HW216686   0.963   0.453  12.093 -0.1912 -0.6339 -0.8530
 1684SOL     OW16687   1.897   2.086   1.976  0.2608  0.0715  0.1535
 1684SOL    HW116688   1.902   2.179   1.953  1.7487 -0.0627 -0.0312
 1684SOL    HW216689   1.912   2.047   1.890 -0.4588 -2.5395  1.2114
 1685SOL     OW16690   2.258   3.240  14.145  0.2702 -0.0732  0.0350
 1685SOL    HW116691   2.177   3.262  14.190 -0.3061 -1.9416 -0.0923
 1685SOL    HW216692   2.248   3.145  14.144  2.5189 -0.3073 -0.8477
 1686SOL     OW16693   1.397   1.382  11.778  0.3609 -0.0058 -0.0477
 1686SOL    HW116694   1.480   1.396  11.823 -0.1059 -0.5897  0.9974
 1686SOL    HW216695   1.420   1.400  11.687 -0.7533  0.8380 -0.1586
 1687SOL     OW16696   0.504   0.243   0.663 -0.0745 -0.6010 -0.3125
 1687SOL    HW116697   0.501   0.338   0.649  0.9954 -0.6444 -0.8151
 1687SOL    HW216698   0.598   0.226   0.664  0.4548  2.2276 -1.2801
 1688SOL     OW16699   0.397   0.311   0.304  0.3598  0.6372 -0.5208
 1688SOL    HW116700   0.476   0.327   0.253  1.6086 -1.5138  0.7062
 1688SOL    HW216701   0.355   0.236   0.264 -0.0496 -0.3687  1.7835
 1689SOL     OW16702   4.542   0.540   0.939 -0.0335  0.0580  0.2215
 1689SOL    HW116703   4.487   0.590   0.999 -0.8225  0.8946 -1.1914
 1689SOL    HW216704   4.598   0.486   0.994 -0.7459  0.9859  1.8530
 1690SOL     OW16705   1.241   1.752   4.127  0.3861  0.1656  0.4739
 1690SOL    HW116706   1.281   1.839   4.137  1.7710 -0.2421 -1.4615
 1690SOL    HW216707   1.154   1.759   4.166 -0.3234  1.8442 -1.3564
 1691SOL     OW16708   3.322   0.211   7.471  0.3238 -0.2735  0.1483
 1691SOL    HW116709   3.242   0.165   7.494 -0.1143 -0.3902 -1.5631
 1691SOL    HW216710   3.289   0.292   7.433  1.2090 -0.3534 -0.8122
 1692SOL     OW16711   3.499   0.775  12.258 -0.3603  0.2850 -0.3231
 1692SOL    HW116712   3.479   0.847  12.197  3.7748 -0.8481 -3.0032
 1692SOL    HW216713   3.435   0.710  12.226  0.6611 -0.1116 -1.5590
 1693SOL     OW16714   4.612   2.884  10.951 -0.2520 -0.4022 -0.2976
 1693SOL    HW116715   4.533   2.837  10.976  1.0739 -3.0570 -1.0097
 1693SOL    HW216716   4.604   2.886  10.855 -0.6112  0.5848 -0.2441
 1694SOL     OW16717   2.453   1.934   4.759  0.4122 -0.3391 -0.4772
 1694SOL    HW116718   2.366   1.929   4.721  0.3972 -1.0398 -0.3328
 1694SOL    HW216719   2.488   2.016   4.722 -0.7750 -0.0175 -0.8990
 1695SOL     OW16720   3.684   0.073  14.719  0.4413 -0.2611  0.2409
 1695SOL    HW116721   3.744   0.051  14.647  1.8101 -0.9409  1.5775
 1695SOL    HW216722   3.686   0.169  14.712 -0.4437 -0.2948 -0.4642
 1696SOL     OW16723   4.543   0.324   7.483 -0.5630  0.0969 -0.1282
 1696SOL    HW116724   4.449   0.339   7.490 -0.3982  1.2643 -0.3338
 1696SOL    HW216725   4.562   0.307   7.575 -1.8220  1.3515  0.3698
 1697SOL     OW16726   2.219   4.619  10.451  0.2297 -0.1611  0.0922
 1697SOL    HW116727   2.132   4.647  10.423 -0.1075 -1.3892 -0.1304
 1697SOL    HW216728   2.248   4.591  10.364 -1.4869 -0.1221 -0.4977
 1698SOL     OW16729   4.212   3.569   4.404 -0.4507 -0.5428  0.0954
 1698SOL    HW116730   4.228   3.511   4.479  1.2692 -1.3082 -0.8470
 1698SOL    HW216731   4.303   3.587   4.378 -0.8253  1.6399  0.3233
 1699SOL     OW16732   2.187   2.865   6.721 -0.1311  0.0002 -0.5353
 1699SOL    HW116733   2.130   2.825   6.656 -0.6204  1.4663 -0.9958
 1699SOL    HW216734   2.258   2.801   6.716 -0.6563 -0.5929 -0.4302
 1700SOL     OW16735   4.578   1.911  17.565 -0.1822  0.2235 -0.4531
 1700SOL    HW116736   4.553   1.833  17.516 -2.1678  1.1539 -0.9485
 1700SOL    HW216737   4.592   1.875  17.653  1.6950  1.8512 -0.0931
 1701SOL     OW16738   1.137   1.679   2.191  0.0738 -0.3430  0.2172
 1701SOL    HW116739   1.100   1.760   2.226 -0.2921 -0.2796 -0.3118
 1701SOL    HW216740   1.227   1.710   2.178 -0.1556  0.5028  0.6614
 1702SOL     OW16741   0.528   4.076   3.687 -0.1073 -0.1605  0.4442
 1702SOL    HW116742   0.451   4.024   3.664 -0.6447  1.1681 -0.7510
 1702SOL    HW216743   0.597   4.017   3.657 -0.6472 -0.3540 -0.4000
 1703SOL     OW16744   1.056   2.563  12.455 -0.7866 -0.2697 -0.3544
 1703SOL    HW116745   1.060   2.604  12.541  0.7237 -1.3092  0.0690
 1703SOL    HW216746   1.058   2.635  12.393  0.9370 -0.4446 -0.4960
 1704SOL     OW16747   1.825   1.535   9.396  0.1494 -0.6176  0.2669
 1704SOL    HW116748   1.782   1.466   9.448 -2.2680 -0.5730 -1.6602
 1704SOL    HW216749   1.872   1.580   9.467  0.2455  1.7432 -1.3219
 1705SOL     OW16750   3.998   2.811   7.784 -0.1064  0.7369  0.1184
 1705SOL    HW116751   4.020   2.809   7.691 -0.6858  0.2110 -0.0091
 1705SOL    HW216752   4.080   2.831   7.830 -1.1813  2.1573  1.4339
 1706SOL     OW16753   3.808   1.352   7.539  0.2543 -0.3596 -0.7551
 1706SOL    HW116754   3.813   1.446   7.519 -0.8966 -0.4085 -1.2293
 1706SOL    HW216755   3.724   1.355   7.584  0.8619  0.8526  0.3087
 1707SOL     OW16756   4.092   2.086   8.975  0.3229 -0.1087 -0.4612
 1707SOL    HW116757   4.168   2.032   8.998  0.5032  0.8930  1.2774
 1707SOL    HW216758   4.129   2.113   8.890  0.7623 -2.2673 -0.9588
 1708SOL     OW16759   2.552   0.260   5.320  0.1423  0.0216 -0.0251
 1708SOL    HW116760   2.485   0.195   5.298 -0.5997  0.0310  2.2582
 1708SOL    HW216761   2.494   0.328   5.355 -0.8531 -1.3537  1.0084
 1709SOL     OW16762   3.342   0.669  11.554  0.5140  0.3050  0.7492
 1709SOL    HW116763   3.394   0.668  11.635  0.7257  0.7298  0.6208
 1709SOL    HW216764   3.386   0.619  11.485 -1.2089  2.3337 -1.7972
 1710SOL     OW16765   0.187   3.309  11.840 -0.3892 -0.3646  0.3439
 1710SOL    HW116766   0.136   3.330  11.762  0.7527  2.0816  0.2823
 1710SOL    HW216767   0.133   3.236  11.872 -1.1782  0.6776  1.3676
 1711SOL     OW16768   2.742   0.035  16.806  0.0236 -0.2437  0.7498
 1711SOL    HW116769   2.771   4.715  16.733 -2.1859 -0.3060 -0.1092
 1711SOL    HW216770   2.648   0.037  16.786  0.3606  0.2030 -0.8027
 1712SOL     OW16771   0.508   1.430   6.551  0.0254 -0.0279 -0.0738
 1712SOL    HW116772   0.415   1.406   6.556  0.2183 -1.1294 -1.4820
 1712SOL    HW216773   0.546   1.342   6.559 -1.9799 -0.8229  0.6847
 1713SOL     OW16774   4.262   1.038  10.210  0.0714  0.0075 -0.0530
 1713SOL    HW116775   4.338   0.981  10.198  1.5491  2.0258 -0.2576
 1713SOL    HW216776   4.301   1.113  10.255 -2.7527  2.2699 -1.4518
 1714SOL     OW16777   1.920   2.746  11.621  0.0120  0.0954 -0.5115
 1714SOL    HW116778   1.989   2.771  11.560  1.9217 -1.5024  0.9867
 1714SOL    HW216779   1.890   2.662  11.588  0.1611 -0.4477  0.7270
 1715SOL     OW16780   3.253   1.388   6.366 -0.9068  0.0432  0.2205
 1715SOL    HW116781   3.298   1.468   6.339 -0.4966 -0.4990 -0.6954
 1715SOL    HW216782   3.220   1.350   6.285 -1.8980  1.4338 -0.0279
 1716SOL     OW16783   1.159   1.728   8.826  0.9058  0.2673  0.2583
 1716SOL    HW116784   1.142   1.818   8.797 -0.5730  0.0942  0.5785
 1716SOL    HW216785   1.191   1.739   8.915  4.0030  1.1290 -0.9590
 1717SOL     OW16786   1.179   0.993   8.804  0.5820 -0.0463  0.7600
 1717SOL    HW116787   1.195   0.906   8.838 -1.5102 -0.4518  0.6910
 1717SOL    HW216788   1.243   1.004   8.733 -1.5022 -0.5905 -1.1798
 1718SOL     OW16789   1.599   3.296   7.338  0.2550  0.1898  0.7386
 1718SOL    HW116790   1.656   3.327   7.408  2.9644 -0.1902 -1.3327
 1718SOL    HW216791   1.511   3.324   7.363  0.5633  1.3786  0.4938
 1719SOL     OW16792   0.040   3.163   3.108 -0.2014 -0.1579 -0.4403
 1719SOL    HW116793   4.695   3.113   3.116 -1.8261  2.5703  0.1005
 1719SOL    HW216794   0.068   3.135   3.021 -1.4160  0.1362 -0.9187
 1720SOL     OW16795   3.712   3.823   3.361  0.2749 -0.0316  0.2551
 1720SOL    HW116796   3.656   3.763   3.412 -1.0049  0.1783 -0.8897
 1720SOL    HW216797   3.660   3.809   3.282 -2.6699  0.1425  2.1346
 1721SOL     OW16798   1.147   0.230  17.295 -0.6285 -0.2631 -0.3429
 1721SOL    HW116799   1.091   0.155  17.315 -1.2774  0.8285  1.8582
 1721SOL    HW216800   1.094   0.306  17.318  0.1717  0.3547 -0.5355
 1722SOL     OW16801   4.574   0.475  10.383  0.0481  0.0093 -0.7087
 1722SOL    HW116802   4.662   0.454  10.414 -0.0432  0.3518 -0.2253
 1722SOL    HW216803   4.562   0.391  10.338 -0.0979 -0.9666  1.1640
 1723SOL     OW16804   3.543   0.603   0.628  0.3202 -0.0443  0.4771
 1723SOL    HW116805   3.459   0.644   0.606 -0.4204 -1.7173  0.1953
 1723SOL    HW216806   3.544   0.653   0.710  0.9844 -0.3051  0.6245
 1724SOL     OW16807   1.963   3.921   6.919 -0.7823 -0.0041 -0.0945
 1724SOL    HW116808   1.944   4.010   6.949 -1.3558  1.2337 -4.1163
 1724SOL    HW216809   2.049   3.934   6.880 -0.2781 -1.2842  0.5926
 1725SOL     OW16810   4.295   3.793  10.402  0.2340  0.0976  0.0221
 1725SOL    HW116811   4.284   3.856  10.473  0.1838  0.8437 -0.6439
 1725SOL    HW216812   4.320   3.855  10.334 -2.3141  0.1614 -0.8391
 1726SOL     OW16813   0.923   4.549  10.107 -0.0909 -0.4343 -0.2156
 1726SOL    HW116814   0.865   4.543  10.184 -0.4993  0.5109 -0.4465
 1726SOL    HW216815   0.850   4.566  10.047  0.4356 -1.5096 -1.1500
 1727SOL     OW16816   3.089   4.537   8.830  0.1416  0.9491 -0.5259
 1727SOL    HW116817   3.184   4.546   8.834 -0.0602  2.7417  0.6337
 1727SOL    HW216818   3.061   4.605   8.892  2.8975  1.7221 -0.0953
 1728SOL     OW16819   1.803   4.451   9.674 -0.3110 -0.3899  0.3317
 1728SOL    HW116820   1.816   4.543   9.699  0.4433 -0.2718 -0.4977
 1728SOL    HW216821   1.761   4.469   9.590  1.5083 -1.9570 -0.9101
 1729SOL     OW16822   0.544   0.287   6.279  0.1179  0.6417  0.0787
 1729SOL    HW116823   0.455   0.321   6.269 -0.2032 -0.7618 -1.7299
 1729SOL    HW216824   0.596   0.353   6.232  0.2232  0.1094 -0.5596
 1730SOL     OW16825   0.009   1.416   6.478  0.8725 -0.3710  0.6338
 1730SOL    HW116826   4.668   1.443   6.528  2.2674 -0.2260  2.6850
 1730SOL    HW216827   4.707   1.367   6.405  2.7031 -1.4405  0.4023
 1731SOL     OW16828   2.737   4.493   2.616 -0.2760 -0.1581 -0.7538
 1731SOL    HW116829   2.817   4.538   2.641 -0.7705  1.5343 -2.2725
 1731SOL    HW216830   2.726   4.442   2.697  1.4513 -0.7270 -0.8822
 1732SOL     OW16831   2.359   1.169   3.632  0.2354  0.3411 -0.1689
 1732SOL    HW116832   2.354   1.115   3.553 -0.2139 -0.3850  0.3427
 1732SOL    HW216833   2.452   1.177   3.651  0.1695  1.0824 -0.1750
 1733SOL     OW16834   1.120   3.847  14.345 -0.1788 -0.1887  0.2996
 1733SOL    HW116835   1.151   3.762  14.313  0.6785  0.6887 -1.1788
 1733SOL    HW216836   1.027   3.838  14.323  0.3657 -0.8683 -1.6622
 1734SOL     OW16837   3.866   4.138  15.808  0.1135 -0.2089 -0.0323
 1734SOL    HW116838   3.913   4.080  15.748  0.4555 -1.0418  1.0400
 1734SOL    HW216839   3.905   4.223  15.789  1.1885 -0.4152  1.3357
 1735SOL     OW16840   1.681   1.144   3.223  0.0834  0.4595  1.0815
 1735SOL    HW116841   1.721   1.222   3.183 -1.9154  0.4994 -0.8593
 1735SOL    HW216842   1.754   1.115   3.278 -0.4849 -2.9319  0.0722
 1736SOL     OW16843   3.645   3.982   7.899 -0.5252  0.2191  0.6832
 1736SOL    HW116844   3.713   4.043   7.929  1.6339 -1.7853 -0.1876
 1736SOL    HW216845   3.600   3.978   7.983  2.1961 -2.5270  1.9957
 1737SOL     OW16846   3.616   4.326   6.914  0.1613 -0.0547 -0.2439
 1737SOL    HW116847   3.627   4.232   6.906 -2.2094 -0.3580  0.1331
 1737SOL    HW216848   3.558   4.327   6.990  0.8631 -1.1178  0.2998
 1738SOL     OW16849   2.609   1.631   7.552 -0.2595  0.3691  0.6165
 1738SOL    HW116850   2.632   1.722   7.534  0.0927  0.1162 -0.2581
 1738SOL    HW216851   2.580   1.600   7.466  0.4594  0.2284  0.4189
 1739SOL     OW16852   2.029   4.394  13.953 -0.2618  0.1858 -0.1506
 1739SOL    HW116853   1.945   4.358  13.979  1.3944 -3.2785  0.3416
 1739SOL    HW216854   2.051   4.343  13.876 -0.6605  0.7132 -0.6182
 1740SOL     OW16855   4.626   2.590  11.757 -0.7454  0.2574  0.0735
 1740SOL    HW116856   4.555   2.566  11.816 -0.9938 -1.1751 -0.8262
 1740SOL    HW216857   4.590   2.551  11.678 -1.7394 -0.5465  0.9176
 1741SOL     OW16858   2.507   3.784   8.065 -0.7830  0.1209  0.2289
 1741SOL    HW116859   2.443   3.818   8.127 -0.4519 -0.9143  1.1493
 1741SOL    HW216860   2.585   3.793   8.119 -1.7628 -0.8102  1.8151
 1742SOL     OW16861   2.327   1.608  13.808 -0.6372 -0.1864 -0.1217
 1742SOL    HW116862   2.244   1.575  13.843 -1.5813  0.5971 -1.6355
 1742SOL    HW216863   2.314   1.636  13.717  0.6440  0.8042  0.0081
 1743SOL     OW16864   1.705   3.634   8.760 -0.3935  0.4283  0.2949
 1743SOL    HW116865   1.666   3.559   8.714 -0.6266  0.2375  0.8064
 1743SOL    HW216866   1.694   3.703   8.695 -1.3384 -1.1175 -1.2039
 1744SOL     OW16867   4.517   2.714   2.574  0.0188 -0.0051  0.6544
 1744SOL    HW116868   4.528   2.802   2.608  0.0147  0.9849 -1.9034
 1744SOL    HW216869   4.529   2.667   2.656  0.0738 -0.0603  0.6143
 1745SOL     OW16870   2.119   2.589   9.193  0.1964 -0.0466  0.3415
 1745SOL    HW116871   2.172   2.600   9.272  0.2847 -0.4408  0.3325
 1745SOL    HW216872   2.168   2.521   9.147 -0.3247 -0.6258  0.6499
 1746SOL     OW16873   0.024   4.471   0.414  0.0050 -0.0354 -0.1571
 1746SOL    HW116874   4.679   4.422   0.429  0.1341 -0.6815 -1.6298
 1746SOL    HW216875   0.083   4.408   0.373 -0.2967 -0.8139  0.5984
 1747SOL     OW16876   2.941   3.034   3.679  0.0320  0.1362  0.2748
 1747SOL    HW116877   2.960   3.105   3.618  0.8775 -0.1145  0.2332
 1747SOL    HW216878   2.864   3.067   3.725 -0.9549 -0.9731 -0.5698
 1748SOL     OW16879   3.170   4.317   5.951 -0.3201  0.1340  0.1069
 1748SOL    HW116880   3.133   4.247   6.005 -1.7517  1.4123  0.7900
 1748SOL    HW216881   3.217   4.368   6.018 -0.9471 -0.1104  0.7359
 1749SOL     OW16882   1.619   2.435   6.470 -0.0798 -0.0866  0.2665
 1749SOL    HW116883   1.536   2.428   6.517  0.1081 -2.8812  0.1827
 1749SOL    HW216884   1.584   2.412   6.384  1.0166  0.1720 -0.2469
 1750SOL     OW16885   1.970   3.048  12.498 -0.2869  0.6611 -0.4869
 1750SOL    HW116886   1.906   3.023  12.431 -0.5730 -1.9660  0.8001
 1750SOL    HW216887   2.042   3.087  12.447  1.4380  1.2104  2.3866
 1751SOL     OW16888   2.366   1.640   7.989 -0.4361 -0.1643  0.1507
 1751SOL    HW116889   2.366   1.548   7.963 -0.4143  0.3460 -1.6902
 1751SOL    HW216890   2.452   1.646   8.031 -0.3083  1.1898 -0.2873
 1752SOL     OW16891   2.379   1.469   3.178 -0.0575 -0.2577  0.1161
 1752SOL    HW116892   2.344   1.468   3.089 -1.4469 -0.7992  0.6705
 1752SOL    HW216893   2.462   1.426   3.157  0.3816  1.1019 -0.9663
 1753SOL     OW16894   4.220   1.031   4.045  0.2689 -0.1905  0.4838
 1753SOL    HW116895   4.171   1.026   3.962  1.1001 -1.7196  0.0806
 1753SOL    HW216896   4.311   1.033   4.015 -0.3364 -1.8587 -1.4834
 1754SOL     OW16897   0.771   1.675   4.896 -0.4888  0.0188 -0.8094
 1754SOL    HW116898   0.696   1.729   4.873 -0.5444  0.6066  0.6862
 1754SOL    HW216899   0.776   1.610   4.826  1.5256  0.7571 -1.3727
 1755SOL     OW16900   1.653   4.007   4.476 -0.2989 -0.0973 -0.1972
 1755SOL    HW116901   1.647   4.061   4.397  2.0256  0.4761 -0.0050
 1755SOL    HW216902   1.560   4.003   4.499 -0.0542 -3.2518  0.2074
 1756SOL     OW16903   4.275   0.965  12.262  0.6147 -0.1013 -0.1853
 1756SOL    HW116904   4.300   1.057  12.262 -2.2876  0.6641 -1.6976
 1756SOL    HW216905   4.347   0.914  12.300  1.4847 -0.0369 -1.7479
 1757SOL     OW16906   0.013   4.371   5.843  0.0284 -0.4140 -0.5647
 1757SOL    HW116907   4.707   4.456   5.855  2.7928  1.0341 -1.1433
 1757SOL    HW216908   4.675   4.311   5.834  0.8081 -1.7247  1.7744
 1758SOL     OW16909   2.930   1.564   4.658  0.2394 -0.6813 -0.4420
 1758SOL    HW116910   2.841   1.589   4.635  0.0219  0.1435  1.2774
 1758SOL    HW216911   2.971   1.562   4.572  0.8799 -3.1756 -0.0771
 1759SOL     OW16912   2.429   2.674   3.204 -0.4913  0.1955  0.1785
 1759SOL    HW116913   2.402   2.752   3.252  1.2745  0.7574  0.2717
 1759SOL    HW216914   2.507   2.698   3.154  0.4398 -0.3224  1.3879
 1760SOL     OW16915   3.615   4.598  14.497  0.0628 -0.3672  0.4015
 1760SOL    HW116916   3.568   4.520  14.467  2.4663 -1.2744 -1.0704
 1760SOL    HW216917   3.549   4.660  14.468  1.3572  2.1210  2.7393
 1761SOL     OW16918   4.188   4.642   3.229 -0.2479 -0.3080  0.3165
 1761SOL    HW116919   4.181   4.718   3.172 -0.7001  1.0756  2.2103
 1761SOL    HW216920   4.144   4.663   3.311  1.7999  1.5348  0.9442
 1762SOL     OW16921   0.335   3.957   8.105 -0.6869 -0.8465 -0.2772
 1762SOL    HW116922   0.253   3.983   8.064 -0.5466  1.2242  0.7417
 1762SOL    HW216923   0.306   3.911   8.184  0.4767  0.0480  0.6723
 1763SOL     OW16924   3.031   0.713  12.226  0.1559 -0.5538 -0.1544
 1763SOL    HW116925   3.054   0.743  12.138  1.1316 -0.6699  0.0614
 1763SOL    HW216926   3.023   0.796  12.272  0.5368 -0.4434 -0.2830
 1764SOL     OW16927   0.673   0.325  11.224  0.3227 -0.2916 -0.5592
 1764SOL    HW116928   0.730   0.387  11.181  0.7383 -0.0293  0.3669
 1764SOL    HW216929   0.594   0.319  11.169  0.5170 -0.7808 -0.7860
 1765SOL     OW16930   2.669   0.375   3.906  0.1099  0.6511  0.3244
 1765SOL    HW116931   2.639   0.373   3.815 -1.1735 -1.8529  0.8092
 1765SOL    HW216932   2.715   0.459   3.907 -0.3187  0.8748  1.9347
 1766SOL     OW16933   2.128   1.614   5.250  0.2607 -0.5414 -0.3053
 1766SOL    HW116934   2.062   1.574   5.306  2.1789 -2.3496  0.6819
 1766SOL    HW216935   2.159   1.687   5.303  1.9555 -1.1488 -0.4588
 1767SOL     OW16936   3.441   0.929   2.358 -0.3275 -0.0073  0.1904
 1767SOL    HW116937   3.406   0.898   2.442  0.4257  0.7741  0.7913
 1767SOL    HW216938   3.357   0.951   2.318  0.1509  2.1541  0.3978
 1768SOL     OW16939   0.613   1.809   2.295 -0.2979  1.0294  0.4325
 1768SOL    HW116940   0.650   1.820   2.207  0.2766 -0.2619  0.5256
 1768SOL    HW216941   0.658   1.877   2.345 -1.2293  1.2421  0.9864
 1769SOL     OW16942   1.774   2.436   9.929 -0.5587 -0.1935 -0.0547
 1769SOL    HW116943   1.738   2.490  10.000 -0.2199 -0.3330  0.2218
 1769SOL    HW216944   1.708   2.383   9.885  2.0860 -3.1532 -0.3956
 1770SOL     OW16945   2.539   1.028   5.223  0.3876  0.6334  0.2601
 1770SOL    HW116946   2.624   1.029   5.267  0.2353  2.1764  0.5121
 1770SOL    HW216947   2.480   1.058   5.292  1.1399  1.7139  0.4411
 1771SOL     OW16948   2.113   4.675   7.449  0.4537 -0.1273  0.4567
 1771SOL    HW116949   2.070   4.591   7.460 -2.2835  1.4885  1.9196
 1771SOL    HW216950   2.159   4.649   7.369  0.3326  0.5924  0.1524
 1772SOL     OW16951   0.037   0.889  11.343  0.0229  0.3222 -0.1674
 1772SOL    HW116952   0.122   0.895  11.386 -0.0753  2.1811 -0.2585
 1772SOL    HW216953   0.043   0.916  11.252  0.0138 -1.1547 -0.6153
 1773SOL     OW16954   0.453   3.979   0.713  0.1890 -0.3384  0.3860
 1773SOL    HW116955   0.361   3.999   0.695  0.5160  0.2757 -0.5686
 1773SOL    HW216956   0.491   4.059   0.679 -1.9703 -0.0704 -1.4183
 1774SOL     OW16957   3.506   3.578  14.380 -0.5944  0.2884  0.0029
 1774SOL    HW116958   3.544   3.514  14.319  0.0202  1.1259 -0.5002
 1774SOL    HW216959   3.489   3.524  14.457 -3.5225 -0.4514 -1.1489
 1775SOL     OW16960   3.884   4.048  10.311  0.3356  0.0088 -0.2524
 1775SOL    HW116961   3.932   3.969  10.285  0.6643 -0.2332  1.0983
 1775SOL    HW216962   3.931   4.089  10.383  1.0368  0.3104 -0.8812
 1776SOL     OW16963   1.726   4.261   7.053 -0.2576  0.1039  0.4484
 1776SOL    HW116964   1.802   4.203   7.046 -1.3638 -1.6631  2.8832
 1776SOL    HW216965   1.676   4.211   6.989  1.0188 -0.1383 -0.3556
 1777SOL     OW16966   1.595   4.443  14.478  0.7795 -0.5532 -0.3466
 1777SOL    HW116967   1.558   4.448  14.566  0.5146 -0.3089 -0.4753
 1777SOL    HW216968   1.522   4.423  14.420  1.6091  2.4629 -2.4394
 1778SOL     OW16969   3.486   4.004   8.126  0.6171 -0.2568  0.3846
 1778SOL    HW116970   3.476   4.083   8.178  0.9569  0.9794 -1.4314
 1778SOL    HW216971   3.506   3.940   8.194 -2.1494 -0.1333  1.3151
 1779SOL     OW16972   3.806   3.207   7.111 -0.2355  0.2329 -0.7617
 1779SOL    HW116973   3.797   3.213   7.016  0.1711 -0.0790 -0.8156
 1779SOL    HW216974   3.811   3.113   7.127  0.9348  0.5585  0.7090
 1780SOL     OW16975   4.026   0.565   2.058 -0.3021 -0.0494 -0.0064
 1780SOL    HW116976   4.006   0.494   1.997 -0.3834 -0.4399  0.4786
 1780SOL    HW216977   4.122   0.558   2.059 -0.2302  1.0450  0.6831
 1781SOL     OW16978   2.109   3.217   2.776  0.0838 -0.1827 -0.0204
 1781SOL    HW116979   2.190   3.173   2.801  0.1263  0.2770  0.6368
 1781SOL    HW216980   2.043   3.164   2.819  0.6428 -1.9432 -1.3484
 1782SOL     OW16981   2.111   3.441  10.600  0.3512  0.5474  0.0082
 1782SOL    HW116982   2.034   3.433  10.543  1.9537 -0.4647 -2.0156
 1782SOL    HW216983   2.091   3.528  10.634  1.9469  1.8982 -2.5527
 1783SOL     OW16984   1.301   1.491   0.449  0.3862 -0.1080  0.6535
 1783SOL    HW116985   1.370   1.426   0.433 -0.4478 -0.0671 -2.9184
 1783SOL    HW216986   1.233   1.472   0.385  2.4775 -1.3832 -1.1920
 1784SOL     OW16987   4.425   0.587   4.828 -0.1578 -0.0546  0.0167
 1784SOL    HW116988   4.423   0.681   4.807  0.0101 -0.2152 -0.7156
 1784SOL    HW216989   4.362   0.549   4.767 -0.9401  0.1715  0.6764
 1785SOL     OW16990   4.717   4.511  15.604 -0.1827  0.1062 -0.0468
 1785SOL    HW116991   4.637   4.515  15.656 -1.0567  0.2411 -1.4216
 1785SOL    HW216992   0.022   4.432  15.640 -0.6038 -0.5932 -1.1069
 1786SOL     OW16993   3.068   3.547   6.690 -0.0959  0.4782  0.1432
 1786SOL    HW116994   3.140   3.485   6.695 -2.0032 -1.8618 -1.2915
 1786SOL    HW216995   3.113   3.625   6.722  1.0782 -0.5114  0.8922
 1787SOL     OW16996   2.043   3.568   0.216 -0.1777  0.2679  0.6295
 1787SOL    HW116997   2.031   3.475   0.200  0.3741  0.5377 -1.2680
 1787SOL    HW216998   2.004   3.604   0.137  0.2496  3.0972  1.7109
 1788SOL     OW16999   2.809   2.893   8.757  0.6448  0.0609 -0.3675
 1788SOL    HW117000   2.852   2.946   8.824  1.5319 -2.2991  0.9096
 1788SOL    HW217001   2.869   2.819   8.748  1.8497  1.0395 -0.2464
 1789SOL     OW17002   0.531   1.498   5.827 -0.3987 -0.1625 -0.1594
 1789SOL    HW117003   0.612   1.471   5.871 -2.3587 -0.3300  3.3758
 1789SOL    HW217004   0.522   1.445   5.748  0.4630 -0.0569 -0.3326
 1790SOL     OW17005   1.771   1.965   7.229  0.4295 -0.2570 -0.4829
 1790SOL    HW117006   1.808   2.050   7.252 -3.5756  1.6110 -1.0107
 1790SOL    HW217007   1.847   1.910   7.246  0.1389 -0.2873  0.7575
 1791SOL     OW17008   1.355   2.813   1.190  0.1208  0.0112 -0.5413
 1791SOL    HW117009   1.299   2.840   1.118  0.7770 -0.6887 -1.3064
 1791SOL    HW217010   1.431   2.792   1.136  1.7468 -0.8916  2.0614
 1792SOL     OW17011   2.687   3.459   3.849 -0.0245 -0.1303  0.1447
 1792SOL    HW117012   2.666   3.394   3.782  0.3704  1.0668 -1.1410
 1792SOL    HW217013   2.775   3.481   3.817  0.0346  0.2697  0.5917
 1793SOL     OW17014   0.965   1.937   6.060  0.0648  0.0693  0.3416
 1793SOL    HW117015   1.048   1.905   6.095 -0.1081  0.8675  1.4739
 1793SOL    HW217016   1.006   1.991   5.992  0.5609 -1.4379 -0.5517
 1794SOL     OW17017   2.513   4.239   9.333  0.0921  0.0524  0.1013
 1794SOL    HW117018   2.558   4.173   9.279  0.7546  0.6968 -0.1383
 1794SOL    HW217019   2.564   4.234   9.415  2.1240  0.1396 -1.1494
 1795SOL     OW17020   0.598   0.441   4.640 -0.0549  0.0108  0.8626
 1795SOL    HW117021   0.620   0.529   4.609 -0.7005 -0.0921  0.1322
 1795SOL    HW217022   0.641   0.390   4.571  0.9190  1.4319  0.4238
 1796SOL     OW17023   3.146   0.364   3.777 -0.6120 -0.1057  0.7451
 1796SOL    HW117024   3.199   0.295   3.736 -1.0456  0.4387 -0.7613
 1796SOL    HW217025   3.063   0.317   3.773 -0.2225 -0.6712 -0.7312
 1797SOL     OW17026   2.491   0.568   8.884 -0.4174 -0.6190  0.3069
 1797SOL    HW117027   2.502   0.589   8.792 -2.7320  0.3620  0.2358
 1797SOL    HW217028   2.417   0.628   8.898 -1.0093 -1.0445 -1.0617
 1798SOL     OW17029   2.464   4.150   4.587  0.0527 -0.2094 -0.0058
 1798SOL    HW117030   2.423   4.182   4.667  0.3679  2.6682 -0.9911
 1798SOL    HW217031   2.406   4.075   4.580 -0.0348 -0.0879 -0.6056
 1799SOL     OW17032   3.589   1.621   8.627  0.0033  0.1338  0.3593
 1799SOL    HW117033   3.606   1.653   8.716  2.0333  0.9034 -0.2907
 1799SOL    HW217034   3.527   1.550   8.641 -0.4844  0.0090 -2.5335
 1800SOL     OW17035   1.501   1.824  15.779 -0.2635 -0.0205  0.0558
 1800SOL    HW117036   1.456   1.867  15.852 -0.0286  1.0959 -0.4568
 1800SOL    HW217037   1.562   1.770  15.828  1.8620  2.3500 -0.0004
 1801SOL     OW17038   1.822   0.682  15.772  0.0556  0.1106 -0.0983
 1801SOL    HW117039   1.775   0.761  15.800  0.8302 -0.3557  2.5747
 1801SOL    HW217040   1.764   0.646  15.705 -0.0743  0.3216 -0.0999
 1802SOL     OW17041   1.423   4.484   7.672  0.2771 -0.2695  0.4625
 1802SOL    HW117042   1.464   4.454   7.753 -2.1829  0.5016  2.0059
 1802SOL    HW217043   1.467   4.420   7.617 -1.9338 -3.0548  1.9173
 1803SOL     OW17044   3.109   3.487   6.017 -0.7282  0.3725 -0.1232
 1803SOL    HW117045   3.149   3.401   6.019  0.5172  0.9191 -1.4236
 1803SOL    HW217046   3.095   3.498   5.923 -1.6725  0.6955  0.0495
 1804SOL     OW17047   4.679   0.477   6.377 -0.3212  0.5834  0.1835
 1804SOL    HW117048   4.693   0.392   6.337  2.4737  1.6817 -1.1790
 1804SOL    HW217049   0.009   0.470   6.446  0.8925  2.2829 -0.8225
 1805SOL     OW17050   0.988   0.108   8.441  0.0655 -0.3790 -0.4283
 1805SOL    HW117051   0.984   0.176   8.509  0.7292  0.0369 -0.8058
 1805SOL    HW217052   1.004   0.034   8.501 -0.4333  2.0619  2.7221
 1806SOL     OW17053   0.247   2.155   8.116 -0.1977  0.2455 -0.0699
 1806SOL    HW117054   0.225   2.146   8.023  0.0116 -0.5834 -0.0464
 1806SOL    HW217055   0.336   2.120   8.112 -0.1422  0.2828  0.8520
 1807SOL     OW17056   4.231   1.778   9.461  0.6730 -0.2218  0.5079
 1807SOL    HW117057   4.264   1.865   9.481 -0.2491  0.2663 -0.0861
 1807SOL    HW217058   4.212   1.747   9.550 -2.1057  0.5128  0.1614
 1808SOL     OW17059   2.682   2.678   4.302 -0.1673 -0.3950  0.1230
 1808SOL    HW117060   2.665   2.768   4.329  1.3174  0.1169 -0.6454
 1808SOL    HW217061   2.696   2.699   4.210 -0.2420 -1.8091 -0.2149
 1809SOL     OW17062   1.906   3.958   6.058 -0.2197 -0.5163  0.0892
 1809SOL    HW117063   1.822   3.963   6.104 -0.8341  2.8779 -1.4161
 1809SOL    HW217064   1.964   3.946   6.133 -2.3546  0.6690  1.9399
 1810SOL     OW17065   4.601   1.073   1.079 -0.3448  0.5225  0.4208
 1810SOL    HW117066   4.624   1.110   1.164 -0.9862  0.0288  0.8135
 1810SOL    HW217067   4.546   1.140   1.038 -0.2765 -0.6424 -1.5679
 1811SOL     OW17068   0.009   4.257  11.146 -0.2675 -0.0616 -0.3848
 1811SOL    HW117069   4.701   4.192  11.092 -0.3523  0.0429 -0.4410
 1811SOL    HW217070   4.670   4.302  11.183  1.0406  0.5597  1.4921
 1812SOL     OW17071   4.131   2.998   4.986 -0.3846  0.2253  0.4109
 1812SOL    HW117072   4.173   2.917   5.017  1.7615  1.4233  0.6840
 1812SOL    HW217073   4.179   3.062   5.039  0.9339 -0.0103 -0.4913
 1813SOL     OW17074   2.818   4.221   8.590 -0.4110 -0.5391 -0.2791
 1813SOL    HW117075   2.899   4.269   8.574  0.5700 -1.9546  0.5215
 1813SOL    HW217076   2.813   4.231   8.685 -1.5794  1.7227 -0.5734
 1814SOL     OW17077   1.562   1.805   7.303  0.4846  0.2490 -0.2599
 1814SOL    HW117078   1.623   1.745   7.345  1.4669  2.6926  1.7911
 1814SOL    HW217079   1.624   1.875   7.285 -1.0393  1.7722  0.3345
 1815SOL     OW17080   1.272   0.053   9.791 -0.2063  0.3297  0.4117
 1815SOL    HW117081   1.229   0.068   9.875  0.2765  0.9615  0.5473
 1815SOL    HW217082   1.352   0.105   9.802 -1.0760  1.5799  0.9208
 1816SOL     OW17083   4.223   1.666   8.926 -0.9413  0.1356 -0.3529
 1816SOL    HW117084   4.269   1.582   8.928 -1.0130  0.0971 -0.3223
 1816SOL    HW217085   4.139   1.628   8.953 -1.2004  1.7186  1.0819
 1817SOL     OW17086   0.026   2.317   5.426 -0.0264  0.8517 -0.4364
 1817SOL    HW117087   0.060   2.277   5.506 -0.7793  0.0142 -0.5358
 1817SOL    HW217088   0.023   2.406   5.461 -0.6628  0.1422  1.3076
 1818SOL     OW17089   2.697   3.980   5.061  0.0108 -0.0074 -0.0060
 1818SOL    HW117090   2.693   4.053   5.122  0.5388 -1.1993  1.4437
 1818SOL    HW217091   2.618   3.995   5.009  0.5512  1.5710 -0.3787
 1819SOL     OW17092   3.917   2.718   4.739  0.1755 -0.4702 -0.1523
 1819SOL    HW117093   3.828   2.693   4.713  0.7790 -1.1119 -1.5532
 1819SOL    HW217094   3.956   2.646   4.689  1.0842  1.3771 -2.0559
 1820SOL     OW17095   2.231   2.258   3.073  0.3545  0.5660  0.2226
 1820SOL    HW117096   2.217   2.348   3.100  2.3747  0.7969  0.5106
 1820SOL    HW217097   2.326   2.248   3.069  0.1542 -1.6149  1.0826
 1821SOL     OW17098   4.308   3.308  16.626  0.2616  0.1191  0.1195
 1821SOL    HW117099   4.282   3.218  16.643  2.7924 -0.5871  0.1733
 1821SOL    HW217100   4.335   3.345  16.710 -0.9021  2.4896 -0.5286
 1822SOL     OW17101   3.925   2.816   2.710  0.4202 -0.1074  0.1569
 1822SOL    HW117102   4.001   2.779   2.665  0.6192 -1.2382  1.4116
 1822SOL    HW217103   3.859   2.749   2.697 -0.7901  1.2178 -0.5103
 1823SOL     OW17104   0.001   4.157   2.440 -0.4297  0.6373  0.5895
 1823SOL    HW117105   4.722   4.091   2.372 -2.0081 -0.0361  1.6021
 1823SOL    HW217106   0.095   4.145   2.443 -0.4550  0.5972  1.0839
 1824SOL     OW17107   0.805   0.771  13.298 -0.6898 -0.3761 -0.2128
 1824SOL    HW117108   0.853   0.721  13.232  0.2333  0.4753 -0.1772
 1824SOL    HW217109   0.864   0.769  13.374  0.4039  0.9793 -1.0389
 1825SOL     OW17110   1.093   0.312   8.597 -0.3590 -0.0597 -0.4263
 1825SOL    HW117111   1.085   0.395   8.551 -0.7654  1.1908  1.9300
 1825SOL    HW217112   1.115   0.342   8.685  0.0828 -0.9185 -0.2408
 1826SOL     OW17113   2.879   3.194   4.521 -0.1957  0.1028  0.0387
 1826SOL    HW117114   2.825   3.249   4.578 -1.6165 -2.6873  1.3819
 1826SOL    HW217115   2.921   3.258   4.465 -0.3371  1.0025  0.9618
 1827SOL     OW17116   0.975   0.368  17.022 -0.7528 -0.1968  0.3397
 1827SOL    HW117117   1.022   0.288  17.043  0.7524  0.4854 -0.4276
 1827SOL    HW217118   1.012   0.427  17.087  0.1604 -1.2518  0.7642
 1828SOL     OW17119   1.809   2.690  10.902 -0.0650  0.3635 -0.0718
 1828SOL    HW117120   1.781   2.728  10.985 -0.6702 -0.9921  0.3518
 1828SOL    HW217121   1.850   2.612  10.941  0.0735 -0.6416 -2.2280
 1829SOL     OW17122   4.059   0.681   5.127  0.6591  0.3219 -0.4860
 1829SOL    HW117123   4.134   0.713   5.076  1.0459 -1.3941 -0.9904
 1829SOL    HW217124   4.059   0.729   5.210 -1.7792  1.0479 -0.9244
 1830SOL     OW17125   2.775   1.982   2.879 -0.0357  0.1722 -0.2840
 1830SOL    HW117126   2.727   2.064   2.884 -1.9023 -0.8437 -1.4608
 1830SOL    HW217127   2.847   2.005   2.821  1.6811 -0.5042  1.5656
 1831SOL     OW17128   1.537   0.556   7.512 -0.1969 -0.5127 -0.4314
 1831SOL    HW117129   1.578   0.595   7.434 -1.6850  1.3898 -0.2832
 1831SOL    HW217130   1.603   0.493   7.540 -0.5056 -1.4432 -1.7793
 1832SOL     OW17131   4.512   0.418   6.026 -0.0745  0.1535  0.1842
 1832SOL    HW117132   4.590   0.422   5.971  0.4791  2.3701  1.1523
 1832SOL    HW217133   4.446   0.373   5.972  2.0907 -2.3177 -0.4406
 1833SOL     OW17134   0.768   3.058  16.807  0.4281  0.2861 -0.4176
 1833SOL    HW117135   0.723   2.989  16.854 -1.8053 -0.2347 -3.3139
 1833SOL    HW217136   0.840   3.006  16.772  0.3700 -2.1147  3.0521
 1834SOL     OW17137   3.648   3.280   7.322  0.4629 -0.1066  0.1057
 1834SOL    HW117138   3.693   3.260   7.240 -0.2398 -0.3167 -0.2288
 1834SOL    HW217139   3.729   3.294   7.371 -0.5696 -3.0625  2.6575
 1835SOL     OW17140   2.170   0.993  16.601  0.1151  0.4472  0.0209
 1835SOL    HW117141   2.184   1.024  16.691  1.7430  0.9807 -0.4002
 1835SOL    HW217142   2.094   0.936  16.601  0.3667  0.1199  0.8043
 1836SOL     OW17143   3.670   1.826  14.962 -0.2817 -0.1945 -0.4747
 1836SOL    HW117144   3.730   1.900  14.963  1.0874 -1.2991 -0.9845
 1836SOL    HW217145   3.681   1.794  15.052  0.7487  0.4604 -0.3725
 1837SOL     OW17146   2.946   1.392   3.971  0.0086  0.2429  0.2805
 1837SOL    HW117147   2.985   1.372   3.886 -0.1556 -0.7665  0.4470
 1837SOL    HW217148   2.886   1.321   3.993 -1.6520  2.0859  1.6675
 1838SOL     OW17149   0.125   4.502   1.287 -0.0759  0.4235 -0.3542
 1838SOL    HW117150   0.203   4.506   1.342  0.1389 -0.1969 -0.6199
 1838SOL    HW217151   0.135   4.414   1.253 -0.5713  0.2518 -0.0496
 1839SOL     OW17152   2.522   3.981   7.097 -0.0766 -0.1333 -0.6522
 1839SOL    HW117153   2.443   3.928   7.097 -0.5069  0.5171  1.3567
 1839SOL    HW217154   2.585   3.922   7.055  0.1617  1.1262 -2.0373
 1840SOL     OW17155   1.455   0.037   1.415  0.0406 -0.3776  0.3197
 1840SOL    HW117156   1.449   0.121   1.460  5.0858  0.3013 -0.2968
 1840SOL    HW217157   1.443   0.049   1.321 -1.8551 -2.4541  0.2814
 1841SOL     OW17158   1.584   0.270   4.098 -0.2070 -0.3021  0.2209
 1841SOL    HW117159   1.540   0.207   4.154  0.3248 -0.5340  0.3792
 1841SOL    HW217160   1.519   0.294   4.031  0.0389 -0.7911 -0.1976
 1842SOL     OW17161   0.318   2.998   7.161  0.3581  0.2213 -0.2671
 1842SOL    HW117162   0.251   2.966   7.101  2.6441 -2.6291 -1.2708
 1842SOL    HW217163   0.376   2.922   7.164  1.6592  1.2459  0.6952
 1843SOL     OW17164   3.162   1.385  11.833 -0.4729 -0.0252  0.2853
 1843SOL    HW117165   3.243   1.427  11.804 -1.7547  2.2248 -0.0935
 1843SOL    HW217166   3.109   1.465  11.828 -0.0276  0.2753  0.3449
 1844SOL     OW17167   3.102   2.165   1.757  0.5339  0.1031 -0.2873
 1844SOL    HW117168   3.096   2.102   1.829  0.8559  1.4924  0.9471
 1844SOL    HW217169   3.010   2.163   1.731  1.1633 -3.3205 -2.3558
 1845SOL     OW17170   1.204   1.108   7.910  0.1416  0.0700  0.5074
 1845SOL    HW117171   1.237   1.179   7.856  1.1717 -1.0304 -0.3207
 1845SOL    HW217172   1.197   1.153   7.994 -1.4648  0.5881  0.0935
 1846SOL     OW17173   1.783   3.606   5.975  0.0283  0.2359 -0.1849
 1846SOL    HW117174   1.735   3.684   5.949  2.1270  1.4869 -0.3234
 1846SOL    HW217175   1.808   3.622   6.066  0.5306 -1.2085 -0.0569
 1847SOL     OW17176   2.666   3.637   8.983  0.4802 -0.3664  0.4161
 1847SOL    HW117177   2.618   3.719   8.971  0.0420 -0.1356  3.7462
 1847SOL    HW217178   2.611   3.602   9.053 -1.3726 -0.7473 -1.2387
 1848SOL     OW17179   2.150   3.594  12.932 -0.1533  0.1365 -0.0074
 1848SOL    HW117180   2.222   3.561  12.879 -0.8384 -1.7925  0.2636
 1848SOL    HW217181   2.080   3.544  12.892 -1.4585  1.2028  0.9238
 1849SOL     OW17182   3.837   4.326   7.693 -0.2389 -0.0561 -0.1964
 1849SOL    HW117183   3.920   4.279   7.683  0.3661  0.6460  1.6071
 1849SOL    HW217184   3.803   4.325   7.603  0.1752 -2.4828 -0.3193
 1850SOL     OW17185   1.988   3.552  17.142  0.1122  0.0935  0.3390
 1850SOL    HW117186   2.001   3.639  17.180  0.8338  0.1544 -0.0561
 1850SOL    HW217187   1.909   3.523  17.189  1.3080 -3.1892  0.2986
 1851SOL     OW17188   3.450   3.416   7.187 -0.5508  0.2122 -0.0394
 1851SOL    HW117189   3.525   3.382   7.236 -0.6210 -0.8145 -0.6543
 1851SOL    HW217190   3.385   3.345   7.191  0.2286 -0.4919  0.0100
 1852SOL     OW17191   1.014   2.664   2.721  0.4162 -0.6046  0.2021
 1852SOL    HW117192   0.966   2.742   2.693  0.9942 -0.1539  0.4531
 1852SOL    HW217193   1.003   2.673   2.815  0.4547 -0.0932  0.1605
 1853SOL     OW17194   2.251   4.104  15.815  0.6054  0.7194 -0.3303
 1853SOL    HW117195   2.326   4.050  15.840 -0.1358 -0.7062 -1.1324
 1853SOL    HW217196   2.224   4.070  15.730 -0.0819  0.3022  0.0547
 1854SOL     OW17197   1.790   0.525  11.835  0.9235 -0.3354 -0.0981
 1854SOL    HW117198   1.723   0.481  11.887 -0.6787  2.2665  0.0630
 1854SOL    HW217199   1.761   0.616  11.848  1.7052 -0.1375  0.2710
 1855SOL     OW17200   1.644   0.229  13.165  0.2829  0.2130  0.5120
 1855SOL    HW117201   1.622   0.170  13.094  0.7008 -0.5468  1.0137
 1855SOL    HW217202   1.737   0.214  13.181  0.6315  1.3483 -0.4794
 1856SOL     OW17203   1.613   0.654   6.313  0.2377  0.3383  0.2218
 1856SOL    HW117204   1.619   0.747   6.335 -0.8432  0.0702  1.6771
 1856SOL    HW217205   1.519   0.650   6.299  0.4270 -0.1411 -0.9353
 1857SOL     OW17206   3.811   1.558   1.901  0.5721 -0.0872 -0.1040
 1857SOL    HW117207   3.896   1.553   1.858 -0.0696 -1.0052 -1.2644
 1857SOL    HW217208   3.825   1.512   1.984 -3.5097 -0.2480  0.5034
 1858SOL     OW17209   2.339   2.892   3.378  0.0455 -0.6244  0.4170
 1858SOL    HW117210   2.355   2.871   3.471  1.5267  1.2025  0.5692
 1858SOL    HW217211   2.350   2.987   3.371 -1.2523 -0.3723  1.6834
 1859SOL     OW17212   3.185   2.500   7.901 -0.1726 -0.5067  0.4289
 1859SOL    HW117213   3.109   2.533   7.950  0.3674  1.1218  0.1608
 1859SOL    HW217214   3.175   2.543   7.816 -1.4003 -0.0714  0.7968
 1860SOL     OW17215   2.343   2.459  15.012  0.2996  0.0939 -0.3471
 1860SOL    HW117216   2.264   2.480  15.061  0.7304  0.8754  0.0031
 1860SOL    HW217217   2.313   2.495  14.928  0.1689  0.0729 -0.3097
 1861SOL     OW17218   0.939   0.841   5.273  0.0708 -0.0638  0.6066
 1861SOL    HW117219   0.982   0.882   5.198 -0.4067 -0.4222  0.1401
 1861SOL    HW217220   0.901   0.922   5.308  1.0248  0.8321 -0.4217
 1862SOL     OW17221   0.259   1.007   2.207  0.3142 -0.3823 -0.1346
 1862SOL    HW117222   0.287   0.981   2.294  3.1072  0.8579 -0.6525
 1862SOL    HW217223   0.327   0.974   2.148 -0.1312 -3.6947  1.2198
 1863SOL     OW17224   0.516   3.120   8.816 -0.1516 -0.2162  0.0328
 1863SOL    HW117225   0.448   3.055   8.796 -1.0320  0.1554  1.8478
 1863SOL    HW217226   0.462   3.172   8.876  1.2840 -1.2521  2.2095
 1864SOL     OW17227   1.297   0.385   6.022 -0.3271 -0.6445  0.0698
 1864SOL    HW117228   1.270   0.358   6.110  0.3763 -0.6483  0.2868
 1864SOL    HW217229   1.259   0.473   6.019 -2.0867 -1.4164  0.1542
 1865SOL     OW17230   2.013   4.061   5.633 -0.0228  0.3743  0.6196
 1865SOL    HW117231   2.068   4.012   5.694  0.0507 -1.8899 -1.2769
 1865SOL    HW217232   1.924   4.053   5.668 -0.6965 -1.4986 -1.5298
 1866SOL     OW17233   3.245   0.480   0.569 -0.4295  0.6334  0.6784
 1866SOL    HW117234   3.275   0.570   0.572 -0.2721  0.5407  1.7044
 1866SOL    HW217235   3.244   0.473   0.473  1.6697  0.1655  0.6866
 1867SOL     OW17236   1.488   1.368   3.021 -0.2140  0.2323 -0.6213
 1867SOL    HW117237   1.579   1.365   3.050 -0.7058 -0.8853  0.7643
 1867SOL    HW217238   1.441   1.433   3.074  1.4016 -1.6252  3.0848
 1868SOL     OW17239   3.782   0.046   7.011 -0.0527  0.0478  0.2028
 1868SOL    HW117240   3.830   0.082   7.086  0.9485 -0.0304 -0.3982
 1868SOL    HW217241   3.806   0.115   6.949 -1.0817 -0.6032 -0.9040
 1869SOL     OW17242   3.263   2.168   8.536 -0.4026  0.6444 -0.0859
 1869SOL    HW117243   3.334   2.105   8.551 -1.0075  0.4058  1.6837
 1869SOL    HW217244   3.267   2.188   8.442  0.1611 -0.2493 -0.2567
 1870SOL     OW17245   0.878   1.293  13.367 -0.0876 -0.3326 -0.1360
 1870SOL    HW117246   0.956   1.333  13.406 -0.4403 -1.4993  1.7779
 1870SOL    HW217247   0.834   1.257  13.444 -0.6015  0.6383  0.0110
 1871SOL     OW17248   2.074   2.038   2.705 -0.2669 -0.4286  0.3409
 1871SOL    HW117249   2.009   2.000   2.765  1.4464 -1.1640  1.7328
 1871SOL    HW217250   2.052   2.131   2.711  0.0371 -0.3239 -0.1815
 1872SOL     OW17251   4.443   0.999  11.325  0.1168  0.8514  0.0383
 1872SOL    HW117252   4.511   0.939  11.355 -1.0497  0.0091  1.0105
 1872SOL    HW217253   4.376   0.995  11.393  0.3404  0.5906  0.2402
 1873SOL     OW17254   0.310   2.563   7.589 -0.1503  0.4039 -0.0814
 1873SOL    HW117255   0.289   2.566   7.683 -0.1037 -1.4090 -0.0095
 1873SOL    HW217256   0.401   2.591   7.592 -0.1837  0.4042  1.3434
 1874SOL     OW17257   2.109   1.456   1.215  0.5710 -0.2508  0.2796
 1874SOL    HW117258   2.016   1.449   1.237  0.8181 -0.1377  1.3448
 1874SOL    HW217259   2.140   1.371   1.246 -0.9764  0.2380  3.1712
 1875SOL     OW17260   4.565   1.818   7.380  0.2096  0.4715 -0.0991
 1875SOL    HW117261   4.622   1.803   7.305 -0.5970 -1.1120 -0.3945
 1875SOL    HW217262   4.572   1.914   7.384  3.2650  0.3378 -1.9475
 1876SOL     OW17263   3.914   1.316   6.179  0.6164 -0.7163 -0.4686
 1876SOL    HW117264   3.941   1.241   6.126 -1.8935  0.0145 -2.8205
 1876SOL    HW217265   3.848   1.347   6.116  0.2108  1.3426  0.9664
 1877SOL     OW17266   4.227   0.597  12.773 -0.2930 -0.0063 -0.2327
 1877SOL    HW117267   4.153   0.610  12.713 -0.0606 -1.1222 -0.7721
 1877SOL    HW217268   4.255   0.511  12.743 -0.2567  0.4223 -1.4498
 1878SOL     OW17269   0.567   0.210   2.407 -0.2599  0.0712  0.2648
 1878SOL    HW117270   0.625   0.155   2.354 -0.4736 -0.6251  0.7619
 1878SOL    HW217271   0.558   0.163   2.490 -0.0065 -0.9386 -0.2741
 1879SOL     OW17272   2.062   3.012   0.537  0.1332  0.1667 -0.0604
 1879SOL    HW117273   2.026   2.968   0.614 -0.7363 -0.3831 -0.7820
 1879SOL    HW217274   1.980   3.022   0.488 -0.9997  3.1812  2.4951
 1880SOL     OW17275   1.760   3.666   9.754 -0.2543 -0.5425 -0.1542
 1880SOL    HW117276   1.807   3.732   9.704  2.3179 -0.3025  2.5502
 1880SOL    HW217277   1.841   3.619   9.777 -0.6978 -2.3261 -2.1931
 1881SOL     OW17278   2.205   4.284   7.515  0.1030  0.2944  0.3733
 1881SOL    HW117279   2.284   4.338   7.522  0.4861 -0.4924  2.0487
 1881SOL    HW217280   2.233   4.209   7.567 -2.0476  0.1048  1.2486
 1882SOL     OW17281   4.013   4.102   4.624  0.1852  0.4395 -0.7110
 1882SOL    HW117282   4.040   4.189   4.595  0.0640 -0.1144 -2.4567
 1882SOL    HW217283   3.933   4.142   4.658  1.3506  1.4797  0.7985
 1883SOL     OW17284   3.927   1.774   6.979  0.4315  0.6188 -0.2716
 1883SOL    HW117285   3.930   1.858   6.933  0.3427  0.8205  0.0829
 1883SOL    HW217286   3.877   1.802   7.057  0.7307 -1.3921  0.6397
 1884SOL     OW17287   2.896   4.262  15.199  0.1237  0.2135 -0.4388
 1884SOL    HW117288   2.827   4.215  15.247  0.8010  0.8862  1.1640
 1884SOL    HW217289   2.858   4.270  15.111  0.5078  0.0899 -0.6176
 1885SOL     OW17290   4.115   0.799  13.624 -0.2371  0.4052  0.0717
 1885SOL    HW117291   4.125   0.705  13.639  2.6026  0.4195 -1.7359
 1885SOL    HW217292   4.021   0.791  13.604 -0.2775 -0.6788  0.7128
 1886SOL     OW17293   1.300   3.562   4.276  0.4905 -0.1889 -0.2403
 1886SOL    HW117294   1.344   3.645   4.294 -0.7737  0.5945 -0.7144
 1886SOL    HW217295   1.299   3.509   4.356 -0.6958 -1.4417 -1.0691
 1887SOL     OW17296   4.637   4.296  13.108 -0.0006 -0.2403  0.2182
 1887SOL    HW117297   4.588   4.236  13.163  1.2478  0.6786  2.3167
 1887SOL    HW217298   4.598   4.290  13.021  0.0104  4.2297 -0.0803
 1888SOL     OW17299   3.237   3.295   4.578  0.1881 -0.2559  0.0072
 1888SOL    HW117300   3.170   3.338   4.631  0.6869 -1.6829  1.7876
 1888SOL    HW217301   3.203   3.206   4.575  1.2513 -0.7036  1.1836
 1889SOL     OW17302   4.267   0.099   5.164  0.1297  0.5714  0.0406
 1889SOL    HW117303   4.177   0.065   5.165  0.5017 -0.4381 -1.0053
 1889SOL    HW217304   4.261   0.165   5.094 -0.0860 -0.3907 -0.8513
 1890SOL     OW17305   1.004   0.635   7.976  0.5155 -0.3953 -0.7394
 1890SOL    HW117306   0.914   0.603   7.978  0.7163 -0.8030  2.5362
 1890SOL    HW217307   1.006   0.687   7.896 -1.3691  0.8110  0.0077
 1891SOL     OW17308   3.820   3.129   6.507 -0.1034 -0.3723  0.2309
 1891SOL    HW117309   3.827   3.185   6.430 -0.8111 -2.3248 -1.2638
 1891SOL    HW217310   3.762   3.191   6.551  1.9012  2.3857 -1.0496
 1892SOL     OW17311   2.189   0.435   2.756  0.3898 -0.6051  0.2167
 1892SOL    HW117312   2.283   0.425   2.744  0.7060  0.5758  1.6081
 1892SOL    HW217313   2.194   0.530   2.762  0.9751 -0.5453 -1.3955
 1893SOL     OW17314   2.364   0.848  16.163 -0.5041  0.7155 -0.7870
 1893SOL    HW117315   2.326   0.892  16.238 -4.2129 -0.9534 -1.7074
 1893SOL    HW217316   2.428   0.914  16.135 -0.3967  1.6639  1.7105
 1894SOL     OW17317   2.330   2.939  13.158  0.0023  0.9675  0.7170
 1894SOL    HW117318   2.385   2.882  13.104  0.2924  0.8515  1.1315
 1894SOL    HW217319   2.248   2.957  13.112  1.8762 -0.3719 -3.2238
 1895SOL     OW17320   1.763   1.645   2.806 -0.6208 -0.1975  0.5676
 1895SOL    HW117321   1.766   1.710   2.735  3.5482 -1.0011  0.0211
 1895SOL    HW217322   1.855   1.627   2.825 -0.3282  0.3482 -0.3592
 1896SOL     OW17323   1.302   2.342   4.785 -0.0614 -0.2165 -0.4746
 1896SOL    HW117324   1.251   2.285   4.842  0.5744  2.4651  2.7897
 1896SOL    HW217325   1.233   2.358   4.721 -0.2583  1.8143  0.2213
 1897SOL     OW17326   3.696   2.743   8.896  0.3092 -0.3621 -0.3719
 1897SOL    HW117327   3.661   2.692   8.969 -0.5699  1.1161  0.2244
 1897SOL    HW217328   3.630   2.718   8.830  0.0234  3.9766 -1.7330
 1898SOL     OW17329   3.785   0.192   7.386  0.2165 -0.5394 -0.0152
 1898SOL    HW117330   3.714   0.163   7.329  0.1257  1.1366 -0.7754
 1898SOL    HW217331   3.750   0.278   7.413 -0.0001 -0.2687 -1.1508
 1899SOL     OW17332   4.379   0.049   3.017 -0.2889 -0.7511  0.2048
 1899SOL    HW117333   4.311   0.001   2.970  0.2176 -2.3459  1.0946
 1899SOL    HW217334   4.393   4.727   3.093 -0.5612 -1.1157 -0.0228
 1900SOL     OW17335   2.770   3.685   6.495  0.4340  0.4929 -0.1786
 1900SOL    HW117336   2.722   3.629   6.556  0.0494  1.1369  0.1154
 1900SOL    HW217337   2.707   3.740   6.448 -0.0189 -1.0205 -1.3421
 1901SOL     OW17338   1.955   1.623   5.048  1.2022 -0.9359  0.3852
 1901SOL    HW117339   2.014   1.610   5.121 -1.2601  0.7241  2.6810
 1901SOL    HW217340   1.983   1.560   4.982  0.6155 -0.6282 -0.1718
 1902SOL     OW17341   4.009   4.116   8.517 -0.0824 -0.0864 -0.4563
 1902SOL    HW117342   4.004   4.027   8.552  0.2132  0.0422 -0.0850
 1902SOL    HW217343   3.953   4.110   8.439  0.3312  1.3879 -0.8742
 1903SOL     OW17344   4.485   0.736   5.815  0.0834  0.2586  0.0983
 1903SOL    HW117345   4.425   0.717   5.887  0.3601  0.4199  0.3708
 1903SOL    HW217346   4.488   0.653   5.768  1.1313 -0.3851  1.2931
 1904SOL     OW17347   2.882   4.212   9.343  0.0488  0.4288 -0.2491
 1904SOL    HW117348   2.832   4.133   9.323 -3.0921  1.9897  1.4294
 1904SOL    HW217349   2.889   4.206   9.438  3.2121 -2.2566 -0.6507
 1905SOL     OW17350   3.054   0.900   3.056  0.3345 -0.3432 -0.0221
 1905SOL    HW117351   3.079   0.992   3.059 -1.6456  0.2479 -1.2929
 1905SOL    HW217352   3.078   0.860   3.140 -0.7073 -0.7409  0.0948
 1906SOL     OW17353   3.725   0.789   1.466  0.1574 -0.5039 -0.3289
 1906SOL    HW117354   3.808   0.792   1.515 -0.5785  1.2407  0.8350
 1906SOL    HW217355   3.695   0.699   1.479 -0.9244  0.2146  2.2960
 1907SOL     OW17356   1.478   3.993  10.679  0.7655  0.5385  0.8566
 1907SOL    HW117357   1.478   4.085  10.654 -2.2682 -0.0681 -1.3595
 1907SOL    HW217358   1.423   3.996  10.757  0.2279  0.2243  0.4937
 1908SOL     OW17359   0.836   3.430  17.735 -0.0284 -0.1374 -0.3630
 1908SOL    HW117360   0.918   3.469   0.020 -0.1681 -0.7379  0.8866
 1908SOL    HW217361   0.821   3.367   0.062 -0.4036 -0.0433 -0.3558
 1909SOL     OW17362   0.438   3.462  11.588 -0.1163  0.2817  0.0178
 1909SOL    HW117363   0.371   3.510  11.539  0.0915  0.6694  0.1142
 1909SOL    HW217364   0.500   3.529  11.617  1.2192 -0.6220 -0.7825
 1910SOL     OW17365   0.220   3.318   1.510 -0.4076  0.1256  0.2418
 1910SOL    HW117366   0.263   3.308   1.595 -0.8640 -0.6672  0.3811
 1910SOL    HW217367   0.299   3.322   1.456 -0.5367  1.0247  0.1258
 1911SOL     OW17368   3.280   2.057   4.758 -0.2131  0.5041  0.1997
 1911SOL    HW117369   3.331   2.034   4.681  2.9704 -1.8952  2.9983
 1911SOL    HW217370   3.190   2.053   4.728 -0.5159 -0.2467  1.2262
 1912SOL     OW17371   0.654   2.845  16.932 -0.0721  0.1295  0.5089
 1912SOL    HW117372   0.631   2.753  16.936  2.7964 -0.6089 -0.0889
 1912SOL    HW217373   0.637   2.871  17.023 -1.0247 -1.0901  0.6720
 1913SOL     OW17374   2.622   4.578   1.109 -0.1843  0.0666  0.3452
 1913SOL    HW117375   2.566   4.544   1.178  1.3775 -2.0240  0.5991
 1913SOL    HW217376   2.624   4.672   1.126  1.0761 -0.0104  0.6457
 1914SOL     OW17377   0.651   1.008   2.334 -0.5444  0.1011  0.4814
 1914SOL    HW117378   0.694   0.922   2.327 -1.5076 -0.5535  2.6149
 1914SOL    HW217379   0.571   0.985   2.288 -1.1171  1.1189  0.9840
 1915SOL     OW17380   2.533   1.577   3.606 -0.4180  0.4588  0.2368
 1915SOL    HW117381   2.486   1.494   3.596 -0.2207  0.5528 -1.4197
 1915SOL    HW217382   2.530   1.609   3.516  1.8894 -1.2822 -0.4547
 1916SOL     OW17383   0.156   1.907   3.614 -0.0315  0.0026  0.4590
 1916SOL    HW117384   0.208   1.922   3.535 -3.5035  2.2631 -1.3683
 1916SOL    HW217385   0.129   1.816   3.607  0.7266 -0.2384  0.6486
 1917SOL     OW17386   2.190   0.884  13.049  0.1705  0.2205  0.0066
 1917SOL    HW117387   2.199   0.969  13.091  1.1052 -1.2776  2.8608
 1917SOL    HW217388   2.282   0.870  13.025  0.6960  1.8684  1.0705
 1918SOL     OW17389   2.017   4.526   8.470  0.1331  0.1124  0.2646
 1918SOL    HW117390   2.019   4.447   8.524  3.4331 -1.5904 -2.4100
 1918SOL    HW217391   2.011   4.602   8.529 -1.1482  0.0752  0.1872
 1919SOL     OW17392   2.209   3.909   8.519  0.7176 -0.0443 -0.4497
 1919SOL    HW117393   2.144   3.841   8.497  1.7737 -0.8418 -1.1117
 1919SOL    HW217394   2.171   3.992   8.489  0.8010  0.6611  1.4302
 1920SOL     OW17395   1.817   0.736   8.548  0.1679  0.2335 -0.2941
 1920SOL    HW117396   1.727   0.720   8.521 -0.3229  2.3277  0.0466
 1920SOL    HW217397   1.839   0.650   8.584 -1.7809 -0.1138  0.0410
 1921SOL     OW17398   0.381   3.358   1.747  0.1124 -0.3866 -0.5873
 1921SOL    HW117399   0.369   3.280   1.801 -1.4773  0.3071  0.0710
 1921SOL    HW217400   0.473   3.384   1.760  0.4477 -1.2192 -1.3796
 1922SOL     OW17401   0.070   1.689  17.067  0.5219 -0.5276  0.1267
 1922SOL    HW117402   0.119   1.754  17.119 -0.6874  1.4777 -1.2348
 1922SOL    HW217403   0.105   1.606  17.099  1.3359 -0.3068 -0.2082
 1923SOL     OW17404   3.087   0.752   6.409 -0.2294  0.2728  0.6460
 1923SOL    HW117405   3.018   0.691   6.383 -0.2617  0.6094 -0.0547
 1923SOL    HW217406   3.153   0.690   6.438  0.7788  1.0737  0.0586
 1924SOL     OW17407   4.464   2.361   5.817 -0.5673  0.1478 -0.3192
 1924SOL    HW117408   4.488   2.282   5.769  1.0932 -0.0796  0.9174
 1924SOL    HW217409   4.477   2.332   5.907  1.2541 -1.2996 -1.0695
 1925SOL     OW17410   2.492   2.591   6.936  0.0779  0.0175  0.4165
 1925SOL    HW117411   2.465   2.563   7.024 -1.0468 -0.0852  0.0434
 1925SOL    HW217412   2.587   2.582   6.942  0.1126  0.0937 -0.0133
 1926SOL     OW17413   2.938   3.989   2.951 -0.1764 -0.0082  0.1009
 1926SOL    HW117414   2.945   3.949   3.037  1.9570  1.3552  0.5733
 1926SOL    HW217415   2.848   4.022   2.955 -0.2877 -0.1231 -1.4449
 1927SOL     OW17416   4.723   3.456   9.324 -0.0935 -0.2579 -0.1320
 1927SOL    HW117417   0.013   3.383   9.380 -1.6001 -0.2136  0.6243
 1927SOL    HW217418   4.688   3.517   9.389 -2.1677  0.1933 -1.6932
 1928SOL     OW17419   4.513   3.789   8.714  0.4786 -0.2006  0.0786
 1928SOL    HW117420   4.514   3.695   8.731 -1.0589 -0.1255  0.5731
 1928SOL    HW217421   4.608   3.798   8.724  0.4352  0.4588 -0.0990
 1929SOL     OW17422   4.514   3.613   2.832  0.2764  0.1020 -0.2879
 1929SOL    HW117423   4.460   3.616   2.753 -0.8360  0.2363  0.4769
 1929SOL    HW217424   4.517   3.520   2.855  0.0802  0.6181  1.7940
 1930SOL     OW17425   1.933   1.102   3.388  0.2630  0.2483 -0.7542
 1930SOL    HW117426   2.016   1.059   3.411  1.0203  1.6097 -0.9265
 1930SOL    HW217427   1.899   1.100   3.477  0.6263  0.7170 -0.6067
 1931SOL     OW17428   0.057   2.547  15.390 -0.4171 -0.4706 -0.2319
 1931SOL    HW117429   4.729   2.589  15.447 -0.9806 -0.6108 -0.7685
 1931SOL    HW217430   0.133   2.604  15.387  0.3426 -1.3698  1.8357
 1932SOL     OW17431   0.049   2.009   6.791 -0.1796  0.1295 -1.2178
 1932SOL    HW117432   0.144   2.000   6.797 -0.4572 -1.4901  0.8785
 1932SOL    HW217433   0.040   2.100   6.819  2.2041  0.5306 -1.7493
 1933SOL     OW17434   4.015   1.459   0.311 -0.6163  0.0293 -0.3857
 1933SOL    HW117435   3.943   1.454   0.374  0.1535  0.2062  0.5133
 1933SOL    HW217436   4.000   1.541   0.265 -2.7011  0.1036  0.4177
 1934SOL     OW17437   1.326   3.867  15.973  0.4156  0.1678  1.2174
 1934SOL    HW117438   1.386   3.926  15.927 -0.9148 -0.8858 -1.8348
 1934SOL    HW217439   1.331   3.916  16.055 -0.1186  0.0789  1.2997
 1935SOL     OW17440   2.234   0.870  15.562  0.1486 -0.4269 -0.1133
 1935SOL    HW117441   2.302   0.911  15.509  0.6270 -1.6426 -0.4403
 1935SOL    HW217442   2.181   0.822  15.498 -1.2519  1.6601 -0.5188
 1936SOL     OW17443   2.794   3.397   6.131 -0.3785 -0.5087  0.2213
 1936SOL    HW117444   2.852   3.332   6.171 -0.6567 -0.5931  0.4885
 1936SOL    HW217445   2.857   3.465   6.105 -2.1197  0.6384 -1.0118
 1937SOL     OW17446   2.856   4.442  10.204 -0.5685 -0.8482 -0.4579
 1937SOL    HW117447   2.863   4.457  10.110 -1.4018 -1.0145 -0.5488
 1937SOL    HW217448   2.947   4.419  10.220 -0.9924 -1.8492  0.4477
 1938SOL     OW17449   0.921   3.522   4.847  0.3092 -0.4826  1.0906
 1938SOL    HW117450   1.011   3.537   4.876 -0.0080  1.2624  1.1788
 1938SOL    HW217451   0.941   3.446   4.793  1.2882 -0.7779  1.8610
 1939SOL     OW17452   3.344   1.225   5.035 -0.1114  1.0536 -0.1659
 1939SOL    HW117453   3.425   1.185   5.003  0.7305  2.5962  0.0329
 1939SOL    HW217454   3.337   1.181   5.120  1.6924 -0.0610 -0.5882
 1940SOL     OW17455   3.454   1.568   2.802 -0.0238 -0.3606  0.4305
 1940SOL    HW117456   3.538   1.532   2.832  1.2011  1.1168 -1.1798
 1940SOL    HW217457   3.432   1.619   2.879  1.0354 -0.4034  0.7696
 1941SOL     OW17458   1.819   3.124   7.504  0.0417  0.0425 -0.0636
 1941SOL    HW117459   1.861   3.114   7.589 -1.1050  1.2054  0.6296
 1941SOL    HW217460   1.841   3.040   7.462 -0.3696  0.1917 -0.5773
 1942SOL     OW17461   3.456   0.265   5.273  0.5251  0.4128 -0.0890
 1942SOL    HW117462   3.403   0.198   5.230  0.1047 -0.8900  2.4407
 1942SOL    HW217463   3.500   0.216   5.342 -1.8780 -1.9123 -0.2063
 1943SOL     OW17464   0.591   1.980   5.891 -0.7401 -0.1304  0.0855
 1943SOL    HW117465   0.594   2.000   5.985 -0.5986  1.0015 -0.1587
 1943SOL    HW217466   0.655   1.909   5.900 -0.5484  0.2214  1.6262
 1944SOL     OW17467   1.697   1.504   2.365 -0.5987 -0.4299  0.2623
 1944SOL    HW117468   1.623   1.532   2.311  1.8331  1.5712 -2.0233
 1944SOL    HW217469   1.761   1.568   2.335 -0.4012 -1.6635 -1.9298
 1945SOL     OW17470   0.906   2.176   3.885 -0.5084  0.6609 -0.1205
 1945SOL    HW117471   0.949   2.259   3.905  0.2721  0.6313 -1.6950
 1945SOL    HW217472   0.899   2.156   3.979 -3.7214 -2.3688 -0.9683
 1946SOL     OW17473   1.594   3.349   8.210  0.3115  0.0316  0.1329
 1946SOL    HW117474   1.596   3.404   8.289  1.5408 -0.2784  0.3187
 1946SOL    HW217475   1.510   3.305   8.222  0.9125 -1.0628  0.3560
 1947SOL     OW17476   0.425   3.192   7.549  0.6137  0.0760  0.4082
 1947SOL    HW117477   0.404   3.196   7.455 -2.4384 -3.7044  0.9260
 1947SOL    HW217478   0.507   3.143   7.546  1.9036  2.2306  1.2702
 1948SOL     OW17479   4.541   3.117  14.532  0.0664  0.0415 -0.1202
 1948SOL    HW117480   4.522   3.034  14.487 -2.0272  1.7149 -2.3100
 1948SOL    HW217481   4.533   3.171  14.454  2.7575  1.0038  0.2925
 1949SOL     OW17482   3.557   0.681   0.906  0.4082  0.5407  0.3540
 1949SOL    HW117483   3.644   0.648   0.881  0.2514 -0.7437  1.4906
 1949SOL    HW217484   3.587   0.768   0.933  2.3179  0.6623 -2.1083
 1950SOL     OW17485   3.475   1.011   5.867  0.9293  0.1073 -0.1264
 1950SOL    HW117486   3.496   1.103   5.883  2.2634  0.2114 -2.4121
 1950SOL    HW217487   3.540   0.980   5.803 -0.9867 -0.0935 -1.9680
 1951SOL     OW17488   1.229   0.431   5.157  0.2499 -0.1447 -0.1551
 1951SOL    HW117489   1.169   0.481   5.212  0.1977  0.6662 -0.9565
 1951SOL    HW217490   1.166   0.393   5.096 -0.7509  2.0636 -0.4953
 1952SOL     OW17491   3.169   0.550   1.704 -0.1862 -0.5011 -0.3719
 1952SOL    HW117492   3.141   0.597   1.625  0.3388 -0.5355 -0.5735
 1952SOL    HW217493   3.261   0.575   1.701  0.0240 -1.1066  1.1568
 1953SOL     OW17494   2.519   0.195   4.681  0.2799 -0.0354 -0.6977
 1953SOL    HW117495   2.526   0.102   4.703  0.8538  1.0124  3.5046
 1953SOL    HW217496   2.464   0.225   4.754  0.3358 -1.1203 -0.2137
 1954SOL     OW17497   0.241   1.347   6.612 -0.1382 -0.0381  0.8166
 1954SOL    HW117498   0.157   1.353   6.567  0.8529 -0.3159 -1.0736
 1954SOL    HW217499   0.230   1.268   6.664 -3.1908 -0.6568 -0.7466
 1955SOL     OW17500   0.679   3.378   6.904 -0.2384 -0.2779 -0.3357
 1955SOL    HW117501   0.629   3.346   6.979 -0.3113 -0.2799 -0.3846
 1955SOL    HW217502   0.614   3.378   6.834 -1.9570 -1.2621  1.2647
 1956SOL     OW17503   4.125   0.873   2.306 -0.2098  0.0882  0.5111
 1956SOL    HW117504   4.179   0.923   2.245  0.1536 -0.8676  0.0436
 1956SOL    HW217505   4.118   0.936   2.378 -0.5837  1.4048 -0.6697
 1957SOL     OW17506   2.944   1.104   7.634  0.0036 -0.5005  0.0354
 1957SOL    HW117507   3.004   1.081   7.705 -0.5603 -0.9826  0.3472
 1957SOL    HW217508   2.917   1.016   7.608 -1.8677 -0.0818  0.5638
 1958SOL     OW17509   2.754   0.325   6.802 -0.5217 -0.2216  0.0490
 1958SOL    HW117510   2.719   0.400   6.753 -1.0005 -2.5031 -3.0593
 1958SOL    HW217511   2.844   0.352   6.817  0.2404 -2.8000  0.1065
 1959SOL     OW17512   3.057   1.620  12.950 -0.6509 -0.1624  0.3971
 1959SOL    HW117513   3.088   1.546  13.002  1.2343  0.3978  0.0634
 1959SOL    HW217514   3.023   1.585  12.867 -3.8148 -0.6129  1.8724
 1960SOL     OW17515   1.839   0.377   6.605 -0.0353  0.6768  1.0692
 1960SOL    HW117516   1.767   0.364   6.666 -0.8939  4.0582  0.7959
 1960SOL    HW217517   1.778   0.388   6.532  0.4448  0.4213  0.6273
 1961SOL     OW17518   0.037   0.907   3.434 -0.0335 -0.2957  0.3546
 1961SOL    HW117519   0.103   0.893   3.367  0.9297  0.9740  1.0332
 1961SOL    HW217520   0.079   0.977   3.485 -1.3143  0.0115  1.0002
 1962SOL     OW17521   2.974   0.570   6.992 -0.7181  0.2793 -0.2529
 1962SOL    HW117522   3.037   0.625   7.039 -0.4788 -1.4837  1.5113
 1962SOL    HW217523   3.009   0.592   6.906 -0.2532 -0.9116 -0.3744
 1963SOL     OW17524   4.281   2.900   8.852 -0.2442  0.2004 -0.1903
 1963SOL    HW117525   4.246   2.887   8.764 -3.4015  0.7789  0.9984
 1963SOL    HW217526   4.252   2.820   8.896 -4.0358  1.4625 -0.3922
 1964SOL     OW17527   4.278   4.280   5.351 -0.6093 -0.1829 -0.6136
 1964SOL    HW117528   4.343   4.301   5.284 -0.0540  0.8825  0.2554
 1964SOL    HW217529   4.337   4.258   5.423 -0.4472 -0.1371 -0.7312
 1965SOL     OW17530   0.437   1.330  11.934 -0.3718 -0.3183 -0.8812
 1965SOL    HW117531   0.500   1.259  11.949 -0.9490 -0.8551 -0.9995
 1965SOL    HW217532   0.382   1.303  11.860 -0.7277  1.6521 -1.3532
 1966SOL     OW17533   0.352   3.726   5.047  0.0123  0.1562 -0.2869
 1966SOL    HW117534   0.370   3.707   4.955 -1.2799 -1.0922 -0.2656
 1966SOL    HW217535   0.365   3.821   5.049  1.4802 -0.0600  0.7255
 1967SOL     OW17536   2.356   3.243   1.959 -0.1914 -0.0655 -0.7683
 1967SOL    HW117537   2.311   3.305   1.902 -0.5687 -1.2153 -1.7205
 1967SOL    HW217538   2.284   3.215   2.015 -0.6857  1.4959 -0.6169
 1968SOL     OW17539   3.764   0.356   0.098 -0.3956 -0.0066  0.2545
 1968SOL    HW117540   3.806   0.311   0.026 -0.2191 -2.5190  1.9254
 1968SOL    HW217541   3.765   0.447   0.069 -2.6188  0.0692  0.3854
 1969SOL     OW17542   0.517   4.651  14.111  0.4251 -0.7460  1.0688
 1969SOL    HW117543   0.434   4.617  14.144 -0.5437  1.0737  0.5198
 1969SOL    HW217544   0.545   4.578  14.055  0.8820 -0.5458  1.0335
 1970SOL     OW17545   0.485   0.257   3.396 -0.0387 -0.2529  0.0123
 1970SOL    HW117546   0.447   0.184   3.446 -0.8985  0.6809  0.7107
 1970SOL    HW217547   0.569   0.214   3.379 -0.6364 -0.0587 -3.4256
 1971SOL     OW17548   2.656   4.248   9.614  0.3388  0.3727  0.3146
 1971SOL    HW117549   2.709   4.193   9.671 -1.3494  0.6166  2.0887
 1971SOL    HW217550   2.589   4.281   9.673 -1.9484  0.5579 -2.3910
 1972SOL     OW17551   2.261   4.731   2.538 -0.1569 -0.0715  0.1698
 1972SOL    HW117552   2.356   4.728   2.550 -0.3196 -0.2376  1.3668
 1972SOL    HW217553   2.240   0.049   2.614  1.6104  2.4384 -1.0994
 1973SOL     OW17554   4.475   4.284   2.430  0.5709  0.0631 -0.5742
 1973SOL    HW117555   4.568   4.261   2.434  0.7862  0.7686 -1.5859
 1973SOL    HW217556   4.471   4.324   2.343 -0.1273  1.1798 -0.0387
 1974SOL     OW17557   4.475   0.870  10.095 -0.1500 -0.2574  0.0851
 1974SOL    HW117558   4.526   0.813  10.037  0.0374  0.3714 -0.3590
 1974SOL    HW217559   4.474   0.823  10.178 -0.1218 -0.2054  0.1151
 1975SOL     OW17560   4.565   3.728   8.999  0.3360 -0.2202 -0.1448
 1975SOL    HW117561   4.640   3.669   8.999  1.0872  0.7180  1.9803
 1975SOL    HW217562   4.555   3.745   9.093 -1.6499 -0.8936 -0.2257
 1976SOL     OW17563   4.282   3.709   6.134  0.0451 -0.4370  0.1725
 1976SOL    HW117564   4.329   3.792   6.142 -0.4856 -0.2129  0.9610
 1976SOL    HW217565   4.198   3.732   6.175 -0.5711 -1.5936 -0.4563
 1977SOL     OW17566   4.477   4.479  15.140 -0.0846 -0.3049 -0.5506
 1977SOL    HW117567   4.555   4.531  15.118  0.1975 -1.1168 -1.4956
 1977SOL    HW217568   4.403   4.535  15.118 -0.6233 -0.7172  0.2207
 1978SOL     OW17569   2.522   3.153   4.334 -0.1619  0.1376  0.9180
 1978SOL    HW117570   2.545   3.213   4.405 -1.1000 -0.4076  1.6929
 1978SOL    HW217571   2.428   3.139   4.344 -0.1853 -0.9246 -0.7298
 1979SOL     OW17572   2.097   3.030   6.935  0.5131 -0.1735 -0.2406
 1979SOL    HW117573   2.154   3.105   6.955  1.5346 -0.8295 -0.6933
 1979SOL    HW217574   2.155   2.970   6.889  0.8828 -0.4840  0.6373
 1980SOL     OW17575   0.492   2.017  12.131  0.2748 -1.1044  0.1941
 1980SOL    HW117576   0.507   1.936  12.081  1.2820 -0.2352 -0.9285
 1980SOL    HW217577   0.576   2.020  12.178 -0.9764  1.4552  2.2163
 1981SOL     OW17578   0.873   0.722   2.043  0.1509  0.0903 -0.3712
 1981SOL    HW117579   0.828   0.705   1.960  1.8041 -1.8605 -0.8778
 1981SOL    HW217580   0.866   0.632   2.075  0.7289  0.7055  1.4997
 1982SOL     OW17581   2.616   3.971   2.573  0.2478  1.0394  0.6847
 1982SOL    HW117582   2.684   3.923   2.620  0.1222  1.4488  1.2843
 1982SOL    HW217583   2.531   3.946   2.608  1.1069 -0.0665  1.9999
 1983SOL     OW17584   2.485   1.447  16.167  0.0921  0.3570  0.0246
 1983SOL    HW117585   2.423   1.515  16.141 -1.0589 -0.4972  0.5458
 1983SOL    HW217586   2.474   1.386  16.094 -1.3615 -2.1650  2.3560
 1984SOL     OW17587   1.822   4.692  11.439  0.6474 -0.3645  0.3800
 1984SOL    HW117588   1.764   0.006  11.382  0.3485 -1.4548 -0.2723
 1984SOL    HW217589   1.836   4.611  11.391 -2.0850  0.4191 -1.7140
 1985SOL     OW17590   4.218   0.056   7.967  0.0967 -0.2429  0.7803
 1985SOL    HW117591   4.252   0.025   8.051 -1.6504 -1.1069  1.1728
 1985SOL    HW217592   4.296   0.095   7.928  1.1147 -1.0891  1.9636
 1986SOL     OW17593   4.616   3.075   8.777 -0.1593  0.1674 -0.3005
 1986SOL    HW117594   4.648   3.164   8.762  1.5031  0.0489  2.5584
 1986SOL    HW217595   4.696   3.022   8.779  0.0639  0.5183  0.0798
 1987SOL     OW17596   0.207   1.392   5.863  0.2458  0.1439 -0.0946
 1987SOL    HW117597   0.175   1.331   5.929  1.9839 -0.1569  0.4841
 1987SOL    HW217598   0.302   1.382   5.869  0.1180 -0.1500  1.2720
 1988SOL     OW17599   1.605   0.168  16.092  0.0359 -0.1736  0.5784
 1988SOL    HW117600   1.586   0.142  16.182  1.2199 -0.3089  0.7852
 1988SOL    HW217601   1.518   0.189  16.058  0.6233 -1.6414 -1.8855
 1989SOL     OW17602   1.726   2.929   9.028  0.3022  0.3604  0.1533
 1989SOL    HW117603   1.729   2.851   8.973  1.4071  1.6500 -1.6036
 1989SOL    HW217604   1.804   2.976   8.997  0.2845 -0.9030 -1.8079
 1990SOL     OW17605   2.450   0.654   6.744 -0.6262  0.2484  0.2174
 1990SOL    HW117606   2.417   0.688   6.827 -1.2117 -2.2102  1.0018
 1990SOL    HW217607   2.389   0.699   6.687 -2.2034 -0.6261  1.1994
 1991SOL     OW17608   3.191   2.779   9.021 -0.2252 -0.0799  0.0722
 1991SOL    HW117609   3.278   2.755   9.052  0.0695  0.3235 -0.4273
 1991SOL    HW217610   3.201   2.873   9.036 -3.0354  0.5120 -1.7148
 1992SOL     OW17611   3.275   1.198   8.257  0.2888  0.1643 -0.3274
 1992SOL    HW117612   3.209   1.156   8.202  0.2878 -0.5567  0.2228
 1992SOL    HW217613   3.342   1.148   8.211 -1.8577 -1.3770 -1.7902
 1993SOL     OW17614   1.877   2.387   4.867 -0.5061 -0.1304  0.0495
 1993SOL    HW117615   1.935   2.462   4.856  0.1795 -1.4071 -4.6581
 1993SOL    HW217616   1.945   2.320   4.861  0.6851  1.0594  0.4631
 1994SOL     OW17617   3.832   2.266  13.520  0.1764  0.5805 -0.0160
 1994SOL    HW117618   3.794   2.179  13.526  0.5603  0.4285  0.1782
 1994SOL    HW217619   3.875   2.276  13.604 -1.0105 -1.2300  0.8103
 1995SOL     OW17620   1.346   1.098   3.958  0.0652  0.4638 -0.1746
 1995SOL    HW117621   1.317   1.184   3.986 -2.3894  0.3081 -2.1850
 1995SOL    HW217622   1.274   1.039   3.980 -0.8508  1.4936 -0.4517
 1996SOL     OW17623   3.558   3.792  11.268  0.1926 -0.2388 -0.0127
 1996SOL    HW117624   3.535   3.759  11.355 -0.9417 -1.0434 -0.6166
 1996SOL    HW217625   3.518   3.879  11.273 -0.1817 -0.4555  0.8871
 1997SOL     OW17626   1.990   1.556   3.461  0.5822  0.0349 -0.1164
 1997SOL    HW117627   1.915   1.558   3.402  0.5159  1.5396  0.0174
 1997SOL    HW217628   1.944   1.586   3.539 -0.9845 -1.7129 -0.3611
 1998SOL     OW17629   0.975   4.175  13.352  0.2160 -0.0321  0.3565
 1998SOL    HW117630   0.946   4.102  13.298 -0.1523  0.2533  0.1640
 1998SOL    HW217631   1.061   4.197  13.315 -0.6283  1.4350 -0.7670
 1999SOL     OW17632   2.306   1.493   3.903  0.1318  0.1469 -0.4469
 1999SOL    HW117633   2.241   1.534   3.959  1.2382 -0.6960  1.4489
 1999SOL    HW217634   2.248   1.427   3.864  0.8084 -1.1801  0.8011
 2000SOL     OW17635   1.223   3.111   7.206  0.2226 -0.4749  0.0779
 2000SOL    HW117636   1.313   3.081   7.200  0.1128 -0.5344 -1.1490
 2000SOL    HW217637   1.224   3.162   7.287 -0.5623 -0.6538  0.2067
 2001SOL     OW17638   2.502   1.568   1.991 -0.7756  0.2231  0.4178
 2001SOL    HW117639   2.470   1.544   2.077 -0.2816  0.3476  0.6383
 2001SOL    HW217640   2.597   1.567   2.007 -0.4982  1.6690 -1.0937
 2002SOL     OW17641   2.661   4.549   4.280  0.0872 -0.3282  0.1990
 2002SOL    HW117642   2.647   4.636   4.319  0.4562 -0.4258  0.5580
 2002SOL    HW217643   2.654   4.489   4.354 -0.4319 -2.2227 -1.3865
 2003SOL     OW17644   4.253   0.505   3.716  0.2177  0.0416  0.3733
 2003SOL    HW117645   4.338   0.462   3.710 -0.0351 -0.4150  0.0270
 2003SOL    HW217646   4.195   0.446   3.765  1.0477 -0.0159  1.2884
 2004SOL     OW17647   1.909   3.438   2.686 -0.1305  0.0365  0.1527
 2004SOL    HW117648   1.951   3.473   2.765  0.4522 -2.1509  0.7891
 2004SOL    HW217649   1.914   3.343   2.696  0.2749  0.0087 -0.3575
 2005SOL     OW17650   3.942   1.712   2.487  0.1747  0.3415 -0.0877
 2005SOL    HW117651   3.908   1.659   2.415  1.1081  1.7394 -1.5637
 2005SOL    HW217652   3.896   1.662   2.555  1.6311  0.0311  0.6661
 2006SOL     OW17653   1.243   1.482   7.690 -0.0618 -0.2551  0.7818
 2006SOL    HW117654   1.297   1.432   7.628 -0.5455  1.3293 -0.9463
 2006SOL    HW217655   1.276   1.458   7.776  0.2833 -0.3845  0.6150
 2007SOL     OW17656   2.143   4.091   2.446  0.2555 -0.4681 -0.1089
 2007SOL    HW117657   2.166   4.183   2.451  0.7913 -0.5937 -0.3147
 2007SOL    HW217658   2.136   4.068   2.353 -1.2065 -0.8749  0.0912
 2008SOL     OW17659   1.928   3.786   1.357  0.5701 -0.3462  0.4611
 2008SOL    HW117660   1.970   3.718   1.306 -1.8062  0.3832 -2.4338
 2008SOL    HW217661   1.992   3.857   1.348 -2.4509  2.2375 -0.5151
 2009SOL     OW17662   1.916   3.907  16.914  0.4058 -0.0736 -0.8155
 2009SOL    HW117663   1.929   3.996  16.881 -2.3926  0.2789 -0.9810
 2009SOL    HW217664   2.001   3.864  16.927  1.2638  1.5616 -1.0348
 2010SOL     OW17665   3.696   0.704   7.188 -0.3015 -0.0017  0.7404
 2010SOL    HW117666   3.690   0.789   7.143 -0.7588 -0.9970 -1.0639
 2010SOL    HW217667   3.786   0.676   7.170 -0.1638  1.5185 -0.9220
 2011SOL     OW17668   3.036   1.633   2.350  0.2463 -0.2999  0.1818
 2011SOL    HW117669   3.100   1.574   2.311  1.2379  2.6664 -2.6475
 2011SOL    HW217670   2.951   1.594   2.330  0.5751 -1.2126  0.5673
 2012SOL     OW17671   4.619   4.019  10.083 -0.0970 -1.0182  0.6280
 2012SOL    HW117672   4.528   3.995  10.101 -0.0946 -0.1657  1.8453
 2012SOL    HW217673   4.669   3.946  10.048  3.1037  0.5587  1.9654
 2013SOL     OW17674   2.402   1.642   2.692  0.3100  0.7740  0.0768
 2013SOL    HW117675   2.337   1.586   2.649  1.1032 -1.4876  1.8466
 2013SOL    HW217676   2.342   1.696   2.743 -0.3699 -2.0369  2.2239
 2014SOL     OW17677   4.618   1.355   5.124  0.2464 -0.4054 -0.0371
 2014SOL    HW117678   4.558   1.363   5.198  2.5332 -1.0201  1.8488
 2014SOL    HW217679   4.602   1.264   5.101 -6.4605  0.6780  0.0950
 2015SOL     OW17680   4.576   3.710   3.998 -0.5399 -0.1949 -0.4507
 2015SOL    HW117681   4.640   3.732   4.065  0.2233  0.6986 -1.4711
 2015SOL    HW217682   4.636   3.674   3.933  0.3978  1.1633 -0.3419
 2016SOL     OW17683   2.885   0.445   2.818  0.1852  0.2478  0.1796
 2016SOL    HW117684   2.931   0.503   2.756 -1.1039 -0.9285 -1.8784
 2016SOL    HW217685   2.966   0.399   2.840  1.1536  1.2020 -1.3722
 2017SOL     OW17686   2.707   4.656   5.191 -0.2784 -0.4312 -0.2373
 2017SOL    HW117687   2.743   4.718   5.254 -1.5008  0.5257 -0.4843
 2017SOL    HW217688   2.628   4.699   5.157 -0.2571 -1.5113 -1.6632
 2018SOL     OW17689   0.332   3.056   3.998 -0.1935 -0.8092  0.0389
 2018SOL    HW117690   0.397   3.015   4.055 -1.4500 -1.3635  1.0756
 2018SOL    HW217691   0.331   3.146   4.029  1.4851 -0.6016 -0.5316
 2019SOL     OW17692   3.666   0.094  16.525 -0.0895  0.0866 -0.1512
 2019SOL    HW117693   3.648   0.001  16.510 -2.4259  1.1113 -3.8212
 2019SOL    HW217694   3.703   0.116  16.440 -0.0169  2.0138  0.3871
 2020SOL     OW17695   4.126   2.072   5.789 -0.0384 -0.0170 -0.1058
 2020SOL    HW117696   4.098   1.981   5.786  0.8121 -0.3094  0.5631
 2020SOL    HW217697   4.125   2.099   5.698 -0.5120 -2.0819 -0.7127
 2021SOL     OW17698   4.633   2.141   7.101 -0.0190 -0.3583 -0.5818
 2021SOL    HW117699   4.709   2.100   7.142 -1.0321 -0.6314  1.0614
 2021SOL    HW217700   4.673   2.215   7.056 -1.0435 -0.2474 -1.2934
 2022SOL     OW17701   2.077   0.653   0.362 -0.3044 -0.5374 -0.3867
 2022SOL    HW117702   2.108   0.709   0.292  1.0702 -1.4657 -0.5238
 2022SOL    HW217703   2.063   0.715   0.433 -0.6240  0.2253 -1.1227
 2023SOL     OW17704   2.789   1.907   8.904  0.3571 -0.1849  0.3874
 2023SOL    HW117705   2.793   1.998   8.931  1.4452  0.1912 -1.0239
 2023SOL    HW217706   2.855   1.863   8.959 -1.0249 -0.6748  1.6533
 2024SOL     OW17707   1.272   4.691  13.313 -0.0147 -0.1459  0.2678
 2024SOL    HW117708   1.288   4.679  13.220 -2.4275 -2.2836  0.1124
 2024SOL    HW217709   1.331   0.028  13.332  1.1600 -0.4732 -2.1588
 2025SOL     OW17710   2.346   4.145   8.855  0.1410  0.3894  0.8627
 2025SOL    HW117711   2.343   4.191   8.939  0.8654 -2.9188  2.7074
 2025SOL    HW217712   2.331   4.215   8.792 -1.2260 -0.7115 -0.0430
 2026SOL     OW17713   2.934   2.149   7.875 -0.5524  0.3573  0.1919
 2026SOL    HW117714   2.963   2.062   7.849 -0.8095  0.3548 -0.0863
 2026SOL    HW217715   3.019   2.178   7.906 -0.5882  0.2190  0.4234
 2027SOL     OW17716   2.719   3.970   3.659  0.1804 -0.3008  0.1073
 2027SOL    HW117717   2.727   3.893   3.716 -0.1668 -0.1942  0.2981
 2027SOL    HW217718   2.701   4.040   3.722 -0.3018 -0.6799  0.3873
 2028SOL     OW17719   4.161   3.549   5.022 -0.1073  0.0649 -0.4349
 2028SOL    HW117720   4.178   3.458   5.045  0.7164  0.9973  2.6694
 2028SOL    HW217721   4.068   3.548   5.002  0.2761  0.6015 -2.2646
 2029SOL     OW17722   3.689   2.838  10.757 -0.1224 -0.5182  0.4334
 2029SOL    HW117723   3.690   2.744  10.776  1.1143 -0.7021 -0.4847
 2029SOL    HW217724   3.752   2.872  10.821 -0.4755  0.8682  0.0284
 2030SOL     OW17725   2.411   2.307   3.670 -0.0018 -0.2008  0.2874
 2030SOL    HW117726   2.325   2.318   3.710  0.1687 -0.2463  0.6610
 2030SOL    HW217727   2.464   2.382   3.697 -1.1919 -0.5871  3.6213
 2031SOL     OW17728   0.495   0.646   3.324 -0.1099  0.7948 -0.2840
 2031SOL    HW117729   0.445   0.682   3.398  0.7978 -0.9170  1.1815
 2031SOL    HW217730   0.455   0.561   3.305 -0.4323  0.8391  0.1812
 2032SOL     OW17731   1.143   2.267  13.809 -0.1944 -0.4646 -0.1881
 2032SOL    HW117732   1.142   2.327  13.735 -0.7434 -1.1483 -0.7372
 2032SOL    HW217733   1.159   2.186  13.760  1.7232 -0.8613  1.0668
 2033SOL     OW17734   4.566   0.977   4.851  0.2028 -0.6189 -0.4089
 2033SOL    HW117735   4.609   0.895   4.824  2.0659  0.1624  0.1522
 2033SOL    HW217736   4.485   0.971   4.801 -0.0145 -2.5400  0.1672
 2034SOL     OW17737   1.221   1.132   6.759 -0.3774 -0.1148  0.0995
 2034SOL    HW117738   1.187   1.169   6.677 -1.5018 -0.9592  0.1694
 2034SOL    HW217739   1.153   1.141   6.826 -0.6907 -0.4172 -0.1765
 2035SOL     OW17740   4.062   0.761   8.019  0.0618 -0.0879  0.1392
 2035SOL    HW117741   4.043   0.709   7.941 -0.9791  0.3251  0.1063
 2035SOL    HW217742   4.049   0.695   8.087 -0.8947 -3.3699 -3.2299
 2036SOL     OW17743   3.455   3.025   2.321 -0.7542  0.2485 -0.0909
 2036SOL    HW117744   3.458   3.008   2.227  0.0502  0.9040 -0.1940
 2036SOL    HW217745   3.545   3.051   2.341 -0.3272 -0.8920 -0.5534
 2037SOL     OW17746   4.415   2.305   2.480  0.2640 -0.4127 -0.3370
 2037SOL    HW117747   4.500   2.267   2.458  1.5553  1.5235  1.3085
 2037SOL    HW217748   4.394   2.243   2.550  1.0623 -0.1356  0.1513
 2038SOL     OW17749   0.708   1.229   4.524 -0.1850 -0.2516  0.7454
 2038SOL    HW117750   0.632   1.287   4.521 -0.3120 -0.5026 -0.9331
 2038SOL    HW217751   0.781   1.291   4.519 -1.0820  0.8832  1.8076
 2039SOL     OW17752   1.038   2.738  10.112  0.5900 -0.1325  0.0051
 2039SOL    HW117753   1.052   2.800  10.183 -0.5649 -0.0971  0.1963
 2039SOL    HW217754   1.006   2.798  10.045 -0.1203 -0.1252  0.3583
 2040SOL     OW17755   3.507   1.045   4.325 -0.0962  0.1776 -0.5170
 2040SOL    HW117756   3.464   1.091   4.253 -0.9400  2.3967  1.3677
 2040SOL    HW217757   3.568   1.117   4.342  0.1130  0.0519 -0.7517
 2041SOL     OW17758   3.285   1.182  11.251 -0.1727  0.0750  0.4501
 2041SOL    HW117759   3.308   1.170  11.159 -1.2654  1.4986 -0.0087
 2041SOL    HW217760   3.365   1.155  11.296 -2.5492  0.2310  4.7656
 2042SOL     OW17761   0.570   3.184   7.061  0.8809 -0.5773  0.1738
 2042SOL    HW117762   0.511   3.109   7.072  0.6879 -0.4798 -0.2061
 2042SOL    HW217763   0.620   3.172   7.142  0.7392  2.4950  0.6884
 2043SOL     OW17764   3.787   4.426   9.496  0.3226 -0.5284 -0.4178
 2043SOL    HW117765   3.874   4.465   9.508 -0.6427  1.6801 -0.6156
 2043SOL    HW217766   3.780   4.374   9.576 -0.4940  0.5867  0.2350
 2044SOL     OW17767   0.791   0.292   6.407  0.0881 -0.1694  0.0945
 2044SOL    HW117768   0.765   0.284   6.499 -2.0607  0.1448 -0.4771
 2044SOL    HW217769   0.706   0.283   6.363  0.6518 -0.7617 -0.8540
 2045SOL     OW17770   2.251   1.802   5.938  0.4247 -0.1305 -0.2815
 2045SOL    HW117771   2.178   1.862   5.922 -0.3933 -1.7479 -2.6906
 2045SOL    HW217772   2.318   1.865   5.967 -1.3697  0.3488  2.8202
 2046SOL     OW17773   4.604   3.936  11.289 -0.6120 -0.6216  0.0193
 2046SOL    HW117774   4.679   3.880  11.271  0.2033  0.4413  0.0751
 2046SOL    HW217775   4.534   3.896  11.237 -2.4826  1.5525  0.8546
 2047SOL     OW17776   4.370   0.655   1.073 -0.3256 -0.1639  0.0776
 2047SOL    HW117777   4.371   0.640   1.168  0.8773 -1.6188 -0.1579
 2047SOL    HW217778   4.275   0.668   1.063  0.0107  2.7950  0.7413
 2048SOL     OW17779   0.253   1.361   2.859  0.3838 -0.3681 -0.1901
 2048SOL    HW117780   0.177   1.368   2.917  0.7025  1.4960 -0.0164
 2048SOL    HW217781   0.293   1.445   2.881  1.3413 -1.0575  0.7001
 2049SOL     OW17782   2.864   0.943   5.227 -0.3609 -0.9368  0.0486
 2049SOL    HW117783   2.896   0.949   5.317  1.9818  0.4635 -0.8833
 2049SOL    HW217784   2.893   1.027   5.191 -2.6418 -0.6896 -1.2518
 2050SOL     OW17785   0.312   2.342   4.189  0.6865 -0.3800 -0.0478
 2050SOL    HW117786   0.383   2.359   4.128  0.4574 -1.2482 -0.5610
 2050SOL    HW217787   0.240   2.334   4.126  1.7881 -2.8278 -1.0116
 2051SOL     OW17788   2.287   3.877   9.130 -0.2262  0.2311 -0.5059
 2051SOL    HW117789   2.283   3.845   9.220  0.0664  2.4534  0.2861
 2051SOL    HW217790   2.203   3.919   9.117 -0.5677  0.1328  1.4441
 2052SOL     OW17791   2.812   1.947   8.630  0.2681  0.1374 -0.4705
 2052SOL    HW117792   2.721   1.964   8.604  0.2078 -0.3415 -0.5753
 2052SOL    HW217793   2.816   1.918   8.721 -1.9126  0.6862 -0.1869
 2053SOL     OW17794   0.152   3.963   6.742  0.2952  1.1277 -0.0866
 2053SOL    HW117795   0.155   4.057   6.726  1.8750  1.3936  1.8251
 2053SOL    HW217796   0.186   3.953   6.830  0.1618  2.8997  0.1623
 2054SOL     OW17797   4.362   4.035   1.995  0.4764 -0.1785 -0.5091
 2054SOL    HW117798   4.455   4.017   2.007  1.0903  2.8582 -0.7256
 2054SOL    HW217799   4.339   4.057   2.086  1.6719  2.4420 -0.8260
 2055SOL     OW17800   4.247   1.417  11.501 -0.4313  0.3625 -0.2752
 2055SOL    HW117801   4.264   1.325  11.516  2.6527  0.8520 -0.8122
 2055SOL    HW217802   4.186   1.410  11.427  0.4423 -1.7429 -0.7696
 2056SOL     OW17803   0.337   2.007  16.226 -0.2888  0.1872 -0.0179
 2056SOL    HW117804   0.331   2.096  16.263 -0.2175 -0.7900  2.3332
 2056SOL    HW217805   0.276   2.008  16.153 -1.4169  0.8213  0.9277
 2057SOL     OW17806   3.012   3.638   2.264 -0.0367  0.2451 -0.0450
 2057SOL    HW117807   2.990   3.730   2.249 -0.9952 -0.1252 -0.9484
 2057SOL    HW217808   3.028   3.638   2.358  0.3946 -1.2803 -0.1159
 2058SOL     OW17809   4.206   0.077   9.279  0.3937  0.0206  0.8823
 2058SOL    HW117810   4.170   4.733   9.318  1.9992 -0.6811  0.9127
 2058SOL    HW217811   4.278   0.033   9.234 -0.3427 -0.7749  0.4723
 2059SOL     OW17812   3.735   2.973   2.145  0.4403  0.1550  0.3554
 2059SOL    HW117813   3.747   3.022   2.064  1.0454  1.0658  1.0066
 2059SOL    HW217814   3.806   3.008   2.199  0.2197  4.0817 -1.8868
 2060SOL     OW17815   3.065   2.347   9.487 -0.2912  0.3889 -0.3730
 2060SOL    HW117816   3.095   2.438   9.489 -0.4092  0.4388 -0.8022
 2060SOL    HW217817   3.151   2.307   9.496 -1.7593 -1.8874  3.5363
 2061SOL     OW17818   2.165   4.065   3.236  0.4650 -0.1888 -0.0634
 2061SOL    HW117819   2.232   4.042   3.171  1.3974  0.4221  0.6610
 2061SOL    HW217820   2.082   4.059   3.189  1.0840  0.3840 -1.2441
 2062SOL     OW17821   3.084   0.641   2.230  0.6310 -0.3725 -0.1162
 2062SOL    HW117822   3.136   0.720   2.219 -0.9482  0.6324 -0.3169
 2062SOL    HW217823   3.132   0.597   2.301  1.0977 -4.9939 -3.2518
 2063SOL     OW17824   0.381   2.951   6.822 -0.4945  0.0935  0.3128
 2063SOL    HW117825   0.373   2.939   6.727  2.6444 -1.2815  0.2217
 2063SOL    HW217826   0.300   3.001   6.832 -0.7859 -0.1883 -0.6421
 2064SOL     OW17827   2.959   0.232   4.648  0.1273  0.0379  0.2618
 2064SOL    HW117828   3.049   0.215   4.676  0.1120  1.6616  1.3286
 2064SOL    HW217829   2.976   0.279   4.566  2.5864 -0.5393  0.4579
 2065SOL     OW17830   0.916   4.081   8.822 -0.6456  0.0268  0.2593
 2065SOL    HW117831   0.887   4.172   8.817 -2.0054 -0.3942  0.4633
 2065SOL    HW217832   0.996   4.094   8.874 -0.7630 -0.8703  0.6574
 2066SOL     OW17833   0.927   4.162   7.677 -0.4271  0.1212 -0.3811
 2066SOL    HW117834   0.977   4.097   7.628 -0.9400 -1.2078  0.8767
 2066SOL    HW217835   0.921   4.235   7.614  1.2391  0.8603  0.3201
 2067SOL     OW17836   0.912   0.756   7.327  0.0234  0.0882 -0.1460
 2067SOL    HW117837   0.840   0.784   7.383 -1.6187 -1.7104 -1.3441
 2067SOL    HW217838   0.989   0.755   7.384  0.1724 -0.3510 -0.3502
 2068SOL     OW17839   4.345   2.480  10.294 -0.1921 -0.2363 -0.6096
 2068SOL    HW117840   4.294   2.531  10.231  0.9215  1.9219  0.2627
 2068SOL    HW217841   4.315   2.391  10.274 -0.5402 -0.1449 -0.4978
 2069SOL     OW17842   1.443   0.897   4.802  0.1164 -0.1394 -0.3322
 2069SOL    HW117843   1.380   0.886   4.732 -0.8776 -2.5103  0.9524
 2069SOL    HW217844   1.494   0.975   4.779 -0.4658  0.6392  0.9946
 2070SOL     OW17845   0.983   0.985   9.064  0.0559 -0.0042  0.0541
 2070SOL    HW117846   1.042   0.950   8.998  1.5227  0.5902  1.0556
 2070SOL    HW217847   0.918   1.031   9.010  0.1106  2.3354  1.9799
 2071SOL     OW17848   3.300   1.584  10.879 -0.3286  0.3964  0.0345
 2071SOL    HW117849   3.228   1.562  10.937  0.3013  0.6248  0.9039
 2071SOL    HW217850   3.360   1.631  10.938 -0.4257  0.7586 -0.1560
 2072SOL     OW17851   3.210   2.803   3.401  0.0721 -0.5247  0.1635
 2072SOL    HW117852   3.228   2.806   3.495 -0.2528  0.8962  0.1681
 2072SOL    HW217853   3.296   2.771   3.373  0.0302  0.7289 -1.3551
 2073SOL     OW17854   4.095   0.666  17.213 -0.4108  0.1774  0.2333
 2073SOL    HW117855   4.001   0.657  17.194  0.5610 -1.5333 -3.7018
 2073SOL    HW217856   4.097   0.737  17.277 -1.6566 -0.5821  1.1046
 2074SOL     OW17857   4.265   2.491  14.789 -0.3514  0.5865 -0.0459
 2074SOL    HW117858   4.297   2.407  14.821  0.7157  0.7463 -0.6860
 2074SOL    HW217859   4.336   2.524  14.734 -0.6317  0.4969 -0.4583
 2075SOL     OW17860   2.249   1.734   4.672 -0.0825  0.0251  0.3132
 2075SOL    HW117861   2.193   1.790   4.724  0.2592 -0.2934  1.0385
 2075SOL    HW217862   2.220   1.647   4.700 -0.8415  0.4212  0.7605
 2076SOL     OW17863   4.348   4.216  11.573 -0.3531  0.4461  0.2019
 2076SOL    HW117864   4.336   4.128  11.609  2.5205  1.4310  3.5741
 2076SOL    HW217865   4.426   4.210  11.517 -0.0684 -1.8982  0.8295
 2077SOL     OW17866   2.549   3.771  12.069  0.0709 -0.7416 -0.6440
 2077SOL    HW117867   2.534   3.710  12.141 -3.1539  0.1246 -0.6056
 2077SOL    HW217868   2.596   3.839  12.118 -2.0644  0.4857 -0.3169
 2078SOL     OW17869   1.316   3.387   7.751  0.6157  0.2193  0.0914
 2078SOL    HW117870   1.389   3.327   7.767  2.7443  2.6439 -0.4361
 2078SOL    HW217871   1.243   3.328   7.732  0.2888  0.3089  1.0987
 2079SOL     OW17872   3.656   3.478   3.992  0.0921  0.5147 -0.1747
 2079SOL    HW117873   3.611   3.523   4.063 -2.1448 -2.0971  0.0729
 2079SOL    HW217874   3.704   3.555   3.961 -0.6852  1.6673  1.4686
 2080SOL     OW17875   2.421   0.061  16.105  0.1005  0.0513  0.3480
 2080SOL    HW117876   2.340   0.012  16.101  0.7173 -1.0077  0.8913
 2080SOL    HW217877   2.494   4.735  16.096 -0.4104 -0.4861 -0.0798
 2081SOL     OW17878   4.287   3.426  16.879 -0.0440 -0.4077  0.1348
 2081SOL    HW117879   4.294   3.337  16.913  0.3762  0.1926  1.6509
 2081SOL    HW217880   4.207   3.434  16.828  0.7302  1.4827 -0.8099
 2082SOL     OW17881   1.542   2.181   5.352  0.0429  0.5086 -0.2409
 2082SOL    HW117882   1.510   2.271   5.347  1.8565  1.2179  0.7818
 2082SOL    HW217883   1.497   2.132   5.421  1.3483  0.9023  0.8821
 2083SOL     OW17884   3.479   3.411   2.446 -0.2072 -0.2280 -0.0618
 2083SOL    HW117885   3.439   3.326   2.460  1.1588 -0.9878 -0.7702
 2083SOL    HW217886   3.444   3.438   2.362 -1.1344 -3.2484 -0.6166
 2084SOL     OW17887   0.638   3.500   4.208 -0.7093 -0.3570 -0.3390
 2084SOL    HW117888   0.732   3.518   4.211 -0.8854  0.9343 -2.5203
 2084SOL    HW217889   0.637   3.421   4.154 -0.0050 -1.7907  1.7306
 2085SOL     OW17890   3.290   4.504   6.750  0.2099 -0.0060  0.0684
 2085SOL    HW117891   3.270   4.593   6.721  0.5904 -0.0178 -0.2265
 2085SOL    HW217892   3.360   4.528   6.811 -0.1369 -2.3362  1.3895
 2086SOL     OW17893   3.594   2.001   5.366  0.3919 -0.2794  0.0816
 2086SOL    HW117894   3.626   2.065   5.429 -1.8959  2.5698 -1.6496
 2086SOL    HW217895   3.509   2.042   5.353  1.5506  2.5279  1.4615
 2087SOL     OW17896   4.288   4.178   3.786  0.1327 -0.6956 -0.4309
 2087SOL    HW117897   4.257   4.191   3.697  0.6565  0.4958 -0.4377
 2087SOL    HW217898   4.199   4.153   3.812  0.8375 -1.2189  1.4776
 2088SOL     OW17899   2.443   2.485   9.120 -0.1838  0.5934  0.8555
 2088SOL    HW117900   2.531   2.475   9.157 -0.0591  0.2560  0.4727
 2088SOL    HW217901   2.407   2.398   9.137 -0.5856 -0.1100 -3.6770
 2089SOL     OW17902   0.146   2.259   5.658  0.0509  0.2675  0.2026
 2089SOL    HW117903   0.241   2.263   5.646 -0.0384 -0.6881 -0.7822
 2089SOL    HW217904   0.141   2.261   5.753 -2.2337  0.0978  0.0664
 2090SOL     OW17905   3.897   1.634   5.798 -0.3787 -0.0396 -0.2654
 2090SOL    HW117906   3.901   1.544   5.765  1.4621 -0.2957  0.6711
 2090SOL    HW217907   3.951   1.630   5.876  0.3769 -0.5142 -0.8157
 2091SOL     OW17908   2.157   3.640   7.357  0.0729  0.4714  0.6492
 2091SOL    HW117909   2.137   3.635   7.263  0.8895 -0.3878  0.5205
 2091SOL    HW217910   2.124   3.730   7.367 -2.1963 -0.5008  1.8534
 2092SOL     OW17911   1.287   2.346   8.057 -0.3291 -0.2166 -0.1015
 2092SOL    HW117912   1.366   2.296   8.081  0.7807  0.9896 -1.2397
 2092SOL    HW217913   1.319   2.429   8.092 -0.8945  0.2710 -0.7466
 2093SOL     OW17914   4.067   3.680  14.076  0.5018  0.2399 -0.3820
 2093SOL    HW117915   4.091   3.591  14.053  1.8859  0.7347 -0.8522
 2093SOL    HW217916   4.097   3.687  14.167  0.0387 -0.4180 -0.1759
 2094SOL     OW17917   3.679   2.730   4.609  0.0694 -0.3240 -0.4462
 2094SOL    HW117918   3.631   2.795   4.558 -0.0111  0.2297  0.3295
 2094SOL    HW217919   3.639   2.646   4.588  0.4859 -0.4243 -0.8480
 2095SOL     OW17920   2.462   3.216  13.960  0.4443 -0.2814 -0.3546
 2095SOL    HW117921   2.392   3.247  14.017  0.4147 -1.4504  0.2375
 2095SOL    HW217922   2.526   3.192  14.027  0.4193 -0.2871 -0.3329
 2096SOL     OW17923   0.155   0.216   7.173 -1.4170 -0.1339  0.1511
 2096SOL    HW117924   0.208   0.248   7.246 -1.3466 -1.1052  0.5371
 2096SOL    HW217925   0.093   0.168   7.229  0.3827  0.4468  2.6520
 2097SOL     OW17926   2.693   1.213   1.929  0.2570 -0.1484 -0.0184
 2097SOL    HW117927   2.717   1.288   1.984 -0.6816  0.9307 -1.0937
 2097SOL    HW217928   2.749   1.148   1.971  0.7403  1.2553  1.5232
 2098SOL     OW17929   0.070   2.751  12.389  0.0479 -0.2831 -0.0589
 2098SOL    HW117930   0.051   2.818  12.455 -0.5443  0.3070 -0.8386
 2098SOL    HW217931   4.723   2.726  12.347 -2.1307  1.5991  3.0713
 2099SOL     OW17932   2.832   4.379   4.952  0.2116 -0.4236 -0.1877
 2099SOL    HW117933   2.746   4.344   4.976  1.5884 -3.2966  0.5442
 2099SOL    HW217934   2.809   4.446   4.888  3.1804  0.2260 -0.5537
 2100SOL     OW17935   0.862   3.807   8.421 -0.0346 -0.7583 -0.4245
 2100SOL    HW117936   0.835   3.895   8.449  0.4941 -1.3390  1.9635
 2100SOL    HW217937   0.828   3.808   8.332 -0.8443  4.1171 -0.0558
 2101SOL     OW17938   3.339   4.703   7.067 -0.3466  0.3037  0.1100
 2101SOL    HW117939   3.265   0.016   7.105 -0.9682  1.9370 -3.1846
 2101SOL    HW217940   3.332   4.626   7.124  0.0106 -0.6127 -1.0916
 2102SOL     OW17941   2.540   1.705   6.158 -0.1731 -0.0247  0.9672
 2102SOL    HW117942   2.628   1.671   6.175  0.0267  0.1454  0.2440
 2102SOL    HW217943   2.505   1.629   6.112  1.2028  0.5246 -0.9776
 2103SOL     OW17944   3.390   2.151   7.171  0.3435  0.5762  0.0810
 2103SOL    HW117945   3.464   2.123   7.117 -0.9644 -2.5360 -0.0607
 2103SOL    HW217946   3.402   2.245   7.187  1.9500  0.3902 -0.0621
 2104SOL     OW17947   0.227   4.132   7.496 -0.1931 -0.1535 -0.6393
 2104SOL    HW117948   0.141   4.092   7.509  0.0431 -0.5497 -0.2728
 2104SOL    HW217949   0.274   4.115   7.578 -0.9770  0.8451  0.0208
 2105SOL     OW17950   3.796   0.146  14.473  0.0355  0.5119  0.0877
 2105SOL    HW117951   3.720   0.177  14.425  1.1730  0.5088 -1.7152
 2105SOL    HW217952   3.820   0.066  14.425  0.0546  0.1133  0.7562
 2106SOL     OW17953   4.294   1.491   5.122 -0.5360 -0.0658  0.0443
 2106SOL    HW117954   4.234   1.503   5.049 -0.2652  0.2461 -0.1236
 2106SOL    HW217955   4.330   1.579   5.131  0.1001 -0.7396  4.0265
 2107SOL     OW17956   3.571   0.483   6.529 -0.1552  0.2286 -0.1673
 2107SOL    HW117957   3.632   0.445   6.466  0.6674  2.0015 -0.4357
 2107SOL    HW217958   3.530   0.405   6.565 -0.6954 -0.0597 -1.3756
 2108SOL     OW17959   1.343   2.874   4.260 -0.2699 -0.4607 -0.1505
 2108SOL    HW117960   1.372   2.957   4.222  0.7690 -0.4746  0.6155
 2108SOL    HW217961   1.408   2.819   4.217 -0.7331 -0.5942 -0.6883
 2109SOL     OW17962   2.047   2.436  17.502  0.2280 -0.2167  0.2199
 2109SOL    HW117963   1.956   2.465  17.512  1.2037  2.2374  2.1306
 2109SOL    HW217964   2.089   2.488  17.571 -2.0725 -1.7607  2.7395
 2110SOL     OW17965   2.394   0.783   5.380  0.0974 -0.3704  0.4683
 2110SOL    HW117966   2.484   0.776   5.411  0.2877  1.9326  0.4193
 2110SOL    HW217967   2.364   0.707   5.430  0.0243 -1.1188 -0.7170
 2111SOL     OW17968   3.977   4.629   8.225 -0.2843  0.5908 -0.2256
 2111SOL    HW117969   3.952   4.676   8.146  0.5423 -0.4692 -1.1009
 2111SOL    HW217970   4.021   4.551   8.193 -0.2320  1.4415 -2.2130
 2112SOL     OW17971   1.258   1.805   1.920  0.5496  0.1206 -0.0241
 2112SOL    HW117972   1.220   1.719   1.938  0.4551  0.3598  0.9374
 2112SOL    HW217973   1.342   1.772   1.889  0.5224  0.2963 -0.2815
 2113SOL     OW17974   4.667   3.503   7.382 -0.2224  0.5910  0.1496
 2113SOL    HW117975   4.720   3.427   7.363 -0.1007  0.1464  2.2685
 2113SOL    HW217976   4.633   3.480   7.468  0.5065  1.0034  0.5434
 2114SOL     OW17977   3.692   3.154  10.386  0.6912 -0.4643 -0.0827
 2114SOL    HW117978   3.620   3.093  10.371 -1.0786  2.1301 -2.2157
 2114SOL    HW217979   3.754   3.115  10.324  2.2878 -1.1092  1.9079
 2115SOL     OW17980   1.509   0.366   0.495 -0.1092 -0.0491  0.3622
 2115SOL    HW117981   1.511   0.342   0.588 -0.5366  1.9438  0.8824
 2115SOL    HW217982   1.500   0.279   0.454 -2.4865 -1.3119  3.5157
 2116SOL     OW17983   0.435   0.476   7.413  0.4424 -0.2653  0.0207
 2116SOL    HW117984   0.528   0.467   7.396  1.0074  1.0157  2.3495
 2116SOL    HW217985   0.424   0.526   7.494 -2.1509  0.3771 -0.7368
 2117SOL     OW17986   4.281   4.534   9.381  0.6892 -0.2295 -0.1313
 2117SOL    HW117987   4.350   4.578   9.430  0.3748  1.3016 -1.0498
 2117SOL    HW217988   4.326   4.482   9.314 -1.0867  0.3288 -1.7806
 2118SOL     OW17989   1.573   2.718   1.071  0.2641 -0.3487  0.0676
 2118SOL    HW117990   1.634   2.683   1.137  1.9597  3.6463  0.6238
 2118SOL    HW217991   1.623   2.784   1.023 -1.3678  0.5986 -0.2928
 2119SOL     OW17992   3.564   0.162   9.483 -0.0982  0.2972 -0.3821
 2119SOL    HW117993   3.605   0.075   9.481  2.0321  1.2948  0.0852
 2119SOL    HW217994   3.578   0.196   9.572 -0.7144  1.4535 -0.7399
 2120SOL     OW17995   2.080   1.343   5.955  0.2810 -0.2376 -1.2992
 2120SOL    HW117996   2.062   1.379   6.042  0.9087 -0.5304 -1.0477
 2120SOL    HW217997   2.110   1.423   5.912  1.2355 -0.3133 -0.7615
 2121SOL     OW17998   4.579   0.727  14.457  0.3243 -0.6225  0.4147
 2121SOL    HW117999   4.497   0.742  14.504  0.4386 -2.1160  1.1071
 2121SOL    HW218000   4.631   0.802  14.487 -1.5486  1.4751 -1.5877
 2122SOL     OW18001   1.236   0.840   5.812  0.2023 -0.2691 -0.3269
 2122SOL    HW118002   1.283   0.757   5.819  0.5339  0.0305  1.0015
 2122SOL    HW218003   1.231   0.844   5.717  1.5549  3.6985 -0.2427
 2123SOL     OW18004   2.494   4.237  13.598 -0.5118  0.3641  0.5381
 2123SOL    HW118005   2.527   4.163  13.547  2.8455  0.6185  2.4021
 2123SOL    HW218006   2.410   4.238  13.551  0.6891 -1.6775 -1.6111
 2124SOL     OW18007   4.461   4.557   1.833  0.4893 -0.4580  0.1876
 2124SOL    HW118008   4.374   4.594   1.849  0.4530 -1.2573  1.8253
 2124SOL    HW218009   4.439   4.496   1.762  1.2800 -1.2222  0.5972
 2125SOL     OW18010   0.141   4.588   3.229  0.2543 -0.1376  0.0754
 2125SOL    HW118011   0.129   4.678   3.196 -0.0266 -0.4970 -0.8149
 2125SOL    HW218012   0.139   4.541   3.146 -0.4286 -2.0059  1.1621
 2126SOL     OW18013   3.534   2.049   0.785  0.4272  0.7289 -0.3688
 2126SOL    HW118014   3.508   2.118   0.724  2.0725  1.9407  0.2933
 2126SOL    HW218015   3.477   1.975   0.763  1.3946 -0.1028 -0.0730
 2127SOL     OW18016   3.310   1.796   2.922  0.3154 -0.5622 -0.1853
 2127SOL    HW118017   3.266   1.881   2.928  1.4907  0.0273  0.1815
 2127SOL    HW218018   3.397   1.821   2.890  0.2056  0.2485  0.1392
 2128SOL     OW18019   0.453   0.265   4.788 -0.1499 -0.3930 -0.1614
 2128SOL    HW118020   0.508   0.323   4.735 -1.2686  0.7757 -0.0422
 2128SOL    HW218021   0.441   0.189   4.732 -2.4404  0.0714 -0.3257
 2129SOL     OW18022   0.776   3.763   4.866 -0.2310  1.3086  0.0214
 2129SOL    HW118023   0.810   3.674   4.861 -1.9177  0.5928  1.3171
 2129SOL    HW218024   0.806   3.798   4.951  2.3011 -2.9635  0.8653
 2130SOL     OW18025   1.860   0.042   8.866 -0.4752  0.4556  0.8213
 2130SOL    HW118026   1.862   4.705   8.928 -0.3747  0.6248  1.0169
 2130SOL    HW218027   1.863   0.119   8.923 -2.2522  0.7413  0.5451
 2131SOL     OW18028   2.432   3.886  15.871  0.4650 -0.7798 -0.0783
 2131SOL    HW118029   2.469   3.908  15.957  0.0258 -0.1871 -0.0426
 2131SOL    HW218030   2.364   3.825  15.898  0.0122 -0.0214  0.5117
 2132SOL     OW18031   0.133   2.035   5.315 -0.2933  0.2596  0.1609
 2132SOL    HW118032   0.088   1.989   5.386  0.5411  1.8034  1.6914
 2132SOL    HW218033   0.212   2.054   5.365 -0.5725  1.1860  0.2577
 2133SOL     OW18034   0.532   0.768   5.379 -0.0302  0.3742 -0.0389
 2133SOL    HW118035   0.453   0.813   5.408  0.2740  3.2390 -3.5371
 2133SOL    HW218036   0.599   0.808   5.434 -0.1988  0.3775  0.1643
 2134SOL     OW18037   3.732   3.374   1.361 -0.2618  0.1653  0.0132
 2134SOL    HW118038   3.685   3.405   1.439  1.4475 -1.4669  1.7056
 2134SOL    HW218039   3.817   3.353   1.401 -1.1451 -0.0200  1.7967
 2135SOL     OW18040   1.306   0.238   1.629 -0.0450 -0.0460  0.4704
 2135SOL    HW118041   1.291   0.312   1.687 -3.3162  1.2679 -2.0983
 2135SOL    HW218042   1.384   0.268   1.582  1.4471 -2.3582  1.4436
 2136SOL     OW18043   2.296   1.900  10.995  0.1532  0.2546  0.0633
 2136SOL    HW118044   2.284   1.904  10.900  0.4248 -0.0339  0.0154
 2136SOL    HW218045   2.205   1.891  11.023  0.4766  0.9865  1.3124
 2137SOL     OW18046   1.404   1.545   3.318 -0.2764 -0.4274 -0.0024
 2137SOL    HW118047   1.458   1.510   3.389  0.7427 -0.4708 -0.7932
 2137SOL    HW218048   1.361   1.464   3.289 -1.1875  0.2904 -0.6444
 2138SOL     OW18049   1.184   4.219  13.187  0.1917  0.0088 -0.3455
 2138SOL    HW118050   1.266   4.248  13.227 -0.3323  0.4309  0.4111
 2138SOL    HW218051   1.145   4.293  13.140 -0.2972 -0.3435 -0.4921
 2139SOL     OW18052   0.940   0.057   5.398  0.4921 -0.4056  0.5994
 2139SOL    HW118053   1.007   0.102   5.347 -0.8913 -1.2354 -1.9741
 2139SOL    HW218054   0.985   4.724   5.446 -0.8799 -0.4951  1.7256
 2140SOL     OW18055   3.408   3.462   0.320  0.8901  0.7850  0.4810
 2140SOL    HW118056   3.360   3.427   0.245  0.9747  0.0872  0.7587
 2140SOL    HW218057   3.498   3.434   0.300  0.5730 -2.1245  3.2164
 2141SOL     OW18058   1.639   0.768   3.061  0.0586 -0.0764 -0.1829
 2141SOL    HW118059   1.624   0.846   3.007  2.9037  0.4886 -0.1396
 2141SOL    HW218060   1.710   0.804   3.114  2.2451 -2.6446 -1.3915
 2142SOL     OW18061   2.407   0.800  15.885 -0.6486  0.0713  0.9609
 2142SOL    HW118062   2.342   0.768  15.822 -0.6373  0.9005  0.5391
 2142SOL    HW218063   2.369   0.794  15.972 -0.9871 -0.4687  0.7790
 2143SOL     OW18064   4.730   3.396  13.753 -0.2231  0.0729 -0.1491
 2143SOL    HW118065   4.650   3.350  13.778  1.0009 -1.1626  1.3986
 2143SOL    HW218066   0.043   3.324  13.713  1.8906  2.0621 -1.1423
 2144SOL     OW18067   2.088   1.945   3.688 -0.0648  0.0778  0.3700
 2144SOL    HW118068   2.094   2.040   3.699  1.9345 -0.0841  0.5327
 2144SOL    HW218069   2.032   1.932   3.611  0.2829 -1.1102  0.3224
 2145SOL     OW18070   3.013   3.384  15.154 -0.4640  0.4003 -0.0658
 2145SOL    HW118071   2.954   3.458  15.167 -0.4678 -0.0989  2.8217
 2145SOL    HW218072   2.952   3.319  15.119 -1.8871  2.1900 -0.9244
 2146SOL     OW18073   1.473   3.216   8.887 -0.1210  0.6006  0.7291
 2146SOL    HW118074   1.447   3.147   8.947  0.3476 -0.0590  0.1854
 2146SOL    HW218075   1.557   3.249   8.920  2.0059  0.1611 -4.1194
 2147SOL     OW18076   3.289   3.959   7.926 -0.2117  0.0662  0.2880
 2147SOL    HW118077   3.237   3.927   8.000 -0.3943  0.2634  0.2455
 2147SOL    HW218078   3.373   3.975   7.968  1.2312 -1.4230 -2.0073
 2148SOL     OW18079   0.876   1.561  13.224  0.1404 -0.4523 -0.2121
 2148SOL    HW118080   0.872   1.535  13.132  0.1422  1.8943 -0.8825
 2148SOL    HW218081   0.859   1.478  13.269 -0.1920 -1.2010 -1.7173
 2149SOL     OW18082   3.786   3.036   9.964  0.5576 -0.2245 -0.4983
 2149SOL    HW118083   3.735   3.111   9.997  1.5488  0.5123 -0.6236
 2149SOL    HW218084   3.810   2.997  10.048 -2.7582 -1.7134 -0.2620
 2150SOL     OW18085   2.780   3.501   2.481 -0.3702  0.1438 -0.0033
 2150SOL    HW118086   2.806   3.431   2.421  0.3884 -0.1116  0.6175
 2150SOL    HW218087   2.810   3.577   2.431  2.7213 -0.5736  0.7494
 2151SOL     OW18088   1.432   0.077   6.403  0.3678  0.2103 -0.2101
 2151SOL    HW118089   1.462   4.733   6.446  0.5677  0.1015 -0.5556
 2151SOL    HW218090   1.370   0.052   6.335  1.6220  0.0153 -1.2833
 2152SOL     OW18091   4.616   1.011   6.097 -0.0561  0.4124  0.3693
 2152SOL    HW118092   4.638   0.923   6.128 -2.0755 -0.6113 -1.1060
 2152SOL    HW218093   4.698   1.036   6.055 -0.2851  1.8537  0.8124
 2153SOL     OW18094   3.000   3.440  14.548  0.3168 -0.5114 -0.0178
 2153SOL    HW118095   2.974   3.404  14.633 -0.1503 -0.6429 -0.2199
 2153SOL    HW218096   3.049   3.518  14.577 -4.0175  1.6123  1.5173
 2154SOL     OW18097   0.532   2.485   9.323 -0.2374  0.0328  0.6402
 2154SOL    HW118098   0.462   2.431   9.286 -1.2305  2.5606 -1.2192
 2154SOL    HW218099   0.488   2.569   9.336 -0.7457  0.0848 -1.4658
 2155SOL     OW18100   3.333   1.073   0.704  0.5998  0.1037  0.2555
 2155SOL    HW118101   3.304   1.158   0.739 -2.2904 -0.3192 -1.1720
 2155SOL    HW218102   3.339   1.089   0.610 -0.7645 -1.4331 -0.0873
 2156SOL     OW18103   0.230   4.446   6.719  0.4986  0.0911 -0.5502
 2156SOL    HW118104   0.194   4.397   6.645 -1.9608 -1.3894  1.5914
 2156SOL    HW218105   0.213   4.386   6.792 -0.4142 -1.4015 -1.9984
 2157SOL     OW18106   2.174   3.569   5.818  0.3975 -0.3902  0.9054
 2157SOL    HW118107   2.247   3.552   5.758 -0.5495 -0.4322 -0.2270
 2157SOL    HW218108   2.224   3.578   5.899  1.1808  0.5124  0.3260
 2158SOL     OW18109   0.103   3.704   5.169  0.7090 -0.1317  0.3801
 2158SOL    HW118110   0.083   3.773   5.107 -1.5561  0.8645  2.2113
 2158SOL    HW218111   0.192   3.677   5.145  0.6551  0.3364 -0.3140
 2159SOL     OW18112   3.984   0.605   8.681 -0.0053  0.0636  0.4488
 2159SOL    HW118113   3.899   0.584   8.721 -1.4413 -0.0035 -2.6134
 2159SOL    HW218114   3.992   0.529   8.623  1.4272  0.6357 -0.0922
 2160SOL     OW18115   0.570   2.843  16.201  0.3563  0.0051 -0.7279
 2160SOL    HW118116   0.493   2.887  16.166 -1.3675 -0.9665  1.8001
 2160SOL    HW218117   0.612   2.829  16.116 -0.5525 -2.1384 -0.8134
 2161SOL     OW18118   4.322   2.888   2.378  0.2744  0.1727 -0.3553
 2161SOL    HW118119   4.266   2.860   2.450  0.6287 -4.0946 -1.7318
 2161SOL    HW218120   4.366   2.811   2.343  0.0864  1.6134 -3.7220
 2162SOL     OW18121   1.422   0.199  13.334 -0.0025 -0.5196  0.1370
 2162SOL    HW118122   1.500   0.197  13.277  0.2445 -2.5697  0.5597
 2162SOL    HW218123   1.443   0.274  13.389  0.4723  0.2768 -1.1314
 2163SOL     OW18124   3.496   2.394  16.299 -1.1590 -0.3514  0.8574
 2163SOL    HW118125   3.428   2.437  16.352 -1.3744  1.3684 -0.8181
 2163SOL    HW218126   3.470   2.302  16.311  1.1111 -0.8648  1.8661
 2164SOL     OW18127   0.456   3.140   2.635 -0.1121  0.0556 -0.3634
 2164SOL    HW118128   0.456   3.127   2.540  0.3829  0.1553 -0.3768
 2164SOL    HW218129   0.433   3.051   2.662  0.0404 -0.4613 -1.8924
 2165SOL     OW18130   1.100   1.668   3.722 -0.3580  0.2107 -0.1557
 2165SOL    HW118131   1.133   1.727   3.655 -1.9667 -0.4271 -1.5163
 2165SOL    HW218132   1.060   1.728   3.784  0.7127  0.5280  0.2265
 2166SOL     OW18133   2.204   4.533   8.267  0.8541 -0.6528  0.5414
 2166SOL    HW118134   2.224   4.626   8.251  1.3083 -1.2623 -2.3406
 2166SOL    HW218135   2.147   4.534   8.344 -1.9056 -0.0156 -1.4934
 2167SOL     OW18136   1.352   1.105   1.490  0.5603  0.0780 -0.0212
 2167SOL    HW118137   1.439   1.125   1.526  0.0486  0.2443  1.1120
 2167SOL    HW218138   1.298   1.161   1.545 -0.0681 -2.0469  1.5550
 2168SOL     OW18139   2.317   1.238   4.616  0.3157 -0.3777  0.0206
 2168SOL    HW118140   2.394   1.273   4.571 -0.5935  0.4386 -0.8964
 2168SOL    HW218141   2.245   1.250   4.555  1.3936 -0.2716 -1.2264
 2169SOL     OW18142   0.214   0.970   3.977 -0.7125  0.2632  0.1648
 2169SOL    HW118143   0.177   0.884   3.954  1.0746 -0.1872 -1.0334
 2169SOL    HW218144   0.201   0.969   4.072  1.4806  2.5017  0.4905
 2170SOL     OW18145   4.030   1.572  14.207  0.1611  0.2260  0.0135
 2170SOL    HW118146   4.027   1.480  14.182 -0.6394 -0.4072  2.4051
 2170SOL    HW218147   4.124   1.590  14.211 -0.2646  2.6527 -0.4015
 2171SOL     OW18148   3.236   3.624   8.490 -0.7398  1.2069 -0.0535
 2171SOL    HW118149   3.156   3.607   8.540 -0.6718 -0.2050 -0.4409
 2171SOL    HW218150   3.220   3.709   8.449  0.6347  0.5868 -1.8733
 2172SOL     OW18151   4.569   1.903   6.927 -0.0416  0.9050  0.1547
 2172SOL    HW118152   4.561   1.997   6.943 -0.4332  0.8158  0.4602
 2172SOL    HW218153   4.649   1.905   6.873 -1.3341  1.3187 -1.7380
 2173SOL     OW18154   3.012   4.205  13.455  0.2142 -0.4770 -0.2059
 2173SOL    HW118155   3.080   4.154  13.411  1.1078  1.2375 -0.7915
 2173SOL    HW218156   3.007   4.169  13.543 -3.1005  0.8746  0.1419
 2174SOL     OW18157   3.968   2.520   4.380 -0.4392 -0.0694 -0.4199
 2174SOL    HW118158   3.910   2.589   4.415  0.3745 -0.0220  0.8481
 2174SOL    HW218159   4.050   2.561   4.409 -0.6923 -0.4539  0.8664
 2175SOL     OW18160   3.359   3.945   5.101 -0.1787  0.4918  0.0289
 2175SOL    HW118161   3.455   3.938   5.095 -0.4603 -1.5950 -1.8660
 2175SOL    HW218162   3.344   3.865   5.152  0.7536 -0.3908 -1.0673
 2176SOL     OW18163   1.352   2.530   7.288 -0.0235 -0.0053  0.1811
 2176SOL    HW118164   1.295   2.543   7.364 -0.0453  0.0428  0.1569
 2176SOL    HW218165   1.335   2.614   7.245 -0.8554 -0.2780 -0.0281
 2177SOL     OW18166   2.701   4.304   2.432 -0.4898  0.6211 -0.4618
 2177SOL    HW118167   2.717   4.370   2.499 -0.9618  0.2939 -0.0265
 2177SOL    HW218168   2.749   4.345   2.360 -1.2407  0.2140 -1.1896
 2178SOL     OW18169   3.400   1.811   1.833  0.0244 -0.2272  0.0954
 2178SOL    HW118170   3.337   1.765   1.778 -0.3273 -1.4857  1.5484
 2178SOL    HW218171   3.483   1.766   1.819  1.6041  2.4179  0.9871
 2179SOL     OW18172   3.450   3.709   5.200 -0.9805 -0.6781  0.3026
 2179SOL    HW118173   3.532   3.748   5.231 -1.5077 -0.6625  1.6980
 2179SOL    HW218174   3.480   3.623   5.170  1.0032 -0.5902  2.0876
 2180SOL     OW18175   1.936   2.433   6.251  0.5597  0.2822 -0.0851
 2180SOL    HW118176   1.924   2.484   6.331  0.7001  0.3771 -0.1256
 2180SOL    HW218177   1.927   2.495   6.179  0.4526  0.1594 -0.1765
 2181SOL     OW18178   1.607   2.679   0.768 -0.4536  0.4458  0.3268
 2181SOL    HW118179   1.669   2.626   0.818  0.7650  1.0582 -0.5481
 2181SOL    HW218180   1.553   2.691   0.846 -1.2879  0.3322 -0.2309
 2182SOL     OW18181   0.625   2.909  14.671  0.1195 -0.4297 -0.1894
 2182SOL    HW118182   0.619   3.004  14.680 -0.2074 -0.5218  0.5881
 2182SOL    HW218183   0.642   2.898  14.578  0.9530 -1.1484  0.0468
 2183SOL     OW18184   1.523   1.074   2.452  0.0098  0.5123  0.0433
 2183SOL    HW118185   1.442   1.124   2.443 -0.4774 -0.3364 -0.2709
 2183SOL    HW218186   1.544   1.047   2.363 -2.2787  0.0710 -0.3612
 2184SOL     OW18187   1.422   1.866   4.551  0.1311 -0.1845 -0.2860
 2184SOL    HW118188   1.426   1.815   4.632  0.1622 -1.2127 -0.9342
 2184SOL    HW218189   1.333   1.849   4.518  0.1503 -1.8992  0.5226
 2185SOL     OW18190   3.884   0.250   1.089 -0.2760 -0.2293 -0.1709
 2185SOL    HW118191   3.955   0.206   1.135 -0.9137 -1.0767  0.0084
 2185SOL    HW218192   3.819   0.180   1.098 -1.0674  0.5206 -0.0356
 2186SOL     OW18193   3.045   4.226  15.728  0.1870 -0.2011  0.1672
 2186SOL    HW118194   3.123   4.194  15.682 -0.8887 -1.8310 -0.5048
 2186SOL    HW218195   3.070   4.311  15.764 -2.7364  1.0739 -0.7752
 2187SOL     OW18196   1.235   4.536   8.007  0.1901 -0.3488 -0.0890
 2187SOL    HW118197   1.289   4.546   7.929  2.9938 -0.6932  1.8118
 2187SOL    HW218198   1.199   4.448   7.999 -0.7458 -0.2894  3.5853
 2188SOL     OW18199   3.833   1.329   8.649  0.0719 -0.5477  0.2204
 2188SOL    HW118200   3.792   1.356   8.731 -2.3743 -0.5842 -0.9823
 2188SOL    HW218201   3.831   1.412   8.601 -0.9540 -1.4261 -1.2401
 2189SOL     OW18202   3.108   2.440   6.390  0.6546  0.3918 -0.5702
 2189SOL    HW118203   3.070   2.353   6.399  1.6127  0.1655  1.2635
 2189SOL    HW218204   3.045   2.498   6.434 -0.5489 -0.2325 -1.4821
 2190SOL     OW18205   1.501   2.528   8.782  0.0626 -0.4126  0.1264
 2190SOL    HW118206   1.491   2.512   8.688  0.6462 -1.0939  0.1805
 2190SOL    HW218207   1.473   2.441   8.812 -0.3167 -0.4622 -0.3775
 2191SOL     OW18208   2.818   3.037   9.030 -0.2703 -0.4680  0.2531
 2191SOL    HW118209   2.744   3.031   9.091 -0.9056  1.1522 -0.3388
 2191SOL    HW218210   2.873   2.971   9.071 -0.9175 -1.5178 -0.5743
 2192SOL     OW18211   4.590   4.059   5.909 -0.0546  0.2539 -0.1681
 2192SOL    HW118212   4.596   4.001   5.832 -2.4263 -2.6473  1.8385
 2192SOL    HW218213   4.662   4.022   5.959 -1.5150 -2.4568 -0.0646
 2193SOL     OW18214   0.058   0.864   5.818 -0.0281  0.0361 -0.1764
 2193SOL    HW118215   4.715   0.910   5.791  1.0482  1.1580 -1.4154
 2193SOL    HW218216   0.098   0.840   5.734 -1.0604  0.0369 -0.6625
 2194SOL     OW18217   4.487   1.783   8.272 -0.2809 -1.0975  0.5603
 2194SOL    HW118218   4.466   1.869   8.236  1.2710 -0.4992  1.0903
 2194SOL    HW218219   4.553   1.753   8.210  0.6882  2.2177 -0.0022
 2195SOL     OW18220   3.487   0.201   7.224  0.5627 -0.2325  0.5297
 2195SOL    HW118221   3.446   0.179   7.307 -1.0064  1.5818  0.2475
 2195SOL    HW218222   3.458   0.127   7.172 -0.8394 -1.2075  2.7058
 2196SOL     OW18223   0.403   3.518   6.242 -0.3935 -0.0406  0.0603
 2196SOL    HW118224   0.331   3.476   6.288 -0.4737  0.0974  0.0590
 2196SOL    HW218225   0.463   3.532   6.316 -0.0841 -0.5791 -0.0908
 2197SOL     OW18226   0.541   2.159  15.267 -0.4736 -0.0204  0.2490
 2197SOL    HW118227   0.466   2.140  15.210 -1.2073  1.2187  0.8053
 2197SOL    HW218228   0.611   2.105  15.229 -0.0015  0.8187 -0.0590
 2198SOL     OW18229   3.569   1.894   0.171 -0.4128 -1.0203  0.0527
 2198SOL    HW118230   3.635   1.915   0.238  1.5827  0.1830 -2.2825
 2198SOL    HW218231   3.613   1.926   0.092 -0.0894 -0.2699  0.5329
 2199SOL     OW18232   4.674   4.697   1.925  0.2840  0.2127 -0.1756
 2199SOL    HW118233   0.011   4.676   1.868 -0.1438  0.8909 -0.9749
 2199SOL    HW218234   4.608   4.635   1.894  0.1543  1.5039 -2.4760
 2200SOL     OW18235   4.218   3.307   1.639  0.6336  0.5038 -0.2035
 2200SOL    HW118236   4.302   3.338   1.672  1.0621 -1.9202  0.9873
 2200SOL    HW218237   4.197   3.384   1.585 -0.6133  1.2417  1.3372
 2201SOL     OW18238   2.922   1.805  16.550  0.5936  0.1322 -0.6495
 2201SOL    HW118239   2.961   1.851  16.476 -0.2722  0.2345 -1.0358
 2201SOL    HW218240   2.994   1.745  16.569  0.0542 -1.1681 -2.7637
 2202SOL     OW18241   4.496   1.111   8.618 -0.1930 -0.3843 -0.4099
 2202SOL    HW118242   4.538   1.027   8.600  3.3834  1.6526 -1.5761
 2202SOL    HW218243   4.534   1.166   8.550  1.3800 -0.1705  0.6498
 2203SOL     OW18244   1.397   2.584   4.496 -0.3292  0.5075 -0.0570
 2203SOL    HW118245   1.351   2.668   4.491  1.0898  1.2721 -0.2899
 2203SOL    HW218246   1.422   2.595   4.587 -0.1090 -0.3127 -0.0217
 2204SOL     OW18247   3.355   1.996   6.317 -0.0048 -0.5722 -0.0630
 2204SOL    HW118248   3.343   1.985   6.222  0.0345 -1.0189 -0.0152
 2204SOL    HW218249   3.324   1.913   6.351  1.9798 -0.8854  1.0071
 2205SOL     OW18250   1.649   3.328   6.126  0.0027  0.7474 -0.0802
 2205SOL    HW118251   1.723   3.376   6.163 -0.4647 -0.0272  1.8526
 2205SOL    HW218252   1.687   3.244   6.098  0.0308  0.9787 -0.7294
 2206SOL     OW18253   2.856   2.491   7.840 -0.2105  0.5309  0.1276
 2206SOL    HW118254   2.823   2.406   7.871 -1.1458  1.2929  1.2216
 2206SOL    HW218255   2.888   2.517   7.926  0.7291 -1.3733  0.3673
 2207SOL     OW18256   1.055   1.820   2.781 -0.0931  0.0894 -1.0877
 2207SOL    HW118257   1.058   1.742   2.836  1.2812 -0.8324 -2.4874
 2207SOL    HW218258   1.005   1.792   2.705 -0.5970  2.7335 -1.7352
 2208SOL     OW18259   1.879   3.665  17.716 -0.1405 -0.2501  0.3636
 2208SOL    HW118260   1.923   3.703  17.640 -0.3655  0.8664  0.8061
 2208SOL    HW218261   1.808   3.619  17.671  0.9717 -0.2909 -1.3596
 2209SOL     OW18262   3.414   1.846   4.907  0.0503  0.4483  0.4194
 2209SOL    HW118263   3.455   1.874   4.989 -0.7383 -0.9864  1.3057
 2209SOL    HW218264   3.351   1.917   4.894  0.9025  1.1425  0.1063
 2210SOL     OW18265   4.122   4.144  17.503  0.0442 -0.4140 -0.0211
 2210SOL    HW118266   4.043   4.164  17.453  0.8256  0.8257 -0.7458
 2210SOL    HW218267   4.095   4.177  17.589 -1.6931  2.2928 -1.6067
 2211SOL     OW18268   2.548   4.005   8.728 -0.0667  0.5680  0.2491
 2211SOL    HW118269   2.475   4.060   8.754 -1.0811  0.1152 -1.6420
 2211SOL    HW218270   2.517   3.918   8.752  0.8876  0.1389 -0.0546
 2212SOL     OW18271   3.792   0.442   3.049  0.3544  0.1794  0.3176
 2212SOL    HW118272   3.851   0.396   3.108 -0.9788 -1.0966  0.6557
 2212SOL    HW218273   3.828   0.413   2.965 -2.5692  0.1155 -0.9261
 2213SOL     OW18274   4.180   0.705   3.506  0.4067  0.1248 -0.0119
 2213SOL    HW118275   4.253   0.657   3.545  1.8305  0.1090 -2.6867
 2213SOL    HW218276   4.217   0.793   3.498  0.8014  0.0223  0.6839
 2214SOL     OW18277   3.864   0.749   3.554  0.8185  0.0259 -0.5641
 2214SOL    HW118278   3.789   0.689   3.557  0.6296  0.3064  0.7012
 2214SOL    HW218279   3.910   0.691   3.616  0.6588  0.2860 -0.1995
 2215SOL     OW18280   4.452   0.549   4.053 -0.2353 -0.1014  0.6616
 2215SOL    HW118281   4.475   0.525   3.963  0.5189 -0.1066  0.8521
 2215SOL    HW218282   4.389   0.483   4.082 -1.3790  1.1907  1.1113
 2216SOL     OW18283   1.304   0.925   5.302 -0.2072  0.2345 -0.1356
 2216SOL    HW118284   1.283   0.929   5.209  1.7366 -0.6386 -0.6093
 2216SOL    HW218285   1.392   0.962   5.310  0.3671 -1.5607  1.9709
 2217SOL     OW18286   4.303   3.776   8.320  0.0402  0.4953 -0.0989
 2217SOL    HW118287   4.368   3.776   8.248 -0.2661  1.3312 -0.3651
 2217SOL    HW218288   4.340   3.700   8.366  2.5586  1.9880  0.3156
 2218SOL     OW18289   2.728   4.355   2.869  0.0736  0.2984  0.0579
 2218SOL    HW118290   2.749   4.272   2.912  1.1856  1.5180  1.8597
 2218SOL    HW218291   2.653   4.392   2.916 -0.4565 -0.6583 -0.0271
 2219SOL     OW18292   1.454   3.462  14.512  0.0344  0.3333  0.8774
 2219SOL    HW118293   1.383   3.398  14.507  0.1454  0.3411 -0.6968
 2219SOL    HW218294   1.441   3.505  14.428  0.0268  1.0332  1.2372
 2220SOL     OW18295   1.959   2.825   8.804 -0.2379 -0.5911  0.0266
 2220SOL    HW118296   1.988   2.801   8.892 -1.0440  4.3055  1.6528
 2220SOL    HW218297   2.028   2.890   8.793  1.3228 -2.2368  0.1884
 2221SOL     OW18298   1.605   0.102   4.792 -0.5442 -0.0116 -0.1996
 2221SOL    HW118299   1.555   0.168   4.839  0.4242  0.1935  0.5281
 2221SOL    HW218300   1.648   0.161   4.731  1.0258 -0.1972  0.7338
 2222SOL     OW18301   1.958   1.555   1.956  0.3536 -0.2861  0.3004
 2222SOL    HW118302   2.033   1.555   2.015  0.7869 -1.0147 -0.2573
 2222SOL    HW218303   1.998   1.518   1.878 -0.2986 -0.1252 -0.1060
 2223SOL     OW18304   1.110   2.005   3.762 -0.1591 -0.3032  0.3174
 2223SOL    HW118305   1.057   2.078   3.793  0.9657 -0.4761  2.6989
 2223SOL    HW218306   1.073   1.949   3.830 -1.0448  0.7583  0.7046
 2224SOL     OW18307   1.680   3.116   2.175  0.0718 -0.1179 -0.3104
 2224SOL    HW118308   1.595   3.092   2.139  0.0262  1.2991 -1.1739
 2224SOL    HW218309   1.704   3.032   2.214  1.7175  0.6280  0.2693
 2225SOL     OW18310   0.514   2.578  15.411 -0.2520 -0.1012  0.3713
 2225SOL    HW118311   0.588   2.636  15.432  0.7856 -1.7413  1.2635
 2225SOL    HW218312   0.475   2.561  15.496 -1.3356  1.7832  0.2479
 2226SOL     OW18313   1.435   2.689   3.059 -0.1438  0.0026  0.3955
 2226SOL    HW118314   1.438   2.779   3.093 -1.6824 -1.2556  3.7905
 2226SOL    HW218315   1.340   2.678   3.061 -0.0524 -0.9156 -0.3581
 2227SOL     OW18316   0.472   0.342  11.048 -0.1661  0.5333  0.2846
 2227SOL    HW118317   0.502   0.348  10.957  0.5479 -1.2488  0.4022
 2227SOL    HW218318   0.378   0.322  11.052  0.0729 -0.6768  0.0000
 2228SOL     OW18319   1.851   4.076   9.984 -0.3828  0.1264  0.3690
 2228SOL    HW118320   1.850   4.146   9.919  1.4679 -0.5301 -0.3683
 2228SOL    HW218321   1.764   4.043   9.962  0.9365 -1.5667 -2.3320
 2229SOL     OW18322   1.129   3.634  16.639 -0.4751  0.5405 -0.2510
 2229SOL    HW118323   1.213   3.601  16.673 -0.5599  0.1338 -0.4385
 2229SOL    HW218324   1.067   3.565  16.659  0.1571  0.1369  0.3142
 2230SOL     OW18325   1.833   3.703   1.026  0.0061 -0.4982 -0.1625
 2230SOL    HW118326   1.804   3.640   1.093 -0.5899 -0.7369 -0.6404
 2230SOL    HW218327   1.749   3.702   0.979 -0.4048  1.5097  0.5431
 2231SOL     OW18328   2.975   1.286   5.378  0.1122 -0.2004  0.1918
 2231SOL    HW118329   2.924   1.255   5.303  1.9021  3.0474 -2.3670
 2231SOL    HW218330   2.924   1.245   5.448 -1.5032  2.1283  0.3839
 2232SOL     OW18331   3.139   3.278   3.003  0.2101  0.2224  0.0735
 2232SOL    HW118332   3.207   3.248   3.062  0.1143 -1.2515 -0.5749
 2232SOL    HW218333   3.185   3.349   2.958  1.3423 -1.2829 -1.1243
 2233SOL     OW18334   0.652   0.141   8.673  0.3466  0.1890  0.5448
 2233SOL    HW118335   0.650   0.213   8.735 -0.4987  1.4764 -0.9717
 2233SOL    HW218336   0.652   0.063   8.728 -0.4429  0.3683  0.8044
 2234SOL     OW18337   2.697   3.094   9.984  0.3021 -0.6111 -0.1739
 2234SOL    HW118338   2.685   3.005  10.015 -2.8764 -0.1520 -0.1275
 2234SOL    HW218339   2.791   3.106  10.000 -0.2023  1.8463  1.0241
 2235SOL     OW18340   0.729   2.595   4.962  0.1461 -0.3300  0.1706
 2235SOL    HW118341   0.682   2.604   4.879  2.0501 -0.1740 -0.8753
 2235SOL    HW218342   0.795   2.658   4.934  0.8565 -0.9776  0.3882
 2236SOL     OW18343   3.304   2.148   5.032 -0.0436  0.3823 -0.1243
 2236SOL    HW118344   3.292   2.238   5.063 -1.1967 -0.1046  0.8600
 2236SOL    HW218345   3.302   2.168   4.939  0.0262 -1.8689 -0.6005
 2237SOL     OW18346   3.971   1.908   9.140  0.1517  0.3054 -0.0165
 2237SOL    HW118347   4.003   1.961   9.067 -1.5289  0.0187 -0.9535
 2237SOL    HW218348   3.976   1.822   9.098  2.4484  0.1346  0.6215
 2238SOL     OW18349   2.539   4.619   1.910 -0.2190  0.0664 -0.3825
 2238SOL    HW118350   2.451   4.650   1.886  0.5725  1.8042 -1.0357
 2238SOL    HW218351   2.572   4.576   1.832  0.9970  0.1839  0.0658
 2239SOL     OW18352   0.152   0.395   7.732 -0.0118 -0.0119 -0.4934
 2239SOL    HW118353   0.060   0.373   7.744  0.1212 -1.1051 -1.4932
 2239SOL    HW218354   0.145   0.491   7.726 -0.5880 -0.0605 -0.5986
 2240SOL     OW18355   0.467   2.979   0.213 -0.1732  0.1747  0.3410
 2240SOL    HW118356   0.490   2.914   0.147 -1.8450 -0.5779  0.4797
 2240SOL    HW218357   0.552   2.999   0.252  0.2413 -1.3499  0.2041
 2241SOL     OW18358   0.734   4.477   0.299 -0.0684 -0.3349 -0.0955
 2241SOL    HW118359   0.677   4.433   0.237 -0.6143  1.4097 -0.8398
 2241SOL    HW218360   0.677   4.534   0.352  0.5412 -0.1584  0.3742
 2242SOL     OW18361   1.078   0.057   7.645 -0.6365  0.5177 -0.9120
 2242SOL    HW118362   1.118   0.139   7.674  1.3757  0.0007 -2.2444
 2242SOL    HW218363   1.094   0.064   7.550 -0.7803 -2.3337 -1.1240
 2243SOL     OW18364   1.732   4.657  10.083 -0.3936 -0.1823 -0.2866
 2243SOL    HW118365   1.703   4.728  10.026 -0.9368  0.5786  0.9398
 2243SOL    HW218366   1.824   4.642  10.059 -0.5682  0.2560 -1.2231
 2244SOL     OW18367   0.172   4.609   7.393 -0.3531  0.0519 -0.0826
 2244SOL    HW118368   0.157   4.543   7.460  0.3433  0.7956  0.7953
 2244SOL    HW218369   0.153   4.693   7.435  0.6628  1.2994 -2.0968
 2245SOL     OW18370   1.301   1.471   4.410 -0.4693 -0.0900 -0.1503
 2245SOL    HW118371   1.228   1.525   4.442  0.0559  0.7953 -0.4421
 2245SOL    HW218372   1.268   1.382   4.408  1.1162 -0.6823  0.0072
 2246SOL     OW18373   0.112   0.210   1.694  0.0926  0.0335  0.1548
 2246SOL    HW118374   0.021   0.235   1.707 -0.9164 -3.2287 -0.6044
 2246SOL    HW218375   0.108   0.166   1.610 -1.3943  0.6378 -0.0862
 2247SOL     OW18376   0.994   3.683  16.383  0.4557 -0.0510  0.5936
 2247SOL    HW118377   0.957   3.725  16.461  0.1276 -0.5444  0.7001
 2247SOL    HW218378   1.085   3.669  16.408  0.5107  1.1897  1.0754
 2248SOL     OW18379   4.553   1.288   4.758  0.1969  0.0484 -0.0599
 2248SOL    HW118380   4.564   1.205   4.804  1.6216  1.2846  1.7860
 2248SOL    HW218381   4.634   1.336   4.742 -0.1410  0.9908  1.1357
 2249SOL     OW18382   3.517   0.822   0.232 -0.2214  0.5570 -0.0518
 2249SOL    HW118383   3.584   0.877   0.273 -0.0806  2.4759 -2.8525
 2249SOL    HW218384   3.507   0.846   0.139  0.2629  0.9165 -0.0087
 2250SOL     OW18385   3.322   3.293   8.093  0.0607  0.0994  0.0103
 2250SOL    HW118386   3.257   3.254   8.033 -1.3474  0.9810  0.9654
 2250SOL    HW218387   3.390   3.324   8.034 -0.8149  3.9350  1.0504
 2251SOL     OW18388   1.025   0.302   9.357  0.2272  0.2948  0.0586
 2251SOL    HW118389   1.010   0.207   9.363  1.0406  0.2534  1.4166
 2251SOL    HW218390   1.071   0.325   9.276  0.3570 -3.4636 -0.9481
 2252SOL     OW18391   2.722   3.863  14.762  0.1095  0.3869 -0.1842
 2252SOL    HW118392   2.681   3.857  14.676  0.1173 -1.0854 -0.0800
 2252SOL    HW218393   2.647   3.879  14.818  1.6237 -0.8451  2.2067
 2253SOL     OW18394   1.406   0.619   5.844 -0.3407 -0.8688  0.0732
 2253SOL    HW118395   1.389   0.526   5.835 -1.4552 -0.7959  1.5368
 2253SOL    HW218396   1.493   0.625   5.883 -0.5657  0.3552  0.4128
 2254SOL     OW18397   4.171   1.025   2.042  0.4681  0.3566  0.2479
 2254SOL    HW118398   4.128   0.945   2.011  0.8731  0.8808 -1.6499
 2254SOL    HW218399   4.164   1.086   1.969 -1.2961 -0.2041 -0.0599
 2255SOL     OW18400   0.445   1.199   8.989 -0.0352  0.2385  0.3612
 2255SOL    HW118401   0.406   1.273   9.035  0.3076  1.3823 -1.2094
 2255SOL    HW218402   0.524   1.250   8.974 -0.7245  0.4933 -2.3381
 2256SOL     OW18403   2.578   3.395  17.577 -0.0387  0.3047  0.2688
 2256SOL    HW118404   2.502   3.381  17.633 -0.7896  0.9974 -0.5868
 2256SOL    HW218405   2.568   3.327  17.510 -0.5857 -1.6715  2.3673
 2257SOL     OW18406   1.315   0.211   7.960 -0.1680  0.0442  0.1227
 2257SOL    HW118407   1.354   0.258   7.887 -0.6020 -0.6171 -0.5437
 2257SOL    HW218408   1.384   0.147   7.978  0.7476  1.4021  1.3778
 2258SOL     OW18409   0.635   1.845   7.054  0.1172  0.1031 -0.3298
 2258SOL    HW118410   0.593   1.861   6.970  0.5888 -1.5797 -0.8660
 2258SOL    HW218411   0.564   1.790   7.089  1.9713 -1.3930  1.0613
 2259SOL     OW18412   1.380   1.943   4.909 -0.2566 -0.0941  0.3775
 2259SOL    HW118413   1.332   1.984   4.837 -0.3351  0.3647  0.6853
 2259SOL    HW218414   1.400   1.859   4.869  1.9982  0.4108  0.4772
 2260SOL     OW18415   1.040   2.899   5.411  0.1897  0.0539  0.2043
 2260SOL    HW118416   0.989   2.820   5.423 -2.5067  1.5860 -1.2480
 2260SOL    HW218417   1.104   2.869   5.347 -0.1002  0.5839 -0.3277
 2261SOL     OW18418   4.191   3.586   3.533 -0.1439  0.2285  0.3701
 2261SOL    HW118419   4.210   3.648   3.604  1.1098 -1.8968  1.9054
 2261SOL    HW218420   4.106   3.616   3.501 -0.0136  0.9604  0.7168
 2262SOL     OW18421   1.525   2.604   0.404 -0.0397  0.0976  0.3032
 2262SOL    HW118422   1.610   2.614   0.447  2.1868 -0.3033 -3.9459
 2262SOL    HW218423   1.509   2.513   0.428  0.6056 -0.4327 -1.2368
 2263SOL     OW18424   4.515   3.623   4.398 -0.5354 -0.1624  0.2398
 2263SOL    HW118425   4.473   3.676   4.331 -1.1147  1.7733  2.1520
 2263SOL    HW218426   4.586   3.683   4.420 -0.1372 -0.7322  0.5263
 2264SOL     OW18427   0.926   3.431   6.257  0.1054  0.2149  0.0902
 2264SOL    HW118428   0.862   3.448   6.188 -0.6969  0.7691  0.9828
 2264SOL    HW218429   1.010   3.412   6.215 -1.1524 -1.5287 -1.6200
 2265SOL     OW18430   0.766   1.801   2.888 -0.3850 -0.0268 -0.1132
 2265SOL    HW118431   0.689   1.783   2.942  0.8067  2.1562  2.3478
 2265SOL    HW218432   0.788   1.710   2.868 -0.6884 -0.0540 -0.3201
 2266SOL     OW18433   1.129   0.120   7.019  0.0303 -0.1334  0.1384
 2266SOL    HW118434   1.066   0.071   7.073 -0.5494  1.4169  0.8504
 2266SOL    HW218435   1.067   0.161   6.960 -0.5847 -3.0726 -1.2751
 2267SOL     OW18436   2.699   3.823   3.897  0.1605  0.2604 -0.2363
 2267SOL    HW118437   2.732   3.815   3.986 -0.3748  1.5103  0.0859
 2267SOL    HW218438   2.606   3.800   3.895  0.6177 -1.5316 -0.8535
 2268SOL     OW18439   3.438   1.171   6.224  0.8554  0.0416  0.2698
 2268SOL    HW118440   3.452   1.262   6.198 -0.6007  0.4566  0.9708
 2268SOL    HW218441   3.375   1.147   6.155 -0.8587 -1.1969  2.2724
 2269SOL     OW18442   4.703   4.497   4.508  0.1709  0.2284  0.0481
 2269SOL    HW118443   4.644   4.426   4.534 -0.1777  0.3163 -0.5106
 2269SOL    HW218444   4.732   4.517   4.597 -0.6377  1.9728 -0.0894
 2270SOL     OW18445   3.563   0.438   0.417 -0.3489  0.1361 -0.7714
 2270SOL    HW118446   3.539   0.348   0.439  1.9679 -0.6673 -1.5117
 2270SOL    HW218447   3.552   0.479   0.502 -0.4457 -1.2028 -0.1402
 2271SOL     OW18448   3.780   4.364   9.249 -0.0799  0.0008 -0.3968
 2271SOL    HW118449   3.766   4.404   9.335 -1.0538  2.6098 -1.7885
 2271SOL    HW218450   3.794   4.275   9.281 -0.0861 -0.5724 -2.0202
 2272SOL     OW18451   0.020   0.693  15.222  0.0219  0.1501 -0.0900
 2272SOL    HW118452   4.731   0.640  15.147  0.6557  2.2176 -1.7784
 2272SOL    HW218453   0.075   0.756  15.176  1.1344 -0.9691 -0.2696
 2273SOL     OW18454   4.493   0.131   7.950 -0.5161  0.5927 -0.0657
 2273SOL    HW118455   4.534   0.098   8.030 -0.2253  0.0475 -0.4372
 2273SOL    HW218456   4.502   0.226   7.959 -1.0443  0.5253  1.1464
 2274SOL     OW18457   3.333   1.432   0.197 -0.2921  0.3153 -0.2836
 2274SOL    HW118458   3.376   1.513   0.168  2.2771 -1.3483 -1.0260
 2274SOL    HW218459   3.408   1.379   0.221 -0.7435 -1.7459 -3.3925
 2275SOL     OW18460   2.754   3.323   2.845 -0.5659 -0.1887  0.5527
 2275SOL    HW118461   2.780   3.399   2.793  2.0396 -0.3265  1.6729
 2275SOL    HW218462   2.802   3.258   2.794  0.4014 -1.0650  2.5818
 2276SOL     OW18463   4.163   3.417  14.243  0.2289 -0.0869 -0.3776
 2276SOL    HW118464   4.091   3.362  14.214 -0.1747  0.4126 -0.3188
 2276SOL    HW218465   4.127   3.472  14.312 -0.9140 -1.1942 -0.0937
 2277SOL     OW18466   2.513   2.405   7.592 -0.0401  0.3594 -0.6529
 2277SOL    HW118467   2.547   2.420   7.680  0.0313 -1.4757 -0.3644
 2277SOL    HW218468   2.550   2.322   7.563 -0.4852  0.9291 -2.8538
 2278SOL     OW18469   4.062   1.679   6.005  0.7169  0.2715 -0.0138
 2278SOL    HW118470   4.075   1.675   6.100 -1.1198  3.1324  0.3732
 2278SOL    HW218471   4.140   1.729   5.978 -0.9939  1.3564 -3.0469
 2279SOL     OW18472   1.694   0.404   1.191  0.5105 -0.2190  0.8624
 2279SOL    HW118473   1.642   0.334   1.150 -3.2431  1.9719  1.9173
 2279SOL    HW218474   1.693   0.474   1.126 -0.4550 -0.7369  0.3024
 2280SOL     OW18475   2.271   0.667  13.276  0.8559  0.5693  0.3408
 2280SOL    HW118476   2.344   0.729  13.284 -0.1493  1.7062  0.7081
 2280SOL    HW218477   2.198   0.713  13.317 -0.2139 -1.1367  0.2923
 2281SOL     OW18478   2.045   4.632   6.146 -0.2241 -0.2290 -0.5732
 2281SOL    HW118479   2.121   4.588   6.105 -0.6199 -1.9370  0.5141
 2281SOL    HW218480   1.976   4.570   6.123  1.1526 -1.8335 -0.4004
 2282SOL     OW18481   0.287   1.515  14.691 -0.0172  0.0380  0.1826
 2282SOL    HW118482   0.314   1.540  14.779  0.6236  2.1027 -0.6173
 2282SOL    HW218483   0.233   1.592  14.677  0.1788 -0.3751 -3.0390
 2283SOL     OW18484   0.515   2.331   4.024  0.1870 -0.1688  0.2677
 2283SOL    HW118485   0.521   2.380   3.942 -0.4819  0.4626  0.6014
 2283SOL    HW218486   0.598   2.282   4.020 -0.9948 -2.2063  0.8121
 2284SOL     OW18487   3.525   2.171   2.891  0.4799  0.2115  0.1937
 2284SOL    HW118488   3.603   2.146   2.841  0.0581  1.9023 -1.2981
 2284SOL    HW218489   3.462   2.165   2.819 -0.6772 -1.1029  1.3183
 2285SOL     OW18490   2.699   1.753   4.508  0.4278  0.0091 -1.0238
 2285SOL    HW118491   2.719   1.786   4.595  0.6876  0.8579 -1.3999
 2285SOL    HW218492   2.718   1.833   4.458 -1.8804  1.6215  0.6538
 2286SOL     OW18493   1.660   1.210   8.993 -0.5436 -0.4697 -0.7915
 2286SOL    HW118494   1.655   1.298   9.030 -2.8295 -0.2806 -1.5323
 2286SOL    HW218495   1.702   1.169   9.069  0.9127 -0.6605 -1.6898
 2287SOL     OW18496   2.307   4.555  10.203  0.4500  0.1285 -0.2441
 2287SOL    HW118497   2.250   4.494  10.156  0.2121  1.5755 -1.8212
 2287SOL    HW218498   2.339   4.614  10.136  2.1169 -2.3307 -1.6009
 2288SOL     OW18499   2.744   0.508   9.013  0.2793  0.2931 -0.5100
 2288SOL    HW118500   2.762   0.423   8.973  0.9778  0.0699  0.2836
 2288SOL    HW218501   2.651   0.511   8.991  0.0855  2.3620  0.5337
 2289SOL     OW18502   4.266   3.218   8.649 -0.1810 -0.1267  0.3414
 2289SOL    HW118503   4.269   3.312   8.671 -0.6861 -0.4016  1.5931
 2289SOL    HW218504   4.173   3.197   8.648 -0.1185 -0.4150  0.5227
 2290SOL     OW18505   0.434   0.168  17.741 -0.0276  0.4516 -0.2333
 2290SOL    HW118506   0.488   0.245   0.017  1.4862 -0.2685 -1.6450
 2290SOL    HW218507   0.441   0.178  17.646  0.6602 -1.2711 -0.3674
 2291SOL     OW18508   0.144   1.111   3.543 -0.6723  0.2907  0.1600
 2291SOL    HW118509   0.167   1.139   3.631 -2.3302 -1.4670  1.1559
 2291SOL    HW218510   0.184   1.183   3.494  2.1959 -0.1370  1.9000
 2292SOL     OW18511   2.040   2.639   7.791 -0.1713  0.4288  0.7662
 2292SOL    HW118512   2.041   2.550   7.826  1.1046 -0.3309 -1.1988
 2292SOL    HW218513   1.948   2.665   7.794 -0.1638  0.6365 -0.5083
 2293SOL     OW18514   4.702   0.324   1.983  0.4623  0.2447 -0.3501
 2293SOL    HW118515   4.612   0.303   1.958  0.2037 -0.3874  1.1258
 2293SOL    HW218516   4.685   0.399   2.040 -0.8173 -0.6413  0.4335
 2294SOL     OW18517   3.423   2.821   2.930  0.1661  0.0034  0.1127
 2294SOL    HW118518   3.465   2.817   2.844  0.1675  0.1877  0.1047
 2294SOL    HW218519   3.514   2.815   2.961  0.3472 -1.4729 -0.7142
 2295SOL     OW18520   3.510   2.776  10.251  1.0070  0.2488 -0.4812
 2295SOL    HW118521   3.504   2.846  10.186  0.5457  1.4883  0.8839
 2295SOL    HW218522   3.508   2.830  10.331 -1.3842  0.1335 -0.4423
 2296SOL     OW18523   4.138   1.298   9.405 -0.0935  0.1523  0.4018
 2296SOL    HW118524   4.108   1.313   9.315  1.6692  0.3066 -0.1436
 2296SOL    HW218525   4.061   1.282   9.460 -0.8803  2.9893  0.1317
 2297SOL     OW18526   3.986   2.476   9.804  0.4288 -0.1257  0.0645
 2297SOL    HW118527   3.979   2.420   9.727  0.2829  0.4425 -0.3346
 2297SOL    HW218528   3.928   2.424   9.860  2.0146 -3.4828 -1.4325
 2298SOL     OW18529   3.718   1.477  10.485  0.0819  0.1944  0.1956
 2298SOL    HW118530   3.743   1.431  10.565  1.1336 -0.2943 -0.4152
 2298SOL    HW218531   3.670   1.408  10.440  1.8824 -0.2084 -1.1242
 2299SOL     OW18532   0.206   0.889   8.019  0.5023 -0.0826 -0.4294
 2299SOL    HW118533   0.275   0.913   7.957  0.3413 -0.7668 -0.8659
 2299SOL    HW218534   0.153   0.968   8.010  3.6984  2.2618  1.1925
 2300SOL     OW18535   4.503   1.272  11.326  0.0471  0.1687 -0.1516
 2300SOL    HW118536   4.547   1.241  11.405  1.7018  1.4870 -0.5654
 2300SOL    HW218537   4.432   1.208  11.317 -0.8385  1.3095 -1.3089
 2301SOL     OW18538   0.494   1.822  11.937  0.1577  0.1177 -0.3318
 2301SOL    HW118539   0.517   1.738  11.898  2.7852  0.3269  0.7233
 2301SOL    HW218540   0.401   1.826  11.917  0.1521  0.1286 -0.3043
 2302SOL     OW18541   4.630   3.379  11.082  0.0965  0.7179  0.1566
 2302SOL    HW118542   4.644   3.289  11.053  0.1724  1.4012 -1.9342
 2302SOL    HW218543   4.664   3.436  11.013  0.4950  1.6878  1.1674
 2303SOL     OW18544   2.495   0.958   4.422  0.4173  0.4454 -0.5165
 2303SOL    HW118545   2.479   0.893   4.353 -0.3971 -0.7450  0.7804
 2303SOL    HW218546   2.407   0.994   4.412 -0.1876 -0.6525  0.7767
 2304SOL     OW18547   2.997   3.465   8.456  0.2538  0.2496 -0.3002
 2304SOL    HW118548   3.064   3.483   8.389 -0.5973  2.5443 -0.5594
 2304SOL    HW218549   2.976   3.375   8.433 -0.9224 -0.0479  1.9725
 2305SOL     OW18550   3.214   0.411  10.177  0.7149 -0.4832  0.3538
 2305SOL    HW118551   3.242   0.427  10.267 -1.0632 -1.0614  1.0110
 2305SOL    HW218552   3.138   0.470  10.171  0.7138 -0.4962  0.2454
 2306SOL     OW18553   0.336   1.527   8.705  0.1708 -0.6209  0.6761
 2306SOL    HW118554   0.423   1.568   8.711  0.9675 -2.4807  1.7288
 2306SOL    HW218555   0.357   1.485   8.622 -2.3870 -0.3740 -0.0705
 2307SOL     OW18556   0.606   0.344   0.084 -0.6237 -0.1021  0.7914
 2307SOL    HW118557   0.700   0.353   0.102 -0.1870 -1.6724 -0.7219
 2307SOL    HW218558   0.576   0.426   0.124  1.7222  1.7333 -1.1971
 2308SOL     OW18559   3.391   1.380   1.210  0.6060 -0.2179 -0.1090
 2308SOL    HW118560   3.301   1.386   1.180  1.0994  2.5864 -0.9662
 2308SOL    HW218561   3.394   1.311   1.277  0.3167  0.2450  0.3767
 2309SOL     OW18562   2.479   0.472   2.695  0.8661 -0.1481 -0.1665
 2309SOL    HW118563   2.539   0.453   2.622  0.1801 -0.9198 -0.5318
 2309SOL    HW218564   2.550   0.502   2.751  1.0716  0.5611 -0.8000
 2310SOL     OW18565   3.783   3.444   9.494 -0.3905 -0.2904  0.5852
 2310SOL    HW118566   3.768   3.352   9.515 -1.6608  0.0891  1.2994
 2310SOL    HW218567   3.702   3.460   9.446 -0.3121  0.1481  0.5979
 2311SOL     OW18568   4.176   3.655  16.139  0.1306  0.3298  0.0544
 2311SOL    HW118569   4.090   3.634  16.102  1.3660 -2.1540 -1.4535
 2311SOL    HW218570   4.180   3.744  16.105  0.7848  0.1510 -0.3260
 2312SOL     OW18571   0.445   0.623   6.742 -0.6514 -0.1744  0.2759
 2312SOL    HW118572   0.365   0.675   6.728 -0.1990  0.3805 -0.2593
 2312SOL    HW218573   0.509   0.693   6.726  0.7364 -1.9484 -1.8947
 2313SOL     OW18574   0.048   1.647  16.793  0.1949 -0.2841 -0.2706
 2313SOL    HW118575   0.050   1.551  16.793 -3.2289 -0.3463 -0.4902
 2313SOL    HW218576   0.058   1.658  16.887 -1.6965  1.5309 -0.2699
 2314SOL     OW18577   0.037   3.413   3.162 -0.0148 -0.0766 -0.3982
 2314SOL    HW118578   0.049   3.319   3.158 -0.6260 -0.1839  0.1575
 2314SOL    HW218579   0.004   3.426   3.251 -2.3944  0.0458 -1.2942
 2315SOL     OW18580   0.119   2.868   3.997  0.2404  0.0730 -0.0998
 2315SOL    HW118581   0.034   2.896   4.031  0.0827  0.1570 -0.5569
 2315SOL    HW218582   0.165   2.949   4.020  0.0007  0.1308  0.1742
 2316SOL     OW18583   2.131   4.425   2.918 -0.2525 -0.0405  0.2645
 2316SOL    HW118584   2.063   4.466   2.864  0.2455 -0.2017 -0.4862
 2316SOL    HW218585   2.109   4.333   2.903 -0.5693 -0.2992  2.3777
 2317SOL     OW18586   2.477   1.077  14.305 -0.0719  0.1353  0.8729
 2317SOL    HW118587   2.423   1.130  14.362 -1.4468  0.8047 -1.0527
 2317SOL    HW218588   2.569   1.099  14.318 -0.6064  1.1054  2.9069
 2318SOL     OW18589   2.520   2.003   6.643  0.8425 -0.0761  0.4212
 2318SOL    HW118590   2.479   1.925   6.681 -0.1671  0.4054  0.3117
 2318SOL    HW218591   2.590   1.961   6.592  0.1490  0.7820 -1.2445
 2319SOL     OW18592   3.217   4.706   4.314 -0.4324  0.6246  0.6174
 2319SOL    HW118593   3.141   0.024   4.291  0.4226  1.4338 -0.3423
 2319SOL    HW218594   3.182   4.654   4.386 -1.0090  1.4550  0.9368
 2320SOL     OW18595   2.036   2.796   4.382  0.3565  0.1007 -0.1824
 2320SOL    HW118596   2.006   2.864   4.442  1.3903  0.2239  0.1997
 2320SOL    HW218597   1.959   2.771   4.332  1.5109  1.7641 -2.8281
 2321SOL     OW18598   2.465   2.621  15.610  0.2285 -0.2077  0.5352
 2321SOL    HW118599   2.406   2.605  15.537  0.3255 -0.7985  0.5846
 2321SOL    HW218600   2.407   2.588  15.679  1.8571 -2.1032  0.9982
 2322SOL     OW18601   1.182   4.178   3.685 -0.1607  0.3258 -0.0949
 2322SOL    HW118602   1.235   4.251   3.716  2.1045 -1.3559  0.0426
 2322SOL    HW218603   1.191   4.115   3.757  2.0744 -0.9001 -1.4476
 2323SOL     OW18604   3.780   4.650   4.921 -0.0638 -0.2849  0.0250
 2323SOL    HW118605   3.774   4.679   5.012 -0.3773 -3.0176  0.8734
 2323SOL    HW218606   3.791   4.555   4.921  2.6065  0.0321 -1.0192
 2324SOL     OW18607   2.414   0.634   6.103  0.0274  0.1355  0.5918
 2324SOL    HW118608   2.442   0.584   6.179  3.2066  2.7306  1.1292
 2324SOL    HW218609   2.348   0.575   6.066  1.1221 -1.4195  1.1240
 2325SOL     OW18610   0.447   0.308   7.749  0.1512 -0.5287 -0.2000
 2325SOL    HW118611   0.407   0.273   7.828  1.7571  2.3989  1.8716
 2325SOL    HW218612   0.408   0.395   7.742 -0.9532 -1.0147 -0.0328
 2326SOL     OW18613   3.135   3.635   4.314 -0.5045 -0.3033  0.2648
 2326SOL    HW118614   3.094   3.622   4.228 -0.7350  1.4920  0.1136
 2326SOL    HW218615   3.213   3.681   4.283 -2.0446  1.5107 -0.8915
 2327SOL     OW18616   0.549   2.856   6.566 -0.4124  0.0853 -0.1939
 2327SOL    HW118617   0.636   2.881   6.597 -1.0301 -1.4351  2.6913
 2327SOL    HW218618   0.515   2.924   6.507  1.1320  1.2304  0.2244
 2328SOL     OW18619   0.910   0.294   1.627 -0.0878 -0.7794  0.1981
 2328SOL    HW118620   0.927   0.283   1.721 -1.1914 -0.8469  0.3906
 2328SOL    HW218621   0.991   0.336   1.598 -0.7098 -1.0706 -1.9232
 2329SOL     OW18622   1.390   4.434   5.996 -0.2166  0.0914 -0.2568
 2329SOL    HW118623   1.354   4.461   5.911  0.9449 -4.0572 -2.0751
 2329SOL    HW218624   1.415   4.343   5.983  0.3022  0.3995 -1.4524
 2330SOL     OW18625   3.242   1.072   6.033 -0.0897 -0.1813 -0.2475
 2330SOL    HW118626   3.250   1.111   5.946 -0.8481 -0.6689 -0.5365
 2330SOL    HW218627   3.298   0.995   6.022  1.6009  0.6678  2.4459
 2331SOL     OW18628   3.184   1.624   5.170 -0.3350 -0.3997 -0.2331
 2331SOL    HW118629   3.218   1.593   5.086  0.1489  1.3673 -0.6989
 2331SOL    HW218630   3.147   1.706   5.137 -1.6669 -0.6845  0.5365
 2332SOL     OW18631   2.904   3.520   3.690  0.5648 -0.1764 -0.6082
 2332SOL    HW118632   2.992   3.500   3.656  1.0547  1.3525 -0.2741
 2332SOL    HW218633   2.859   3.553   3.612 -0.4457  0.5952  0.2954
 2333SOL     OW18634   1.267   1.072   0.308  0.1760 -0.5405 -0.7153
 2333SOL    HW118635   1.308   1.011   0.370 -1.8100  0.1169  1.2402
 2333SOL    HW218636   1.273   1.014   0.232 -1.9328 -1.3182 -0.2812
 2334SOL     OW18637   2.597   1.374   6.063 -0.0378  0.3287  0.0707
 2334SOL    HW118638   2.529   1.441   6.054  0.7288  1.3298  1.8128
 2334SOL    HW218639   2.553   1.302   6.018  0.4893  0.1141 -0.1000
 2335SOL     OW18640   3.657   2.629   8.428  0.2075 -0.1335 -0.1958
 2335SOL    HW118641   3.687   2.539   8.433 -0.2446 -0.2228  0.9141
 2335SOL    HW218642   3.742   2.668   8.450 -1.4288  2.6120  1.2547
 2336SOL     OW18643   2.366   1.701   8.327  0.5116 -0.0979 -0.2429
 2336SOL    HW118644   2.385   1.642   8.399  3.8226  0.5692 -0.5541
 2336SOL    HW218645   2.423   1.662   8.260 -0.1728  0.4427 -1.1487
 2337SOL     OW18646   4.311   1.471   1.034 -0.5607  0.0271 -0.5012
 2337SOL    HW118647   4.239   1.477   0.971  0.0672 -0.1282 -1.2300
 2337SOL    HW218648   4.337   1.561   1.054 -0.1044 -0.6267  1.8200
 2338SOL     OW18649   4.278   3.677   9.844 -0.4373  0.4969  0.4633
 2338SOL    HW118650   4.330   3.621   9.901  0.0726  1.0905  0.5813
 2338SOL    HW218651   4.295   3.635   9.760  1.9698  1.6035  0.3946
 2339SOL     OW18652   2.963   2.402  12.028  0.3562  0.1280 -0.4060
 2339SOL    HW118653   2.932   2.344  12.098  0.0814  0.0536 -0.5947
 2339SOL    HW218654   3.058   2.404  12.044  0.1872 -0.9313  0.6989
 2340SOL     OW18655   0.567   1.126   5.238  0.0269 -0.2976  0.2445
 2340SOL    HW118656   0.567   1.213   5.277 -0.5083 -0.2254  0.0796
 2340SOL    HW218657   0.504   1.143   5.169 -1.0896 -0.1734  1.3045
 2341SOL     OW18658   3.032   1.093   2.662  0.5493  0.6782  0.2221
 2341SOL    HW118659   3.009   1.175   2.704  1.2525  0.7225  0.5186
 2341SOL    HW218660   3.124   1.097   2.637  0.7502 -1.5587  0.5917
 2342SOL     OW18661   3.542   1.093   4.726  0.0856 -0.4209  0.2116
 2342SOL    HW118662   3.461   1.095   4.675  0.2650 -1.5876 -0.1209
 2342SOL    HW218663   3.538   1.003   4.757 -0.0625 -0.3880  0.2873
 2343SOL     OW18664   0.126   1.707   8.708 -0.0313 -0.3325  0.3441
 2343SOL    HW118665   0.207   1.662   8.734  0.2208  0.0083  0.1356
 2343SOL    HW218666   0.168   1.782   8.667  1.6400 -1.5247 -0.1308
 2344SOL     OW18667   2.282   0.787   5.102 -0.0932 -0.0736  0.4468
 2344SOL    HW118668   2.343   0.820   5.168  0.1058  0.4002  0.0206
 2344SOL    HW218669   2.220   0.747   5.164 -0.2902 -1.2932 -0.5404
 2345SOL     OW18670   4.714   3.629   3.533 -0.1048 -0.5220  0.4022
 2345SOL    HW118671   4.714   3.721   3.509 -0.8120 -0.6120  0.0393
 2345SOL    HW218672   0.059   3.610   3.579  0.4014 -2.3032 -1.2525
 2346SOL     OW18673   2.946   1.953   3.897  0.4161  0.2027  0.3483
 2346SOL    HW118674   2.925   1.885   3.962  1.3201 -1.4714 -1.1101
 2346SOL    HW218675   2.865   1.940   3.848 -0.3185  1.1284  1.3087
 2347SOL     OW18676   3.663   0.544  12.285  0.0346  0.4555 -0.0197
 2347SOL    HW118677   3.748   0.569  12.248 -0.0841  0.2454 -0.4328
 2347SOL    HW218678   3.607   0.620  12.266 -1.4712 -0.1798  1.8426
 2348SOL     OW18679   0.482   3.155   3.495  0.6065 -0.2426  0.0662
 2348SOL    HW118680   0.499   3.131   3.586 -2.1921  0.2090  0.6894
 2348SOL    HW218681   0.387   3.154   3.501  0.6797  0.2693  1.1224
 2349SOL     OW18682   2.183   4.633   3.877  0.3377  0.4108  0.2627
 2349SOL    HW118683   2.151   4.564   3.819  0.4121 -0.7998  1.6452
 2349SOL    HW218684   2.262   4.599   3.920 -1.0529 -1.6246  1.2058
 2350SOL     OW18685   0.894   2.545  10.240 -0.5974 -0.4605  0.1384
 2350SOL    HW118686   0.872   2.587  10.323  3.0154  2.0478 -0.2231
 2350SOL    HW218687   0.946   2.609  10.193  0.4829 -0.4563  1.3466
 2351SOL     OW18688   1.016   0.522   0.405  0.0925 -0.0387  0.4420
 2351SOL    HW118689   1.088   0.490   0.352 -0.1609  0.0163  0.0607
 2351SOL    HW218690   1.012   0.614   0.379  0.1864 -0.5319 -1.2654
 2352SOL     OW18691   4.658   4.314  13.430 -0.6408  0.0758  0.6328
 2352SOL    HW118692   4.666   4.278  13.518 -0.7027 -1.2830  0.0817
 2352SOL    HW218693   4.597   4.257  13.383 -1.5575  0.7300  1.0433
 2353SOL     OW18694   0.075   2.429  16.788  0.1642  0.2252 -0.4313
 2353SOL    HW118695   4.725   2.471  16.790  0.5758  1.0173  0.7721
 2353SOL    HW218696   0.056   2.369  16.860 -1.6510  3.1293  1.4964
 2354SOL     OW18697   3.135   2.559   9.990  0.1271  0.6265 -0.6792
 2354SOL    HW118698   3.151   2.648  10.021  0.4209  0.8842 -1.5876
 2354SOL    HW218699   3.215   2.521  10.026 -0.0006 -0.2410 -1.2938
 2355SOL     OW18700   0.669   4.722   7.166  0.6854 -0.2375 -0.4826
 2355SOL    HW118701   0.579   4.724   7.135  1.3655 -0.6425 -2.4468
 2355SOL    HW218702   0.706   4.660   7.103  0.3126 -0.6363 -0.3090
 2356SOL     OW18703   2.903   0.779  12.781  0.2980 -0.4651 -0.5310
 2356SOL    HW118704   2.918   0.734  12.698  2.1004  1.8358 -1.4660
 2356SOL    HW218705   2.960   0.744  12.850 -0.3668 -1.5746 -0.5520
 2357SOL     OW18706   3.626   4.653  12.313 -0.3572 -0.1942 -0.3162
 2357SOL    HW118707   3.613   4.707  12.235 -1.5708  0.6532  0.4785
 2357SOL    HW218708   3.568   4.695  12.376  1.7057 -1.2185  2.3028
 2358SOL     OW18709   3.608   2.894   3.711  0.3472  0.6897 -0.4313
 2358SOL    HW118710   3.662   2.881   3.789 -1.0612  0.3768  0.4878
 2358SOL    HW218711   3.541   2.827   3.725 -0.8528  1.1292 -3.9315
 2359SOL     OW18712   3.837   2.393  16.947  0.4594 -0.1790  0.1203
 2359SOL    HW118713   3.757   2.432  16.984  0.0579 -0.5920 -0.3223
 2359SOL    HW218714   3.859   2.329  17.015  0.0311  1.3650  1.7187
 2360SOL     OW18715   2.680   2.382   5.230  0.0210 -0.2284 -0.9118
 2360SOL    HW118716   2.625   2.321   5.182 -3.7208  1.7969  0.8376
 2360SOL    HW218717   2.670   2.351   5.320 -4.1940  0.7730 -1.0689
 2361SOL     OW18718   0.236   4.445   3.592  0.1189 -0.1592  0.1498
 2361SOL    HW118719   0.170   4.387   3.629  0.3428  0.8968  2.2112
 2361SOL    HW218720   0.305   4.384   3.617 -0.2430 -0.8434 -0.5397
 2362SOL     OW18721   2.062   1.153   9.328 -0.2253  0.6220  0.4101
 2362SOL    HW118722   2.115   1.229   9.305  0.8793 -0.3985 -0.4143
 2362SOL    HW218723   2.129   1.101   9.371  0.7872  0.2763 -1.5789
 2363SOL     OW18724   2.957   2.533   2.725  0.5553 -0.4297 -0.4647
 2363SOL    HW118725   2.964   2.488   2.809 -1.6571 -3.1552 -1.7324
 2363SOL    HW218726   3.045   2.566   2.708  0.4131  0.3677  0.3466
 2364SOL     OW18727   0.296   1.780   7.865 -0.2066  0.3680  0.4860
 2364SOL    HW118728   0.300   1.777   7.769  0.6335  0.1452  0.5225
 2364SOL    HW218729   0.205   1.790   7.891  0.1352  0.1535  1.7394
 2365SOL     OW18730   3.336   1.292  17.619 -0.2885  0.6992  0.0288
 2365SOL    HW118731   3.351   1.210  17.573  0.3390  0.7526  0.1468
 2365SOL    HW218732   3.410   1.337  17.579  0.1678 -1.0304 -1.0873
 2366SOL     OW18733   2.581   4.045   6.790  0.3838 -0.1190  0.6602
 2366SOL    HW118734   2.534   3.963   6.775  1.8586 -0.9716  0.6164
 2366SOL    HW218735   2.650   4.035   6.724  0.0731 -0.1496  0.3384
 2367SOL     OW18736   3.954   4.578  12.565  0.2269  0.6420 -0.0347
 2367SOL    HW118737   3.942   4.671  12.587 -0.8187  1.0074 -2.1003
 2367SOL    HW218738   3.990   4.544  12.646  1.4437  1.1648 -0.3595
 2368SOL     OW18739   1.341   0.253   8.479  0.3645 -0.1871 -0.6576
 2368SOL    HW118740   1.258   0.291   8.507 -0.1400 -0.4546 -1.7955
 2368SOL    HW218741   1.400   0.295   8.542 -0.6210  2.9062 -1.8053
 2369SOL     OW18742   2.369   4.266   2.881  0.2721 -0.8672 -0.6582
 2369SOL    HW118743   2.428   4.242   2.809  4.3911  1.8676  1.7830
 2369SOL    HW218744   2.316   4.340   2.853  0.3811 -0.2554  0.7530
 2370SOL     OW18745   0.853   4.579   7.446 -0.0090  0.5511 -0.0442
 2370SOL    HW118746   0.805   4.662   7.451  0.8454  1.0162  0.3386
 2370SOL    HW218747   0.776   4.525   7.430  0.4635  0.3407 -1.6404
 2371SOL     OW18748   4.035   2.606   5.892 -0.8050 -1.2650 -0.7749
 2371SOL    HW118749   4.073   2.561   5.967 -0.3169 -0.0854 -0.3153
 2371SOL    HW218750   4.083   2.568   5.818  1.8585  0.8014 -0.1044
 2372SOL     OW18751   2.019   3.183  14.244 -0.1567 -0.2948 -0.2232
 2372SOL    HW118752   1.992   3.091  14.232  0.4031 -0.4745 -0.0951
 2372SOL    HW218753   1.993   3.210  14.332  0.8450  0.6474 -0.2129
 2373SOL     OW18754   3.311   1.837  13.224 -0.3885  0.3523  0.3861
 2373SOL    HW118755   3.338   1.752  13.260  0.8582  0.1096 -1.1110
 2373SOL    HW218756   3.216   1.834  13.229 -0.2798 -1.3236  1.7533
 2374SOL     OW18757   4.347   1.984  17.126 -0.0395  0.1455  0.3466
 2374SOL    HW118758   4.387   2.045  17.064 -0.9284  0.6699  0.2882
 2374SOL    HW218759   4.368   1.902  17.081  2.7217 -0.0998  2.0693
 2375SOL     OW18760   0.297   2.238  16.350 -0.1615  0.0248 -0.2959
 2375SOL    HW118761   0.319   2.193  16.432 -3.0021  0.6774  0.8390
 2375SOL    HW218762   0.235   2.302  16.386 -1.2994 -1.2918  0.0758
 2376SOL     OW18763   3.431   4.706   9.791  0.1291 -0.0688  0.1208
 2376SOL    HW118764   3.520   0.005   9.791 -0.6249  1.8020  0.5276
 2376SOL    HW218765   3.386   0.054   9.779 -0.0178 -0.3637 -1.4896
 2377SOL     OW18766   2.369   3.288   6.478 -0.0321 -0.2577 -0.0963
 2377SOL    HW118767   2.462   3.290   6.458  0.0933  1.6436  0.7220
 2377SOL    HW218768   2.357   3.200   6.515  0.0879  0.0501  0.6671
 2378SOL     OW18769   4.299   1.376   8.911 -0.6721  0.1821  0.3046
 2378SOL    HW118770   4.371   1.378   8.848 -1.2307  2.1414 -0.2897
 2378SOL    HW218771   4.229   1.336   8.860  0.2365 -0.7616 -0.1725
 2379SOL     OW18772   2.566   4.436  15.277 -0.0722  0.8480 -0.4009
 2379SOL    HW118773   2.580   4.529  15.293 -0.5773  0.4843  2.1370
 2379SOL    HW218774   2.470   4.435  15.282 -0.2100  1.2202 -3.1292
 2380SOL     OW18775   2.811   1.982  11.226 -0.7418  0.7945 -0.6148
 2380SOL    HW118776   2.834   1.947  11.312  0.2559  0.4603 -1.0167
 2380SOL    HW218777   2.845   2.072  11.229  0.3623  0.2704  3.4220
 2381SOL     OW18778   0.829   0.214   7.095 -0.1934 -0.5561  0.0192
 2381SOL    HW118779   0.747   0.188   7.136  0.5155 -0.9370  1.1773
 2381SOL    HW218780   0.785   0.235   7.012  1.0376 -1.3373 -0.8373
 2382SOL     OW18781   4.526   3.443   7.151 -0.2030 -0.2338  0.7332
 2382SOL    HW118782   4.491   3.524   7.113  1.0123 -0.6779 -1.3279
 2382SOL    HW218783   4.574   3.473   7.228 -0.0387 -1.6508  1.1807
 2383SOL     OW18784   0.386   0.040  14.379  0.4339  0.2182 -0.2927
 2383SOL    HW118785   0.467   4.725  14.371  0.1065 -0.3151 -0.2068
 2383SOL    HW218786   0.335   0.011  14.303 -0.7482 -1.9835  1.3414
 2384SOL     OW18787   3.533   3.260   4.592  0.0244 -0.2252  0.6172
 2384SOL    HW118788   3.551   3.229   4.504 -2.4900 -0.1409  0.0602
 2384SOL    HW218789   3.441   3.285   4.584 -0.5117 -2.0172  1.1466
 2385SOL     OW18790   1.020   0.668   2.924 -0.3002  0.7358 -0.7433
 2385SOL    HW118791   0.997   0.629   2.840  2.9434 -1.3960 -0.6653
 2385SOL    HW218792   1.102   0.622   2.941  0.1667  1.8869  0.1486
 2386SOL     OW18793   3.953   1.748   7.278  0.7102  0.0165 -0.2163
 2386SOL    HW118794   3.991   1.759   7.365  2.8438 -1.0162 -1.0166
 2386SOL    HW218795   4.028   1.732   7.220  0.3110 -0.1026 -0.6984
 2387SOL     OW18796   0.601   2.315  10.503  0.4384  0.4146 -0.6936
 2387SOL    HW118797   0.569   2.257  10.572  1.0951 -1.1938 -1.7510
 2387SOL    HW218798   0.527   2.310  10.443 -1.1721 -0.8547  1.4038
 2388SOL     OW18799   2.116   3.604  14.054 -0.1384 -0.2329  0.2179
 2388SOL    HW118800   2.135   3.682  14.001  2.1104 -1.7905 -1.2403
 2388SOL    HW218801   2.045   3.633  14.112  0.0109  0.3789  0.0929
 2389SOL     OW18802   3.008   0.105   2.487 -0.1304 -0.0757  0.8169
 2389SOL    HW118803   2.990   0.179   2.430  3.8056  1.6473  1.8135
 2389SOL    HW218804   3.088   0.067   2.452 -0.5591 -0.5478  0.3532
 2390SOL     OW18805   3.628   3.612   9.730 -0.3211  0.1377  0.0791
 2390SOL    HW118806   3.532   3.604   9.731 -0.4725  1.4431 -2.6967
 2390SOL    HW218807   3.653   3.520   9.727 -1.3675 -0.2449  2.8161
 2391SOL     OW18808   2.515   2.744   9.495 -0.1377 -0.3029  0.2801
 2391SOL    HW118809   2.580   2.811   9.514 -0.2044 -0.7873  2.2995
 2391SOL    HW218810   2.491   2.769   9.406 -2.2156  2.0452  1.5063
 2392SOL     OW18811   2.629   1.887  12.404  0.2292 -0.0604  0.4508
 2392SOL    HW118812   2.582   1.816  12.447  1.7526 -0.0769  2.1009
 2392SOL    HW218813   2.707   1.897  12.458  0.5802  2.8209 -0.5896
 2393SOL     OW18814   1.931   1.818   9.359  0.4186 -0.8315 -0.3692
 2393SOL    HW118815   1.960   1.745   9.413 -1.5550 -1.1314  0.2735
 2393SOL    HW218816   2.012   1.858   9.327  0.4922  0.4397  1.4348
 2394SOL     OW18817   3.257   0.534  15.622  0.2709 -0.1304  0.0970
 2394SOL    HW118818   3.333   0.481  15.645  2.3356  2.6974 -0.1436
 2394SOL    HW218819   3.271   0.585  15.542  2.3309 -1.5396 -0.4238
 2395SOL     OW18820   3.455   4.357   5.643 -0.1080 -0.1322 -0.0200
 2395SOL    HW118821   3.379   4.299   5.652  0.6200 -1.0261  0.4156
 2395SOL    HW218822   3.514   4.309   5.584 -1.7770 -0.8674 -1.1094
 2396SOL     OW18823   1.068   4.580  12.124  0.6112  0.0909 -0.3389
 2396SOL    HW118824   0.988   4.548  12.165  0.5634  0.9005  0.1905
 2396SOL    HW218825   1.139   4.567  12.187  0.5916 -1.6046 -0.6621
 2397SOL     OW18826   2.533   4.219  10.310  0.3164 -0.1059  0.0168
 2397SOL    HW118827   2.576   4.283  10.253  1.6537  0.3780  1.5553
 2397SOL    HW218828   2.445   4.218  10.273 -0.2677 -1.9610  1.4716
 2398SOL     OW18829   3.190   2.348  10.748  0.3547 -0.1533 -0.2188
 2398SOL    HW118830   3.272   2.374  10.790  0.7701  1.1312 -1.8237
 2398SOL    HW218831   3.129   2.356  10.821  0.3878  3.0668 -0.5157
 2399SOL     OW18832   0.131   0.742  10.863  0.2045  0.0260  0.0464
 2399SOL    HW118833   0.207   0.696  10.897  0.0036  0.5636  1.1963
 2399SOL    HW218834   0.169   0.830  10.854 -1.5401  0.4365 -3.4716
 2400SOL     OW18835   0.509   1.291  10.928  0.1775  0.1067  0.3249
 2400SOL    HW118836   0.557   1.218  10.889  2.2442  0.8728  1.4293
 2400SOL    HW218837   0.584   1.326  10.976  0.9962 -1.8947  0.5053
 2401SOL     OW18838   4.394   2.577   2.388  0.3126 -0.1806  0.0759
 2401SOL    HW118839   4.404   2.489   2.425 -0.2363 -0.0460  0.5545
 2401SOL    HW218840   4.444   2.632   2.447 -1.1880 -0.1576  1.3226
 2402SOL     OW18841   0.761   4.500  10.345 -0.2144  0.0522 -0.0761
 2402SOL    HW118842   0.765   4.405  10.348 -0.7068 -0.0467 -2.1482
 2402SOL    HW218843   0.667   4.518  10.343 -0.4499 -1.1740 -0.0131
 2403SOL     OW18844   4.275   1.234   8.533 -0.2399  0.1505  1.3976
 2403SOL    HW118845   4.346   1.185   8.574  0.1995 -0.1131  0.3207
 2403SOL    HW218846   4.327   1.312   8.514 -0.2880  0.0025  0.6782
 2404SOL     OW18847   3.104   0.208  10.006  0.1704 -0.4770 -0.8775
 2404SOL    HW118848   3.199   0.209   9.995  0.3384 -1.2845  0.5483
 2404SOL    HW218849   3.105   0.261  10.086 -0.2543 -0.8832 -0.6044
 2405SOL     OW18850   1.782   4.336   8.187  0.6523  1.0931  0.5037
 2405SOL    HW118851   1.804   4.320   8.279 -1.0820  0.9986  0.8965
 2405SOL    HW218852   1.836   4.273   8.138 -1.9397 -0.6576 -0.1487
 2406SOL     OW18853   2.752   0.344   9.233 -0.1512  0.1965 -0.1365
 2406SOL    HW118854   2.834   0.342   9.283 -0.6095 -0.7813  0.5697
 2406SOL    HW218855   2.758   0.422   9.177 -0.4948 -0.8874 -1.6671
 2407SOL     OW18856   1.595   3.686   0.427  0.6230 -0.4390  0.3242
 2407SOL    HW118857   1.663   3.627   0.460  0.5006  0.7958  2.8389
 2407SOL    HW218858   1.569   3.743   0.499  2.7184  2.0817 -0.8961
 2408SOL     OW18859   1.409   1.687   4.769 -0.1717 -0.2069 -0.0492
 2408SOL    HW118860   1.489   1.635   4.773 -1.2930 -2.0981 -2.3058
 2408SOL    HW218861   1.353   1.621   4.809 -1.3156  0.0937 -1.1759
 2409SOL     OW18862   4.185   1.566   6.815  0.6398 -0.4866  0.0735
 2409SOL    HW118863   4.241   1.643   6.809  0.0480 -0.0856 -0.3133
 2409SOL    HW218864   4.152   1.574   6.726  0.6916 -0.6453  0.0402
 2410SOL     OW18865   4.537   3.364  11.341 -0.5416 -0.0655 -0.5392
 2410SOL    HW118866   4.629   3.354  11.367 -1.3769 -1.6725  1.7287
 2410SOL    HW218867   4.549   3.394  11.250  2.5536 -1.4188 -0.6067
 2411SOL     OW18868   4.213   0.816  14.520  0.0310 -0.0966 -1.0448
 2411SOL    HW118869   4.280   0.776  14.575 -0.3003  1.6235  0.6265
 2411SOL    HW218870   4.264   0.895  14.502  0.0641  0.1558  0.1356
 2412SOL     OW18871   4.441   4.406   0.253  0.6145 -0.1879  0.2061
 2412SOL    HW118872   4.409   4.399   0.163  0.2236 -0.7062  0.3811
 2412SOL    HW218873   4.492   4.326   0.265  0.6868  0.0687  1.5433
 2413SOL     OW18874   1.970   3.118   2.367 -0.2419  0.0499  0.2078
 2413SOL    HW118875   1.940   3.203   2.336  1.1726 -0.3586 -2.3164
 2413SOL    HW218876   1.892   3.062   2.370 -2.5828  3.4602  3.2342
 2414SOL     OW18877   4.025   4.614  13.317  0.1624  0.0805  0.1782
 2414SOL    HW118878   3.978   4.533  13.336  0.7829  0.2728  2.5028
 2414SOL    HW218879   4.005   4.672  13.390 -0.2534 -3.0610  2.5309
 2415SOL     OW18880   1.710   4.680   1.646  0.2658 -0.2410  0.1374
 2415SOL    HW118881   1.661   4.691   1.727  1.2238 -3.3854  1.1397
 2415SOL    HW218882   1.726   4.586   1.648  0.1970 -0.2008  3.5425
 2416SOL     OW18883   3.850   1.020   7.470  0.3356  0.4588  0.5449
 2416SOL    HW118884   3.808   1.048   7.551  0.8619  0.8619  0.6778
 2416SOL    HW218885   3.888   0.941   7.508  2.6386  1.1568 -0.3271
 2417SOL     OW18886   2.735   3.960   9.294 -0.4500 -0.8412  0.3367
 2417SOL    HW118887   2.795   3.891   9.320  0.1700 -0.4736 -0.0974
 2417SOL    HW218888   2.662   3.940   9.351 -1.3195  1.7425  0.1366
 2418SOL     OW18889   0.034   0.645   1.966  0.0479 -1.0455  0.4477
 2418SOL    HW118890   4.692   0.591   1.969 -0.3569 -0.3348  2.8669
 2418SOL    HW218891   0.000   0.734   1.972 -0.4543 -1.2307  0.3243
 2419SOL     OW18892   2.008   2.220   3.615  0.5383  0.2703  0.7749
 2419SOL    HW118893   2.062   2.248   3.688 -3.5537  5.8693  1.7101
 2419SOL    HW218894   2.073   2.225   3.546 -1.4356 -2.6934 -1.3121
 2420SOL     OW18895   1.333   0.106   3.770  0.0275 -0.0338 -0.0946
 2420SOL    HW118896   1.308   0.127   3.679  0.9933 -1.0882 -0.5987
 2420SOL    HW218897   1.246   0.082   3.802 -0.8031  0.3611 -2.0256
 2421SOL     OW18898   0.141   1.672  14.504 -0.1256 -0.0951  0.1803
 2421SOL    HW118899   0.173   1.758  14.529 -0.7639  1.0535 -2.9791
 2421SOL    HW218900   0.056   1.685  14.462 -0.1321 -1.3513 -0.1916
 2422SOL     OW18901   1.858   4.245   6.730  0.0320 -0.0532 -0.3852
 2422SOL    HW118902   1.938   4.197   6.752  0.7991  1.8869  1.0547
 2422SOL    HW218903   1.873   4.238   6.636 -0.7922  0.4928 -0.5589
 2423SOL     OW18904   4.087   4.408   7.094 -0.6441 -0.3718  0.1738
 2423SOL    HW118905   4.176   4.442   7.087 -0.7944 -0.0696 -0.2911
 2423SOL    HW218906   4.045   4.494   7.086  1.4024  0.7473  1.4707
 2424SOL     OW18907   0.747   0.234  11.956 -0.1189 -0.2031 -0.2528
 2424SOL    HW118908   0.705   0.288  11.889 -0.8060 -1.9279 -1.2222
 2424SOL    HW218909   0.790   0.301  12.010 -3.8898  1.3686  0.7970
 2425SOL     OW18910   2.392   3.996   7.399  0.3769 -0.7797 -0.5428
 2425SOL    HW118911   2.393   3.913   7.448  0.2624 -0.1021  0.6067
 2425SOL    HW218912   2.486   4.016   7.393 -0.1499  1.5169 -0.8196
 2426SOL     OW18913   3.788   1.234   0.366 -0.4283  0.2233  0.0428
 2426SOL    HW118914   3.775   1.223   0.272 -0.5403  1.1013 -0.0428
 2426SOL    HW218915   3.781   1.328   0.379  2.6903  0.3840  0.6160
 2427SOL     OW18916   2.650   4.380   9.051  0.2903  0.0726 -0.1819
 2427SOL    HW118917   2.664   4.380   8.956 -0.9428  0.6520 -0.3619
 2427SOL    HW218918   2.627   4.290   9.072  1.8503 -0.0347  1.1126
 2428SOL     OW18919   4.685   3.352   6.744 -0.7680  0.1392 -0.0101
 2428SOL    HW118920   4.644   3.318   6.823 -1.7717  0.2053 -0.4923
 2428SOL    HW218921   0.036   3.313   6.750  0.2145  2.5747  1.0779
 2429SOL     OW18922   1.158   0.469   6.699 -0.1946  0.8197  0.2189
 2429SOL    HW118923   1.163   0.490   6.605  0.3556 -1.0347 -0.1657
 2429SOL    HW218924   1.148   0.555   6.740 -0.1984 -0.2250  2.3859
 2430SOL     OW18925   0.347   1.294   6.139  0.3963  0.2562 -0.5670
 2430SOL    HW118926   0.442   1.297   6.123  0.2889 -0.5010 -1.3863
 2430SOL    HW218927   0.329   1.201   6.154 -0.2881  0.8718  2.5201
 2431SOL     OW18928   3.228   2.388   7.499 -0.2019  0.4133 -0.2010
 2431SOL    HW118929   3.169   2.344   7.437 -0.3547 -0.0752  0.2880
 2431SOL    HW218930   3.170   2.370   7.574  1.6783 -0.9761  0.9300
 2432SOL     OW18931   2.723   1.648   2.136  0.0711 -0.1127 -0.1672
 2432SOL    HW118932   2.708   1.742   2.134 -1.6683 -0.4467 -2.5116
 2432SOL    HW218933   2.777   1.627   2.060 -0.0617 -2.7384  0.4545
 2433SOL     OW18934   1.333   0.384   7.466 -0.0860 -0.3006 -0.0424
 2433SOL    HW118935   1.383   0.466   7.474  0.8900 -0.7942 -1.1485
 2433SOL    HW218936   1.276   0.416   7.396  0.4394 -0.4828 -0.5529
 2434SOL     OW18937   4.259   4.637   8.913 -0.3077  0.4210 -0.5186
 2434SOL    HW118938   4.263   4.713   8.855  0.9380  2.2632  1.9878
 2434SOL    HW218939   4.173   4.597   8.897  0.7525 -1.2635 -1.8686
 2435SOL     OW18940   2.172   1.651   0.002 -0.3804 -0.2013 -0.2843
 2435SOL    HW118941   2.107   1.642   0.072 -0.4984  1.5863 -0.1819
 2435SOL    HW218942   2.184   1.744   0.017  0.0624 -0.0903 -1.3272
 2436SOL     OW18943   4.349   3.386   8.042 -0.6530 -0.7652 -0.4538
 2436SOL    HW118944   4.341   3.473   8.003 -2.2873 -1.3869 -1.4809
 2436SOL    HW218945   4.312   3.407   8.128 -1.7568 -1.7975 -0.6793
 2437SOL     OW18946   0.395   1.636  12.878  0.1154  0.0103  0.3751
 2437SOL    HW118947   0.477   1.587  12.884  0.2589  0.0841 -0.9797
 2437SOL    HW218948   0.336   1.590  12.938 -1.7352  0.5142 -1.0418
 2438SOL     OW18949   1.737   3.069   9.460  0.3786  0.2481  0.2327
 2438SOL    HW118950   1.694   3.080   9.544 -0.4669  1.0983 -0.3073
 2438SOL    HW218951   1.671   3.094   9.396  0.6724 -0.7525 -0.4647
 2439SOL     OW18952   3.050   3.884  12.943  0.2827 -0.8561 -0.2771
 2439SOL    HW118953   2.988   3.863  12.873  0.4029 -1.6064 -0.1597
 2439SOL    HW218954   3.014   3.831  13.013  0.6434  1.2091  1.4620
 2440SOL     OW18955   3.409   2.702   2.279 -0.0627  0.1848 -0.5650
 2440SOL    HW118956   3.495   2.727   2.312 -1.0247  0.9330  1.3529
 2440SOL    HW218957   3.361   2.654   2.347  1.2797  3.6097  2.8128
 2441SOL     OW18958   1.602   1.160   8.371  0.2863 -0.0480  0.5966
 2441SOL    HW118959   1.634   1.099   8.438  0.3058  0.5548  1.1431
 2441SOL    HW218960   1.629   1.119   8.289  0.2834 -0.8976  1.0129
 2442SOL     OW18961   3.329   3.354   6.494 -0.1102 -0.7858  0.0343
 2442SOL    HW118962   3.360   3.444   6.478  2.1031 -1.6185 -0.3746
 2442SOL    HW218963   3.284   3.347   6.410 -0.5627  1.0951  0.1100
 2443SOL     OW18964   1.247   0.712   4.687  0.2719 -0.6565  0.5444
 2443SOL    HW118965   1.283   0.711   4.599 -3.5956  2.1179 -1.0753
 2443SOL    HW218966   1.247   0.620   4.712 -0.4463 -0.7188  0.3211
 2444SOL     OW18967   1.786   1.720   5.466  0.0072  0.0474 -0.5085
 2444SOL    HW118968   1.844   1.692   5.395 -0.2959 -3.1005  0.4482
 2444SOL    HW218969   1.707   1.763   5.435  1.2769  0.9543 -2.4922
 2445SOL     OW18970   4.559   0.280   5.441  0.1475  0.0290  0.4482
 2445SOL    HW118971   4.570   0.188   5.416  0.1725  0.1187  0.1312
 2445SOL    HW218972   4.544   0.327   5.359 -0.2717 -2.3047 -0.7931
 2446SOL     OW18973   1.536   1.552   5.350 -0.3077  0.2374  0.5123
 2446SOL    HW118974   1.572   1.526   5.266 -1.6138  1.3515 -0.3804
 2446SOL    HW218975   1.509   1.639   5.321  0.7081  0.8076  1.2608
 2447SOL     OW18976   4.397   1.809   6.351  0.3674  0.1926 -0.0595
 2447SOL    HW118977   4.428   1.737   6.296 -2.8470 -0.2060 -1.3727
 2447SOL    HW218978   4.475   1.838   6.398  0.1389  0.2921  0.2630
 2448SOL     OW18979   3.612   4.611   6.095  0.0447  0.3528 -0.7904
 2448SOL    HW118980   3.582   4.522   6.078 -1.2635  0.8895 -1.2412
 2448SOL    HW218981   3.536   4.665   6.075  0.0600  0.6154 -0.1373
 2449SOL     OW18982   3.931   1.300   7.784 -0.8084 -0.1854 -0.3633
 2449SOL    HW118983   3.910   1.334   7.697  0.4129  0.5735 -0.3556
 2449SOL    HW218984   3.910   1.206   7.781  0.0408 -0.3878  0.0948
 2450SOL     OW18985   4.397   4.110   3.300  0.0904 -0.6442 -0.2782
 2450SOL    HW118986   4.452   4.183   3.271  1.0019 -0.4878  1.8345
 2450SOL    HW218987   4.313   4.129   3.258 -0.8176 -0.3275  1.6866
 2451SOL     OW18988   2.092   1.551  12.300  0.4907  0.3074 -0.1478
 2451SOL    HW118989   2.083   1.457  12.285 -2.1846  0.5683 -0.2335
 2451SOL    HW218990   2.171   1.553  12.353 -0.7871 -2.1593  1.8455
 2452SOL     OW18991   2.534   2.603  10.811  0.0217 -0.3521  0.1458
 2452SOL    HW118992   2.467   2.563  10.755  1.2766 -2.5348  0.2015
 2452SOL    HW218993   2.543   2.543  10.885  0.9454  0.4067  0.6487
 2453SOL     OW18994   3.376   3.313   3.666  0.2210  0.4510  0.6775
 2453SOL    HW118995   3.398   3.263   3.587  0.2555 -0.5644  1.3197
 2453SOL    HW218996   3.285   3.317   3.636  0.4889  2.9120  0.2156
 2454SOL     OW18997   0.939   1.427   3.658 -0.1038  0.3428  0.1709
 2454SOL    HW118998   0.945   1.446   3.564 -0.8379 -2.0281 -0.3439
 2454SOL    HW218999   1.025   1.458   3.686 -0.4286  1.0202  0.4446
 2455SOL     OW19000   0.987   0.028   2.209  0.8689 -0.4255 -0.2891
 2455SOL    HW119001   1.068   0.049   2.255 -0.2214  1.4541  0.7890
 2455SOL    HW219002   1.019   0.003   2.122  0.3853  0.2066 -0.6558
 2456SOL     OW19003   0.993   4.076  11.580  0.2157 -0.6383 -0.0349
 2456SOL    HW119004   0.992   4.170  11.599  1.4284 -0.2705 -1.8289
 2456SOL    HW219005   0.989   4.075  11.484  0.4436  0.3703 -0.0537
 2457SOL     OW19006   0.106   3.138  10.174 -0.3851  0.7257 -0.4378
 2457SOL    HW119007   0.191   3.161  10.211 -0.2077  1.1547 -1.1017
 2457SOL    HW219008   0.113   3.048  10.143 -1.0945  0.4381  0.2368
 2458SOL     OW19009   0.342   3.509  10.161  0.0308 -0.5290  0.6935
 2458SOL    HW119010   0.393   3.454  10.102  1.8666 -0.6801  2.4196
 2458SOL    HW219011   0.314   3.436  10.216 -0.9655 -0.5869  0.1124
 2459SOL     OW19012   3.732   0.887   5.097 -0.2402 -0.1211 -0.1023
 2459SOL    HW119013   3.791   0.820   5.131 -0.0409 -0.1553 -0.5138
 2459SOL    HW219014   3.747   0.881   5.002  0.6469  1.8675 -0.0804
 2460SOL     OW19015   0.170   2.496  10.408  0.0006  0.2801  0.3774
 2460SOL    HW119016   0.096   2.498  10.348 -1.4123  0.7658  2.1345
 2460SOL    HW219017   0.142   2.555  10.478  0.9188 -0.0950  1.0699
 2461SOL     OW19018   2.213   0.097   8.460  0.1534  0.1917 -0.0180
 2461SOL    HW119019   2.159   0.173   8.486  1.7303  0.7329  1.6785
 2461SOL    HW219020   2.189   0.038   8.531  1.0099 -0.7174 -0.4935
 2462SOL     OW19021   4.478   1.378   3.438 -0.0458  0.0866 -0.3010
 2462SOL    HW119022   4.412   1.334   3.383 -0.2603  1.2494 -0.9636
 2462SOL    HW219023   4.465   1.467   3.406  0.9845  0.5394  0.5654
 2463SOL     OW19024   2.381   0.069   7.786 -0.2181 -0.4651  0.0446
 2463SOL    HW119025   2.413   0.058   7.697  0.2184 -0.7452  0.2402
 2463SOL    HW219026   2.304   0.123   7.764 -0.0389 -0.0086  0.5397
 2464SOL     OW19027   3.676   0.562   7.463  0.0647 -0.4998 -0.4455
 2464SOL    HW119028   3.771   0.562   7.480 -0.0693 -0.2904  0.3159
 2464SOL    HW219029   3.680   0.589   7.371  1.5853  0.5860 -0.0617
 2465SOL     OW19030   2.412   0.845  16.591  0.4661  0.0944  0.1318
 2465SOL    HW119031   2.367   0.929  16.585  1.5972  0.6776 -0.1142
 2465SOL    HW219032   2.333   0.790  16.589 -0.0331  0.6977  4.5970
 2466SOL     OW19033   0.889   2.924   5.807 -0.2392  0.1873  0.1363
 2466SOL    HW119034   0.830   2.903   5.880 -1.3473  0.2515 -0.7290
 2466SOL    HW219035   0.896   2.839   5.765  1.1474 -0.6636  2.1083
 2467SOL     OW19036   4.045   3.802   8.604 -0.1541 -0.4632  0.1681
 2467SOL    HW119037   4.060   3.763   8.691 -1.2398 -1.6218 -0.1648
 2467SOL    HW219038   4.126   3.852   8.594  0.5828 -1.5770  0.5864
 2468SOL     OW19039   2.065   2.360   5.151 -0.4682  0.3553 -0.0496
 2468SOL    HW119040   2.149   2.383   5.111 -0.3173 -0.0575  0.0277
 2468SOL    HW219041   2.077   2.265   5.144 -0.3539  0.4799 -1.4630
 2469SOL     OW19042   3.147   4.627  17.406  0.3156  0.1490  0.4100
 2469SOL    HW119043   3.146   4.531  17.405 -0.4927  0.1500  1.4424
 2469SOL    HW219044   3.136   4.649  17.314  2.9265  1.1323  0.3318
 2470SOL     OW19045   2.517   4.302   5.398  0.2829 -0.0496  0.5581
 2470SOL    HW119046   2.518   4.395   5.419 -2.8284  0.9746 -3.8053
 2470SOL    HW219047   2.526   4.267   5.487 -2.4241 -1.0256  0.4468
 2471SOL     OW19048   4.374   0.886   5.189 -0.7927 -0.1697 -0.3099
 2471SOL    HW119049   4.334   0.893   5.102  1.1192  0.5941 -1.1428
 2471SOL    HW219050   4.318   0.939   5.246  1.7820  0.9663  1.1892
 2472SOL     OW19051   4.378   3.250   4.177 -0.1992  0.4095 -0.1564
 2472SOL    HW119052   4.353   3.214   4.262  1.0079  0.0787  0.0687
 2472SOL    HW219053   4.465   3.279   4.205  0.0859 -1.5189  0.9790
 2473SOL     OW19054   0.321   2.189  11.048 -0.1426  0.5213  0.1673
 2473SOL    HW119055   0.254   2.188  11.117 -0.6654  2.3630 -0.3147
 2473SOL    HW219056   0.274   2.173  10.967  0.4623 -0.7584  0.0677
 2474SOL     OW19057   3.536   4.224   9.558 -0.2769 -0.2793  0.4684
 2474SOL    HW119058   3.452   4.223   9.513  0.3910  1.6809 -0.8274
 2474SOL    HW219059   3.556   4.317   9.545  0.0208 -0.4958 -0.5728
 2475SOL     OW19060   1.526   2.935  14.903 -0.2543  0.0978  0.1352
 2475SOL    HW119061   1.511   2.860  14.845  3.5958 -1.4961  1.2307
 2475SOL    HW219062   1.500   3.006  14.844  0.7867  0.6969  0.3890
 2476SOL     OW19063   1.557   3.644   0.983  0.8219 -0.3211 -0.0973
 2476SOL    HW119064   1.516   3.592   1.053  0.8637 -0.4318 -0.1552
 2476SOL    HW219065   1.544   3.577   0.916 -1.7642  2.2045 -2.0503
 2477SOL     OW19066   1.715   3.682   7.878  0.1250  0.2728  0.3560
 2477SOL    HW119067   1.773   3.614   7.844  1.8656  1.5522  0.7839
 2477SOL    HW219068   1.631   3.638   7.890 -0.0015  0.7732  1.3155
 2478SOL     OW19069   3.204   1.309   2.941 -0.0798  0.5535 -0.6799
 2478SOL    HW119070   3.172   1.326   2.852 -0.4363  1.4648 -0.3726
 2478SOL    HW219071   3.298   1.292   2.930  0.0384  1.1274 -0.5619
 2479SOL     OW19072   2.832   0.057  16.440  0.0702 -0.3517  0.3353
 2479SOL    HW119073   2.895   0.089  16.376  0.9373  0.8427  1.8114
 2479SOL    HW219074   2.812   0.133  16.495 -0.8694 -0.0409 -0.4228
 2480SOL     OW19075   2.837   1.274   3.040 -0.4054 -0.5142  0.1675
 2480SOL    HW119076   2.917   1.307   3.082  1.1498 -3.2264 -0.6978
 2480SOL    HW219077   2.864   1.269   2.948 -0.1724  0.3152  0.1922
 2481SOL     OW19078   2.843   4.616  16.629 -0.2904  0.4474 -0.4729
 2481SOL    HW119079   2.814   4.670  16.556  1.1354  2.5584  0.5096
 2481SOL    HW219080   2.817   4.528  16.602 -1.0358 -0.1215  2.1207
 2482SOL     OW19081   0.192   3.730   2.093  0.1956  0.7147  0.1313
 2482SOL    HW119082   0.164   3.779   2.016  0.8919  0.1389 -0.4810
 2482SOL    HW219083   0.218   3.647   2.053  2.2695  0.4433  2.0646
 2483SOL     OW19084   1.459   2.758  15.923 -0.3182  0.1958 -0.1450
 2483SOL    HW119085   1.488   2.840  15.881 -0.6244  0.7948  0.8116
 2483SOL    HW219086   1.410   2.799  15.995 -0.8044 -2.3886  0.9767
 2484SOL     OW19087   3.890   2.723   7.062  0.0732 -0.2396  0.3330
 2484SOL    HW119088   3.838   2.643   7.056  0.1883 -0.2412 -0.5260
 2484SOL    HW219089   3.918   2.734   6.971  0.7806  0.5322  0.6380
 2485SOL     OW19090   0.738   2.938   8.052 -0.6516  0.0978 -0.2214
 2485SOL    HW119091   0.693   3.014   8.088 -2.8661 -1.9156  1.2516
 2485SOL    HW219092   0.756   2.965   7.962  0.3555 -0.9192 -0.3288
 2486SOL     OW19093   3.325   2.805  16.223 -0.3660  0.5673  0.0625
 2486SOL    HW119094   3.391   2.871  16.240  1.3796 -0.9418 -0.8729
 2486SOL    HW219095   3.383   2.735  16.193  1.6343  2.8692 -1.4138
 2487SOL     OW19096   0.148   4.359  17.099  0.2585 -0.1695  0.1021
 2487SOL    HW119097   0.221   4.327  17.046 -0.4487  0.4510 -1.2337
 2487SOL    HW219098   0.111   4.277  17.130 -0.1539 -0.1295 -0.2831
 2488SOL     OW19099   2.677   2.849   3.228 -0.1521 -0.0370 -0.2295
 2488SOL    HW119100   2.733   2.839   3.151  2.0134  3.0749  0.9389
 2488SOL    HW219101   2.709   2.784   3.290  0.9720  1.2103  0.5047
 2489SOL     OW19102   0.663   0.987  10.950  0.0459 -0.2608  0.0414
 2489SOL    HW119103   0.596   0.964  11.014 -0.3839  0.5709 -0.1161
 2489SOL    HW219104   0.716   0.907  10.947  2.0324  1.1580 -2.4772
 2490SOL     OW19105   3.925   3.691   1.351  0.5214 -0.0242 -0.3355
 2490SOL    HW119106   3.907   3.619   1.291  2.5017  0.2930 -1.2985
 2490SOL    HW219107   3.952   3.637   1.426 -1.8528 -0.8173 -0.0473
 2491SOL     OW19108   4.330   2.274   2.022 -0.2464 -0.3552 -0.4850
 2491SOL    HW119109   4.332   2.366   2.049 -3.5500  0.2980 -2.4360
 2491SOL    HW219110   4.257   2.244   2.076  0.8088  0.0626  1.1704
 2492SOL     OW19111   3.785   0.463   4.266  0.8055  0.2640  0.0948
 2492SOL    HW119112   3.704   0.419   4.241  0.0284 -0.1324  3.3904
 2492SOL    HW219113   3.831   0.395   4.315 -0.4467 -1.0285 -0.5444
 2493SOL     OW19114   2.340   1.396   3.484  0.2910 -0.3140  0.0534
 2493SOL    HW119115   2.360   1.379   3.392  0.4259 -2.1848  0.4162
 2493SOL    HW219116   2.310   1.314   3.525  2.1889 -0.1831  1.6974
 2494SOL     OW19117   2.910   3.587   1.386  0.1764 -0.4400 -0.2895
 2494SOL    HW119118   2.963   3.583   1.307  0.3065  0.3234 -0.2329
 2494SOL    HW219119   2.864   3.670   1.377  0.6195  0.1051  2.4471
 2495SOL     OW19120   0.952   0.576   5.075 -0.5750  0.0516  0.2115
 2495SOL    HW119121   0.882   0.637   5.097 -0.5525 -0.0416  0.5352
 2495SOL    HW219122   0.942   0.547   4.984 -1.4802 -3.3296  1.3916
 2496SOL     OW19123   3.145   2.922   7.638  1.0649 -0.5455  0.1472
 2496SOL    HW119124   3.190   3.006   7.640  2.5434 -1.3336 -0.0857
 2496SOL    HW219125   3.084   2.938   7.565 -0.9374  1.7317  2.3018
 2497SOL     OW19126   3.349   2.832   7.299 -0.4930  0.3891  0.3361
 2497SOL    HW119127   3.326   2.917   7.337  0.5852  0.9027 -0.1552
 2497SOL    HW219128   3.409   2.852   7.228 -0.9763 -0.5157 -0.3265
 2498SOL     OW19129   2.194   1.004   3.115  0.0757  0.2459 -0.2865
 2498SOL    HW119130   2.280   1.033   3.145  1.1649 -2.4468 -0.8186
 2498SOL    HW219131   2.174   0.946   3.189 -1.1730 -0.6699 -1.3273
 2499SOL     OW19132   0.594   2.932   3.312  0.8187  0.4245 -0.3589
 2499SOL    HW119133   0.640   2.974   3.239 -0.0057 -0.5164 -1.4356
 2499SOL    HW219134   0.559   3.007   3.360  0.1377 -0.4540  0.5235
 2500SOL     OW19135   2.799   3.406   7.920  0.0636  0.1330 -0.2657
 2500SOL    HW119136   2.778   3.473   7.985  1.1198  2.1547 -2.0239
 2500SOL    HW219137   2.867   3.448   7.869 -1.3889  1.9834 -0.6809
 2501SOL     OW19138   4.232   0.810   7.516  0.3360 -0.5241 -0.1018
 2501SOL    HW119139   4.225   0.792   7.422  2.6131 -0.7754 -0.2190
 2501SOL    HW219140   4.152   0.860   7.531  1.8158  2.2592 -1.5757
 2502SOL     OW19141   4.159   3.893   2.849  0.1499  0.0629  0.4254
 2502SOL    HW119142   4.179   3.902   2.756  1.7230 -0.1469  0.7287
 2502SOL    HW219143   4.247   3.871   2.880  0.6509  0.0507 -1.0048
 2503SOL     OW19144   1.481   1.264  12.105  0.1463 -0.3291 -0.2876
 2503SOL    HW119145   1.394   1.301  12.090  0.5874  0.0677 -1.8499
 2503SOL    HW219146   1.533   1.335  12.069 -0.4425  1.4806  2.4198
 2504SOL     OW19147   0.530   3.155   5.551 -0.3494  0.2350  0.3660
 2504SOL    HW119148   0.487   3.145   5.466 -0.6922 -2.4285  0.8597
 2504SOL    HW219149   0.564   3.244   5.546 -1.2910  0.6009  0.5852
 2505SOL     OW19150   3.509   4.729  15.662 -0.3205 -0.5890  0.3967
 2505SOL    HW119151   3.414   4.715  15.657 -0.1065 -1.2695 -2.0486
 2505SOL    HW219152   3.544   4.656  15.713 -2.1952 -1.8738 -0.1629
 2506SOL     OW19153   1.525   0.663   0.862  0.2117 -0.4255  0.1896
 2506SOL    HW119154   1.525   0.702   0.775  1.3656 -2.6580 -0.8228
 2506SOL    HW219155   1.492   0.737   0.912 -1.1817 -1.2849  0.5352
 2507SOL     OW19156   2.247   3.634   0.682  0.5246 -0.0384  0.4078
 2507SOL    HW119157   2.293   3.552   0.666  1.1556  0.2457  0.7720
 2507SOL    HW219158   2.183   3.644   0.612 -0.1691  0.6968  1.1458
 2508SOL     OW19159   2.695   2.959   1.201  0.0910  0.0970  0.4317
 2508SOL    HW119160   2.646   3.036   1.171  1.9708  1.4097  0.6753
 2508SOL    HW219161   2.674   2.906   1.125  0.9834  0.7773 -0.2928
 2509SOL     OW19162   3.996   2.669   1.916  0.3277  0.3528  0.2751
 2509SOL    HW119163   4.009   2.617   1.836 -1.2212 -0.7073  0.7085
 2509SOL    HW219164   4.013   2.760   1.893 -0.5367 -0.1618 -2.4244
 2510SOL     OW19165   2.668   2.697   2.221  0.2457 -0.5831  0.1329
 2510SOL    HW119166   2.746   2.706   2.166  0.4890 -0.5699  0.4760
 2510SOL    HW219167   2.596   2.736   2.172  1.7980  2.3890  0.2114
 2511SOL     OW19168   1.413   2.624   4.132  0.0753 -0.4420 -0.0202
 2511SOL    HW119169   1.506   2.620   4.156  0.5443 -0.6769 -1.9079
 2511SOL    HW219170   1.397   2.551   4.073 -1.6076 -0.1521  0.0946
 2512SOL     OW19171   2.538   4.192   7.623 -0.3078 -0.1263 -0.5466
 2512SOL    HW119172   2.561   4.114   7.572 -0.3023 -0.5239  0.0590
 2512SOL    HW219173   2.445   4.183   7.646 -0.2556  0.9729  0.0855
 2513SOL     OW19174   0.329   4.421   4.488  0.2677 -0.2528  0.0597
 2513SOL    HW119175   0.368   4.500   4.450  2.6189 -0.7090  1.5598
 2513SOL    HW219176   0.309   4.451   4.577  0.4090 -3.1002  1.0330
 2514SOL     OW19177   0.768   0.734   7.098 -0.0378  0.1373  0.4951
 2514SOL    HW119178   0.818   0.738   7.180 -0.8423 -0.4429  1.0084
 2514SOL    HW219179   0.811   0.808   7.055  1.8282 -0.9381  0.5058
 2515SOL     OW19180   2.111   0.343   0.315  0.0190  0.2062  0.3574
 2515SOL    HW119181   2.071   0.270   0.362  0.3828  1.6191  2.8594
 2515SOL    HW219182   2.034   0.400   0.307 -0.0268  0.5525  3.3658
 2516SOL     OW19183   3.960   4.193   1.338  0.3576  0.0631 -0.3819
 2516SOL    HW119184   3.930   4.274   1.378  1.4802  0.5403 -0.5089
 2516SOL    HW219185   3.908   4.198   1.257  1.3080 -0.9875 -1.0710
 2517SOL     OW19186   2.629   1.553  17.510 -0.1704  0.0408 -0.2186
 2517SOL    HW119187   2.598   1.474  17.553 -0.7660  1.3178  1.6942
 2517SOL    HW219188   2.592   1.625  17.561  0.8897  0.2919  0.2073
 2518SOL     OW19189   4.451   0.817   3.713 -0.0633  0.0563 -0.0255
 2518SOL    HW119190   4.512   0.858   3.774 -0.7758  0.6413  0.2836
 2518SOL    HW219191   4.462   0.723   3.722 -2.5520 -0.4801 -2.4171
 2519SOL     OW19192   0.784   2.263   4.532  0.0798 -0.7443 -0.2235
 2519SOL    HW119193   0.728   2.281   4.456  0.1541  0.2253 -0.0503
 2519SOL    HW219194   0.737   2.309   4.601  0.5128 -0.0329 -0.4011
 2520SOL     OW19195   4.557   3.424   6.513  0.3610  0.1059  0.7017
 2520SOL    HW119196   4.489   3.357   6.504 -0.7499  1.1908  1.0207
 2520SOL    HW219197   4.606   3.398   6.591 -0.2621  0.0337  1.0669
 2521SOL     OW19198   2.127   3.438  14.579  0.0566 -0.1847  0.1992
 2521SOL    HW119199   2.168   3.503  14.521  1.8482 -2.1515 -0.7071
 2521SOL    HW219200   2.088   3.497  14.643  1.3919  2.9711 -1.8684
 2522SOL     OW19201   1.076   1.081  13.501 -0.1014  0.3382 -0.1731
 2522SOL    HW119202   0.995   1.120  13.534 -0.6881 -0.3576 -0.7771
 2522SOL    HW219203   1.142   1.149  13.513  0.3104 -0.3489  1.4258
 2523SOL     OW19204   4.430   2.233  12.901 -0.1698  0.4190  0.2353
 2523SOL    HW119205   4.406   2.313  12.947  0.3594  0.2698  0.7670
 2523SOL    HW219206   4.366   2.248  12.832  0.4472  1.1054 -0.1921
 2524SOL     OW19207   0.067   0.205   1.408 -0.5861  0.1921  0.2978
 2524SOL    HW119208   0.098   0.285   1.366  0.1861 -0.5261 -0.5168
 2524SOL    HW219209   0.104   0.134   1.356 -3.4547  0.0199 -1.5320
 2525SOL     OW19210   1.660   0.573  13.673 -0.1148 -0.2402  0.1901
 2525SOL    HW119211   1.693   0.517  13.743 -1.4764 -1.6781 -0.3217
 2525SOL    HW219212   1.611   0.508  13.622 -0.6991 -0.6136  1.2203
 2526SOL     OW19213   1.765   4.452   5.260  0.0635  0.8914 -0.1097
 2526SOL    HW119214   1.834   4.483   5.202  1.1286  1.3000  1.3745
 2526SOL    HW219215   1.719   4.384   5.211 -0.1977  1.5617 -0.7978
 2527SOL     OW19216   1.886   1.593  12.718  0.4014 -0.1585  0.2069
 2527SOL    HW119217   1.970   1.631  12.693  0.5691 -0.0361  0.9312
 2527SOL    HW219218   1.912   1.507  12.751 -1.5262 -0.6625  0.4128
 2528SOL     OW19219   0.586   3.612   2.839 -0.2280 -0.3649  0.1209
 2528SOL    HW119220   0.581   3.707   2.852 -1.1773 -0.6814  2.0031
 2528SOL    HW219221   0.533   3.602   2.760 -0.9220  0.2846  0.5080
 2529SOL     OW19222   4.367   3.969  10.225 -0.4642 -0.4751 -0.2853
 2529SOL    HW119223   4.347   3.975  10.131 -1.6542  1.4236  0.0834
 2529SOL    HW219224   4.351   4.059  10.253 -3.5281 -0.6856 -1.4069
 2530SOL     OW19225   2.189   0.226   7.081 -0.8659 -0.1250 -0.2234
 2530SOL    HW119226   2.105   0.219   7.125  0.1420 -1.1975  1.4962
 2530SOL    HW219227   2.169   0.273   7.000 -1.4640  2.2247  1.2826
 2531SOL     OW19228   1.136   0.673   6.872  0.3268 -0.0146 -0.9115
 2531SOL    HW119229   1.213   0.728   6.887  0.6446 -1.6744  3.5500
 2531SOL    HW219230   1.116   0.638   6.959  0.4999  0.3749 -0.7145
 2532SOL     OW19231   2.796   3.826   2.725  0.3825 -0.1620 -0.7433
 2532SOL    HW119232   2.866   3.874   2.768 -0.1198 -0.6215  0.5935
 2532SOL    HW219233   2.771   3.775   2.802  1.2294  2.3909  1.1856
 2533SOL     OW19234   3.662   2.216   4.457  0.9877  0.5737 -0.9263
 2533SOL    HW119235   3.612   2.156   4.513 -0.8980  1.9079 -1.1902
 2533SOL    HW219236   3.614   2.217   4.375  1.9836 -0.1527 -1.5248
 2534SOL     OW19237   1.422   4.509  14.129 -0.2944  0.4664 -1.1710
 2534SOL    HW119238   1.357   4.579  14.117 -0.0978  1.1382  1.6201
 2534SOL    HW219239   1.438   4.483  14.038  1.8620  0.1999 -0.7060
 2535SOL     OW19240   2.347   1.853   3.732  0.2696  0.0040 -0.8541
 2535SOL    HW119241   2.256   1.857   3.702  0.2430 -0.1448 -0.7964
 2535SOL    HW219242   2.374   1.763   3.751  1.6700  0.7488  0.6943
 2536SOL     OW19243   3.204   2.227   7.970  0.0656  0.6743 -0.8236
 2536SOL    HW119244   3.206   2.319   7.943  2.8889  0.9969  0.4436
 2536SOL    HW219245   3.198   2.246   8.064 -3.0773  0.9252 -1.0733
 2537SOL     OW19246   3.180   0.098   3.060 -0.0666 -0.7239  0.3534
 2537SOL    HW119247   3.112   0.032   3.073 -0.8632  0.0676  0.2301
 2537SOL    HW219248   3.170   0.151   3.139  0.1236 -1.7880  1.0852
 2538SOL     OW19249   4.640   0.158   7.719  0.1232 -0.4944  0.4134
 2538SOL    HW119250   4.682   0.072   7.725  0.4045 -0.3268  0.8735
 2538SOL    HW219251   4.589   0.152   7.800 -1.9516  1.3153 -0.7731
 2539SOL     OW19252   0.226   3.811   2.353  0.2372 -0.3462  0.1820
 2539SOL    HW119253   0.146   3.863   2.365  2.3194  2.4168  1.9967
 2539SOL    HW219254   0.209   3.788   2.262 -0.6407 -0.9450  0.4924
 2540SOL     OW19255   4.117   4.544  14.810 -0.5156 -0.8388  0.2303
 2540SOL    HW119256   4.104   4.639  14.808  3.4903 -0.3516 -2.3197
 2540SOL    HW219257   4.212   4.531  14.802 -0.6927 -2.6576  1.0849
 2541SOL     OW19258   1.027   0.102   9.634  0.2659 -0.2534  0.4989
 2541SOL    HW119259   1.074   0.019   9.626  0.1098 -0.1584 -1.2705
 2541SOL    HW219260   0.936   0.077   9.653 -0.4329 -0.5411 -3.3319
 2542SOL     OW19261   1.299   1.424   6.702  0.6473  0.4471 -0.5230
 2542SOL    HW119262   1.321   1.383   6.786  0.1975  1.4148  0.0816
 2542SOL    HW219263   1.296   1.518   6.723 -0.3042  0.6376 -1.5332
 2543SOL     OW19264   4.712   4.032   7.580 -0.7482  0.0142 -0.1913
 2543SOL    HW119265   4.647   4.030   7.650  1.0566 -0.3315  1.4782
 2543SOL    HW219266   4.688   3.959   7.523 -0.1695 -0.8719  0.7044
 2544SOL     OW19267   0.692   4.574   9.947 -0.5483  0.2430  0.6338
 2544SOL    HW119268   0.673   4.482   9.927 -2.0068  0.4587  1.0447
 2544SOL    HW219269   0.607   4.608   9.972 -2.3445 -1.3186 -3.3126
 2545SOL     OW19270   3.477   4.476   7.663 -0.8416  0.5754  0.8804
 2545SOL    HW119271   3.470   4.459   7.569  0.2626  0.5387  0.8076
 2545SOL    HW219272   3.438   4.401   7.707 -0.8746 -0.4969 -1.0042
 2546SOL     OW19273   2.852   4.735   9.275  0.3535 -0.7957 -0.7033
 2546SOL    HW119274   2.768   0.045   9.277 -0.0303 -1.5222  0.2399
 2546SOL    HW219275   2.823   4.645   9.294 -1.9592  0.0276 -0.3887
 2547SOL     OW19276   1.500   1.717   1.844 -0.2142 -0.3703  0.0601
 2547SOL    HW119277   1.584   1.747   1.879 -0.6199  0.1241  0.6158
 2547SOL    HW219278   1.534   1.646   1.789  3.1611  0.9481  0.3795
 2548SOL     OW19279   0.347   0.672   2.299  0.0951 -0.5114 -0.4267
 2548SOL    HW119280   0.328   0.592   2.250  0.0451 -0.9622  0.3241
 2548SOL    HW219281   0.415   0.714   2.246  2.9531 -2.5940  1.5632
 2549SOL     OW19282   2.865   1.483  11.739  0.0070 -0.1092  0.2733
 2549SOL    HW119283   2.814   1.552  11.697 -3.0733  0.2843  4.6750
 2549SOL    HW219284   2.802   1.422  11.778 -0.9801  0.0383 -1.0866
 2550SOL     OW19285   1.612   0.041   9.436 -0.0227  0.3253 -0.5196
 2550SOL    HW119286   1.671   0.115   9.428  0.4750  0.0642  0.7439
 2550SOL    HW219287   1.614   0.029   9.531  0.3099 -0.2499 -0.5955
 2551SOL     OW19288   1.969   1.878   6.897 -0.2910 -0.1065  0.5043
 2551SOL    HW119289   1.954   1.900   6.989 -0.5740  2.9034 -0.2522
 2551SOL    HW219290   1.947   1.964   6.861 -1.1367 -1.0259 -1.1888
 2552SOL     OW19291   3.266   4.168   5.723  0.3240 -0.5178 -0.4161
 2552SOL    HW119292   3.243   4.081   5.757 -2.0103  0.5697  0.8009
 2552SOL    HW219293   3.253   4.231   5.794  1.6036  1.8634 -2.2860
 2553SOL     OW19294   4.683   4.639   5.925  0.1791 -0.0631  0.1507
 2553SOL    HW119295   0.008   4.671   5.991  1.0537 -0.3436 -0.5117
 2553SOL    HW219296   4.708   4.686   5.845  3.1212  0.8677  1.6269
 2554SOL     OW19297   1.008   4.499  17.714 -0.7338 -0.3281 -0.3544
 2554SOL    HW119298   0.918   4.529  17.705 -0.3223  0.8431 -0.7080
 2554SOL    HW219299   1.002   4.453   0.054 -3.4691  2.0942  0.8000
 2555SOL     OW19300   0.075   1.208   2.000  0.4442 -0.3235  0.5415
 2555SOL    HW119301   0.152   1.171   1.957  0.0024 -0.9149  0.2585
 2555SOL    HW219302   0.106   1.231   2.087  0.6319  0.5710  0.2379
 2556SOL     OW19303   4.689   4.654   7.187 -0.1791  0.1005 -0.3819
 2556SOL    HW119304   4.709   4.719   7.254 -1.1253  0.5654 -0.5529
 2556SOL    HW219305   4.721   4.570   7.221  0.5501 -0.6329 -2.8935
 2557SOL     OW19306   1.909   0.663   1.835  0.4132  0.1431 -0.1235
 2557SOL    HW119307   1.998   0.629   1.836  0.2843 -0.1363  3.1374
 2557SOL    HW219308   1.863   0.587   1.801 -0.5170  0.0674  1.3075
 2558SOL     OW19309   2.071   1.334   3.303  0.8281  0.3990  0.4380
 2558SOL    HW119310   2.006   1.265   3.306 -0.8776  2.0860  1.9725
 2558SOL    HW219311   2.018   1.406   3.336  0.8860 -0.2826  1.9819
 2559SOL     OW19312   0.085   3.098   1.524  0.5201 -0.1257  0.4637
 2559SOL    HW119313   0.152   3.045   1.565 -1.2225 -1.9996  0.8817
 2559SOL    HW219314   0.119   3.187   1.516  1.6320 -0.5687  0.3675
 2560SOL     OW19315   3.649   0.603  17.738  0.0932 -0.4407 -0.1280
 2560SOL    HW119316   3.663   0.669  17.669  1.1541 -1.1076 -0.5512
 2560SOL    HW219317   3.710   0.635   0.061  1.1044  0.0050 -1.2843
 2561SOL     OW19318   3.017   2.915  15.607 -0.3751  0.2939  0.4997
 2561SOL    HW119319   3.014   2.839  15.548  0.4297 -0.6288  1.6576
 2561SOL    HW219320   2.954   2.891  15.674  0.6568  0.0947  1.3832
 2562SOL     OW19321   1.753   2.265   0.379  0.4046  0.4205 -0.2605
 2562SOL    HW119322   1.664   2.294   0.359  0.5539  0.8294 -0.3390
 2562SOL    HW219323   1.736   2.261   0.473 -0.5318  3.2261 -0.3238
 2563SOL     OW19324   1.506   2.909   6.642 -0.6646  0.2069 -0.2254
 2563SOL    HW119325   1.570   2.840   6.623 -1.8256 -0.6481 -1.0591
 2563SOL    HW219326   1.456   2.902   6.560 -0.5696  0.1018 -0.2742
 2564SOL     OW19327   3.863   4.288   3.702  0.0238 -0.4185  0.1890
 2564SOL    HW119328   3.826   4.262   3.617  1.3931 -1.4549 -0.0929
 2564SOL    HW219329   3.829   4.377   3.708  1.3268  0.0397  0.7551
 2565SOL     OW19330   0.093   1.527   5.092 -0.0206 -0.2442 -0.3877
 2565SOL    HW119331   0.025   1.461   5.079 -0.4954  0.1118  0.2471
 2565SOL    HW219332   0.037   1.603   5.112  0.4792  0.1206 -0.3775
 2566SOL     OW19333   0.817   0.478   0.577 -0.5764  0.0719  0.2176
 2566SOL    HW119334   0.792   0.386   0.588  0.0510  0.2907  3.2964
 2566SOL    HW219335   0.889   0.478   0.514 -0.6639  1.0761  0.1184
 2567SOL     OW19336   3.136   1.873   9.396  0.3059 -0.3228 -0.3235
 2567SOL    HW119337   3.150   1.860   9.490  0.1504 -1.5054 -0.4604
 2567SOL    HW219338   3.089   1.956   9.392 -0.6529 -1.0189 -3.3779
 2568SOL     OW19339   0.598   4.180   2.999 -0.0174  0.0473 -0.3173
 2568SOL    HW119340   0.527   4.139   3.047  1.4327 -1.2499  0.7356
 2568SOL    HW219341   0.607   4.267   3.038  0.4974 -0.8652  1.6164
 2569SOL     OW19342   1.741   4.603   3.290  0.0029  0.1016 -0.0096
 2569SOL    HW119343   1.708   4.583   3.203 -0.8493  1.7495 -0.0672
 2569SOL    HW219344   1.835   4.621   3.291 -0.2325  1.3389  2.0458
 2570SOL     OW19345   3.992   3.492   7.367  0.4083 -0.3638 -0.2638
 2570SOL    HW119346   4.070   3.441   7.343 -0.4843 -1.0110 -1.7796
 2570SOL    HW219347   3.971   3.523   7.279 -0.0953 -1.9590 -0.7135
 2571SOL     OW19348   2.219   4.297   8.108  0.6597  0.5051  0.3197
 2571SOL    HW119349   2.225   4.356   8.183 -2.1977 -0.3764  1.2334
 2571SOL    HW219350   2.223   4.361   8.037 -0.9250 -0.3207 -0.5171
 2572SOL     OW19351   1.534   0.679   3.617  0.2337 -0.0328  0.2122
 2572SOL    HW119352   1.545   0.610   3.682  1.4595 -0.5634 -0.5515
 2572SOL    HW219353   1.622   0.701   3.587 -0.2447  0.5936 -0.7605
 2573SOL     OW19354   0.218   1.017   8.913  0.4449 -0.1509 -0.2245
 2573SOL    HW119355   0.137   1.045   8.957 -0.3304 -1.1345 -1.0205
 2573SOL    HW219356   0.278   1.071   8.964 -1.0219  1.1083  0.1614
 2574SOL     OW19357   4.073   2.025   4.070 -0.0161  0.2513 -0.6778
 2574SOL    HW119358   4.031   2.044   4.154  0.5089 -0.0423 -0.3488
 2574SOL    HW219359   4.135   1.953   4.081  0.3000  0.6035 -0.1247
 2575SOL     OW19360   1.715   3.585   4.556  0.1780 -0.9918 -0.2180
 2575SOL    HW119361   1.660   3.569   4.479 -1.7275 -1.3444  1.2370
 2575SOL    HW219362   1.676   3.663   4.595 -0.0922 -1.1838 -0.1084
 2576SOL     OW19363   0.370   3.150   1.973  0.1536  0.5776 -0.1960
 2576SOL    HW119364   0.428   3.075   1.988  0.4088  1.1304  1.5861
 2576SOL    HW219365   0.427   3.213   2.017  0.7065  0.0574 -0.1665
 2577SOL     OW19366   4.663   2.229  10.377 -0.2228  0.3952  0.1846
 2577SOL    HW119367   4.643   2.302  10.317 -0.4311 -1.2399 -1.7367
 2577SOL    HW219368   4.629   2.262  10.460 -0.0148  0.6805  0.1583
 2578SOL     OW19369   0.218   3.468   6.452 -0.1984 -0.3088  0.1806
 2578SOL    HW119370   0.149   3.503   6.509 -0.2412  0.8930 -0.5972
 2578SOL    HW219371   0.242   3.387   6.496  0.5459 -0.2555 -0.1288
 2579SOL     OW19372   0.879   1.425   2.136  0.4357 -0.1147 -0.0764
 2579SOL    HW119373   0.848   1.346   2.179 -0.6800 -1.2678 -2.9634
 2579SOL    HW219374   0.964   1.435   2.179  1.6195 -1.9992 -1.9700
 2580SOL     OW19375   2.013   0.833  13.329  0.2831 -0.5430 -0.2062
 2580SOL    HW119376   1.994   0.800  13.241  1.3004 -3.1767  0.5738
 2580SOL    HW219377   1.927   0.840  13.372 -1.2052  0.0800 -3.2983
 2581SOL     OW19378   2.225   4.586   4.364  0.8196 -0.0960  0.0662
 2581SOL    HW119379   2.215   4.631   4.280  1.0797 -0.4915 -0.1771
 2581SOL    HW219380   2.133   4.559   4.364  0.7622  0.0963 -1.2142
 2582SOL     OW19381   1.353   4.425   9.433 -0.2794  0.9239 -0.1601
 2582SOL    HW119382   1.358   4.332   9.413  1.5976  0.7519  1.1901
 2582SOL    HW219383   1.329   4.427   9.525  2.0988 -2.3679  0.5105
 2583SOL     OW19384   2.813   1.044  13.956 -0.0619 -0.1318  0.2878
 2583SOL    HW119385   2.885   1.082  14.006 -2.1311  1.0288  2.3680
 2583SOL    HW219386   2.750   1.004  14.016 -0.5352 -2.4056 -1.7272
 2584SOL     OW19387   3.220   1.842  15.298 -0.3217  0.5576  0.0102
 2584SOL    HW119388   3.285   1.906  15.270  2.8149 -3.2320 -1.3682
 2584SOL    HW219389   3.275   1.805  15.367  1.6036  1.2531 -1.1522
 2585SOL     OW19390   2.378   3.564   7.969 -0.1632 -0.1818  0.1103
 2585SOL    HW119391   2.450   3.625   7.986 -0.3882 -0.1183  0.8094
 2585SOL    HW219392   2.420   3.494   7.918  1.2529  0.0641  0.9178
 2586SOL     OW19393   4.336   4.578   1.447  0.2550 -0.4427  0.2006
 2586SOL    HW119394   4.424   4.603   1.421  0.3847 -1.2870 -0.1469
 2586SOL    HW219395   4.309   4.531   1.369  0.8245 -0.2798 -0.0906
 2587SOL     OW19396   2.322   0.356   5.396  0.7122 -0.4413  0.0939
 2587SOL    HW119397   2.288   0.267   5.389  1.1727 -0.7650  1.7722
 2587SOL    HW219398   2.337   0.355   5.491 -0.8429 -1.6980  0.3389
 2588SOL     OW19399   2.490   2.870  10.687 -0.3865  0.0816 -0.1341
 2588SOL    HW119400   2.571   2.823  10.708 -0.9060 -1.5384 -1.7133
 2588SOL    HW219401   2.431   2.819  10.743  0.7064  0.0048  0.9472
 2589SOL     OW19402   4.165   4.048   9.700 -0.0470 -0.5806  0.2957
 2589SOL    HW119403   4.112   3.971   9.679  0.3618 -1.0879  1.1122
 2589SOL    HW219404   4.101   4.113   9.727 -0.1426 -0.0427 -1.2018
 2590SOL     OW19405   2.147   1.992  16.077  0.2344  0.0447  0.1651
 2590SOL    HW119406   2.084   2.064  16.070 -0.1963 -0.2929  0.5065
 2590SOL    HW219407   2.139   1.944  15.994 -0.0144 -0.5399  0.5260
 2591SOL     OW19408   3.913   2.395   3.736  0.0109  0.3846 -0.0983
 2591SOL    HW119409   3.994   2.379   3.687  0.1238  2.0046 -0.4317
 2591SOL    HW219410   3.924   2.409   3.830  0.3069 -0.6187  0.0132
 2592SOL     OW19411   4.028   0.543   5.461  0.9532 -0.3929  0.4540
 2592SOL    HW119412   3.933   0.557   5.458  1.0688 -0.0415 -1.4523
 2592SOL    HW219413   4.056   0.628   5.427 -1.6830  0.2637 -0.0913
 2593SOL     OW19414   3.948   1.469   3.543  0.4711 -0.0734  0.1558
 2593SOL    HW119415   3.974   1.506   3.627  0.8381  1.9934 -0.8661
 2593SOL    HW219416   3.891   1.399   3.576  1.5403 -2.1615 -2.4032
 2594SOL     OW19417   0.054   2.795   5.866  0.4089 -0.0954 -0.7867
 2594SOL    HW119418   0.099   2.804   5.782 -0.6592  1.4210 -1.1771
 2594SOL    HW219419   0.037   2.886   5.889  0.7258 -0.5738  1.3528
 2595SOL     OW19420   2.923   2.313  11.215 -0.2275 -0.1032  0.8852
 2595SOL    HW119421   2.855   2.380  11.207  1.8799  1.5959 -2.5878
 2595SOL    HW219422   2.971   2.343  11.291  1.5711  0.0608 -0.3047
 2596SOL     OW19423   1.184   4.039   0.831 -0.3586  0.4213 -0.2867
 2596SOL    HW119424   1.167   3.980   0.904  1.0850 -0.0462 -0.3213
 2596SOL    HW219425   1.279   4.050   0.841 -0.2457  0.0478 -0.9058
 2597SOL     OW19426   4.607   2.574   6.352 -0.3224 -0.1287 -0.0434
 2597SOL    HW119427   4.593   2.593   6.445  0.9627 -0.6948  0.2638
 2597SOL    HW219428   4.637   2.483   6.348 -0.2115 -0.0784 -0.3225
 2598SOL     OW19429   0.444   0.472   8.276  0.1257 -0.0303  0.5539
 2598SOL    HW119430   0.432   0.521   8.195  0.7132  0.0887  0.5404
 2598SOL    HW219431   0.445   0.382   8.242  0.2411  0.1138  0.1751
 2599SOL     OW19432   2.569   2.617   5.409  0.3453  0.4300  0.3764
 2599SOL    HW119433   2.661   2.623   5.433 -0.0710  0.9623  1.8288
 2599SOL    HW219434   2.552   2.696   5.358  0.3771  0.2218  0.0458
 2600SOL     OW19435   3.662   1.193   3.170  0.0711 -0.1776 -0.6575
 2600SOL    HW119436   3.721   1.257   3.211 -1.2409  0.2542  0.5592
 2600SOL    HW219437   3.727   1.127   3.146 -0.2475 -0.5326 -0.5439
 2601SOL     OW19438   1.925   3.096  13.315  0.6045 -0.2144 -0.0246
 2601SOL    HW119439   1.959   3.185  13.315 -1.6055  0.6266  1.5847
 2601SOL    HW219440   1.976   3.056  13.386 -1.4335  1.1571  2.2018
 2602SOL     OW19441   1.424   3.874   0.002  0.0361 -0.5527 -0.7018
 2602SOL    HW119442   1.390   3.826   0.078 -1.3178 -0.0616 -0.9803
 2602SOL    HW219443   1.419   3.965   0.033 -0.0145 -0.3368 -1.3425
 2603SOL     OW19444   1.195   2.314   0.487 -0.1472 -0.3075 -0.1506
 2603SOL    HW119445   1.144   2.267   0.553 -0.1753 -0.0525  0.0103
 2603SOL    HW219446   1.145   2.314   0.405  1.2563  0.0554 -0.9992
 2604SOL     OW19447   4.284   2.811   5.110 -0.3155  0.1244  0.1605
 2604SOL    HW119448   4.358   2.771   5.065 -1.2583  0.0093 -1.2666
 2604SOL    HW219449   4.216   2.746   5.090 -0.6536  1.0720 -1.7650
 2605SOL     OW19450   3.338   4.208   2.679  0.1824  0.6712 -0.0383
 2605SOL    HW119451   3.298   4.289   2.710 -0.1107  1.0395 -1.3863
 2605SOL    HW219452   3.272   4.166   2.624 -0.0852 -0.0983  0.8556
 2606SOL     OW19453   2.844   3.013   5.831  0.3686  0.3801  0.1592
 2606SOL    HW119454   2.867   2.933   5.784 -2.0024 -0.1488 -0.0980
 2606SOL    HW219455   2.819   3.071   5.759 -2.9083  1.3433  2.0800
 2607SOL     OW19456   3.536   3.712   9.011  0.2573  0.2234  0.3751
 2607SOL    HW119457   3.462   3.658   9.041 -0.0309  0.9635  0.9995
 2607SOL    HW219458   3.524   3.780   9.077 -1.2000 -0.2193  0.5709
 2608SOL     OW19459   0.452   4.665   1.299 -0.2781  0.0595  0.3605
 2608SOL    HW119460   0.531   4.675   1.352 -0.2777  1.5823  0.0448
 2608SOL    HW219461   0.458   4.594   1.235 -0.7810 -0.2613  0.6698
 2609SOL     OW19462   4.043   4.604  14.213 -0.2673  0.5659 -0.3696
 2609SOL    HW119463   3.982   4.530  14.210 -2.1665  2.0412  1.6950
 2609SOL    HW219464   4.072   4.610  14.304 -0.3532  0.3598 -0.3297
 2610SOL     OW19465   3.984   4.565   8.924  0.2154  0.0024 -0.8212
 2610SOL    HW119466   3.996   4.486   8.977  1.1644 -1.4205 -3.1324
 2610SOL    HW219467   3.956   4.527   8.840  0.9288 -3.3478  0.4638
 2611SOL     OW19468   4.077   0.996   9.468  0.0478  0.0281  0.0953
 2611SOL    HW119469   4.017   1.032   9.532  0.2799 -0.7553  0.7626
 2611SOL    HW219470   4.042   1.018   9.382  0.1038  0.5863  0.2179
 2612SOL     OW19471   1.382   1.121   3.065 -0.1042 -0.1644  0.4182
 2612SOL    HW119472   1.290   1.109   3.041 -0.1025 -0.4675  0.5572
 2612SOL    HW219473   1.402   1.207   3.029 -0.4497 -0.0574  0.4792
 2613SOL     OW19474   3.646   0.952   7.045  0.2816 -0.2993 -0.2180
 2613SOL    HW119475   3.735   0.985   7.038  0.8770 -1.9358 -0.4368
 2613SOL    HW219476   3.597   0.990   6.972  0.0693 -0.4411 -0.1480
 2614SOL     OW19477   0.183   4.300   0.291 -0.1934  0.3484  0.6959
 2614SOL    HW119478   0.144   4.275   0.207 -0.1393  0.1139  0.7404
 2614SOL    HW219479   0.176   4.215   0.335 -0.2110 -0.2160 -0.3771
 2615SOL     OW19480   2.150   1.303   3.777  0.5095  0.0229  0.0035
 2615SOL    HW119481   2.127   1.370   3.713  0.2996  1.0871  1.1907
 2615SOL    HW219482   2.219   1.255   3.731  0.6666 -0.0991  0.3597
 2616SOL     OW19483   4.632   2.103  12.529 -0.0965 -0.3390  1.0765
 2616SOL    HW119484   4.704   2.153  12.569 -0.3938  0.1940  0.9519
 2616SOL    HW219485   4.652   2.014  12.556  2.1838  0.2800  1.4331
 2617SOL     OW19486   2.304   0.673   4.869 -0.5437  0.1952 -0.0259
 2617SOL    HW119487   2.296   0.719   4.953  0.2315  2.0171 -0.9447
 2617SOL    HW219488   2.398   0.660   4.856 -0.4557 -0.8027  1.5478
 2618SOL     OW19489   3.814   3.094   8.402 -0.2162 -0.0240 -0.1768
 2618SOL    HW119490   3.784   3.012   8.362  0.9839 -0.5611  0.0289
 2618SOL    HW219491   3.747   3.155   8.370 -0.6860  0.1796  1.2113
 2619SOL     OW19492   0.174   0.062   6.053  0.0256  0.2037 -0.3515
 2619SOL    HW119493   0.215   0.028   6.134 -0.5283  0.2950 -0.0366
 2619SOL    HW219494   0.235   0.126   6.017  1.7320 -0.2804  1.6046
 2620SOL     OW19495   3.386   4.450   4.372 -0.7089 -0.1645  0.8840
 2620SOL    HW119496   3.344   4.526   4.331 -1.0992  0.0726  1.7005
 2620SOL    HW219497   3.311   4.400   4.406 -1.0485  0.3391  0.8824
 2621SOL     OW19498   2.186   4.040   9.392  0.1614  0.3272 -0.1610
 2621SOL    HW119499   2.108   4.022   9.340  0.5537  0.6555 -0.8534
 2621SOL    HW219500   2.175   3.986   9.471  0.7988 -0.7677 -0.8306
 2622SOL     OW19501   3.727   0.614   6.273 -0.1462  0.0827  0.6237
 2622SOL    HW119502   3.634   0.636   6.268 -0.3851 -0.3822  2.9706
 2622SOL    HW219503   3.706   0.521   6.282  1.4836 -0.4699 -1.4631
 2623SOL     OW19504   2.698   1.820   4.762  0.0796  0.1152  0.3852
 2623SOL    HW119505   2.678   1.740   4.811  2.7925 -1.0756 -0.4454
 2623SOL    HW219506   2.619   1.870   4.779  0.2389  0.2219  0.8219
 2624SOL     OW19507   2.073   0.154  16.540  0.1537  0.2605 -0.4531
 2624SOL    HW119508   1.997   0.163  16.597 -0.0553  0.0774 -0.6987
 2624SOL    HW219509   2.036   0.147  16.452 -0.9202  0.1089  0.0135
 2625SOL     OW19510   1.528   3.734   3.789 -0.1876  0.4991 -0.6041
 2625SOL    HW119511   1.556   3.813   3.742 -0.3234  0.7955 -0.1819
 2625SOL    HW219512   1.442   3.716   3.752  0.5458 -3.3541 -0.4800
 2626SOL     OW19513   1.040   1.985   8.771 -0.1774 -0.4486  0.3976
 2626SOL    HW119514   0.950   2.004   8.745 -0.1897 -0.3712  0.4962
 2626SOL    HW219515   1.086   1.997   8.688 -1.6092  0.3574 -0.2772
 2627SOL     OW19516   0.093   0.629   7.973  0.9253 -0.4545 -0.4517
 2627SOL    HW119517   0.129   0.702   8.023  0.7063 -1.1963  0.7971
 2627SOL    HW219518   4.735   0.644   7.985  1.5542  0.5433  3.0331
 2628SOL     OW19519   3.921   3.976   3.250  0.6273  0.0085 -0.4171
 2628SOL    HW119520   3.871   4.010   3.177  0.7517  1.2302  0.0705
 2628SOL    HW219521   3.859   3.937   3.311  1.6803  0.0425  0.6829
 2629SOL     OW19522   1.529   2.676  11.254  0.2945  1.1850 -0.1112
 2629SOL    HW119523   1.619   2.693  11.226  0.4799 -2.0987 -1.4796
 2629SOL    HW219524   1.538   2.717  11.340 -1.5693 -0.1667  0.7377
 2630SOL     OW19525   1.394   1.069  13.077 -0.1799  0.3678  0.0749
 2630SOL    HW119526   1.432   0.981  13.071  0.3114  0.5641  0.2767
 2630SOL    HW219527   1.431   1.098  13.161 -0.4817 -1.3880  0.8074
 2631SOL     OW19528   3.032   2.117   6.086 -0.8023  0.3406  0.2691
 2631SOL    HW119529   3.004   2.207   6.108  0.0634  0.4051  1.1055
 2631SOL    HW219530   3.015   2.064   6.164  0.0776  1.8600  1.4987
 2632SOL     OW19531   4.574   4.148  14.788  0.2093  0.1186 -0.2874
 2632SOL    HW119532   4.592   4.056  14.805  2.0847  0.3524 -1.0610
 2632SOL    HW219533   4.498   4.129  14.733 -1.4418  1.6077  1.4764
 2633SOL     OW19534   2.217   0.501   3.700 -0.0286  0.2175 -0.6532
 2633SOL    HW119535   2.175   0.431   3.650  0.6141 -1.2613  0.8813
 2633SOL    HW219536   2.249   0.460   3.781  1.9797 -1.1533 -2.1425
 2634SOL     OW19537   1.587   0.679   4.851  0.7001 -0.9543  0.1216
 2634SOL    HW119538   1.505   0.640   4.881  0.1622  0.6325  0.7167
 2634SOL    HW219539   1.552   0.765   4.826  1.5643 -0.5391  0.3254
 2635SOL     OW19540   4.701   2.835   2.143  0.4622 -0.5553  0.3913
 2635SOL    HW119541   0.037   2.895   2.161  1.5653 -2.1318  1.2521
 2635SOL    HW219542   4.655   2.837   2.227  0.3145  2.2203  0.2488
 2636SOL     OW19543   4.056   2.139   5.535  0.6858  0.2882 -0.4937
 2636SOL    HW119544   4.066   2.201   5.463 -0.7960 -0.7641 -1.6169
 2636SOL    HW219545   4.042   2.052   5.498 -1.2197 -0.5501  2.1919
 2637SOL     OW19546   2.435   1.024  14.046 -0.1296 -0.0117 -0.0278
 2637SOL    HW119547   2.507   0.961  14.047  1.5864  2.0047  2.5295
 2637SOL    HW219548   2.438   1.054  14.137  0.7532 -3.3367  1.0249
 2638SOL     OW19549   4.486   0.725  10.365 -0.5260 -0.6270  0.3262
 2638SOL    HW119550   4.519   0.636  10.376  1.7865  0.0089 -1.3422
 2638SOL    HW219551   4.548   0.779  10.414  0.7849 -1.0876 -0.8189
 2639SOL     OW19552   1.176   3.286   0.844  0.0393  0.4274 -0.4183
 2639SOL    HW119553   1.088   3.297   0.809 -1.0759 -0.6182  2.0289
 2639SOL    HW219554   1.182   3.346   0.918 -0.7831 -0.0777  0.0635
 2640SOL     OW19555   2.935   3.213   6.754 -0.2269  0.3845  0.3477
 2640SOL    HW119556   3.006   3.272   6.728 -0.4511 -0.1196 -1.4434
 2640SOL    HW219557   2.885   3.204   6.673  1.2763 -1.4428 -0.3724
 2641SOL     OW19558   1.409   3.634  12.233 -0.1269 -0.2128 -0.8131
 2641SOL    HW119559   1.437   3.545  12.211  1.7092  0.8305 -2.6011
 2641SOL    HW219560   1.460   3.682  12.168  1.2324 -1.0234 -0.3562
 2642SOL     OW19561   2.623   2.591   0.507 -0.3070 -0.5086 -0.2663
 2642SOL    HW119562   2.664   2.674   0.530 -1.5453 -0.0505  0.2943
 2642SOL    HW219563   2.700   2.537   0.488  0.5807  0.8083 -0.3670
 2643SOL     OW19564   2.911   1.547  16.956  0.0027 -0.3028  0.0459
 2643SOL    HW119565   2.989   1.536  16.902 -0.4851  4.5927 -1.7457
 2643SOL    HW219566   2.941   1.613  17.019 -1.0418  0.8866 -0.6878
 2644SOL     OW19567   2.750   0.183  15.903 -0.0425 -0.1244 -0.5681
 2644SOL    HW119568   2.664   0.218  15.926  0.7760  2.1293 -1.0044
 2644SOL    HW219569   2.801   0.263  15.910  0.5536 -0.5274 -0.3702
 2645SOL     OW19570   2.449   1.287  13.976 -0.6835 -0.1701  0.4952
 2645SOL    HW119571   2.488   1.310  14.061  0.9743 -0.0026 -0.3140
 2645SOL    HW219572   2.434   1.194  13.992  1.0811 -0.2601  1.5556
 2646SOL     OW19573   2.800   3.598   8.355  0.3308 -0.1505  0.9091
 2646SOL    HW119574   2.721   3.569   8.401 -0.6960 -0.0134 -0.7725
 2646SOL    HW219575   2.863   3.546   8.405 -3.5006 -3.2635  2.5381
 2647SOL     OW19576   1.926   0.337   1.977 -0.3586 -0.6172 -0.0575
 2647SOL    HW119577   1.966   0.376   2.055  0.5900  0.6963 -1.2009
 2647SOL    HW219578   1.918   0.244   1.996  0.2692 -0.5012  0.7985
 2648SOL     OW19579   3.999   3.550   8.516 -0.1525 -0.1409  0.1848
 2648SOL    HW119580   3.935   3.575   8.450 -0.8031 -1.2302  0.4123
 2648SOL    HW219581   4.028   3.638   8.540 -0.0965 -0.0403 -0.2489
 2649SOL     OW19582   2.284   0.638   5.599 -0.4126  1.2560 -0.0639
 2649SOL    HW119583   2.190   0.636   5.612 -0.4274 -0.1982 -0.4680
 2649SOL    HW219584   2.314   0.550   5.621  0.8280  1.3707 -1.2640
 2650SOL     OW19585   0.232   4.399   2.382 -0.2428 -0.2033 -0.2710
 2650SOL    HW119586   0.279   4.359   2.455  0.3261  0.9277 -0.0060
 2650SOL    HW219587   0.144   4.376   2.412  0.3952  0.3855  2.1017
 2651SOL     OW19588   1.261   2.738  17.091 -0.4090 -0.1885 -0.1862
 2651SOL    HW119589   1.278   2.676  17.021  0.0782  1.6874 -1.7140
 2651SOL    HW219590   1.166   2.746  17.100 -0.3743  0.5985 -0.5572
 2652SOL     OW19591   4.000   2.182  15.109 -0.3279 -0.5307  0.2279
 2652SOL    HW119592   3.929   2.232  15.149 -2.5224 -0.9394 -3.2809
 2652SOL    HW219593   3.956   2.142  15.034  0.3001 -2.3290  0.8038
 2653SOL     OW19594   4.100   2.199  17.102 -0.0541 -0.1128 -0.2655
 2653SOL    HW119595   4.114   2.151  17.183 -1.1752  0.9143  0.5271
 2653SOL    HW219596   4.107   2.131  17.035 -0.1081  0.1581 -0.5450
 2654SOL     OW19597   0.896   0.657  13.069  0.1397  0.8785  0.3339
 2654SOL    HW119598   0.909   0.646  12.975 -1.1353 -0.2506  0.2905
 2654SOL    HW219599   0.854   0.576  13.097 -0.5312  1.1808  0.2121
 2655SOL     OW19600   3.869   1.379   2.114 -1.0463  0.2245  0.4667
 2655SOL    HW119601   3.952   1.333   2.128 -0.2021  2.4361  2.7634
 2655SOL    HW219602   3.818   1.307   2.077  0.2244 -0.7864  0.6936
 2656SOL     OW19603   0.981   4.461   9.045  0.0063 -0.1518  0.7158
 2656SOL    HW119604   1.068   4.433   9.074 -0.3262 -1.2660  0.6312
 2656SOL    HW219605   0.919   4.446   9.117 -2.1334  0.0400 -1.0925
 2657SOL     OW19606   1.904   1.478  12.123 -0.0811 -0.1458 -0.5044
 2657SOL    HW119607   1.959   1.516  12.191 -0.6344  0.8339 -0.6113
 2657SOL    HW219608   1.830   1.539  12.126  1.7128  2.1282 -2.5625
 2658SOL     OW19609   2.079   2.847  10.432  0.3389 -0.5403  0.1214
 2658SOL    HW119610   2.027   2.783  10.383 -0.3230  0.8849 -1.0465
 2658SOL    HW219611   2.076   2.805  10.518  0.5817 -0.8502 -0.0213
 2659SOL     OW19612   3.605   3.202  15.322 -0.1033  0.5303 -0.3869
 2659SOL    HW119613   3.560   3.118  15.328 -1.1562  0.9890 -1.8834
 2659SOL    HW219614   3.695   3.180  15.298  0.2801  3.4100 -1.6152
 2660SOL     OW19615   2.465   3.881  11.543  0.0153  0.1186  0.3039
 2660SOL    HW119616   2.448   3.850  11.632  1.2801  0.5921  0.7073
 2660SOL    HW219617   2.514   3.808  11.506  0.1749  0.0750  0.5927
 2661SOL     OW19618   0.534   1.434  12.191 -0.2800  0.0980 -0.1785
 2661SOL    HW119619   0.601   1.492  12.156  1.2107 -1.1093  0.6794
 2661SOL    HW219620   0.489   1.410  12.110  0.1373 -0.4656 -0.2415
 2662SOL     OW19621   1.670   2.708   3.791 -0.2010  0.3256 -0.0749
 2662SOL    HW119622   1.608   2.780   3.806  0.7571  1.0510  0.3952
 2662SOL    HW219623   1.640   2.690   3.702 -0.8527 -3.4151  0.9137
 2663SOL     OW19624   0.569   0.517  17.503 -0.1654  0.0112 -0.0214
 2663SOL    HW119625   0.527   0.537  17.586  1.8310 -1.8258  1.4179
 2663SOL    HW219626   0.606   0.429  17.514  0.2260 -0.0833 -2.0529
 2664SOL     OW19627   0.367   1.272   7.380 -0.1055 -0.0433 -0.2623
 2664SOL    HW119628   0.313   1.206   7.335 -1.4841  0.2604  0.9327
 2664SOL    HW219629   0.305   1.341   7.404 -1.3896 -1.6115  1.0483
 2665SOL     OW19630   0.711   2.441   2.622  0.1697 -0.2094  0.2570
 2665SOL    HW119631   0.775   2.406   2.684 -1.2962  2.4983  3.2500
 2665SOL    HW219632   0.730   2.534   2.631 -1.2168  0.0555  0.3985
 2666SOL     OW19633   1.202   4.156   9.705 -0.3553 -0.4121 -0.0451
 2666SOL    HW119634   1.157   4.090   9.757 -0.6627 -1.2771 -1.4060
 2666SOL    HW219635   1.216   4.104   9.626  2.0847 -2.6017  1.8514
 2667SOL     OW19636   2.814   3.849   4.600  0.1800 -0.1665  0.1890
 2667SOL    HW119637   2.754   3.868   4.672 -0.5893 -0.3213 -0.4149
 2667SOL    HW219638   2.836   3.941   4.583  1.7548 -0.6401 -0.3271
 2668SOL     OW19639   2.310   2.345   4.059  0.2038  0.8715 -0.3502
 2668SOL    HW119640   2.317   2.271   4.120  0.2386  1.9557  0.9566
 2668SOL    HW219641   2.385   2.395   4.092 -0.0204  0.7760  0.3146
 2669SOL     OW19642   0.960   0.492   3.139  0.2284  0.5024  0.1433
 2669SOL    HW119643   0.979   0.510   3.231  0.3137  1.4417 -0.0635
 2669SOL    HW219644   0.982   0.574   3.095  2.8269 -1.5649 -2.4633
 2670SOL     OW19645   4.204   3.555   9.024  0.8164 -0.7184 -0.1080
 2670SOL    HW119646   4.135   3.494   8.999 -1.1798  0.9192  1.3919
 2670SOL    HW219647   4.267   3.497   9.066 -0.5726 -0.9560  1.6285
 2671SOL     OW19648   2.832   2.034   6.351 -0.8326  0.0264  0.3600
 2671SOL    HW119649   2.747   1.990   6.345  1.4481 -4.3824  0.3599
 2671SOL    HW219650   2.886   1.959   6.326 -1.1677 -0.2081  0.3386
 2672SOL     OW19651   0.700   0.120   3.031 -0.2244  0.4673 -0.1870
 2672SOL    HW119652   0.720   0.154   2.943  0.5872  0.8866  0.1516
 2672SOL    HW219653   0.646   0.193   3.063 -1.1180 -1.7865  3.3099
 2673SOL     OW19654   3.934   1.428   5.361  0.0440 -0.2101 -0.1420
 2673SOL    HW119655   3.883   1.373   5.420  1.2167 -0.1577  0.9168
 2673SOL    HW219656   3.919   1.390   5.274 -0.7493 -1.3620  0.4932
 2674SOL     OW19657   1.096   2.394   6.940 -0.1920 -0.1686 -0.5985
 2674SOL    HW119658   1.095   2.464   6.875  2.2185  0.2444 -0.1965
 2674SOL    HW219659   1.050   2.428   7.017 -0.1403  0.7063 -0.9519
 2675SOL     OW19660   0.318   4.135   3.127 -0.0889 -0.1641 -0.1966
 2675SOL    HW119661   0.242   4.119   3.072 -0.6110  0.3265  0.3759
 2675SOL    HW219662   0.326   4.057   3.182 -1.9868  2.0442  3.2659
 2676SOL     OW19663   2.769   3.651   7.358  0.1174 -0.4221  0.2564
 2676SOL    HW119664   2.789   3.686   7.445 -0.5527 -1.1202  0.6965
 2676SOL    HW219665   2.822   3.703   7.298 -0.8556  0.8301  0.4859
 2677SOL     OW19666   4.328   2.217   6.743  0.0878  0.1170 -0.1937
 2677SOL    HW119667   4.395   2.265   6.792 -1.1377  2.3914 -0.7760
 2677SOL    HW219668   4.256   2.276   6.764 -0.5839 -0.7886  0.0577
 2678SOL     OW19669   4.188   0.572  15.401  0.1527  0.3702  0.6278
 2678SOL    HW119670   4.187   0.628  15.479  0.0945  2.7987 -1.0964
 2678SOL    HW219671   4.221   0.492  15.441  1.5514  0.5997 -0.0675
 2679SOL     OW19672   1.646   0.157   0.612  0.3998  0.3225 -0.1684
 2679SOL    HW119673   1.654   0.121   0.701  0.0771 -1.5311 -0.8967
 2679SOL    HW219674   1.705   0.232   0.603  0.0332  0.8444  1.8058
 2680SOL     OW19675   0.997   0.022   9.331  0.3109  0.1267 -0.4557
 2680SOL    HW119676   1.082   4.713   9.329  0.1191 -0.2429 -0.2365
 2680SOL    HW219677   0.963   4.716   9.410 -0.7292  1.4201 -0.2163
 2681SOL     OW19678   1.659   3.778   6.373  0.4738  0.0497 -0.0561
 2681SOL    HW119679   1.643   3.828   6.453 -1.5458 -2.3952  1.0556
 2681SOL    HW219680   1.571   3.765   6.340  0.2850  1.4046 -0.0755
 2682SOL     OW19681   3.583   3.236   8.337 -0.1344  0.0753  0.1417
 2682SOL    HW119682   3.538   3.162   8.297  0.6027 -1.8725  2.9280
 2682SOL    HW219683   3.512   3.279   8.383  0.5715 -0.7743  2.0105
 2683SOL     OW19684   3.363   2.026   4.121 -0.1230  0.1774  0.2950
 2683SOL    HW119685   3.360   1.993   4.031 -0.3157  0.0107  0.3635
 2683SOL    HW219686   3.450   1.994   4.145 -0.0368  0.1965  0.0121
 2684SOL     OW19687   4.245   4.099   9.056 -0.0390 -0.1675 -0.2455
 2684SOL    HW119688   4.253   4.009   9.088 -0.3985  0.3035  1.1788
 2684SOL    HW219689   4.303   4.100   8.980  0.2663 -0.9995 -0.0219
 2685SOL     OW19690   2.830   4.601  15.775 -0.1799  0.0529 -0.2045
 2685SOL    HW119691   2.824   4.633  15.865 -1.4017 -2.0662  0.4758
 2685SOL    HW219692   2.868   4.673  15.724  1.2295 -1.1991 -0.9046
 2686SOL     OW19693   1.310   4.319   2.639 -0.3609 -0.0586  0.3745
 2686SOL    HW119694   1.304   4.389   2.574  2.9460  0.9462  1.1573
 2686SOL    HW219695   1.271   4.358   2.717  1.4193  0.5390  0.9625
 2687SOL     OW19696   2.758   3.335   1.204  0.2522  0.0872 -0.1045
 2687SOL    HW119697   2.758   3.429   1.186  0.2629  0.1774  0.3646
 2687SOL    HW219698   2.840   3.315   1.158  1.7697  0.2748  2.4848
 2688SOL     OW19699   1.921   4.452   3.876  0.1067 -0.3479  0.1373
 2688SOL    HW119700   1.884   4.533   3.911  1.9192 -0.1345  1.5741
 2688SOL    HW219701   1.960   4.483   3.795 -0.2461 -0.2162  0.0192
 2689SOL     OW19702   0.693   3.871   3.603  0.1754 -0.6436  0.3443
 2689SOL    HW119703   0.786   3.860   3.584  0.4652  1.3805  0.5785
 2689SOL    HW219704   0.674   3.809   3.673  0.5532 -1.3009 -0.1344
 2690SOL     OW19705   2.986   1.237   5.768  0.9737  0.3899 -0.3478
 2690SOL    HW119706   2.946   1.270   5.848  1.7626  1.9838 -0.6153
 2690SOL    HW219707   2.913   1.242   5.706  1.2582  0.3115 -0.6953
 2691SOL     OW19708   0.375   2.878   9.199  0.2242 -0.5888 -0.0946
 2691SOL    HW119709   0.465   2.867   9.232  0.2996  5.5101  1.8086
 2691SOL    HW219710   0.379   2.830   9.116  2.6467 -1.7895  0.6957
 2692SOL     OW19711   3.210   4.718   8.182  0.1012 -0.0856  0.0776
 2692SOL    HW119712   3.223   4.642   8.125 -0.5848 -0.5048  0.4794
 2692SOL    HW219713   3.273   0.043   8.144  0.5974 -1.6977 -1.7058
 2693SOL     OW19714   3.266   0.513   9.350 -0.1626 -0.2118  0.4710
 2693SOL    HW119715   3.239   0.590   9.302  0.4880  0.5189  1.2756
 2693SOL    HW219716   3.293   0.446   9.287  0.3789 -0.3068  0.8000
 2694SOL     OW19717   1.676   4.007   2.108 -0.1190  0.3201  0.0639
 2694SOL    HW119718   1.764   3.970   2.110  0.2660  1.2658  0.9753
 2694SOL    HW219719   1.690   4.099   2.134  0.2632  0.6159 -1.2066
 2695SOL     OW19720   0.782   3.222  10.121  0.1687  0.2559 -0.2279
 2695SOL    HW119721   0.868   3.181  10.107 -0.0913 -0.4989  0.3333
 2695SOL    HW219722   0.778   3.212  10.217  0.9504 -1.4693 -0.3555
 2696SOL     OW19723   3.274   0.145   0.585  0.3455  0.0556  0.1810
 2696SOL    HW119724   3.219   0.203   0.532  0.0576  0.3348  0.7840
 2696SOL    HW219725   3.257   0.185   0.670  1.2700  3.0395 -1.0491
 2697SOL     OW19726   3.443   2.669  11.439 -0.0309  0.2498  0.0809
 2697SOL    HW119727   3.425   2.650  11.531 -0.5408  0.4073  0.0153
 2697SOL    HW219728   3.409   2.757  11.428  0.4086 -0.0218 -3.5504
 2698SOL     OW19729   1.107   0.581   5.334  1.0855 -0.5197  0.0986
 2698SOL    HW119730   1.028   0.535   5.305  0.8196 -0.0791  0.1300
 2698SOL    HW219731   1.075   0.671   5.343  3.1412  0.3230 -1.1711
 2699SOL     OW19732   1.424   3.695  13.193 -0.3943 -0.2536  0.3441
 2699SOL    HW119733   1.458   3.766  13.248 -2.9483  0.8671  0.4885
 2699SOL    HW219734   1.411   3.751  13.116 -3.0119  1.4127  1.9965
 2700SOL     OW19735   1.662   3.135   2.471  0.3416  0.4819  0.1902
 2700SOL    HW119736   1.608   3.152   2.548  2.7285  0.5009  1.8538
 2700SOL    HW219737   1.637   3.054   2.426 -2.3512  0.5158  1.6543
 2701SOL     OW19738   4.713   2.559   8.253 -0.1757 -0.0353 -0.6424
 2701SOL    HW119739   0.018   2.634   8.297  1.9543 -0.5329 -1.7902
 2701SOL    HW219740   4.630   2.565   8.300 -0.2486  0.3880 -0.8280
 2702SOL     OW19741   4.313   1.884   5.999  0.0957 -0.3393  0.0084
 2702SOL    HW119742   4.280   1.968   6.030 -0.5588 -0.2227 -1.0152
 2702SOL    HW219743   4.406   1.902   5.984 -0.5521  0.9444 -2.3394
 2703SOL     OW19744   4.465   2.524  11.479 -0.2992  0.3011  0.2822
 2703SOL    HW119745   4.390   2.478  11.517  0.5456  0.0722  1.6825
 2703SOL    HW219746   4.433   2.552  11.393 -0.4207 -0.9382 -0.0752
 2704SOL     OW19747   3.684   0.258   5.463 -0.5742 -0.3480  0.0726
 2704SOL    HW119748   3.650   0.272   5.552  0.5657  2.4498  0.0454
 2704SOL    HW219749   3.659   0.166   5.448  1.1901 -1.0870  1.6174
 2705SOL     OW19750   2.721   2.046   4.385  0.1045  0.0824  1.0104
 2705SOL    HW119751   2.799   2.098   4.402  0.3881  0.5262 -1.6841
 2705SOL    HW219752   2.748   1.984   4.317  2.5337  1.1404  1.0127
 2706SOL     OW19753   1.359   4.248   9.022  0.3495  0.0065 -0.3995
 2706SOL    HW119754   1.448   4.238   8.989  0.4899 -0.6861  0.1878
 2706SOL    HW219755   1.339   4.339   8.999 -0.7842 -0.5626 -1.6257
 2707SOL     OW19756   4.377   1.514  11.230 -0.0175 -0.4052 -0.0660
 2707SOL    HW119757   4.450   1.524  11.169  0.8489 -2.2136  0.6782
 2707SOL    HW219758   4.383   1.427  11.269 -1.8734  0.2638  1.7521
 2708SOL     OW19759   3.358   2.644   9.666 -0.2190  0.1042 -0.1500
 2708SOL    HW119760   3.425   2.610   9.724 -1.5880  2.5722  2.8825
 2708SOL    HW219761   3.381   2.606   9.581  2.9958 -0.6566  1.0685
 2709SOL     OW19762   1.966   0.402   5.967 -0.1511 -0.3461 -0.4819
 2709SOL    HW119763   1.891   0.384   5.911 -0.5206 -1.4418  0.3874
 2709SOL    HW219764   1.922   0.449   6.037  0.7639 -0.2780  0.0533
 2710SOL     OW19765   0.811   4.109  16.091 -0.6383  0.6650 -0.1412
 2710SOL    HW119766   0.864   4.030  16.103 -0.2870  0.9060 -0.1293
 2710SOL    HW219767   0.767   4.086  16.009 -1.0709 -1.4565  0.6745
 2711SOL     OW19768   1.189   3.673   9.103 -0.0542  0.0935 -0.1160
 2711SOL    HW119769   1.110   3.619   9.105 -0.2918  0.4239 -0.6542
 2711SOL    HW219770   1.226   3.637   9.184 -2.3604  1.3879  1.4896
 2712SOL     OW19771   3.130   1.144   0.255 -0.0415  0.6808 -0.0196
 2712SOL    HW119772   3.035   1.145   0.271 -0.6188 -1.1948 -3.2102
 2712SOL    HW219773   3.159   1.074   0.313  0.2323 -0.5937 -1.6649
 2713SOL     OW19774   3.248   0.518   5.425 -0.6013 -0.1417 -0.4970
 2713SOL    HW119775   3.179   0.453   5.440 -0.0730 -0.0994  2.0733
 2713SOL    HW219776   3.199   0.592   5.461 -1.1877 -2.0432  2.6197
 2714SOL     OW19777   3.176   2.802  10.146 -0.7757  0.6415  0.0332
 2714SOL    HW119778   3.215   2.834  10.227 -1.7679 -1.4145  1.3227
 2714SOL    HW219779   3.085   2.792  10.175 -0.6187  0.2906  0.3997
 2715SOL     OW19780   2.475   3.530  16.074  0.1364 -0.1092  0.0119
 2715SOL    HW119781   2.422   3.581  16.012  0.9666  0.5506 -0.1688
 2715SOL    HW219782   2.405   3.467  16.091  1.1804 -1.5777 -1.1107
 2716SOL     OW19783   4.246   0.057   6.105  0.2294  0.0650  0.1169
 2716SOL    HW119784   4.154   0.078   6.091  0.8253  2.1637 -0.6398
 2716SOL    HW219785   4.286   0.142   6.124 -0.4886  0.1799  1.0954
 2717SOL     OW19786   1.579   4.275   2.533  0.2608 -0.0557 -0.1994
 2717SOL    HW119787   1.618   4.210   2.592  2.4595  0.8548 -0.6239
 2717SOL    HW219788   1.487   4.262   2.554 -0.0952 -0.6311 -2.1377
 2718SOL     OW19789   2.728   3.255   8.853  0.2096  0.1714  0.2216
 2718SOL    HW119790   2.797   3.201   8.892 -0.1759  0.7482  1.6808
 2718SOL    HW219791   2.728   3.241   8.758 -0.7513  0.5846  0.1609
 2719SOL     OW19792   0.561   1.169   6.627 -0.2569 -0.3776 -0.9645
 2719SOL    HW119793   0.601   1.086   6.652  1.6044  0.5151 -1.0199
 2719SOL    HW219794   0.466   1.156   6.623 -0.6142  0.7023  3.6381
 2720SOL     OW19795   2.491   4.555  16.548 -0.4796  0.1567  0.3672
 2720SOL    HW119796   2.497   4.619  16.478 -1.6976  0.0808  0.2002
 2720SOL    HW219797   2.531   4.601  16.622 -0.3317  0.3300  0.1800
 2721SOL     OW19798   2.565   1.492   3.972  0.5951  0.0762  0.4594
 2721SOL    HW119799   2.609   1.535   3.899  2.7152 -1.7175  0.6720
 2721SOL    HW219800   2.474   1.492   3.942  0.7701  2.3434 -0.0869
 2722SOL     OW19801   2.581   2.405  10.996 -0.5220 -0.3185  0.4408
 2722SOL    HW119802   2.656   2.423  11.053 -1.6431  0.7208  1.5888
 2722SOL    HW219803   2.593   2.310  10.992 -0.9521 -0.3748  0.5088
 2723SOL     OW19804   2.755   2.346   8.221  0.5856  0.4380 -0.3076
 2723SOL    HW119805   2.744   2.437   8.251 -2.1268  0.5941 -1.7866
 2723SOL    HW219806   2.664   2.316   8.219  0.9844 -0.6668 -2.0775
 2724SOL     OW19807   2.077   2.005   5.876 -0.0457  0.1429 -1.1152
 2724SOL    HW119808   1.989   2.020   5.842 -0.7498 -2.3808 -0.4062
 2724SOL    HW219809   2.108   2.091   5.903 -0.3881  0.3578 -1.4080
 2725SOL     OW19810   4.637   1.958  12.060  0.1852 -0.3808 -0.1196
 2725SOL    HW119811   4.679   1.921  12.138  0.5381  0.7091  0.2194
 2725SOL    HW219812   4.714   1.999  12.020  0.7786 -1.7870 -0.4236
 2726SOL     OW19813   2.567   1.578   8.167 -0.5986  0.2121 -0.0661
 2726SOL    HW119814   2.598   1.488   8.158  0.5428  0.7177 -1.1494
 2726SOL    HW219815   2.649   1.627   8.173  0.5155 -1.6156 -0.6066
 2727SOL     OW19816   2.465   1.330  12.026 -0.0034  0.2281 -0.8295
 2727SOL    HW119817   2.420   1.248  12.006  1.1224 -0.3480 -1.0002
 2727SOL    HW219818   2.498   1.303  12.112  1.1805 -2.1322 -2.0421
 2728SOL     OW19819   3.069   2.574   3.302 -0.5921 -0.1744 -0.4299
 2728SOL    HW119820   3.137   2.603   3.242  2.0533 -2.9511  1.2346
 2728SOL    HW219821   3.063   2.652   3.356  0.6224  1.0775 -2.0952
 2729SOL     OW19822   0.596   3.945  11.721 -0.5892  0.2999 -0.0104
 2729SOL    HW119823   0.685   3.968  11.745  0.3037 -0.9856 -2.1365
 2729SOL    HW219824   0.569   4.026  11.678 -0.1245  0.6508  0.3675
 2730SOL     OW19825   1.404   1.924  15.538 -0.3266  0.7134 -0.2153
 2730SOL    HW119826   1.325   1.870  15.538  0.3112 -0.2206 -1.8048
 2730SOL    HW219827   1.436   1.877  15.615 -1.3532  0.8756  0.3170
 2731SOL     OW19828   3.974   0.750   1.226 -0.0274 -0.3463  0.4527
 2731SOL    HW119829   3.921   0.672   1.244  0.4200 -1.2869 -2.2474
 2731SOL    HW219830   4.024   0.706   1.157  0.0333 -1.5783  1.2861
 2732SOL     OW19831   4.144   3.482   2.420 -0.0977  0.0377 -0.4688
 2732SOL    HW119832   4.057   3.499   2.457  0.1382 -1.4123  0.7647
 2732SOL    HW219833   4.125   3.400   2.374  2.9134  0.0525 -1.7448
 2733SOL     OW19834   1.124   2.602   7.914  0.2727 -0.2661  0.1831
 2733SOL    HW119835   1.030   2.584   7.920  0.6305 -2.1528  0.2998
 2733SOL    HW219836   1.145   2.597   8.008  0.6673  0.2022  0.1179
 2734SOL     OW19837   2.546   1.117  10.938 -0.3553 -0.5669  0.2928
 2734SOL    HW119838   2.612   1.096  11.003 -1.0190 -0.0741  1.1255
 2734SOL    HW219839   2.497   1.178  10.992 -1.3314 -0.5437 -0.6201
 2735SOL     OW19840   2.500   3.300   3.160 -0.0905 -0.2396 -0.6339
 2735SOL    HW119841   2.494   3.316   3.066  0.4528  1.3186 -0.4009
 2735SOL    HW219842   2.513   3.208   3.136 -2.3786 -1.0106  1.1335
 2736SOL     OW19843   4.102   2.677  12.998  0.2844  0.3272  0.1351
 2736SOL    HW119844   4.032   2.722  13.043 -1.5071 -1.6732 -0.6356
 2736SOL    HW219845   4.085   2.583  13.005  0.6781  0.1013 -1.8926
 2737SOL     OW19846   1.238   3.870   5.818  0.8850  0.8692 -0.4338
 2737SOL    HW119847   1.157   3.869   5.870  0.5169 -0.7103 -1.0388
 2737SOL    HW219848   1.270   3.780   5.825 -0.4701  0.2457 -2.1856
 2738SOL     OW19849   0.106   1.176   5.194  0.3584  0.5098  0.1509
 2738SOL    HW119850   0.048   1.243   5.157  1.9219  2.1411  0.6794
 2738SOL    HW219851   0.041   1.105   5.198  1.1037 -0.1882 -0.0529
 2739SOL     OW19852   4.312   0.440   7.743 -0.8713  0.0548 -0.2554
 2739SOL    HW119853   4.399   0.438   7.783  0.1410 -0.5250 -2.4710
 2739SOL    HW219854   4.300   0.357   7.697  1.4097 -1.1996  1.3989
 2740SOL     OW19855   3.973   4.530  17.441 -0.1616 -0.3370 -0.0669
 2740SOL    HW119856   3.977   4.550  17.348  0.1198 -1.2909 -0.2530
 2740SOL    HW219857   4.060   4.550  17.476 -1.0997  2.3289  0.8019
 2741SOL     OW19858   0.300   4.633   2.613 -0.7216 -0.4534  0.1958
 2741SOL    HW119859   0.260   4.639   2.700  3.2099 -0.1173  1.9972
 2741SOL    HW219860   0.316   4.539   2.604  0.8887  0.0285 -2.1290
 2742SOL     OW19861   1.169   1.744   7.731  0.1551 -0.3550  0.6228
 2742SOL    HW119862   1.230   1.673   7.710 -0.0108 -0.7707  1.5327
 2742SOL    HW219863   1.217   1.823   7.704  0.8180 -0.7230  0.7207
 2743SOL     OW19864   2.075   0.422  16.293 -0.0167  0.1948 -0.2335
 2743SOL    HW119865   2.026   0.341  16.308  0.0674  0.4608  1.4388
 2743SOL    HW219866   2.156   0.377  16.270  0.3838  0.6437  0.2887
 2744SOL     OW19867   2.194   1.103  12.742  0.4409  0.5636  0.2074
 2744SOL    HW119868   2.110   1.073  12.776  1.0228 -3.5121 -1.9489
 2744SOL    HW219869   2.237   1.018  12.735  0.1918  0.6212 -1.8159
 2745SOL     OW19870   3.236   3.484   2.627 -0.2708 -0.0977 -0.3405
 2745SOL    HW119871   3.312   3.540   2.616 -1.2433  1.2475 -0.2216
 2745SOL    HW219872   3.191   3.499   2.544 -1.1116 -0.5399  0.0311
 2746SOL     OW19873   1.247   3.698   3.085  0.4191  0.4817 -0.0558
 2746SOL    HW119874   1.277   3.719   2.997 -0.4586 -0.1517 -0.5031
 2746SOL    HW219875   1.326   3.667   3.129  1.5464  0.8697 -1.8046
 2747SOL     OW19876   3.824   2.454   7.241 -0.5739 -1.1393  0.2403
 2747SOL    HW119877   3.729   2.447   7.234 -0.6408 -1.7481  1.7937
 2747SOL    HW219878   3.839   2.420   7.329  2.0250 -0.9653 -0.1090
 2748SOL     OW19879   0.319   1.852  11.137 -0.5916 -0.3264 -0.2557
 2748SOL    HW119880   0.302   1.931  11.086  1.0089  0.0472 -0.2244
 2748SOL    HW219881   0.407   1.873  11.168 -0.2365  0.0389 -1.4937
 2749SOL     OW19882   3.033   3.009   1.600 -0.0783  0.1625  0.1876
 2749SOL    HW119883   2.981   3.064   1.542 -2.8986 -2.2306  0.4622
 2749SOL    HW219884   3.091   3.071   1.643  1.0473 -0.5936 -0.2221
 2750SOL     OW19885   3.805   1.370   6.403 -0.2067 -0.3984 -0.1924
 2750SOL    HW119886   3.851   1.347   6.322  1.2708 -0.0249  0.5438
 2750SOL    HW219887   3.809   1.464   6.387  0.1378 -0.0385  1.9982
 2751SOL     OW19888   0.436   1.443   8.151  0.2268  0.0682 -0.6159
 2751SOL    HW119889   0.498   1.434   8.223  0.0312  1.5532 -0.2605
 2751SOL    HW219890   0.486   1.491   8.085 -1.2146  0.8989 -1.1045
 2752SOL     OW19891   1.177   2.446   6.278  0.4748  0.2115 -0.3535
 2752SOL    HW119892   1.189   2.374   6.339 -1.1731  1.7506  1.7986
 2752SOL    HW219893   1.225   2.514   6.326  0.2358 -0.7688  1.2690
 2753SOL     OW19894   4.318   0.871   6.195 -0.0551  0.1449 -0.0991
 2753SOL    HW119895   4.385   0.864   6.264 -0.0164 -1.1718 -0.2766
 2753SOL    HW219896   4.305   0.776   6.191  2.0769 -0.2564  2.0037
 2754SOL     OW19897   1.294   0.592   9.279 -0.1518  0.0702 -0.0370
 2754SOL    HW119898   1.302   0.500   9.304 -1.8335 -0.2276 -0.5694
 2754SOL    HW219899   1.202   0.610   9.299 -0.0109  0.2260  0.4702
 2755SOL     OW19900   2.120   2.304  17.266  0.0116  0.1372  0.1782
 2755SOL    HW119901   2.212   2.327  17.281  0.1073 -0.3858  0.3917
 2755SOL    HW219902   2.076   2.353  17.335 -0.5129  1.0457 -0.7923
 2756SOL     OW19903   0.932   0.883  11.292  1.1397 -0.1836 -0.1453
 2756SOL    HW119904   0.852   0.830  11.299  1.5668 -0.8538 -0.3800
 2756SOL    HW219905   0.944   0.902  11.385  1.9153  0.9845 -0.4905
 2757SOL     OW19906   3.617   1.899  16.568  0.3008 -0.4850  0.1824
 2757SOL    HW119907   3.616   1.946  16.651 -0.4589 -1.5442  0.7680
 2757SOL    HW219908   3.708   1.870  16.578  0.4116 -0.3954 -0.5054
 2758SOL     OW19909   2.912   1.552   9.795  0.3999  0.1220  0.2154
 2758SOL    HW119910   2.869   1.469   9.771 -1.1113  0.7898  0.6411
 2758SOL    HW219911   2.848   1.622   9.789 -0.6860 -0.8820  0.0962
 2759SOL     OW19912   4.339   4.645   8.229  0.3098  0.1478 -0.3131
 2759SOL    HW119913   4.423   4.627   8.186 -0.8656 -5.9561 -0.0501
 2759SOL    HW219914   4.329   4.568   8.285  2.6119  0.7777  0.9629
 2760SOL     OW19915   0.779   4.464   0.638 -0.5761 -0.4698 -0.1532
 2760SOL    HW119916   0.794   4.389   0.579 -0.8034 -1.8886  1.5943
 2760SOL    HW219917   0.687   4.486   0.619 -0.8887 -1.8631 -0.3077
 2761SOL     OW19918   0.481   2.008   3.164 -0.2772  0.2930 -0.1331
 2761SOL    HW119919   0.442   2.065   3.231  0.3490  1.1971 -0.5406
 2761SOL    HW219920   0.536   1.948   3.213 -0.9758  0.6536  1.0975
 2762SOL     OW19921   4.240   2.320   2.751  0.2142 -0.3362 -0.4204
 2762SOL    HW119922   4.262   2.413   2.741  1.6165 -0.9059 -2.4696
 2762SOL    HW219923   4.251   2.305   2.845  0.9040 -0.5343 -0.5365
 2763SOL     OW19924   2.006   1.424   6.203  0.9332  0.4774  0.3979
 2763SOL    HW119925   2.072   1.360   6.226  0.5181  0.1911  0.7736
 2763SOL    HW219926   2.058   1.505   6.198  2.0087  0.0161  4.5119
 2764SOL     OW19927   0.466   1.975   0.732  0.1042 -0.2370 -0.2067
 2764SOL    HW119928   0.469   1.976   0.636 -1.9073  0.9495 -0.2511
 2764SOL    HW219929   0.536   2.033   0.761  0.3533 -0.8928  0.4964
 2765SOL     OW19930   4.332   4.346  13.589 -0.5320  0.1817 -0.0372
 2765SOL    HW119931   4.415   4.309  13.621 -0.5713  0.8904  0.8791
 2765SOL    HW219932   4.350   4.372  13.499 -0.2415 -0.1782 -0.0861
 2766SOL     OW19933   3.370   1.629   6.289 -0.1975  0.1852  0.1513
 2766SOL    HW119934   3.410   1.687   6.353  0.7350  0.1518 -0.3959
 2766SOL    HW219935   3.318   1.692   6.239  0.2101 -1.3125 -2.1959
 2767SOL     OW19936   4.324   1.372   2.254  0.3892 -0.6902 -0.0763
 2767SOL    HW119937   4.381   1.408   2.186 -1.5116 -1.0647 -1.8541
 2767SOL    HW219938   4.320   1.446   2.315 -0.6802 -0.3356 -0.5857
 2768SOL     OW19939   3.768   0.192   4.489  0.2300  0.3483 -0.2865
 2768SOL    HW119940   3.681   0.216   4.522 -0.6175 -3.0553 -0.0076
 2768SOL    HW219941   3.745   0.113   4.440  0.3028  0.7406 -0.9487
 2769SOL     OW19942   0.014   2.396   8.033 -0.0813  0.3688  0.4044
 2769SOL    HW119943   0.003   2.455   8.108  0.4628  1.8733 -0.6896
 2769SOL    HW219944   0.095   2.350   8.054  1.4084  3.3791  1.2966
 2770SOL     OW19945   2.578   2.256  16.604  0.5850 -0.2413 -0.4098
 2770SOL    HW119946   2.543   2.296  16.525 -1.4514 -0.5819  0.3105
 2770SOL    HW219947   2.551   2.318  16.672  2.7145  1.8188 -1.4730
 2771SOL     OW19948   1.615   3.441   6.970  0.3178 -0.1059 -0.5133
 2771SOL    HW119949   1.669   3.418   7.046  0.2571 -1.1724 -0.7910
 2771SOL    HW219950   1.527   3.434   7.005  0.4299 -0.2070 -0.2475
 2772SOL     OW19951   1.066   0.774   8.512 -0.2387  1.0097 -0.1816
 2772SOL    HW119952   1.050   0.695   8.460  1.3276  0.9602 -0.6161
 2772SOL    HW219953   0.980   0.806   8.536 -1.4397 -1.8179 -0.7013
 2773SOL     OW19954   0.124   2.300   4.005  0.2203  0.1784  0.2462
 2773SOL    HW119955   0.071   2.369   4.045 -0.5958  0.5589 -1.5299
 2773SOL    HW219956   0.071   2.251   3.942  3.4743 -0.6413 -1.8666
 2774SOL     OW19957   0.949   1.317   8.037 -0.1055 -0.1967  0.0574
 2774SOL    HW119958   0.891   1.243   8.018 -2.3043  1.4040  0.5125
 2774SOL    HW219959   0.933   1.362   7.954 -1.2253  1.0900  0.9620
 2775SOL     OW19960   0.591   0.963   4.569  0.0359 -0.3951  0.1096
 2775SOL    HW119961   0.641   1.044   4.565 -1.3140  0.5612  2.3517
 2775SOL    HW219962   0.548   0.973   4.654  2.0146  0.5205  1.0253
 2776SOL     OW19963   3.726   4.189  16.575 -0.3353  0.0720 -0.7156
 2776SOL    HW119964   3.788   4.116  16.582  0.1366  0.5863  0.3226
 2776SOL    HW219965   3.648   4.142  16.543 -0.5471 -0.1047  0.0711
 2777SOL     OW19966   3.792   4.620   1.818 -0.1790 -0.1474 -0.2136
 2777SOL    HW119967   3.747   4.552   1.766 -0.2474  0.3295 -0.7779
 2777SOL    HW219968   3.721   4.662   1.867  1.8062  0.7527  1.8677
 2778SOL     OW19969   1.460   3.289  15.021  0.6317  0.3632  0.2292
 2778SOL    HW119970   1.467   3.340  14.940 -2.3720 -1.3362 -1.1365
 2778SOL    HW219971   1.378   3.246  14.995 -0.1993  1.4155  1.1106
 2779SOL     OW19972   4.120   2.139  12.907  0.1308 -0.1135  0.5208
 2779SOL    HW119973   4.110   2.062  12.964  4.1214 -0.8075  0.2637
 2779SOL    HW219974   4.132   2.094  12.823 -2.4353 -2.3255  1.3065
 2780SOL     OW19975   0.815   4.384   5.552  0.1253 -0.1573 -0.3877
 2780SOL    HW119976   0.830   4.383   5.458  2.7172 -2.7595  0.0702
 2780SOL    HW219977   0.746   4.318   5.557 -0.7281  0.6343 -1.8714
 2781SOL     OW19978   1.375   4.680   4.821 -0.4347  0.2042 -0.1742
 2781SOL    HW119979   1.458   4.715   4.854  0.5262 -2.6343  0.4179
 2781SOL    HW219980   1.384   4.714   4.731  1.5113 -1.6142 -0.6769
 2782SOL     OW19981   0.529   1.537   7.394  0.2290 -0.0478 -0.1163
 2782SOL    HW119982   0.476   1.522   7.473  0.0113 -0.6673 -0.3770
 2782SOL    HW219983   0.552   1.445   7.382  0.8227  0.0646  0.1872
 2783SOL     OW19984   3.029   2.048   2.086  0.1218 -0.0141  0.0457
 2783SOL    HW119985   3.107   2.031   2.033 -0.7789 -4.7993  0.3183
 2783SOL    HW219986   3.052   1.999   2.165 -0.5721  0.4833  0.5544
 2784SOL     OW19987   3.235   3.703   5.640  0.3929  0.4194 -0.3701
 2784SOL    HW119988   3.156   3.739   5.601  0.3957  0.9194  0.0744
 2784SOL    HW219989   3.236   3.611   5.614  1.5871 -0.0181  1.1980
 2785SOL     OW19990   4.342   0.060   3.492  0.4336 -0.4716  0.4470
 2785SOL    HW119991   4.399   0.090   3.422 -0.5692  1.1947  0.3596
 2785SOL    HW219992   4.373   0.124   3.556  1.8203  0.6664 -1.3832
 2786SOL     OW19993   1.208   2.822   0.189  0.5772 -0.2938  0.0626
 2786SOL    HW119994   1.232   2.915   0.180  1.0158 -0.5764 -1.7857
 2786SOL    HW219995   1.282   2.776   0.148 -0.0725  0.3609 -1.8440
 2787SOL     OW19996   1.784   2.041   2.271  0.8860 -0.6394 -1.0462
 2787SOL    HW119997   1.867   2.083   2.250 -0.3910  1.3865 -2.0873
 2787SOL    HW219998   1.817   1.969   2.324  0.3037  0.2760  0.5466
 2788SOL     OW19999   2.110   0.136   7.713 -0.3057  0.3126  0.3307
 2788SOL    HW120000   2.142   0.102   7.629  0.4478  1.9158 -0.0415
 2788SOL    HW220001   2.037   0.076   7.731 -0.7232  0.1809 -1.7812
 2789SOL     OW20002   4.051   0.172  16.306  0.2306 -0.9045  1.0241
 2789SOL    HW120003   3.959   0.154  16.284 -0.0377  0.4689  0.9734
 2789SOL    HW220004   4.081   0.097  16.358  2.4196 -0.2102  0.7427
 2790SOL     OW20005   0.672   4.330  16.823 -0.4553  0.1322 -0.0431
 2790SOL    HW120006   0.655   4.424  16.817 -1.8710 -0.0113  1.8801
 2790SOL    HW220007   0.734   4.326  16.750 -0.2039 -3.8141  0.4049
 2791SOL     OW20008   4.635   2.917   5.239  0.3603  0.3700 -0.0338
 2791SOL    HW120009   4.663   2.827   5.224 -0.0299  0.8560 -3.5723
 2791SOL    HW220010   4.696   2.942   5.309  1.0723  2.0595 -1.2745
 2792SOL     OW20011   2.766   0.633  16.040  0.4849  0.0669 -0.1790
 2792SOL    HW120012   2.688   0.641  16.095 -0.2635 -0.8608 -1.1096
 2792SOL    HW220013   2.777   0.714  15.989  1.9276  0.3684  0.5893
 2793SOL     OW20014   3.330   3.707   9.254 -0.0481  0.0678 -0.9538
 2793SOL    HW120015   3.338   3.788   9.204  0.2613  1.3785  1.2193
 2793SOL    HW220016   3.380   3.731   9.332  0.0732  1.4834 -1.4749
 2794SOL     OW20017   3.672   2.467   6.243 -0.0657 -0.1194  0.0446
 2794SOL    HW120018   3.725   2.408   6.190 -0.9910 -0.1139 -0.8861
 2794SOL    HW220019   3.728   2.543   6.260  1.5869 -0.9839 -1.5650
 2795SOL     OW20020   1.836   4.180  16.822  0.2356  0.2233 -0.3945
 2795SOL    HW120021   1.747   4.147  16.805  0.2853  0.0233 -0.2662
 2795SOL    HW220022   1.821   4.271  16.846 -2.5116 -0.3404  0.0116
 2796SOL     OW20023   4.016   4.335   5.617 -0.3281 -0.4804 -0.1468
 2796SOL    HW120024   4.071   4.410   5.638 -1.0823  0.1494 -0.3893
 2796SOL    HW220025   3.994   4.307   5.705 -2.0281  1.8545  0.1933
 2797SOL     OW20026   0.282   0.254   4.219  0.1573 -0.0812 -0.1978
 2797SOL    HW120027   0.377   0.257   4.229  0.2359 -0.4290 -0.7908
 2797SOL    HW220028   0.253   0.263   4.309 -0.0138 -2.1184 -0.0504
 2798SOL     OW20029   0.658   0.615   4.893 -0.2475  0.6382 -0.7354
 2798SOL    HW120030   0.663   0.520   4.902  0.6294  0.4553 -3.1592
 2798SOL    HW220031   0.737   0.634   4.841 -0.9697  1.6669 -1.4628
 2799SOL     OW20032   0.305   1.036   2.483  0.0549 -0.0641  0.2050
 2799SOL    HW120033   0.371   0.967   2.476  2.3293  2.0231  0.9708
 2799SOL    HW220034   0.351   1.094   2.544  0.7586  1.3440 -1.6906
 2800SOL     OW20035   4.555   3.131   1.541 -0.2691  0.0556  0.6704
 2800SOL    HW120036   4.649   3.113   1.543 -0.4364 -0.8637  0.3882
 2800SOL    HW220037   4.516   3.047   1.568 -0.0064 -0.5170 -0.7607
 2801SOL     OW20038   3.654   0.511   3.925 -0.9481  0.3417  0.3153
 2801SOL    HW120039   3.664   0.423   3.961 -3.0634  0.1220  0.3697
 2801SOL    HW220040   3.724   0.564   3.962 -0.8694  0.2891  0.2430
 2802SOL     OW20041   2.019   1.823   4.141 -0.2058  0.0889 -0.0187
 2802SOL    HW120042   2.035   1.783   4.227 -0.3979 -0.3272 -0.1774
 2802SOL    HW220043   2.102   1.823   4.094 -0.1325 -0.3385  0.1120
 2803SOL     OW20044   2.080   3.030   9.533 -0.1521 -0.0781  0.3014
 2803SOL    HW120045   2.023   3.031   9.456 -0.9727  0.9404  0.9221
 2803SOL    HW220046   2.149   3.092   9.511 -0.2074 -0.0485  0.2079
 2804SOL     OW20047   4.704   2.281   4.613 -0.0403 -0.2038 -0.6299
 2804SOL    HW120048   4.725   2.292   4.705  1.1726 -0.1372 -0.9189
 2804SOL    HW220049   4.608   2.291   4.616  0.0444  0.0743  1.2594
 2805SOL     OW20050   0.511   0.174   8.235  0.0832  0.7580  0.0353
 2805SOL    HW120051   0.429   0.151   8.278 -0.2989 -2.7816 -2.6493
 2805SOL    HW220052   0.576   0.134   8.293  1.0499  1.4763 -0.5372
 2806SOL     OW20053   4.188   1.006   6.797  0.4055  0.4793  0.1185
 2806SOL    HW120054   4.203   0.913   6.813 -0.7941  0.2299 -0.1643
 2806SOL    HW220055   4.094   0.997   6.776 -0.1333  3.5378  1.2467
 2807SOL     OW20056   4.447   4.455  13.853 -0.5706  0.0045  0.0636
 2807SOL    HW120057   4.463   4.434  13.762 -3.4524 -0.3582 -0.3613
 2807SOL    HW220058   4.425   4.548  13.850 -1.1054 -0.1792 -1.4827
 2808SOL     OW20059   3.062   1.820   4.489  0.8542  0.1612 -0.0479
 2808SOL    HW120060   3.052   1.876   4.567 -2.5940 -1.8770  0.9531
 2808SOL    HW220061   3.119   1.870   4.430  0.0381  1.5101  0.2920
 2809SOL     OW20062   0.391   4.312  16.986  0.6313  0.0687  0.1543
 2809SOL    HW120063   0.358   4.345  16.903  1.0638  0.8396  0.2919
 2809SOL    HW220064   0.484   4.328  16.973  0.4365 -0.7938 -2.1415
 2810SOL     OW20065   1.039   2.153   0.698  0.5909 -0.6960 -0.2594
 2810SOL    HW120066   1.057   2.064   0.666  3.8753  0.0732 -0.6134
 2810SOL    HW220067   1.092   2.171   0.776  1.3108 -1.1147 -0.6488
 2811SOL     OW20068   1.571   4.431  17.067 -0.1897 -0.3268 -0.3478
 2811SOL    HW120069   1.631   4.418  16.993 -0.5152 -0.2700 -0.6249
 2811SOL    HW220070   1.550   4.523  17.051  1.4560 -0.1884 -1.8350
 2812SOL     OW20071   2.265   1.656   8.669 -0.0998  0.5927  0.2628
 2812SOL    HW120072   2.267   1.735   8.615  2.1222  1.3998  1.5106
 2812SOL    HW220073   2.313   1.596   8.612 -1.1949 -0.5031  0.5008
 2813SOL     OW20074   4.019   3.138   1.755  0.5239 -0.5898 -0.5359
 2813SOL    HW120075   4.055   3.146   1.844  1.0957  0.7626 -0.8860
 2813SOL    HW220076   4.086   3.186   1.706  0.4212 -1.6749 -1.7330
 2814SOL     OW20077   1.158   1.059  16.238 -0.4736  0.5414  0.1826
 2814SOL    HW120078   1.120   0.974  16.217 -0.7323  0.8105 -0.4725
 2814SOL    HW220079   1.236   1.043  16.290 -0.0979 -0.8714 -0.8202
 2815SOL     OW20080   0.201   1.924  14.593  0.0578 -0.4225  0.2648
 2815SOL    HW120081   0.117   1.938  14.637  0.3766 -0.4329  0.8769
 2815SOL    HW220082   0.242   2.008  14.611  0.6173 -0.2895 -1.6593
 2816SOL     OW20083   3.893   0.283   4.712 -0.3069  0.4665  0.0549
 2816SOL    HW120084   3.867   0.233   4.635 -0.6072 -0.4391  0.7381
 2816SOL    HW220085   3.810   0.321   4.741 -0.1592  0.8618 -0.0421
 2817SOL     OW20086   0.738   3.761   6.580  0.1111  0.1200 -0.7112
 2817SOL    HW120087   0.771   3.851   6.585  0.1431  0.0537  0.3984
 2817SOL    HW220088   0.817   3.717   6.549 -1.5502 -2.1626 -1.5871
 2818SOL     OW20089   4.316   1.781  11.051  0.3211  0.1589  0.4485
 2818SOL    HW120090   4.398   1.803  11.096  0.1600 -0.1440  0.8896
 2818SOL    HW220091   4.333   1.699  11.004 -1.2729 -0.9988  1.8930
 2819SOL     OW20092   2.949   4.679   7.973  0.6807  0.8879  0.2497
 2819SOL    HW120093   3.038   4.705   7.948  0.9147 -0.0048  0.1763
 2819SOL    HW220094   2.908   4.652   7.890  0.8839  1.5403 -0.0621
 2820SOL     OW20095   3.484   1.624  17.323  0.3485 -0.0151 -0.2723
 2820SOL    HW120096   3.567   1.670  17.313  1.4476 -1.4117  2.4237
 2820SOL    HW220097   3.417   1.689  17.303  0.4190 -0.3067 -1.4450
 2821SOL     OW20098   1.773   1.472   3.290  0.4153  0.3330 -1.0974
 2821SOL    HW120099   1.732   1.545   3.243  1.2024  1.3826 -0.1418
 2821SOL    HW220100   1.782   1.411   3.217 -0.0203  0.2912 -1.1132
 2822SOL     OW20101   1.695   0.655   5.426  0.0959  0.2116  0.3584
 2822SOL    HW120102   1.724   0.564   5.431  0.9206  0.6255  2.8615
 2822SOL    HW220103   1.624   0.649   5.363 -0.1329 -1.6238  0.7787
 2823SOL     OW20104   0.717   3.552  12.561  0.4082 -0.1321 -0.5379
 2823SOL    HW120105   0.655   3.513  12.623 -1.0548  1.5937 -0.9158
 2823SOL    HW220106   0.675   3.513  12.485 -1.7946  0.1030  0.5521
 2824SOL     OW20107   1.460   0.303  16.606  0.4801  0.0830 -0.1544
 2824SOL    HW120108   1.376   0.291  16.562  0.1386  0.6645  0.3356
 2824SOL    HW220109   1.434   0.324  16.696  0.1776  1.1315 -0.4944
 2825SOL     OW20110   4.431   1.872  14.244  0.2583  0.5562 -0.5219
 2825SOL    HW120111   4.342   1.907  14.246  0.0818  0.1506 -2.0373
 2825SOL    HW220112   4.444   1.872  14.149 -1.5320 -2.1910 -0.7511
 2826SOL     OW20113   3.748   2.840   7.865 -0.0980  0.0062 -0.4323
 2826SOL    HW120114   3.706   2.881   7.790 -1.1326  1.1159  0.7710
 2826SOL    HW220115   3.841   2.834   7.842  0.8425 -2.8688  4.1253
 2827SOL     OW20116   1.427   3.947   5.211  0.2031  0.0938 -0.4456
 2827SOL    HW120117   1.521   3.957   5.229  0.6082  0.0607 -2.5848
 2827SOL    HW220118   1.395   3.926   5.299 -0.7798 -0.5145 -0.9444
 2828SOL     OW20119   3.910   1.406   4.699 -0.0400 -0.2717 -0.3991
 2828SOL    HW120120   3.919   1.360   4.615 -1.1336 -1.1775 -0.0112
 2828SOL    HW220121   3.815   1.417   4.695  0.2293  1.7758 -1.3894
 2829SOL     OW20122   2.031   1.303   5.042  0.2619  1.5202 -0.4342
 2829SOL    HW120123   2.091   1.273   4.973 -2.2274 -1.4995 -1.2399
 2829SOL    HW220124   2.059   1.252   5.118 -0.1565  0.0182 -1.2854
 2830SOL     OW20125   1.912   2.676   3.595  0.2660  0.3488 -0.3246
 2830SOL    HW120126   1.881   2.611   3.658  0.3300 -0.0602 -0.7122
 2830SOL    HW220127   1.872   2.637   3.517  0.5506 -0.2729 -0.1571
 2831SOL     OW20128   2.958   2.068   5.714  0.0915  0.5979  0.1611
 2831SOL    HW120129   2.868   2.080   5.746 -0.1263  0.6736 -0.4823
 2831SOL    HW220130   2.952   2.123   5.636  0.7178  1.6389  0.8419
 2832SOL     OW20131   1.563   1.775   3.353 -0.4189  0.2325  0.6574
 2832SOL    HW120132   1.509   1.698   3.333  1.1104 -0.3702 -1.0415
 2832SOL    HW220133   1.553   1.760   3.447 -2.8847 -2.0631  0.0536
 2833SOL     OW20134   2.063   1.151   5.269  0.5385  0.0951  0.3838
 2833SOL    HW120135   1.975   1.143   5.306  0.9177 -0.5420  1.1391
 2833SOL    HW220136   2.109   1.113   5.344 -0.7688  0.6636  1.4826
 2834SOL     OW20137   0.427   1.359   2.313 -0.1849 -0.4456  0.2019
 2834SOL    HW120138   0.358   1.394   2.370  1.7748  1.3153  1.4808
 2834SOL    HW220139   0.505   1.364   2.369  0.3386 -0.2931 -0.5474
 2835SOL     OW20140   0.838   3.629   1.759  0.1820  0.1652 -0.7515
 2835SOL    HW120141   0.808   3.538   1.758  0.2692  0.1347 -0.4936
 2835SOL    HW220142   0.853   3.631   1.853 -0.0457  2.4074 -0.7677
 2836SOL     OW20143   0.959   3.665   9.409 -0.2434  0.0900 -0.3130
 2836SOL    HW120144   0.967   3.758   9.388  2.1177  0.1465  0.7916
 2836SOL    HW220145   0.954   3.622   9.324  1.9531 -1.6935  0.4497
 2837SOL     OW20146   3.082   1.546   5.803  0.6771  0.0798 -0.4536
 2837SOL    HW120147   3.105   1.534   5.711  0.2188 -0.4025 -0.5026
 2837SOL    HW220148   2.999   1.595   5.805  2.0067  2.2697  0.9864
 2838SOL     OW20149   0.307   4.309   5.298 -0.3652  0.6337  0.5267
 2838SOL    HW120150   0.315   4.347   5.385  0.4079 -0.0103  0.7416
 2838SOL    HW220151   0.358   4.371   5.246  0.7529 -1.0448 -0.4059
 2839SOL     OW20152   4.187   1.113   6.200 -0.2002  0.0172  0.8157
 2839SOL    HW120153   4.258   1.177   6.203  0.6113 -0.8601  0.2672
 2839SOL    HW220154   4.231   1.028   6.194  0.2314  0.0612  3.3644
 2840SOL     OW20155   4.459   3.227  14.292 -0.2901  0.1314 -0.3800
 2840SOL    HW120156   4.410   3.305  14.317  0.9651  0.8124 -0.0518
 2840SOL    HW220157   4.401   3.188  14.226  1.5678 -0.4020 -1.6938
 2841SOL     OW20158   0.669   2.550   5.207  1.0544  0.1303  0.3335
 2841SOL    HW120159   0.684   2.574   5.116 -0.6051 -0.8027 -0.1776
 2841SOL    HW220160   0.575   2.553   5.224  0.8122 -1.9817 -0.5862
 2842SOL     OW20161   0.592   1.411   8.943  0.2627 -0.4789 -0.1159
 2842SOL    HW120162   0.688   1.411   8.943  0.2652  0.8563  1.7222
 2842SOL    HW220163   0.576   1.439   8.853 -0.1898 -0.3650  0.0001
 2843SOL     OW20164   4.346   2.394   8.542 -0.3966 -0.2115 -0.0029
 2843SOL    HW120165   4.372   2.439   8.622  1.2885  0.6737 -1.0408
 2843SOL    HW220166   4.274   2.340   8.575  0.5557 -0.7241  1.2175
 2844SOL     OW20167   0.259   4.321   1.583  0.4602 -0.7608  0.9020
 2844SOL    HW120168   0.265   4.311   1.678  0.7527  0.9228  1.0570
 2844SOL    HW220169   0.206   4.399   1.567  1.6750 -0.0991  0.0797
 2845SOL     OW20170   0.447   1.644  17.525 -0.8415  0.0564 -0.0608
 2845SOL    HW120171   0.418   1.552  17.530 -0.8598  0.0676  0.0365
 2845SOL    HW220172   0.359   1.678  17.508 -1.4744 -0.7916  1.4965
 2846SOL     OW20173   4.084   4.048   2.431  0.4847 -1.1273  0.1797
 2846SOL    HW120174   4.130   3.987   2.488 -2.0675 -2.4084  0.8350
 2846SOL    HW220175   4.067   4.124   2.487  0.7909 -4.2544  4.5033
 2847SOL     OW20176   3.865   2.761   8.534  0.2410 -0.2745  0.1081
 2847SOL    HW120177   3.936   2.805   8.488  1.3206  0.7023  2.7232
 2847SOL    HW220178   3.834   2.830   8.593 -0.1351 -0.2477 -0.1244
 2848SOL     OW20179   0.323   2.143  16.613  0.7201 -0.2281  0.0974
 2848SOL    HW120180   0.304   2.198  16.688  1.4135  3.2237 -2.2729
 2848SOL    HW220181   0.413   2.128  16.640  0.2154 -0.6021  1.5771
 2849SOL     OW20182   4.657   2.961   8.429 -0.2627  0.1128 -0.1110
 2849SOL    HW120183   4.724   2.906   8.470 -1.7720 -1.1240  0.7122
 2849SOL    HW220184   4.583   2.921   8.476 -1.2237  0.2525 -1.5183
 2850SOL     OW20185   0.943   1.761   4.185  0.0346 -0.5171 -0.3810
 2850SOL    HW120186   0.921   1.684   4.132 -0.8279  0.7999 -1.9578
 2850SOL    HW220187   0.879   1.761   4.256  1.1502  1.2127  0.6092
 2851SOL     OW20188   3.102   3.123   2.779  0.1254  0.4092 -0.0181
 2851SOL    HW120189   3.111   3.160   2.866 -0.1600 -2.4126  1.2185
 2851SOL    HW220190   3.178   3.163   2.737  0.3931 -1.2518 -1.1548
 2852SOL     OW20191   0.834   0.566   2.659 -0.3343  0.4389 -0.1667
 2852SOL    HW120192   0.748   0.605   2.645 -0.6636 -1.1723 -2.7286
 2852SOL    HW220193   0.825   0.537   2.749  1.6224 -2.0151 -0.7615
 2853SOL     OW20194   3.643   3.668   6.703  0.2535  0.1813 -0.1919
 2853SOL    HW120195   3.693   3.746   6.680 -0.4226  0.1730 -1.6459
 2853SOL    HW220196   3.683   3.646   6.788  0.5569  0.0462 -0.3687
 2854SOL     OW20197   1.850   2.753   9.842  0.0952 -1.0926  0.3788
 2854SOL    HW120198   1.913   2.757   9.770 -1.4143  1.4272 -0.7779
 2854SOL    HW220199   1.828   2.661   9.825 -1.2232 -0.7998  0.5020
 2855SOL     OW20200   0.965   1.780   2.524 -0.0643 -0.1317  0.2839
 2855SOL    HW120201   1.011   1.808   2.445  0.5839 -2.4453 -0.1719
 2855SOL    HW220202   0.909   1.856   2.542 -1.8074 -1.0755 -1.1226
 2856SOL     OW20203   1.601   1.180   8.739  0.0378 -0.4478  0.5795
 2856SOL    HW120204   1.677   1.143   8.695 -0.0598  0.2901 -0.2170
 2856SOL    HW220205   1.638   1.206   8.823 -1.5463  0.3903  1.0204
 2857SOL     OW20206   3.880   0.165   3.013  1.0652 -0.1298 -0.5652
 2857SOL    HW120207   3.919   0.096   2.959 -0.6964 -1.2299 -0.4482
 2857SOL    HW220208   3.853   0.109   3.086 -0.3936  0.6270 -0.5149
 2858SOL     OW20209   1.819   4.228   9.411  0.3305  0.2422  0.1171
 2858SOL    HW120210   1.747   4.291   9.425 -1.0074 -1.1983 -0.2664
 2858SOL    HW220211   1.777   4.143   9.425  1.0388  0.0318  0.8882
 2859SOL     OW20212   1.372   0.891  10.564 -0.4500  0.7595 -0.2049
 2859SOL    HW120213   1.298   0.913  10.622 -1.6788 -0.6686 -1.2119
 2859SOL    HW220214   1.421   0.827  10.614 -1.4621  0.6193  0.6225
 2860SOL     OW20215   3.415   1.779  15.480 -0.2004  0.0239 -0.6363
 2860SOL    HW120216   3.453   1.849  15.532  1.4827  0.3263 -2.2731
 2860SOL    HW220217   3.489   1.722  15.498  0.5638  0.4757 -2.3665
 2861SOL     OW20218   4.016   4.336   9.083 -0.3493  0.0083 -0.1345
 2861SOL    HW120219   3.941   4.357   9.139 -0.1492 -2.1375  0.9304
 2861SOL    HW220220   4.063   4.274   9.139 -1.4908 -0.9841 -0.2781
 2862SOL     OW20221   0.012   2.533   3.303  0.0420  0.2931 -0.4563
 2862SOL    HW120222   0.081   2.514   3.366 -1.1973  0.9630  1.0963
 2862SOL    HW220223   0.021   2.459   3.243  1.3369 -0.6455  0.8939
 2863SOL     OW20224   1.177   1.091   5.881 -0.2261  0.0097  0.2235
 2863SOL    HW120225   1.204   0.999   5.875 -3.5864 -0.9012 -0.9455
 2863SOL    HW220226   1.258   1.133   5.910  0.4347 -1.2584  0.2276
 2864SOL     OW20227   1.665   0.249   8.040  0.2145 -0.1801 -0.4348
 2864SOL    HW120228   1.622   0.180   7.988 -0.7052  0.5616 -0.6575
 2864SOL    HW220229   1.581   0.279   8.076  0.1153 -0.6411 -0.2810
 2865SOL     OW20230   1.362   2.399   0.003  0.2779  0.2183  0.5418
 2865SOL    HW120231   1.300   2.370  17.679 -0.2174  2.4646  0.0000
 2865SOL    HW220232   1.383   2.318   0.049  1.0429  0.7405  1.1011
 2866SOL     OW20233   4.267   0.356   8.107  0.4723  0.1556  0.3869
 2866SOL    HW120234   4.337   0.396   8.055  0.6388  0.2432  0.6770
 2866SOL    HW220235   4.219   0.300   8.046  1.0443  0.6238 -0.5051
 2867SOL     OW20236   3.631   4.667   3.457  0.2627 -0.5511 -0.1414
 2867SOL    HW120237   3.573   4.703   3.389 -0.3416 -2.4921 -0.6677
 2867SOL    HW220238   3.711   4.670   3.404  0.6577  3.0840  0.7391
 2868SOL     OW20239   2.799   3.872   4.204  0.2715 -0.3723 -0.0789
 2868SOL    HW120240   2.850   3.944   4.242 -0.0046 -0.9795  1.4566
 2868SOL    HW220241   2.714   3.899   4.239  0.4929 -0.5436  0.6051
 2869SOL     OW20242   0.239   1.161  14.768 -0.0506  0.8819  0.4584
 2869SOL    HW120243   0.162   1.218  14.774  0.0942  1.3182 -1.5525
 2869SOL    HW220244   0.281   1.192  14.848  0.6805  0.5711  0.1933
 2870SOL     OW20245   0.699   3.122  13.837 -0.1620 -0.2926  0.1576
 2870SOL    HW120246   0.635   3.105  13.906 -2.2008  0.5589 -1.5153
 2870SOL    HW220247   0.752   3.179  13.891 -0.6065  1.3857 -1.1909
 2871SOL     OW20248   1.832   3.053   7.831  0.2860 -0.5077  0.2039
 2871SOL    HW120249   1.900   2.998   7.871  1.7468  2.6665  2.0804
 2871SOL    HW220250   1.807   3.106   7.907  0.0168 -0.1241 -0.1526
 2872SOL     OW20251   0.393   3.431   7.077 -0.1235  0.6981  0.0823
 2872SOL    HW120252   0.363   3.381   7.153 -1.0933  0.3588 -0.5201
 2872SOL    HW220253   0.452   3.363   7.046 -0.0926  0.3339  0.9443
 2873SOL     OW20254   3.819   0.787   5.951  0.2520 -0.1402  0.0213
 2873SOL    HW120255   3.797   0.860   6.010 -0.9970 -0.0600 -0.5423
 2873SOL    HW220256   3.821   0.711   6.009  1.1291  0.0321  0.2151
 2874SOL     OW20257   1.070   3.796   8.016  0.5578 -0.0823  0.2818
 2874SOL    HW120258   1.133   3.795   8.089  0.2855 -1.3854  0.4976
 2874SOL    HW220259   1.123   3.781   7.938 -1.3962 -0.3052 -0.9830
 2875SOL     OW20260   2.521   1.574  13.458  0.3335 -0.0535 -0.5195
 2875SOL    HW120261   2.557   1.491  13.490  0.0361 -0.1079 -0.3241
 2875SOL    HW220262   2.547   1.644  13.519 -1.2094  0.9949 -1.0520
 2876SOL     OW20263   3.686   1.396   9.449  0.0058  0.1454  0.0026
 2876SOL    HW120264   3.653   1.483   9.472 -1.4437 -1.2207  3.0918
 2876SOL    HW220265   3.611   1.357   9.404 -0.0347 -0.8480  0.9441
 2877SOL     OW20266   1.474   2.334   7.164  0.1202 -0.1869 -0.0956
 2877SOL    HW120267   1.443   2.265   7.221  1.6686 -0.1341  0.8019
 2877SOL    HW220268   1.430   2.412   7.198 -0.1236 -0.2310 -0.3084
 2878SOL     OW20269   1.360   2.812   7.742  0.7289 -0.3520 -0.2795
 2878SOL    HW120270   1.411   2.892   7.735  0.8224 -0.5956 -2.5035
 2878SOL    HW220271   1.292   2.834   7.806  0.5755  0.9129 -0.8611
 2879SOL     OW20272   1.152   4.536   7.711 -0.4788  0.5534  0.8273
 2879SOL    HW120273   1.141   4.627   7.682 -1.3498  0.6051  1.2951
 2879SOL    HW220274   1.233   4.508   7.669  0.1140  1.8927  1.0681
 2880SOL     OW20275   1.609   3.007   8.317  0.8826 -0.3814 -0.4128
 2880SOL    HW120276   1.655   3.077   8.363 -1.1310 -1.0240  2.5263
 2880SOL    HW220277   1.678   2.977   8.257 -0.3677 -2.0292 -1.0161
 2881SOL     OW20278   1.041   0.493   4.400 -0.1747  0.4833  0.5086
 2881SOL    HW120279   0.958   0.461   4.363  0.6723  0.5482 -1.4586
 2881SOL    HW220280   1.010   0.573   4.443 -0.0724  1.3186 -0.9600
 2882SOL     OW20281   1.103   3.226  13.087 -0.1542 -0.7162 -0.3684
 2882SOL    HW120282   1.174   3.214  13.150  0.0134  0.0088 -0.4177
 2882SOL    HW220283   1.144   3.261  13.008  0.2552  0.4051  0.3545
 2883SOL     OW20284   1.180   0.802   8.999  0.1936  0.2341 -0.3678
 2883SOL    HW120285   1.204   0.709   8.994 -0.3190  0.1118 -0.4708
 2883SOL    HW220286   1.257   0.845   9.037 -0.1075  1.0360 -0.6714
 2884SOL     OW20287   0.892   1.764   4.500 -0.0274 -0.5645  0.4724
 2884SOL    HW120288   0.868   1.773   4.592 -2.1931  0.6905 -0.2004
 2884SOL    HW220289   0.806   1.753   4.459 -0.1532  1.6781  0.1376
 2885SOL     OW20290   0.363   2.091  11.897  0.0288  0.1468  0.1256
 2885SOL    HW120291   0.410   2.049  11.969  1.1788  1.4767  0.1650
 2885SOL    HW220292   0.428   2.142  11.848 -1.3136 -0.1009 -1.8974
 2886SOL     OW20293   3.596   0.567   9.652  0.4539 -1.1571 -0.6051
 2886SOL    HW120294   3.652   0.635   9.616 -0.3178  0.1712  0.6957
 2886SOL    HW220295   3.655   0.537   9.721 -1.4539 -0.8706  1.1733
 2887SOL     OW20296   0.131   0.453   7.027  0.7289 -0.5502  0.1712
 2887SOL    HW120297   0.137   0.367   7.069  2.9027 -0.5800 -0.1807
 2887SOL    HW220298   0.037   0.467   7.034  0.4211 -1.3263 -2.2256
 2888SOL     OW20299   2.858   4.673   0.438  0.0986 -0.0943 -0.2403
 2888SOL    HW120300   2.910   0.016   0.427  1.5234 -1.0053 -0.0889
 2888SOL    HW220301   2.818   4.670   0.352 -0.0683  1.2988 -0.1989
 2889SOL     OW20302   4.501   3.610   1.577  0.4876  0.7501 -0.1719
 2889SOL    HW120303   4.546   3.594   1.493 -0.0543  1.6920 -0.6429
 2889SOL    HW220304   4.502   3.523   1.616  1.5994 -0.0918 -2.0877
 2890SOL     OW20305   4.208   0.575   2.938 -0.2828 -0.2530  0.1259
 2890SOL    HW120306   4.142   0.518   2.979 -1.2654 -0.8383 -2.2883
 2890SOL    HW220307   4.281   0.515   2.926  0.3835  0.8156 -1.0795
 2891SOL     OW20308   2.538   3.129   1.077 -0.4708  0.1803  0.7963
 2891SOL    HW120309   2.541   3.213   1.122  0.4272 -0.4863  1.9787
 2891SOL    HW220310   2.469   3.145   1.012 -0.4128 -0.3861  0.5955
 2892SOL     OW20311   1.764   1.340   3.048  0.0375  0.6025 -0.4735
 2892SOL    HW120312   1.857   1.335   3.027 -0.3616  0.2242 -2.1831
 2892SOL    HW220313   1.729   1.301   2.967  0.4739  2.5765 -1.6118
 2893SOL     OW20314   0.119   2.866  12.115 -0.2255  0.0065 -0.6743
 2893SOL    HW120315   0.166   2.942  12.149 -2.0926  0.6278  0.5400
 2893SOL    HW220316   0.061   2.842  12.188  1.1439 -0.5111  0.2376
 2894SOL     OW20317   0.308   4.062   1.494  0.1012 -0.1185 -0.4242
 2894SOL    HW120318   0.404   4.061   1.495  0.0976  2.5615  1.4781
 2894SOL    HW220319   0.294   4.156   1.505 -1.2588 -0.4720  0.8318
 2895SOL     OW20320   1.836   1.367   4.857 -0.4001  0.1359 -0.1163
 2895SOL    HW120321   1.901   1.322   4.803 -0.2032  1.3370 -0.8855
 2895SOL    HW220322   1.897   1.364   4.930 -0.5217  0.5464  0.0035
 2896SOL     OW20323   0.997   4.656   5.995  0.3566 -0.0979 -0.0064
 2896SOL    HW120324   0.992   4.629   6.087  0.1437 -0.0358 -0.0017
 2896SOL    HW220325   1.044   4.581   5.957  0.8787 -0.5826  1.6002
 2897SOL     OW20326   4.109   3.805   4.424 -0.0182  0.2063  0.7460
 2897SOL    HW120327   4.097   3.804   4.329 -0.2247 -0.8346  0.7796
 2897SOL    HW220328   4.142   3.716   4.434 -2.4903 -1.0644 -2.0630
 2898SOL     OW20329   4.065   1.038   0.568  0.1256  0.2626  0.2105
 2898SOL    HW120330   4.047   0.974   0.498 -1.2789 -0.3335  1.1103
 2898SOL    HW220331   4.112   1.110   0.527 -0.9125  0.8955  0.1210
 2899SOL     OW20332   0.240   2.621   1.638  0.2164  0.8022  0.2735
 2899SOL    HW120333   0.335   2.622   1.652  0.3557  2.9619 -0.8011
 2899SOL    HW220334   0.204   2.635   1.726  2.8288 -2.3513  1.8397
 2900SOL     OW20335   2.072   3.787   3.037 -0.3445 -0.1422  0.0424
 2900SOL    HW120336   2.013   3.848   3.083  3.1326  1.3767  2.4516
 2900SOL    HW220337   2.146   3.847   3.027 -0.1757 -0.3042  0.3156
 2901SOL     OW20338   0.591   4.553   4.439  0.1820  0.3643  0.7201
 2901SOL    HW120339   0.603   4.570   4.532  0.3778 -0.0276  0.7686
 2901SOL    HW220340   0.562   4.642   4.417  1.9375  0.3983 -1.4483
 2902SOL     OW20341   1.789   0.266   6.999 -0.0894  0.0053 -0.2773
 2902SOL    HW120342   1.738   0.299   6.924 -0.5706 -0.3234 -0.0968
 2902SOL    HW220343   1.819   0.350   7.033  1.3966 -1.3785  1.7876
 2903SOL     OW20344   1.718   3.792   7.301  0.3523 -0.3211  0.0782
 2903SOL    HW120345   1.695   3.883   7.323 -1.9387 -0.4026 -1.9724
 2903SOL    HW220346   1.670   3.743   7.368  0.8067 -1.4277 -0.4049
 2904SOL     OW20347   1.638   0.691  15.154 -0.0164  0.1252 -0.0752
 2904SOL    HW120348   1.727   0.654  15.152 -0.4036 -0.8214 -0.1149
 2904SOL    HW220349   1.622   0.702  15.247 -0.1523  1.3741 -0.2534
 2905SOL     OW20350   2.483   3.986   9.421 -0.2431  0.0296  0.0957
 2905SOL    HW120351   2.412   4.043   9.391  0.3084  0.5544 -0.2218
 2905SOL    HW220352   2.495   4.014   9.512  3.4893  1.6140 -0.8628
 2906SOL     OW20353   3.599   3.330   9.827  0.3763 -0.1810 -0.1703
 2906SOL    HW120354   3.515   3.328   9.872 -0.2019  3.6975 -1.0491
 2906SOL    HW220355   3.651   3.293   9.898  2.3738  0.7471 -1.1607
 2907SOL     OW20356   1.234   2.071  16.466  0.3238  0.5564 -0.1227
 2907SOL    HW120357   1.293   2.021  16.523 -1.0082  0.0452  0.8240
 2907SOL    HW220358   1.174   1.998  16.456  1.3019 -0.1782 -0.6689
 2908SOL     OW20359   3.574   3.078  10.810  0.5141  0.3323  0.2846
 2908SOL    HW120360   3.494   3.048  10.852  0.7857  0.6329  1.0177
 2908SOL    HW220361   3.615   2.993  10.794 -2.5138 -1.0455 -0.0149
 2909SOL     OW20362   4.422   2.456   7.170  0.2268  0.1317  0.3655
 2909SOL    HW120363   4.400   2.507   7.247  2.3548  2.2145 -0.3939
 2909SOL    HW220364   4.401   2.365   7.189 -2.1333  0.6487  0.1797
 2910SOL     OW20365   4.624   3.098  15.979  0.9509  0.2924 -0.3169
 2910SOL    HW120366   4.580   3.164  15.924 -1.4213 -0.8098  0.2620
 2910SOL    HW220367   4.622   3.159  16.053 -1.0389  0.3643 -0.4269
 2911SOL     OW20368   2.541   2.449  15.202 -0.5793 -0.0290 -0.1593
 2911SOL    HW120369   2.473   2.491  15.149 -0.2568 -0.9823 -1.3247
 2911SOL    HW220370   2.541   2.363  15.159 -0.9423  0.5664 -1.3372
 2912SOL     OW20371   2.424   1.457   5.586  0.5464  0.1818 -0.1138
 2912SOL    HW120372   2.373   1.536   5.604 -0.7798 -0.6561 -0.1961
 2912SOL    HW220373   2.380   1.407   5.655 -1.1005  2.2601  0.3185
 2913SOL     OW20374   0.791   1.110   6.143  0.8936 -0.6291 -0.2605
 2913SOL    HW120375   0.759   1.075   6.227  0.2044 -0.2639 -0.3705
 2913SOL    HW220376   0.743   1.192   6.134  2.2235  0.0781 -0.8342
 2914SOL     OW20377   2.897   1.353   1.709  0.2769 -0.2299  0.2168
 2914SOL    HW120378   2.836   1.427   1.710 -1.9555 -2.1089  1.3717
 2914SOL    HW220379   2.939   1.363   1.795 -1.4097  1.0001  0.9184
 2915SOL     OW20380   3.723   0.634   9.137  0.4677  0.0880  0.4908
 2915SOL    HW120381   3.747   0.585   9.216 -1.2979  1.3073  1.7757
 2915SOL    HW220382   3.802   0.683   9.113  0.7693 -0.1386  1.0233
 2916SOL     OW20383   1.045   1.178   3.720 -0.4154  0.0359  0.4414
 2916SOL    HW120384   1.110   1.169   3.650 -0.2813  1.7497  0.3312
 2916SOL    HW220385   1.006   1.265   3.713  0.7679  0.4405 -1.3716
 2917SOL     OW20386   1.479   1.030   9.049  0.1378  0.1896  0.1905
 2917SOL    HW120387   1.548   1.091   9.023 -0.5657  1.5385  1.5383
 2917SOL    HW220388   1.456   1.067   9.134  2.0070  0.6773  0.4822
 2918SOL     OW20389   3.701   3.954   8.567 -0.6293 -0.2366  0.2194
 2918SOL    HW120390   3.784   3.923   8.603 -0.6686 -2.0122 -1.1948
 2918SOL    HW220391   3.632   3.941   8.633 -0.7871 -3.5543 -0.5950
 2919SOL     OW20392   4.541   2.960   2.862 -0.1770  0.5022  0.3542
 2919SOL    HW120393   4.486   3.007   2.925 -2.3745  0.2521 -1.4033
 2919SOL    HW220394   4.622   2.940   2.910  1.4547  3.8230 -0.9892
 2920SOL     OW20395   1.750   1.838   7.671  0.0051 -0.1648 -0.4209
 2920SOL    HW120396   1.798   1.913   7.707 -0.9659  0.8606 -1.2743
 2920SOL    HW220397   1.677   1.831   7.733 -1.3011 -0.1484 -1.9846
 2921SOL     OW20398   1.270   4.562   2.761  0.5469  0.4360  0.1794
 2921SOL    HW120399   1.333   4.612   2.709 -1.9131  0.1499 -3.0692
 2921SOL    HW220400   1.241   4.619   2.832 -1.5883  1.3447 -1.4465
 2922SOL     OW20401   0.567   3.679   4.694  0.0067  0.3036  0.2714
 2922SOL    HW120402   0.638   3.704   4.753  0.1617  0.7852 -0.1271
 2922SOL    HW220403   0.507   3.628   4.749  0.7213 -1.8719 -0.9658
 2923SOL     OW20404   1.472   0.274   2.671 -0.2147  0.3731  0.0979
 2923SOL    HW120405   1.411   0.314   2.733 -0.7136 -2.1385  1.2088
 2923SOL    HW220406   1.482   0.335   2.598 -3.8722 -1.2530 -1.7230
 2924SOL     OW20407   1.184   2.497  11.325  0.1249  0.3732  0.3586
 2924SOL    HW120408   1.203   2.589  11.346 -0.9130  0.6341  0.1693
 2924SOL    HW220409   1.090   2.489  11.343  0.6738 -1.4579  2.2857
 2925SOL     OW20410   4.628   0.167   2.704  0.4326 -0.2255  0.3107
 2925SOL    HW120411   4.701   0.211   2.659 -0.0315  0.3860  0.1552
 2925SOL    HW220412   4.553   0.226   2.700 -0.6266 -1.4743  1.9601
 2926SOL     OW20413   4.059   0.753   4.298 -0.5669 -0.3344 -0.0042
 2926SOL    HW120414   4.074   0.741   4.204  0.0913 -0.8965  0.1696
 2926SOL    HW220415   4.023   0.841   4.296 -0.8530 -0.4627 -0.7609
 2927SOL     OW20416   2.884   0.363   0.703 -0.1406 -0.0410  0.3985
 2927SOL    HW120417   2.865   0.320   0.786 -3.0035 -1.7508 -1.1335
 2927SOL    HW220418   2.910   0.454   0.722  0.5370  0.1831 -1.5957
 2928SOL     OW20419   2.603   0.177   2.685 -0.1232  1.0016 -0.0833
 2928SOL    HW120420   2.588   0.116   2.613 -2.4632  0.0068  1.2401
 2928SOL    HW220421   2.619   0.256   2.634  0.6658  0.9768  0.1249
 2929SOL     OW20422   3.814   2.030   4.695 -0.0078 -0.3077 -0.0402
 2929SOL    HW120423   3.846   2.009   4.607  1.2797 -0.6387  0.5048
 2929SOL    HW220424   3.773   1.947   4.719 -1.7698 -0.0057 -2.0861
 2930SOL     OW20425   0.248   1.616   3.247 -0.9072 -0.2295  0.0805
 2930SOL    HW120426   0.324   1.628   3.305 -0.5237 -0.2677 -0.4168
 2930SOL    HW220427   0.231   1.525   3.274  0.3302 -1.0601 -1.9475
 2931SOL     OW20428   0.811   0.241   5.062 -0.2920 -0.1418  0.1743
 2931SOL    HW120429   0.805   0.256   4.968  0.4441  0.2271  0.1831
 2931SOL    HW220430   0.809   0.147   5.078 -1.6786 -0.1927 -0.3610
 2932SOL     OW20431   2.205   3.454   1.481 -0.2496  0.0129 -0.9006
 2932SOL    HW120432   2.243   3.444   1.569  3.2148  3.1498 -2.0624
 2932SOL    HW220433   2.265   3.515   1.439  1.3050 -1.0456 -0.2174
 2933SOL     OW20434   3.099   3.545   4.968 -0.2514 -0.0315 -0.0874
 2933SOL    HW120435   3.114   3.572   5.058  0.6071 -0.4620 -0.1000
 2933SOL    HW220436   3.186   3.530   4.931  0.7314  1.4859  1.6687
 2934SOL     OW20437   3.828   3.585   3.164  0.1208 -0.0168 -0.3895
 2934SOL    HW120438   3.768   3.655   3.188 -0.8415 -0.5403 -1.2343
 2934SOL    HW220439   3.870   3.622   3.086  0.5811 -0.0806 -0.1714
 2935SOL     OW20440   4.221   1.933   4.675 -0.2274 -0.3803  0.4820
 2935SOL    HW120441   4.292   1.991   4.704 -1.3413  1.3242 -0.1996
 2935SOL    HW220442   4.142   1.983   4.693 -0.4912  0.2171 -2.2873
 2936SOL     OW20443   4.462   3.688   1.943  0.5276 -0.1336 -0.3461
 2936SOL    HW120444   4.506   3.756   1.892 -1.3385  2.1449  1.0422
 2936SOL    HW220445   4.529   3.671   2.009  1.2705  0.3236 -0.9686
 2937SOL     OW20446   2.534   1.671   3.356  0.2347 -0.3498  0.1460
 2937SOL    HW120447   2.453   1.634   3.320  0.9530 -1.6319 -0.1331
 2937SOL    HW220448   2.523   1.760   3.321  1.1215 -0.3326 -0.0862
 2938SOL     OW20449   1.835   0.144   7.433  0.0935 -0.0044 -0.7096
 2938SOL    HW120450   1.771   0.079   7.403 -0.2384 -0.8988  1.9643
 2938SOL    HW220451   1.881   0.087   7.495  0.4828  1.7565  0.6057
 2939SOL     OW20452   3.615   2.712   4.970 -0.3556 -0.2477  0.1558
 2939SOL    HW120453   3.678   2.688   5.038 -0.9726 -1.2492  0.3823
 2939SOL    HW220454   3.622   2.635   4.912 -0.2895  0.3542 -0.6316
 2940SOL     OW20455   4.550   0.930  12.440  0.2552  0.1399 -0.0060
 2940SOL    HW120456   4.614   0.885  12.385 -0.5286 -0.2220 -0.6138
 2940SOL    HW220457   4.508   0.859  12.489 -3.0259  1.2279 -1.2561
 2941SOL     OW20458   0.525   2.927   7.752 -0.5439  0.3847  0.0837
 2941SOL    HW120459   0.514   2.862   7.822 -1.1271 -0.3083 -0.6503
 2941SOL    HW220460   0.446   2.976   7.776 -0.9682  0.7094 -1.9567
 2942SOL     OW20461   2.773   1.370   2.148  0.1466 -0.2511  0.4271
 2942SOL    HW120462   2.750   1.461   2.166 -2.7829 -0.9916  0.2860
 2942SOL    HW220463   2.867   1.387   2.139 -0.3201  1.3180 -1.5148
 2943SOL     OW20464   4.584   0.322  16.282  0.3156  0.0878 -0.1174
 2943SOL    HW120465   4.569   0.271  16.202  0.5122  0.0252 -0.1149
 2943SOL    HW220466   4.501   0.304  16.326  0.4227  0.0996  0.0898
 2944SOL     OW20467   1.021   0.808  14.461 -0.3491 -0.2204 -0.4375
 2944SOL    HW120468   1.047   0.767  14.544 -1.0352  0.5699  0.1594
 2944SOL    HW220469   0.929   0.823  14.482  0.1690 -0.1981  1.7378
 2945SOL     OW20470   4.569   3.424   3.381 -0.2497 -0.5398  0.2865
 2945SOL    HW120471   4.614   3.502   3.414  0.3401 -1.8674  2.6320
 2945SOL    HW220472   4.477   3.449   3.396 -0.4410 -0.8053 -0.4606
 2946SOL     OW20473   2.631   1.649   7.832 -0.1958 -0.6605  0.1517
 2946SOL    HW120474   2.583   1.573   7.864 -0.2092 -0.7053  0.0248
 2946SOL    HW220475   2.631   1.634   7.738 -0.7702 -0.2339  0.0792
 2947SOL     OW20476   2.435   1.521   6.556 -0.2886  0.9235  0.3687
 2947SOL    HW120477   2.525   1.540   6.529  0.1785  0.3167  1.4861
 2947SOL    HW220478   2.439   1.425   6.553  0.0632  0.9161  1.2036
 2948SOL     OW20479   3.982   2.644   8.137  0.9084 -0.0591  0.1549
 2948SOL    HW120480   3.893   2.620   8.114  1.6834  0.3721 -3.1922
 2948SOL    HW220481   4.032   2.600   8.068  1.0817  1.0365 -0.4116
 2949SOL     OW20482   1.038   4.037  13.586 -0.6869  0.0082  0.0902
 2949SOL    HW120483   1.028   4.104  13.518  1.0195  0.3693  0.1731
 2949SOL    HW220484   0.955   3.990  13.585 -0.8407  0.2586  2.7189
 2950SOL     OW20485   1.499   3.792   8.344 -0.5409 -0.0538 -0.2832
 2950SOL    HW120486   1.565   3.845   8.298 -0.3508 -0.2073 -0.1895
 2950SOL    HW220487   1.416   3.832   8.319 -0.6136  0.5256  0.8941
 2951SOL     OW20488   4.575   2.546   6.096 -0.1140  0.2525 -0.2778
 2951SOL    HW120489   4.559   2.453   6.080  0.2927  0.2985 -0.9849
 2951SOL    HW220490   4.581   2.547   6.191  0.3218 -0.8566 -0.2851
 2952SOL     OW20491   3.941   1.188   4.484  0.4674  0.2716 -0.0768
 2952SOL    HW120492   3.985   1.151   4.561  0.8888  1.4182  0.2381
 2952SOL    HW220493   4.008   1.162   4.420  0.3246 -1.0225  0.2827
 2953SOL     OW20494   1.370   0.448   2.849  0.4465 -0.1344 -0.6038
 2953SOL    HW120495   1.338   0.485   2.931 -0.5803  0.3891 -1.2341
 2953SOL    HW220496   1.378   0.526   2.795 -1.2017 -0.6973 -1.6721
 2954SOL     OW20497   0.175   0.130   7.550  0.0341 -0.1149  0.1019
 2954SOL    HW120498   0.176   0.218   7.586 -1.6470 -0.1449  0.2364
 2954SOL    HW220499   0.210   0.082   7.625 -1.9610 -2.5748 -0.5319
 2955SOL     OW20500   2.560   3.234  17.375 -0.1436 -0.5156 -0.4743
 2955SOL    HW120501   2.630   3.232  17.309 -0.1211  1.4325 -0.5373
 2955SOL    HW220502   2.569   3.152  17.422 -1.4399  1.2252  2.8334
 2956SOL     OW20503   4.574   1.881   2.523 -0.4030 -0.4785 -0.1042
 2956SOL    HW120504   4.666   1.877   2.496 -0.7064 -0.5121 -1.1575
 2956SOL    HW220505   4.542   1.791   2.528  0.7272 -0.8141  1.0467
 2957SOL     OW20506   2.623   0.979   5.625  0.1839  0.2374 -0.2532
 2957SOL    HW120507   2.680   0.906   5.599 -0.0917  0.4027 -1.3264
 2957SOL    HW220508   2.593   0.949   5.711  1.2756  0.7066  0.2822
 2958SOL     OW20509   0.594   0.172   6.763 -0.0028 -0.3399  0.3844
 2958SOL    HW120510   0.521   0.233   6.750  0.0515  0.2809  3.0418
 2958SOL    HW220511   0.662   0.229   6.728  0.1619  0.3066  1.7823
 2959SOL     OW20512   4.166   2.595   8.342  0.2459  0.2222  0.0506
 2959SOL    HW120513   4.113   2.621   8.267 -1.2887  1.9008  1.6747
 2959SOL    HW220514   4.223   2.671   8.351  1.4562 -0.6996  0.1203
 2960SOL     OW20515   1.618   1.944  13.311 -0.2342  0.3913 -0.7899
 2960SOL    HW120516   1.545   1.922  13.253  0.9214 -0.2954 -1.9816
 2960SOL    HW220517   1.696   1.896  13.281 -0.7049 -1.1224  0.3476
 2961SOL     OW20518   1.106   4.454   6.967  0.1692  0.0785 -0.3159
 2961SOL    HW120519   1.130   4.497   7.049  3.1506 -1.4997 -0.3753
 2961SOL    HW220520   1.119   4.365   7.001  0.2844 -0.1597 -0.9820
 2962SOL     OW20521   3.222   2.296  14.097  0.1295  0.2867  0.2000
 2962SOL    HW120522   3.142   2.334  14.132  0.6510  0.5358  1.1255
 2962SOL    HW220523   3.254   2.249  14.174  0.3414  1.6293  0.9355
 2963SOL     OW20524   0.968   4.196   9.359 -0.1818  0.5905 -0.2394
 2963SOL    HW120525   0.981   4.244   9.441 -1.7230  2.3347 -0.9853
 2963SOL    HW220526   0.902   4.246   9.310 -2.7374 -1.2271  1.3675
 2964SOL     OW20527   2.864   4.122   2.557 -0.4618  0.6000 -0.1713
 2964SOL    HW120528   2.773   4.094   2.567 -0.6993  0.8375 -1.6526
 2964SOL    HW220529   2.854   4.189   2.490 -1.2876 -0.2090 -0.8680
 2965SOL     OW20530   4.660   1.895  12.691 -0.5448 -0.1348  0.6607
 2965SOL    HW120531   4.660   1.800  12.700 -0.4537  0.0448  2.5346
 2965SOL    HW220532   4.644   1.930  12.778 -0.0607 -2.4092  1.6777
 2966SOL     OW20533   1.479   3.063   6.292 -0.2970 -0.0051  0.4724
 2966SOL    HW120534   1.499   3.156   6.293 -0.3457  0.0083  0.0690
 2966SOL    HW220535   1.472   3.043   6.199 -0.1554  0.9649  0.2564
 2967SOL     OW20536   0.426   3.159   5.292  0.6058  0.6599  0.9762
 2967SOL    HW120537   0.434   3.131   5.201 -0.3071  1.9032  0.5101
 2967SOL    HW220538   0.431   3.254   5.296 -2.0576  0.8380 -0.2121
 2968SOL     OW20539   0.308   3.951   5.758 -0.9993 -0.0505 -0.0320
 2968SOL    HW120540   0.268   3.901   5.686 -0.4539 -3.5950  2.1164
 2968SOL    HW220541   0.258   4.032   5.758  0.4482  0.8413  1.1940
 2969SOL     OW20542   2.760   2.190   9.232 -0.2600 -0.7264  0.5986
 2969SOL    HW120543   2.788   2.279   9.211  1.5766 -0.9759  2.0811
 2969SOL    HW220544   2.687   2.172   9.172  3.5098 -2.6997 -3.4242
 2970SOL     OW20545   4.115   2.710   2.934 -0.1651  0.9600  0.2024
 2970SOL    HW120546   4.060   2.767   2.879 -0.1687  1.2562  0.5093
 2970SOL    HW220547   4.144   2.769   3.004 -1.7494  0.5222  1.2275
 2971SOL     OW20548   0.800   4.691   5.026 -1.1134 -0.0622  0.2830
 2971SOL    HW120549   0.741   4.625   4.991 -1.3116 -1.0646  2.5236
 2971SOL    HW220550   0.849   4.709   4.945  0.7839 -1.7995  1.0220
 2972SOL     OW20551   3.494   1.534   1.445  0.0338  0.3475  0.3091
 2972SOL    HW120552   3.465   1.513   1.356  0.4599 -0.0536  0.2635
 2972SOL    HW220553   3.586   1.558   1.432  0.4116 -0.6637  1.0509
 2973SOL     OW20554   3.134   2.947   9.425  0.0531  0.2123 -0.4697
 2973SOL    HW120555   3.175   2.902   9.499  0.6438 -0.0062 -0.9313
 2973SOL    HW220556   3.201   3.012   9.405  1.3881 -0.7010  1.0524
 2974SOL     OW20557   2.916   0.111   5.744 -0.2876  0.1716 -0.6293
 2974SOL    HW120558   2.937   0.049   5.674 -2.4252 -1.4852  0.2002
 2974SOL    HW220559   2.861   0.061   5.804 -0.7781  1.3594 -0.0903
 2975SOL     OW20560   4.456   3.939   9.321  0.1163  0.6985 -0.4649
 2975SOL    HW120561   4.480   3.849   9.300 -1.0586 -0.2596  2.2813
 2975SOL    HW220562   4.424   3.928   9.411  1.2545 -1.5059 -0.3287
 2976SOL     OW20563   2.010   2.264   2.870 -0.3229 -0.0937 -0.4170
 2976SOL    HW120564   2.036   2.323   2.799 -3.1872  1.7295  0.0625
 2976SOL    HW220565   2.079   2.288   2.932 -1.4523  2.1288 -0.0313
 2977SOL     OW20566   0.816   1.186  11.728  0.1119 -0.1264 -0.7118
 2977SOL    HW120567   0.842   1.119  11.792 -0.6209 -1.8709 -2.2305
 2977SOL    HW220568   0.722   1.167  11.733  0.2025  0.2107  2.2291
 2978SOL     OW20569   3.764   0.091  16.775 -0.1629  0.0774 -0.1555
 2978SOL    HW120570   3.725   0.095  16.688  0.9002 -0.9128 -0.6712
 2978SOL    HW220571   3.691   0.046  16.818  1.4316 -1.2254  1.2230
 2979SOL     OW20572   3.293   4.567   4.063 -0.3133 -0.3297 -0.0490
 2979SOL    HW120573   3.306   4.658   4.088 -0.4550  0.3063 -2.2507
 2979SOL    HW220574   3.201   4.553   4.089  0.2930 -0.0202  2.2829
 2980SOL     OW20575   3.622   2.813   9.265  0.1765  0.4706  0.1350
 2980SOL    HW120576   3.655   2.779   9.348  1.6554  3.9649  0.9916
 2980SOL    HW220577   3.681   2.888   9.258  0.9537 -0.1749 -0.2709
 2981SOL     OW20578   3.070   4.363   4.194  0.2792  0.2098  0.1366
 2981SOL    HW120579   3.005   4.314   4.143 -0.3772  0.2649  0.9178
 2981SOL    HW220580   3.031   4.450   4.196 -1.1012 -0.4003 -0.2800
 2982SOL     OW20581   4.666   2.646   5.205 -0.5814 -0.3987  0.3763
 2982SOL    HW120582   4.681   2.604   5.120 -0.7642  1.1871 -0.4260
 2982SOL    HW220583   4.594   2.593   5.241 -0.1349 -1.4828 -0.3180
 2983SOL     OW20584   1.369   0.255  15.856 -0.2332 -0.3584  0.0012
 2983SOL    HW120585   1.454   0.273  15.815 -0.4179  0.4475 -0.0333
 2983SOL    HW220586   1.308   0.239  15.785 -0.9646  1.7102  0.1722
 2984SOL     OW20587   2.206   1.890   9.351 -0.5551 -0.2049 -0.5921
 2984SOL    HW120588   2.253   1.960   9.397 -3.1372  0.9176  0.3633
 2984SOL    HW220589   2.235   1.811   9.398  0.0624  0.1611 -0.3543
 2985SOL     OW20590   2.138   3.512   4.632  0.0062  0.1671 -0.4250
 2985SOL    HW120591   2.183   3.454   4.571 -1.8267 -2.1964  0.5080
 2985SOL    HW220592   2.161   3.595   4.590 -1.7837  1.0032  0.2649
 2986SOL     OW20593   0.215   0.864   7.343 -0.2345 -0.2797  0.8406
 2986SOL    HW120594   0.124   0.890   7.331 -0.2713 -0.3724  0.9218
 2986SOL    HW220595   0.219   0.769   7.330  1.6833  0.1626 -1.8771
 2987SOL     OW20596   3.457   2.908   2.072  0.6169  0.2678  0.5542
 2987SOL    HW120597   3.537   2.859   2.091  1.1102  0.1527 -1.7429
 2987SOL    HW220598   3.391   2.859   2.120 -1.0775  0.2061 -1.8145
 2988SOL     OW20599   2.451   4.692   9.540  0.0858 -0.2146 -0.2466
 2988SOL    HW120600   2.529   4.718   9.590  0.9964  1.0765 -2.3382
 2988SOL    HW220601   2.437   4.600   9.562  0.4834  0.1950  1.7096
 2989SOL     OW20602   3.423   3.178   6.901 -0.2690 -0.1935 -0.1646
 2989SOL    HW120603   3.387   3.212   6.819  0.1127  1.5619  0.3925
 2989SOL    HW220604   3.388   3.246   6.959  0.5473  0.7110 -0.7256
 2990SOL     OW20605   4.439   0.954   7.262 -0.0058  0.5226 -0.5471
 2990SOL    HW120606   4.374   0.894   7.299  0.7517  0.0113 -0.0522
 2990SOL    HW220607   4.387   1.001   7.197 -0.6753 -0.0727 -0.4487
 2991SOL     OW20608   1.089   0.784  13.469  0.0253 -0.3380 -0.5634
 2991SOL    HW120609   1.137   0.730  13.532  1.4496  2.4827  0.7422
 2991SOL    HW220610   1.093   0.868  13.514  0.5447 -0.2788 -0.7263
 2992SOL     OW20611   4.092   4.709   3.485  0.0950  0.3592 -0.1533
 2992SOL    HW120612   4.175   0.021   3.490  1.1865 -1.5261 -0.0024
 2992SOL    HW220613   4.039   4.728   3.562 -0.3369 -1.5796  0.0402
 2993SOL     OW20614   4.734   2.508   4.124  0.4434  0.4750  0.0170
 2993SOL    HW120615   4.643   2.483   4.107 -0.0032  0.4471  2.5124
 2993SOL    HW220616   4.718   2.594   4.163 -1.1544  0.5545 -0.8049
 2994SOL     OW20617   4.605   1.048   5.397 -0.0041  0.0403 -0.2767
 2994SOL    HW120618   4.655   1.109   5.452  1.2610 -1.8062  0.6111
 2994SOL    HW220619   4.533   1.103   5.366  0.5683  2.2322  2.2794
 2995SOL     OW20620   2.460   3.930  13.830  0.2839 -0.0253 -0.4793
 2995SOL    HW120621   2.534   3.892  13.783 -0.2113 -2.0330  0.3606
 2995SOL    HW220622   2.508   4.008  13.859 -0.3377 -0.0250  0.5285
 2996SOL     OW20623   2.896   2.744  17.638 -0.2190  0.2797  0.5187
 2996SOL    HW120624   2.828   2.680  17.616 -1.9704  1.3456  2.8247
 2996SOL    HW220625   2.862   2.824  17.597  0.3383  0.1008 -0.2983
 2997SOL     OW20626   4.093   3.130   6.481  0.2071  0.0267 -0.2696
 2997SOL    HW120627   4.096   3.135   6.385 -0.8080 -0.7199 -0.3419
 2997SOL    HW220628   3.998   3.137   6.491  0.4200  2.4637  0.1741
 2998SOL     OW20629   2.619   0.863   3.018 -0.4776  0.5913  0.3209
 2998SOL    HW120630   2.665   0.874   3.102 -0.7203 -3.4871  0.9742
 2998SOL    HW220631   2.621   0.768   3.004 -0.9157  0.3598  1.7437
 2999SOL     OW20632   3.810   2.429   3.124 -0.7474 -0.4944 -0.9771
 2999SOL    HW120633   3.855   2.345   3.139 -1.0024 -0.8661 -2.2691
 2999SOL    HW220634   3.871   2.475   3.066 -0.3030 -0.4586 -0.4847
 3000SOL     OW20635   2.505   1.923   5.985  0.0085  0.0820  0.5297
 3000SOL    HW120636   2.530   1.876   6.064  1.6113  0.1977  0.0781
 3000SOL    HW220637   2.501   2.008   6.030 -0.5579  1.1079 -1.4410
 3001SOL     OW20638   2.105   4.528   3.365  0.3648 -0.2960  0.4287
 3001SOL    HW120639   2.084   4.456   3.306 -0.1591 -0.5734  0.9603
 3001SOL    HW220640   2.094   4.608   3.313  1.7284  0.0856  0.7141
 3002SOL     OW20641   1.664   4.058   6.868  0.5135  0.0360  0.5519
 3002SOL    HW120642   1.709   4.103   6.796 -3.3052  2.2475 -0.4536
 3002SOL    HW220643   1.675   3.964   6.851 -0.4327 -0.2637  1.6170
 3003SOL     OW20644   0.401   0.078   3.587 -0.0952  0.7305 -0.0122
 3003SOL    HW120645   0.449   4.733   3.604 -2.7088 -0.8576 -0.2006
 3003SOL    HW220646   0.334   0.072   3.655 -2.7958  0.4590 -2.7178
 3004SOL     OW20647   0.442   0.937  14.012  0.4637  0.0733 -0.4358
 3004SOL    HW120648   0.532   0.914  14.036  0.1274  0.6401  1.3325
 3004SOL    HW220649   0.408   0.847  14.013  2.5181 -0.6592  2.3152
 3005SOL     OW20650   1.172   2.051   0.332 -0.7901 -0.1889 -0.0713
 3005SOL    HW120651   1.175   1.955   0.324  0.4163 -0.3596  2.5089
 3005SOL    HW220652   1.080   2.075   0.325 -1.2997 -0.8402  4.5256
 3006SOL     OW20653   4.145   0.372   0.362  0.0318  0.0078 -0.2691
 3006SOL    HW120654   4.127   0.345   0.452 -2.0591 -2.1581 -1.3347
 3006SOL    HW220655   4.054   0.391   0.340 -0.2117 -2.4401 -1.3700
 3007SOL     OW20656   0.866   0.737   9.622  0.7207  0.2270  0.4936
 3007SOL    HW120657   0.810   0.803   9.663 -1.1970 -0.4773 -1.0066
 3007SOL    HW220658   0.804   0.692   9.564  2.8153 -2.2929  0.2354
 3008SOL     OW20659   2.647   3.793  11.322  0.1190 -0.0044 -0.1263
 3008SOL    HW120660   2.590   3.840  11.261  1.2601  0.7791 -0.6089
 3008SOL    HW220661   2.597   3.714  11.343 -1.0843  0.6567 -0.4999
 3009SOL     OW20662   1.517   4.105  12.899  0.3638  0.3806  0.1056
 3009SOL    HW120663   1.552   4.176  12.845 -0.3307  0.1733 -0.6220
 3009SOL    HW220664   1.422   4.111  12.894  0.0881 -2.0563  2.9570
 3010SOL     OW20665   3.670   2.958   3.459 -0.1766 -0.2020  0.3540
 3010SOL    HW120666   3.649   2.932   3.549 -1.2672 -0.9531 -0.1136
 3010SOL    HW220667   3.758   2.994   3.470 -0.0585 -0.3635 -0.0914
 3011SOL     OW20668   2.731   2.688   4.659  0.0567 -0.0122  0.1557
 3011SOL    HW120669   2.731   2.744   4.581  2.3520 -0.3563 -0.0774
 3011SOL    HW220670   2.705   2.759   4.719 -0.2969  1.1659 -1.3781
 3012SOL     OW20671   3.583   2.960   4.889 -0.0898 -0.1646 -0.1813
 3012SOL    HW120672   3.583   2.866   4.908 -2.2316 -0.0912  0.1986
 3012SOL    HW220673   3.675   2.984   4.902 -0.1868  0.3205 -0.4136
 3013SOL     OW20674   4.221   3.916   5.139 -0.2683 -0.5261  0.3618
 3013SOL    HW120675   4.271   3.902   5.220  1.5952 -0.0211 -0.6871
 3013SOL    HW220676   4.272   3.858   5.083  1.1918 -1.4611  2.6423
 3014SOL     OW20677   4.198   0.624   8.304  0.0873  0.6201 -0.6785
 3014SOL    HW120678   4.112   0.604   8.342  0.7646  0.7564  0.9137
 3014SOL    HW220679   4.217   0.542   8.257 -0.3119  1.2912 -2.0171
 3015SOL     OW20680   4.379   4.599  10.491  0.5647  0.3140  0.3634
 3015SOL    HW120681   4.418   4.667  10.436 -1.0726 -0.2575 -1.4778
 3015SOL    HW220682   4.455   4.562  10.536 -0.4086 -1.5433  0.4990
 3016SOL     OW20683   2.063   0.233   5.620  0.2124  0.0218  0.1143
 3016SOL    HW120684   2.138   0.288   5.643  0.0636  0.6896 -0.9924
 3016SOL    HW220685   2.091   0.162   5.678  1.4606  0.5829  0.2034
 3017SOL     OW20686   2.140   2.325   3.857 -0.4849  0.2175  0.9466
 3017SOL    HW120687   2.206   2.349   3.923  1.0726 -0.3989 -0.3756
 3017SOL    HW220688   2.104   2.244   3.890  1.2367  0.0647  2.4550
 3018SOL     OW20689   4.317   2.545   2.108 -0.2614 -0.5674 -0.1646
 3018SOL    HW120690   4.346   2.631   2.076 -2.6793  0.3505  0.1212
 3018SOL    HW220691   4.321   2.563   2.201 -4.7482  2.9863 -0.6579
 3019SOL     OW20692   1.095   3.796   6.389  0.1686 -0.4304 -0.7589
 3019SOL    HW120693   1.166   3.733   6.403 -0.6376 -1.2411 -0.3378
 3019SOL    HW220694   1.022   3.742   6.418  0.7195 -1.1697 -0.7214
 3020SOL     OW20695   0.292   3.512   5.449  0.5731  0.0508  0.2559
 3020SOL    HW120696   0.203   3.491   5.421  0.2445  1.7736 -0.0182
 3020SOL    HW220697   0.337   3.465   5.379  0.6405 -1.2998  1.2140
 3021SOL     OW20698   0.555   2.182   0.552 -0.2906 -0.6910 -0.3987
 3021SOL    HW120699   0.635   2.147   0.591  0.4406 -2.2784 -3.3438
 3021SOL    HW220700   0.552   2.266   0.597  2.8390 -0.6933 -0.1584
 3022SOL     OW20701   1.118   1.109   2.997 -0.7754 -0.4333 -0.7978
 3022SOL    HW120702   1.111   1.065   2.912 -0.3750 -0.1511 -0.9774
 3022SOL    HW220703   1.034   1.085   3.037 -2.0970  2.8660 -1.6042
 3023SOL     OW20704   2.071   3.725   8.851 -0.5023 -0.7756  0.4886
 3023SOL    HW120705   2.014   3.742   8.776 -0.1638  0.2389  0.4704
 3023SOL    HW220706   2.110   3.812   8.860  1.2505 -1.2298 -2.5520
 3024SOL     OW20707   0.295   0.945  10.899  0.2434 -0.7620  0.2657
 3024SOL    HW120708   0.292   1.038  10.877 -0.5247 -1.0436 -0.8160
 3024SOL    HW220709   0.353   0.943  10.975 -2.1155  2.5280  2.1723
 3025SOL     OW20710   1.097   0.701   0.129  0.6397 -0.0717 -0.1215
 3025SOL    HW120711   1.074   0.748   0.208 -0.5398 -1.3660  0.3125
 3025SOL    HW220712   1.013   0.656   0.115 -0.0179  0.7940  1.1108
 3026SOL     OW20713   2.415   3.793   3.839  0.1680 -0.1344  0.0139
 3026SOL    HW120714   2.360   3.863   3.804 -0.8406 -1.0526 -0.2181
 3026SOL    HW220715   2.376   3.775   3.924  0.3577  0.9112  0.3226
 3027SOL     OW20716   3.770   0.885   3.100 -0.1194  0.2694  0.3278
 3027SOL    HW120717   3.821   0.807   3.077  0.9260  1.2014 -0.5375
 3027SOL    HW220718   3.785   0.938   3.022  1.9750 -0.8408 -0.0081
 3028SOL     OW20719   2.286   1.541   5.036 -0.1278  0.2257 -0.1298
 3028SOL    HW120720   2.292   1.617   5.094  3.3631  0.6594 -1.0265
 3028SOL    HW220721   2.248   1.479   5.098  0.6954  1.4161  1.5745
 3029SOL     OW20722   0.338   1.662   1.998  0.3989  0.1488 -0.8034
 3029SOL    HW120723   0.403   1.593   1.986  1.8358  1.3015  0.3045
 3029SOL    HW220724   0.314   1.649   2.090 -1.0539  0.4055 -1.1543
 3030SOL     OW20725   2.606   1.009   8.298  0.4677 -0.0775 -0.0942
 3030SOL    HW120726   2.525   0.997   8.248  0.8834 -1.4451 -0.4622
 3030SOL    HW220727   2.577   1.050   8.379  1.2980  1.9989 -0.8440
 3031SOL     OW20728   2.523   4.412   4.731 -0.2777  0.7146 -0.6659
 3031SOL    HW120729   2.523   4.380   4.641  2.0942 -1.2071  0.0139
 3031SOL    HW220730   2.507   4.505   4.718 -0.7908  0.5365 -1.3027
 3032SOL     OW20731   4.088   2.272   4.701  0.5234 -0.0459  0.0089
 3032SOL    HW120732   4.036   2.238   4.774  0.4067 -1.9911 -0.9681
 3032SOL    HW220733   4.165   2.301   4.749 -0.5413  0.6084  1.3396
 3033SOL     OW20734   3.597   1.301   0.703 -0.0480 -0.2260 -0.0227
 3033SOL    HW120735   3.684   1.271   0.675  1.4285  3.7400  0.2569
 3033SOL    HW220736   3.534   1.285   0.633  1.4943  1.1604 -1.7492
 3034SOL     OW20737   1.553   3.007   7.786 -0.6474 -0.1087 -0.0624
 3034SOL    HW120738   1.539   3.100   7.803  0.8370  1.0262 -5.1148
 3034SOL    HW220739   1.648   3.000   7.774 -0.3238  0.0752  2.2657
 3035SOL     OW20740   2.168   1.076   9.023  0.6904 -0.0695 -0.1554
 3035SOL    HW120741   2.123   1.157   8.998  0.6477 -0.5206 -1.5695
 3035SOL    HW220742   2.165   1.074   9.118  0.5734 -3.2482 -0.2263
 3036SOL     OW20743   0.175   3.327   3.476 -0.4339 -0.2296 -0.0506
 3036SOL    HW120744   0.110   3.275   3.428 -0.8385  0.9016 -0.7373
 3036SOL    HW220745   0.251   3.311   3.420 -0.4506  2.8064 -0.9482
 3037SOL     OW20746   1.604   2.503   8.284 -0.9013 -0.3665  0.6498
 3037SOL    HW120747   1.540   2.553   8.233  0.0797 -0.1974 -0.3866
 3037SOL    HW220748   1.662   2.573   8.313  0.5059 -1.1909 -0.1577
 3038SOL     OW20749   3.038   0.669   3.545  0.2773  0.1366  0.0829
 3038SOL    HW120750   3.054   0.629   3.459  0.8418 -2.0385  1.1984
 3038SOL    HW220751   3.074   0.622   3.620 -2.8152 -2.1867  0.1084
 3039SOL     OW20752   1.887   3.398   9.166 -0.8123  0.8808 -0.2870
 3039SOL    HW120753   1.962   3.444   9.129 -0.2355 -0.1558 -0.4251
 3039SOL    HW220754   1.934   3.352   9.236 -3.5857 -1.4767  0.0440
 3040SOL     OW20755   0.932   2.523  13.247 -0.3192 -0.8321 -0.4580
 3040SOL    HW120756   0.899   2.443  13.287  2.3814 -0.0824  3.1834
 3040SOL    HW220757   0.956   2.486  13.162  2.5224 -1.9943  0.8395
 3041SOL     OW20758   4.459   0.090   3.980 -0.6688  0.0856 -0.3436
 3041SOL    HW120759   4.526   0.026   4.004  2.2363  2.4578 -2.1572
 3041SOL    HW220760   4.376   0.055   4.012  0.3087 -0.2640  1.7898
 3042SOL     OW20761   1.722   2.040   6.111 -0.1798 -0.1829 -0.7593
 3042SOL    HW120762   1.749   1.949   6.101  0.4157 -0.1381  0.5386
 3042SOL    HW220763   1.799   2.084   6.146  0.7111 -1.4180 -1.1795
 3043SOL     OW20764   3.315   0.486   4.644 -0.1879  0.1602 -0.5499
 3043SOL    HW120765   3.341   0.476   4.735 -0.7014 -0.1487 -0.4387
 3043SOL    HW220766   3.264   0.567   4.649  1.4423  1.2862 -1.9108
 3044SOL     OW20767   3.167   0.089   3.993 -0.9605  0.6947  0.0623
 3044SOL    HW120768   3.138   0.165   4.042  3.7084  0.1373  3.7693
 3044SOL    HW220769   3.081   0.061   3.962 -0.4788 -0.1121 -0.5675
 3045SOL     OW20770   3.385   3.939   2.446 -0.2433  0.7140  0.1564
 3045SOL    HW120771   3.290   3.946   2.437 -0.2643 -1.5744 -1.4532
 3045SOL    HW220772   3.404   3.986   2.365  1.5260  0.1379  0.2432
 3046SOL     OW20773   2.065   4.221  13.734 -0.5093  0.5843 -0.6120
 3046SOL    HW120774   2.116   4.140  13.745 -1.5442 -0.4260 -3.0215
 3046SOL    HW220775   2.118   4.258  13.664  2.2583 -1.6489  0.3227
 3047SOL     OW20776   4.209   2.207  14.853 -0.4496  0.0107  0.1979
 3047SOL    HW120777   4.158   2.125  14.858 -4.4063  2.3797 -0.9666
 3047SOL    HW220778   4.293   2.184  14.892 -0.3761  1.2225  0.7424
 3048SOL     OW20779   3.145   3.036  14.432  0.2352  0.0500  0.8386
 3048SOL    HW120780   3.143   3.097  14.358 -0.5146  1.2003  1.7976
 3048SOL    HW220781   3.199   3.080  14.498  0.5843  2.0328 -0.7806
 3049SOL     OW20782   1.537   1.909   2.448 -0.2753 -0.1741  0.1966
 3049SOL    HW120783   1.550   2.001   2.427 -0.4797  0.5709  3.2572
 3049SOL    HW220784   1.469   1.909   2.516  0.8878  1.7342  1.3456
 3050SOL     OW20785   0.865   3.468   7.835  0.0097  0.1824  0.2700
 3050SOL    HW120786   0.912   3.509   7.763 -0.6651  0.3377 -0.0761
 3050SOL    HW220787   0.827   3.547   7.873  0.8209  1.1803 -1.0102
 3051SOL     OW20788   1.632   0.131   9.918  0.1785 -0.1964  0.1576
 3051SOL    HW120789   1.687   0.198   9.878 -2.1115  1.2532 -0.5626
 3051SOL    HW220790   1.570   0.186   9.966  1.1415 -0.3623  1.5993
 3052SOL     OW20791   1.745   3.244   5.547 -0.1871  0.2812 -0.2333
 3052SOL    HW120792   1.771   3.185   5.476  2.5551  1.7900 -0.4932
 3052SOL    HW220793   1.815   3.310   5.549 -0.1875  0.2789 -0.1570
 3053SOL     OW20794   3.563   2.393  16.748  0.2699  0.2320 -0.3127
 3053SOL    HW120795   3.624   2.459  16.777 -2.3815  2.2057  0.7916
 3053SOL    HW220796   3.588   2.390  16.655  0.0816 -0.1836 -0.3531
 3054SOL     OW20797   3.043   4.467   2.839  0.5373 -0.9278 -0.3295
 3054SOL    HW120798   3.010   4.536   2.783  1.2645 -1.5132 -1.4785
 3054SOL    HW220799   2.961   4.434   2.875  0.0864  1.3406  0.7101
 3055SOL     OW20800   4.034   3.509  13.688 -0.6432 -0.0521 -0.1827
 3055SOL    HW120801   3.941   3.523  13.705 -0.2856  0.6484  1.1893
 3055SOL    HW220802   4.038   3.490  13.594  0.6348  0.9061 -0.3273
 3056SOL     OW20803   4.239   1.175  12.008  0.1342  0.1527  0.5175
 3056SOL    HW120804   4.331   1.198  12.021  0.4302  0.1262 -1.4596
 3056SOL    HW220805   4.197   1.249  12.050  0.2327  0.3081  0.3432
 3057SOL     OW20806   2.407   3.497   2.439 -0.2536  0.4222  0.0692
 3057SOL    HW120807   2.339   3.434   2.463  1.4269 -1.0150  1.1024
 3057SOL    HW220808   2.461   3.453   2.373  0.5466  1.6783 -0.1075
 3058SOL     OW20809   3.607   3.905  12.951  0.6462  0.1456  0.1564
 3058SOL    HW120810   3.623   3.945  12.866  0.3050 -2.6963 -1.2657
 3058SOL    HW220811   3.553   3.832  12.918 -0.1671  0.2582  1.2229
 3059SOL     OW20812   2.761   3.209   2.358  0.9400 -0.6121 -0.6039
 3059SOL    HW120813   2.785   3.118   2.374 -0.7523 -0.5019  2.6600
 3059SOL    HW220814   2.667   3.190   2.364  0.7667  1.1843  2.3741
 3060SOL     OW20815   4.567   0.948   8.144 -0.2853 -0.0076  0.2281
 3060SOL    HW120816   4.500   1.016   8.152  0.8640  1.2769 -0.8943
 3060SOL    HW220817   4.615   0.969   8.224  1.9138  0.4190 -1.1989
 3061SOL     OW20818   2.304   4.271   9.116 -0.1033 -0.1813 -0.5809
 3061SOL    HW120819   2.346   4.255   9.201  0.6820  2.2521 -0.5231
 3061SOL    HW220820   2.217   4.233   9.133  0.0281 -0.6018 -0.8716
 3062SOL     OW20821   1.685   0.903   7.382 -0.5928 -0.8867 -0.2218
 3062SOL    HW120822   1.635   0.908   7.300  0.3304  0.5540 -0.6969
 3062SOL    HW220823   1.712   0.811   7.377  2.1125 -0.0089 -1.8347
 3063SOL     OW20824   1.778   0.519   3.862 -0.3965 -0.5717 -0.2272
 3063SOL    HW120825   1.701   0.496   3.810 -0.9486 -1.8519  1.1611
 3063SOL    HW220826   1.825   0.587   3.813  1.0096 -1.0698  0.4377
 3064SOL     OW20827   3.351   2.541  10.163 -0.2583 -0.5100 -0.1818
 3064SOL    HW120828   3.424   2.574  10.216 -0.6652 -1.1166  0.7461
 3064SOL    HW220829   3.287   2.600  10.204 -0.7185 -0.7155 -0.6072
 3065SOL     OW20830   3.965   0.671   3.308  0.1203 -0.0463  0.8456
 3065SOL    HW120831   4.052   0.673   3.348 -0.2813  0.5671  1.7007
 3065SOL    HW220832   3.927   0.714   3.385  0.1457  3.0042 -0.8283
 3066SOL     OW20833   3.220   1.843   1.003  0.1079 -0.0057 -0.1053
 3066SOL    HW120834   3.236   1.910   1.069  0.3070 -1.1991  1.0530
 3066SOL    HW220835   3.135   1.860   0.962 -0.7565  0.8826  2.0849
 3067SOL     OW20836   3.766   1.613  15.929 -0.3173  0.3209  0.1553
 3067SOL    HW120837   3.719   1.608  16.013 -0.8000 -0.9152 -0.1978
 3067SOL    HW220838   3.804   1.700  15.942  0.9564 -0.5644  2.4051
 3068SOL     OW20839   1.025   3.606   8.378  0.0576  0.0282 -0.3661
 3068SOL    HW120840   0.992   3.695   8.388  0.2408 -0.1515  1.7641
 3068SOL    HW220841   0.983   3.570   8.456  1.6654  1.2556  1.0724
 3069SOL     OW20842   2.248   2.384   2.758 -0.1410 -0.1343 -0.3579
 3069SOL    HW120843   2.248   2.288   2.752 -0.8181 -0.2812  1.9641
 3069SOL    HW220844   2.200   2.409   2.679  0.6595 -0.7610 -1.0443
 3070SOL     OW20845   4.561   0.994   5.687  0.4515 -0.1874  0.0924
 3070SOL    HW120846   4.523   0.916   5.728  0.9830 -0.2166  0.5307
 3070SOL    HW220847   4.548   0.977   5.594 -2.7718  1.6203  0.2033
 3071SOL     OW20848   1.006   4.383  12.538  0.2172 -0.7242  0.2736
 3071SOL    HW120849   1.074   4.318  12.518  1.3524  0.7349 -0.6189
 3071SOL    HW220850   1.054   4.453  12.582 -1.0427  1.1661 -1.3489
 3072SOL     OW20851   4.279   2.311   3.013  0.3140  0.0372  0.1442
 3072SOL    HW120852   4.252   2.386   3.065 -1.7234 -2.0330  2.0585
 3072SOL    HW220853   4.367   2.310   3.051  0.8987  1.0819 -1.1746
 3073SOL     OW20854   0.301   2.222  16.900  0.1941 -0.5287 -0.0805
 3073SOL    HW120855   0.376   2.196  16.954  0.5306  0.3087 -0.1529
 3073SOL    HW220856   0.312   2.317  16.896 -0.9304 -0.3624  1.0537
 3074SOL     OW20857   4.056   4.062   4.977 -0.0582 -0.4175  0.0479
 3074SOL    HW120858   4.109   4.017   5.043  0.0688  0.5126  0.5821
 3074SOL    HW220859   4.078   4.006   4.902 -3.5277  0.3648 -1.5677
 3075SOL     OW20860   0.996   4.571   2.669 -0.6429 -0.2105  0.4706
 3075SOL    HW120861   1.077   4.590   2.716  0.6806 -2.6077 -0.8796
 3075SOL    HW220862   0.970   4.497   2.725 -1.1967  1.0743  1.9193
 3076SOL     OW20863   2.977   0.610  12.584 -0.8747 -0.1972  0.1945
 3076SOL    HW120864   2.934   0.524  12.581  0.6804 -0.9809  0.7281
 3076SOL    HW220865   3.063   0.587  12.549 -1.2264 -0.0263 -0.7796
 3077SOL     OW20866   0.160   3.241   8.114 -0.0547 -0.3408 -0.3739
 3077SOL    HW120867   0.216   3.248   8.191 -1.8418  0.9314  0.8139
 3077SOL    HW220868   0.222   3.247   8.041  2.3885 -0.3943  1.7263
 3078SOL     OW20869   4.542   4.473   7.511  0.9889 -0.1973 -0.3555
 3078SOL    HW120870   4.509   4.404   7.568  1.7249 -0.4776 -0.2756
 3078SOL    HW220871   4.608   4.427   7.461  1.0239 -0.5433  0.0084
 3079SOL     OW20872   2.069   2.803   2.366 -0.3884 -0.1145 -0.0364
 3079SOL    HW120873   2.119   2.825   2.444 -2.6008  1.6427  0.8847
 3079SOL    HW220874   2.092   2.710   2.360 -1.0290 -0.3164  0.6052
 3080SOL     OW20875   2.906   3.622  15.002  0.3956 -0.5375 -0.2047
 3080SOL    HW120876   2.932   3.647  14.913 -0.6601  0.1985 -0.3031
 3080SOL    HW220877   2.816   3.656  14.997  0.1987 -0.7602  1.8512
 3081SOL     OW20878   2.470   4.482   6.992  0.4649 -0.2260 -0.2683
 3081SOL    HW120879   2.553   4.516   6.958  0.5398  0.5177  0.6588
 3081SOL    HW220880   2.424   4.566   6.993  1.0359  0.0552  1.5156
 3082SOL     OW20881   4.099   1.306  13.684 -0.5794  0.3392 -0.0323
 3082SOL    HW120882   4.084   1.254  13.763  1.4771 -0.4085 -0.1210
 3082SOL    HW220883   4.124   1.242  13.617  0.0913 -0.0757  0.6096
 3083SOL     OW20884   2.717   2.516   6.299 -0.2956  0.1567  0.8030
 3083SOL    HW120885   2.756   2.432   6.325 -0.8322 -0.0023  1.0832
 3083SOL    HW220886   2.795   2.568   6.316  0.5971 -0.9210 -0.0010
 3084SOL     OW20887   3.919   1.729   3.205  0.0215  0.1774  0.0729
 3084SOL    HW120888   3.946   1.817   3.234 -0.0310  0.8819 -2.0442
 3084SOL    HW220889   3.948   1.731   3.114  0.1507  0.9657  0.1284
 3085SOL     OW20890   1.800   0.345  17.080  0.4280  0.3276 -0.2523
 3085SOL    HW120891   1.844   0.413  17.131  0.9496  0.2173 -0.5573
 3085SOL    HW220892   1.716   0.343  17.127  0.4480 -1.1722 -0.2938
 3086SOL     OW20893   1.500   1.552   2.155 -0.1940 -0.0984 -0.0636
 3086SOL    HW120894   1.449   1.630   2.177 -1.1297 -0.2712 -1.6127
 3086SOL    HW220895   1.518   1.565   2.062  0.4691 -1.2216 -0.0930
 3087SOL     OW20896   0.851   3.925  15.543 -0.2155  0.4367  0.3857
 3087SOL    HW120897   0.799   3.868  15.486 -0.3145 -0.0861  1.0005
 3087SOL    HW220898   0.897   3.876  15.611  2.9355 -0.8189 -2.6231
 3088SOL     OW20899   4.494   2.804  12.519 -0.0699  0.2957 -0.0657
 3088SOL    HW120900   4.526   2.792  12.430  0.1814  0.5544 -0.0093
 3088SOL    HW220901   4.578   2.832  12.554  1.1572 -1.3238 -1.7009
 3089SOL     OW20902   4.074   0.602   7.781  0.3405  0.1131  0.6378
 3089SOL    HW120903   4.051   0.517   7.819 -0.9799  0.1393 -0.1214
 3089SOL    HW220904   4.161   0.584   7.744 -0.6277 -1.5594 -0.8264
 3090SOL     OW20905   0.837   1.057   4.293  0.0270  0.1598 -0.2804
 3090SOL    HW120906   0.800   1.123   4.353  0.2603  0.7415 -0.7741
 3090SOL    HW220907   0.910   1.027   4.347 -0.1171 -0.9022 -0.6785
 3091SOL     OW20908   0.776   1.771   6.000  0.3553  0.4321  0.3901
 3091SOL    HW120909   0.862   1.810   6.016 -0.2081  1.5349  0.6704
 3091SOL    HW220910   0.747   1.761   6.091 -0.5276  1.9259  0.2567
 3092SOL     OW20911   0.774   1.779  12.423  0.1717  0.3177 -0.2197
 3092SOL    HW120912   0.803   1.688  12.411 -1.6774  0.1811 -3.4668
 3092SOL    HW220913   0.718   1.754  12.497 -0.0554  0.6004 -0.2981
 3093SOL     OW20914   2.345   1.347   7.448  0.3014  0.1966  0.0480
 3093SOL    HW120915   2.259   1.341   7.489  0.1447  2.1150 -0.0209
 3093SOL    HW220916   2.400   1.315   7.520  0.1794  2.0624  0.9588
 3094SOL     OW20917   3.038   0.619  15.765  0.2083 -0.5396 -0.5590
 3094SOL    HW120918   3.007   0.700  15.724 -1.0347 -1.3607 -1.2467
 3094SOL    HW220919   3.121   0.603  15.721  0.0795 -0.2441 -0.9063
 3095SOL     OW20920   1.684   2.529   5.614  0.3989 -0.3768 -0.4618
 3095SOL    HW120921   1.726   2.612   5.638  0.5045 -0.8855  1.0854
 3095SOL    HW220922   1.766   2.483   5.596  0.2590 -0.6811 -0.3159
 3096SOL     OW20923   3.391   0.324   5.894 -0.0734  0.5206 -0.0929
 3096SOL    HW120924   3.343   0.375   5.828  0.3291  2.2515  0.9512
 3096SOL    HW220925   3.371   0.239   5.854  1.9078  0.8482 -1.8140
 3097SOL     OW20926   4.415   4.357   1.643  0.1725 -0.1048  0.0076
 3097SOL    HW120927   4.398   4.414   1.569 -0.5555  0.1112  0.3447
 3097SOL    HW220928   4.329   4.321   1.663 -0.1130 -0.2701 -1.5290
 3098SOL     OW20929   3.764   2.957   8.706 -0.1615 -0.7371 -0.0693
 3098SOL    HW120930   3.677   2.996   8.694  0.8685  2.0884  1.5940
 3098SOL    HW220931   3.751   2.926   8.796  0.5623  0.0556  0.3067
 3099SOL     OW20932   1.900   4.352   9.923  0.4241 -0.1562  0.5700
 3099SOL    HW120933   1.862   4.384   9.842  2.6274  0.3099 -0.2902
 3099SOL    HW220934   1.987   4.327   9.890  0.5294  0.5483  0.3183
 3100SOL     OW20935   1.110   1.856   1.611 -0.3980 -0.1454 -0.1654
 3100SOL    HW120936   1.024   1.899   1.608 -0.1434  0.1281 -3.2334
 3100SOL    HW220937   1.097   1.775   1.562 -1.0826  0.3885 -0.8747
 3101SOL     OW20938   3.100   0.996   3.578  0.1980 -0.4319  0.1975
 3101SOL    HW120939   3.049   1.058   3.526  0.5182  0.4860  0.9825
 3101SOL    HW220940   3.179   1.048   3.596  0.7188 -0.4059 -2.1334
 3102SOL     OW20941   2.822   4.398   5.233  0.2617  0.5584 -0.0683
 3102SOL    HW120942   2.858   4.403   5.145 -1.5528  1.0228 -0.7688
 3102SOL    HW220943   2.784   4.485   5.239  0.1651  0.4747  0.6158
 3103SOL     OW20944   2.441   0.294   8.919  0.3936  0.6569  0.0995
 3103SOL    HW120945   2.468   0.282   8.828 -0.7243  0.4250 -0.1987
 3103SOL    HW220946   2.448   0.388   8.938 -0.9574  0.7742  0.0649
 3104SOL     OW20947   1.979   1.293   6.980  0.4173  0.1062 -0.0648
 3104SOL    HW120948   1.920   1.220   6.960 -0.2803  0.4856  0.6130
 3104SOL    HW220949   1.924   1.370   6.967 -0.3738 -0.6369 -1.1618
 3105SOL     OW20950   3.872   0.711   2.298 -0.0773 -0.3569 -0.0355
 3105SOL    HW120951   3.885   0.654   2.222 -1.4284  1.1794 -1.4258
 3105SOL    HW220952   3.949   0.765   2.281  0.8536 -1.8823 -0.6334
 3106SOL     OW20953   1.770   1.292   6.496  0.1427  0.4436  0.2958
 3106SOL    HW120954   1.754   1.205   6.532  2.3363  0.1255  0.4984
 3106SOL    HW220955   1.762   1.287   6.401  0.3426 -0.2693  0.3134
 3107SOL     OW20956   1.499   2.121   3.053  0.1178  0.1247  0.3028
 3107SOL    HW120957   1.439   2.055   3.088 -2.0377  1.4080 -0.9664
 3107SOL    HW220958   1.552   2.062   2.998  0.9024 -1.7709  3.1101
 3108SOL     OW20959   3.506   4.132   9.023  0.1132  0.6184  0.0808
 3108SOL    HW120960   3.479   4.209   8.973  1.5999  0.6998 -0.6159
 3108SOL    HW220961   3.593   4.112   8.988 -0.3049  0.0868 -0.6647
 3109SOL     OW20962   3.174   1.660   3.888 -0.2861  0.3119  0.2419
 3109SOL    HW120963   3.233   1.732   3.910 -0.5754  0.3569  0.8784
 3109SOL    HW220964   3.084   1.691   3.877 -0.1698  0.2805 -0.8228
 3110SOL     OW20965   0.840   1.056   8.097 -0.2371  0.0090  0.2743
 3110SOL    HW120966   0.910   1.016   8.045 -3.0819 -0.4639 -3.1897
 3110SOL    HW220967   0.828   0.989   8.165 -0.9011 -0.9093 -0.7478
 3111SOL     OW20968   2.173   4.016  15.554 -0.4719 -0.1801  0.4908
 3111SOL    HW120969   2.220   4.065  15.486 -1.1877 -2.5990 -1.7287
 3111SOL    HW220970   2.095   4.071  15.568 -0.8521 -0.2232 -1.5160
 3112SOL     OW20971   0.626   2.350   8.007  0.0178  0.1513  0.0193
 3112SOL    HW120972   0.672   2.337   8.089 -0.1262 -0.7646 -0.0419
 3112SOL    HW220973   0.570   2.272   8.007 -1.2163  1.0421  2.4142
 3113SOL     OW20974   2.736   2.897   9.517 -0.5218 -0.6304  0.1370
 3113SOL    HW120975   2.779   2.893   9.603 -0.6639  1.8676  0.3296
 3113SOL    HW220976   2.791   2.958   9.469  0.2688 -1.4970 -0.0504
 3114SOL     OW20977   4.474   2.298   3.186  0.4016 -0.6488 -0.4970
 3114SOL    HW120978   4.469   2.264   3.275 -0.0650 -0.3106 -0.3964
 3114SOL    HW220979   4.560   2.275   3.152  0.5452 -1.4903  0.4591
 3115SOL     OW20980   1.401   3.959   2.187 -0.1421 -0.0309 -0.1598
 3115SOL    HW120981   1.486   3.985   2.151  1.9652 -2.4094  3.0890
 3115SOL    HW220982   1.354   4.038   2.214 -1.5601 -0.7708 -0.4961
 3116SOL     OW20983   2.854   2.910  12.507 -0.0075 -0.2984 -0.0459
 3116SOL    HW120984   2.849   2.834  12.449  0.3725 -0.1699 -0.2478
 3116SOL    HW220985   2.901   2.973  12.453  0.8199  0.8144  1.9882
 3117SOL     OW20986   2.855   0.015  12.657  0.2223 -0.0690  0.0040
 3117SOL    HW120987   2.933   0.004  12.603  2.6570  0.6897  3.3549
 3117SOL    HW220988   2.864   4.668  12.703 -1.8666  0.6186  1.6539
 3118SOL     OW20989   4.158   0.654   2.688 -0.4766  0.2556  0.1727
 3118SOL    HW120990   4.069   0.685   2.705 -1.6619 -2.7130 -0.6175
 3118SOL    HW220991   4.185   0.630   2.776 -0.8714 -1.1131 -0.0824
 3119SOL     OW20992   0.526   3.263   4.062 -0.6109 -0.0454  0.1200
 3119SOL    HW120993   0.530   3.296   3.972 -1.4070  1.4134  0.6170
 3119SOL    HW220994   0.601   3.204   4.064  1.9021  3.1928  0.7368
 3120SOL     OW20995   0.927   3.722  16.871  0.1763  0.1628  0.0796
 3120SOL    HW120996   0.987   3.649  16.860  0.6735  0.3761  1.3990
 3120SOL    HW220997   0.846   3.671  16.871  0.6013 -0.4990  0.6396
 3121SOL     OW20998   0.415   1.891   4.365 -0.1989  0.0083 -0.1042
 3121SOL    HW120999   0.341   1.836   4.342 -1.6755  1.5542  0.9713
 3121SOL    HW221000   0.381   1.968   4.318 -0.2267 -0.2108 -0.4376
 3122SOL     OW21001   0.913   1.949   2.015  0.3175 -0.3527  0.1185
 3122SOL    HW121002   1.000   1.965   1.978 -0.1370 -1.1796 -1.3457
 3122SOL    HW221003   0.873   2.035   2.022 -0.1578 -0.4994 -0.7414
 3123SOL     OW21004   1.421   1.967  16.006  0.1715  0.4257  0.3536
 3123SOL    HW121005   1.506   2.004  16.030  0.0875 -0.0942  1.4663
 3123SOL    HW221006   1.366   2.022  16.062 -0.7289 -2.8802  2.7054
 3124SOL     OW21007   1.421   3.268   4.644  0.3083 -0.1024 -0.5486
 3124SOL    HW121008   1.364   3.335   4.607  1.1858  1.8231  1.6185
 3124SOL    HW221009   1.475   3.322   4.701  2.6649 -2.2107 -0.8097
 3125SOL     OW21010   3.568   1.959   7.004  0.1164  0.1754  0.1650
 3125SOL    HW121011   3.640   1.951   6.941  0.5217 -1.8666  0.9015
 3125SOL    HW221012   3.621   1.954   7.083 -0.8552  1.9828  0.9292
 3126SOL     OW21013   0.789   1.280  15.780  0.2564 -0.2578 -0.4697
 3126SOL    HW121014   0.724   1.213  15.757  0.6079  0.4213 -3.3831
 3126SOL    HW221015   0.823   1.256  15.867 -2.3309 -2.3664 -0.0166
 3127SOL     OW21016   0.344   2.262   5.900  0.3459  0.2931  0.2123
 3127SOL    HW121017   0.366   2.269   5.993  0.6349  0.0657  0.1603
 3127SOL    HW221018   0.353   2.357   5.890  0.9632  0.3799  1.6077
 3128SOL     OW21019   2.898   2.106   1.382  0.3982 -0.4176 -0.5349
 3128SOL    HW121020   2.820   2.099   1.327  0.9550  0.1884 -1.4100
 3128SOL    HW221021   2.892   2.198   1.408  1.0997 -0.4167 -0.3747
 3129SOL     OW21022   3.480   3.572  14.883 -0.0462  0.6622  0.3249
 3129SOL    HW121023   3.569   3.543  14.861 -0.5213 -2.3705  2.4684
 3129SOL    HW221024   3.500   3.662  14.910 -0.0779  1.2558 -1.5961
 3130SOL     OW21025   4.460   2.077  12.331  0.2552  0.2957  0.2705
 3130SOL    HW121026   4.530   2.080  12.396 -0.0597  0.2284  0.6178
 3130SOL    HW221027   4.470   1.990  12.292 -2.6112 -0.0921  0.3720
 3131SOL     OW21028   2.200   0.218   3.879  0.7786 -0.1140  0.1977
 3131SOL    HW121029   2.154   0.183   3.803 -1.6798  0.9649  1.1759
 3131SOL    HW221030   2.127   0.229   3.940  0.4488 -2.0924  0.1610
 3132SOL     OW21031   0.936   2.259   4.842 -0.6488 -0.7919  0.1183
 3132SOL    HW121032   1.022   2.249   4.883 -0.4952 -1.6365 -0.4093
 3132SOL    HW221033   0.967   2.346   4.818  0.2605 -1.3009 -0.5475
 3133SOL     OW21034   3.412   2.730   8.317 -0.6373 -0.2380  0.2475
 3133SOL    HW121035   3.404   2.685   8.233 -1.6156  1.1519 -0.4041
 3133SOL    HW221036   3.502   2.716   8.345 -0.2442  0.7725 -0.5099
 3134SOL     OW21037   4.535   4.553   5.358  0.0560  0.5745  0.3577
 3134SOL    HW121038   4.605   4.566   5.422 -0.3348  1.6735  0.5597
 3134SOL    HW221039   4.460   4.554   5.417 -1.0023 -0.8014 -0.9476
 3135SOL     OW21040   2.328   4.432   7.221  0.0018  0.0734  0.4352
 3135SOL    HW121041   2.366   4.428   7.309 -0.7511 -0.0611  0.7487
 3135SOL    HW221042   2.405   4.428   7.164 -1.8643  1.1219 -2.1273
 3136SOL     OW21043   2.683   3.604   5.387 -0.2354 -0.2884  0.0867
 3136SOL    HW121044   2.685   3.690   5.345 -1.2422  0.3631  1.3842
 3136SOL    HW221045   2.632   3.551   5.324  0.7026  1.0878 -1.8363
 3137SOL     OW21046   1.292   4.056   6.518 -0.3923  0.5008 -0.2930
 3137SOL    HW121047   1.220   4.115   6.540 -1.3111 -0.2922 -1.1655
 3137SOL    HW221048   1.296   4.001   6.596 -1.9189  0.4697 -0.2492
 3138SOL     OW21049   3.013   2.022   4.682 -0.0449 -0.4881  0.0479
 3138SOL    HW121050   2.942   2.083   4.664 -0.5204 -1.3763 -1.1953
 3138SOL    HW221051   2.995   1.993   4.771  2.6743 -0.0447  0.7313
 3139SOL     OW21052   2.562   2.793   3.562  0.2781 -0.0567  0.0801
 3139SOL    HW121053   2.653   2.793   3.533 -0.3111  2.3832 -1.7710
 3139SOL    HW221054   2.560   2.878   3.605 -0.6177  0.8772 -1.8251
 3140SOL     OW21055   0.646   1.716   4.260 -0.0952  0.4362 -0.0285
 3140SOL    HW121056   0.646   1.809   4.237 -0.3348  0.6363  0.7799
 3140SOL    HW221057   0.593   1.719   4.339 -0.3089 -1.6770 -0.1053
 3141SOL     OW21058   3.739   3.058   9.118  0.6966  0.2550  0.3691
 3141SOL    HW121059   3.663   3.109   9.145  0.1297 -0.2762 -0.2269
 3141SOL    HW221060   3.740   3.106   9.035  1.8917  0.1316  0.3141
 3142SOL     OW21061   0.294   2.886  17.637 -0.2276 -0.4487 -0.4813
 3142SOL    HW121062   0.337   2.971  17.632  1.7038 -1.3833  0.0708
 3142SOL    HW221063   0.339   2.853  17.715 -1.1153  1.9045  1.0036
 3143SOL     OW21064   0.170   2.961   6.601  0.1080 -0.7776  0.6541
 3143SOL    HW121065   0.084   2.996   6.626  0.1760  1.4276 -2.1911
 3143SOL    HW221066   0.154   2.870   6.578  1.2553 -0.8217  0.0559
 3144SOL     OW21067   4.723   4.388   7.327  0.1919 -0.2748 -0.4856
 3144SOL    HW121068   0.039   4.444   7.385  0.0593 -0.6105 -0.0497
 3144SOL    HW221069   0.048   4.333   7.278 -0.8643 -1.0632 -0.8980
 3145SOL     OW21070   3.522   1.242   9.286  0.0535  0.5555 -0.3000
 3145SOL    HW121071   3.434   1.246   9.325  0.7197  3.5229  0.9836
 3145SOL    HW221072   3.511   1.162   9.236 -2.0660 -0.8380  2.4009
 3146SOL     OW21073   0.298   2.577   2.296  0.1637  0.2698  0.2351
 3146SOL    HW121074   0.218   2.537   2.329  0.3859 -0.0975  0.3309
 3146SOL    HW221075   0.365   2.531   2.347 -0.6791 -0.3518  0.7723
 3147SOL     OW21076   1.147   2.723   4.151  0.3106  0.2619 -0.2500
 3147SOL    HW121077   1.154   2.806   4.198 -2.5521 -0.5179  1.5236
 3147SOL    HW221078   1.237   2.690   4.151 -0.2462 -1.2497  2.4266
 3148SOL     OW21079   2.138   4.385  10.103  0.2616  0.1673 -0.4203
 3148SOL    HW121080   2.046   4.371  10.126 -0.2887  1.2683 -1.9621
 3148SOL    HW221081   2.144   4.368  10.009  0.1152  1.5062 -0.6798
 3149SOL     OW21082   0.465   1.691   6.427  0.5611  0.1530  0.4645
 3149SOL    HW121083   0.486   1.606   6.465  0.1539 -0.4071 -0.5430
 3149SOL    HW221084   0.372   1.672   6.415  0.9166 -1.7663  0.7465
 3150SOL     OW21085   3.591   0.890   9.098 -0.0032  0.2563 -0.0329
 3150SOL    HW121086   3.624   0.801   9.107 -0.3349 -0.0934 -2.2479
 3150SOL    HW221087   3.522   0.901   9.163  0.3162 -2.9566  0.8676
 3151SOL     OW21088   3.600   2.128  12.776  0.4377  0.1620 -0.0675
 3151SOL    HW121089   3.570   2.217  12.756 -1.7825 -0.1416  1.8995
 3151SOL    HW221090   3.695   2.137  12.771  0.2766  0.8933 -1.6777
 3152SOL     OW21091   1.034   1.840  10.367 -0.1092 -0.5857 -0.0355
 3152SOL    HW121092   1.014   1.925  10.327  0.9020 -0.6882 -0.7409
 3152SOL    HW221093   1.126   1.822  10.348  0.1835 -2.5218  3.1742
 3153SOL     OW21094   0.102   4.021   5.468 -0.1972  0.5633 -0.1041
 3153SOL    HW121095   0.164   4.011   5.396  1.2086 -0.4493  1.2184
 3153SOL    HW221096   0.020   4.018   5.420  1.0843  0.2229 -2.2974
 3154SOL     OW21097   2.806   2.014   5.408 -0.1259 -0.4589  0.3905
 3154SOL    HW121098   2.860   1.941   5.379  0.5104 -0.0232  0.4763
 3154SOL    HW221099   2.879   2.073   5.425  1.1007 -2.0466  0.5769
 3155SOL     OW21100   3.017   1.737   7.492 -0.6384  0.2600  0.2701
 3155SOL    HW121101   2.990   1.806   7.432 -0.5387 -0.1890 -0.2899
 3155SOL    HW221102   3.108   1.721   7.464  0.0334  0.3134  2.4331
 3156SOL     OW21103   0.182   1.650  15.169  0.2391 -0.1153  0.4944
 3156SOL    HW121104   0.132   1.707  15.228 -1.1744 -0.3130 -0.5197
 3156SOL    HW221105   0.269   1.689  15.171  0.2420 -0.0698 -0.7357
 3157SOL     OW21106   1.538   1.730   3.629 -0.3051 -0.5933  0.1282
 3157SOL    HW121107   1.521   1.704   3.719  0.5212 -0.9794  0.1731
 3157SOL    HW221108   1.599   1.803   3.640 -1.1976 -0.1175  1.9785
 3158SOL     OW21109   1.755   1.824   2.576 -0.2058  0.2066 -0.4060
 3158SOL    HW121110   1.674   1.837   2.527 -0.0477  1.1562 -0.4162
 3158SOL    HW221111   1.766   1.920   2.575 -0.1929  0.2154  0.5235
 3159SOL     OW21112   2.975   2.090   9.384 -0.0489 -0.5008 -0.0631
 3159SOL    HW121113   2.991   2.170   9.434  0.2955 -1.6526  1.6752
 3159SOL    HW221114   2.909   2.118   9.320  0.0248 -2.4977 -1.0020
 3160SOL     OW21115   2.579   2.531   6.542 -0.4504 -0.2273 -0.5302
 3160SOL    HW121116   2.630   2.526   6.460 -0.6930  1.8299 -0.8021
 3160SOL    HW221117   2.641   2.583   6.592  0.8768 -1.4587 -0.8787
 3161SOL     OW21118   4.707   0.821   5.293 -0.5771  0.6838  0.7009
 3161SOL    HW121119   4.644   0.827   5.221  0.3129 -1.6875 -0.2700
 3161SOL    HW221120   4.666   0.891   5.344 -0.6420  1.0627  0.1296
 3162SOL     OW21121   3.724   2.045  13.640 -0.4956 -0.1391  0.5197
 3162SOL    HW121122   3.656   2.074  13.700  1.0563  1.6592  1.3789
 3162SOL    HW221123   3.729   1.949  13.646 -1.9634 -0.2517 -0.0345
 3163SOL     OW21124   0.265   3.771   5.549  0.0991  0.1501  0.5212
 3163SOL    HW121125   0.272   3.683   5.511 -0.0367  0.2422  0.2893
 3163SOL    HW221126   0.181   3.801   5.516  0.0347 -1.5444 -0.8203
 3164SOL     OW21127   4.415   1.592   7.428  0.4466 -0.0939  0.2291
 3164SOL    HW121128   4.346   1.658   7.437  0.2584 -0.0964 -1.1755
 3164SOL    HW221129   4.485   1.657   7.425  0.7788 -0.4276  0.6849
 3165SOL     OW21130   1.157   1.574   2.924 -0.2092 -0.5267  0.5615
 3165SOL    HW121131   1.128   1.514   2.993  1.1298 -1.7492  0.0652
 3165SOL    HW221132   1.196   1.508   2.866 -0.7648 -0.6868  0.3685
 3166SOL     OW21133   0.217   2.942   1.729 -0.2049  0.4219 -0.0873
 3166SOL    HW121134   0.303   2.916   1.698 -0.7222 -0.3444 -0.8731
 3166SOL    HW221135   0.230   2.932   1.824 -0.6576  0.8391  0.0155
 3167SOL     OW21136   2.519   3.536   4.333  0.3707  0.3491  0.0929
 3167SOL    HW121137   2.569   3.605   4.376  2.4406 -1.3499  0.3942
 3167SOL    HW221138   2.542   3.544   4.240 -0.8704  1.5159 -0.1284
 3168SOL     OW21139   0.431   2.034   7.956  0.8024  0.3353 -0.1080
 3168SOL    HW121140   0.526   2.039   7.946  0.9802 -1.3019  0.7360
 3168SOL    HW221141   0.417   1.940   7.958  0.1009  0.4927  3.6892
 3169SOL     OW21142   2.269   2.783   7.183  0.2467 -0.1470 -0.2728
 3169SOL    HW121143   2.317   2.731   7.247  1.1614  0.5277 -0.4043
 3169SOL    HW221144   2.217   2.845   7.234  1.0726 -0.2605  0.7123
 3170SOL     OW21145   1.049   0.476   3.782 -0.1907 -0.1058  0.0495
 3170SOL    HW121146   0.959   0.448   3.765  0.1385 -1.1291 -0.0035
 3170SOL    HW221147   1.042   0.481   3.877 -2.0439  1.1179 -0.1489
 3171SOL     OW21148   1.654   4.715  14.429 -0.4654  0.2971  0.2419
 3171SOL    HW121149   1.646   4.621  14.413  0.5621  0.3380 -0.5883
 3171SOL    HW221150   1.726   4.725  14.491 -0.0314  1.0421 -0.3800
 3172SOL     OW21151   0.721   1.498   4.709  0.2650 -0.0312  0.4738
 3172SOL    HW121152   0.692   1.439   4.779  3.1254  0.0679  1.7513
 3172SOL    HW221153   0.657   1.490   4.639 -1.6700  0.9355  2.1148
 3173SOL     OW21154   2.386   0.746  11.917 -0.2981 -0.6865  0.3893
 3173SOL    HW121155   2.377   0.778  12.007 -0.2725 -2.2679  0.9749
 3173SOL    HW221156   2.340   0.809  11.862  0.5080 -1.9486 -1.7160
 3174SOL     OW21157   3.836   4.102   6.874 -0.5728  0.6539 -0.1093
 3174SOL    HW121158   3.816   4.175   6.815  2.5637  1.2566 -0.4293
 3174SOL    HW221159   3.883   4.144   6.946 -0.0700  2.2610 -1.3793
 3175SOL     OW21160   4.598   0.022   1.623 -0.5136  0.3161  0.2765
 3175SOL    HW121161   4.523   0.010   1.681  1.6580  0.7345  3.1243
 3175SOL    HW221162   4.556   0.083   1.562  0.5940 -0.4009 -1.1936
 3176SOL     OW21163   4.207   1.720   2.148  0.1978 -0.4591 -0.3111
 3176SOL    HW121164   4.200   1.802   2.098 -0.2391 -0.0397  0.4349
 3176SOL    HW221165   4.157   1.665   2.088  0.7124 -2.3346  0.9714
 3177SOL     OW21166   3.135   1.256   2.374  0.2880 -0.1379  0.3018
 3177SOL    HW121167   3.054   1.233   2.328 -2.1335  3.9305  2.5201
 3177SOL    HW221168   3.194   1.278   2.303  2.7966 -1.3581  2.0071
 3178SOL     OW21169   4.551   3.101   5.487 -0.3208  0.3277 -0.6519
 3178SOL    HW121170   4.646   3.091   5.473 -0.1675  0.4133  0.2986
 3178SOL    HW221171   4.530   3.115   5.395  3.1779 -0.0373 -1.5132
 3179SOL     OW21172   4.621   4.573   8.076 -0.6134  0.2624  0.2281
 3179SOL    HW121173   4.636   4.562   7.982  2.1367  0.1953  0.6855
 3179SOL    HW221174   4.644   4.483   8.101 -1.9653 -0.6847 -1.8817
 3180SOL     OW21175   1.578   1.223   7.280 -0.4306 -0.6271 -0.1115
 3180SOL    HW121176   1.644   1.157   7.258 -1.5816 -2.1749  1.0386
 3180SOL    HW221177   1.627   1.305   7.275  0.6376 -1.2356  0.2904
 3181SOL     OW21178   2.711   0.865   2.360 -0.4502  0.0577 -0.2829
 3181SOL    HW121179   2.762   0.788   2.334 -0.4447 -1.0040  2.8191
 3181SOL    HW221180   2.653   0.861   2.284 -1.2722 -0.1881  0.3566
 3182SOL     OW21181   0.363   1.907   4.094  0.1725  0.1128  0.1938
 3182SOL    HW121182   0.353   1.939   4.004 -0.4263 -1.2461 -0.2207
 3182SOL    HW221183   0.283   1.952   4.124 -0.4128 -0.5121 -0.4171
 3183SOL     OW21184   2.225   4.301   2.141  1.0676 -0.6816 -0.1652
 3183SOL    HW121185   2.190   4.215   2.162  1.1553 -0.5485  0.5087
 3183SOL    HW221186   2.318   4.288   2.119  1.8227  0.1572  2.5323
 3184SOL     OW21187   3.727   3.971   3.803  0.0129  0.6188  0.2545
 3184SOL    HW121188   3.693   4.025   3.874  1.1371  0.7609  0.6947
 3184SOL    HW221189   3.688   4.025   3.735  2.0193 -0.7562 -2.0026
 3185SOL     OW21190   3.860   2.747   3.695 -0.2943  0.2179 -0.0217
 3185SOL    HW121191   3.803   2.719   3.624 -1.2857  2.2338 -0.0211
 3185SOL    HW221192   3.926   2.678   3.687  0.7670  0.9833  1.9468
 3186SOL     OW21193   1.925   3.108  10.680  0.3743  0.4393 -0.0190
 3186SOL    HW121194   1.845   3.056  10.674  1.3141 -1.1681  1.3005
 3186SOL    HW221195   1.948   3.118  10.588  1.6049 -0.1825  0.2226
 3187SOL     OW21196   0.744   1.062   2.882 -0.4403  0.5359 -0.3094
 3187SOL    HW121197   0.793   1.000   2.937  0.7098  1.4247 -0.3505
 3187SOL    HW221198   0.668   1.014   2.850 -0.7359  1.0610 -0.3923
 3188SOL     OW21199   3.759   4.241   4.680  0.2279 -0.4547  0.1390
 3188SOL    HW121200   3.703   4.165   4.661 -1.1082  0.3860  0.6935
 3188SOL    HW221201   3.701   4.313   4.654  0.4782  0.0195  0.8846
 3189SOL     OW21202   1.249   1.751   3.498 -0.5033  0.6815 -0.2986
 3189SOL    HW121203   1.328   1.701   3.517 -1.4031  0.4199  2.7103
 3189SOL    HW221204   1.227   1.716   3.411 -0.6668 -0.0257  0.0265
 3190SOL     OW21205   2.107   4.228   4.327 -0.3938  0.0154  0.6602
 3190SOL    HW121206   2.036   4.291   4.324 -2.1842 -1.9757  1.0253
 3190SOL    HW221207   2.083   4.177   4.249  0.4360  1.0614 -0.2787
 3191SOL     OW21208   4.521   0.711   8.001  0.0575 -0.3522 -0.1228
 3191SOL    HW121209   4.432   0.734   7.975 -0.2758 -1.7726 -0.2489
 3191SOL    HW221210   4.554   0.788   8.047  0.9995 -1.0489  0.3599
 3192SOL     OW21211   3.752   4.236   5.759  0.2081  0.0129  0.6456
 3192SOL    HW121212   3.731   4.143   5.753 -0.1530  0.0916  0.6985
 3192SOL    HW221213   3.747   4.258   5.666 -1.0291  4.2919  1.7124
 3193SOL     OW21214   2.016   1.934   4.760  0.1047  0.3234 -0.5206
 3193SOL    HW121215   1.946   1.903   4.818  0.9915 -0.5847  0.0613
 3193SOL    HW221216   2.066   2.000   4.808 -0.2564 -0.0367  0.3422
 3194SOL     OW21217   1.219   3.999  14.541 -0.3820 -0.2750 -0.3577
 3194SOL    HW121218   1.302   4.010  14.494 -0.8646 -0.5081 -1.2723
 3194SOL    HW221219   1.179   3.934  14.483  0.9791  0.5979 -2.2948
 3195SOL     OW21220   0.065   0.820  14.743 -0.1633  0.0564  0.0894
 3195SOL    HW121221   0.067   0.727  14.721 -0.2205  0.8923 -3.4373
 3195SOL    HW221222   0.039   0.859  14.660 -0.2680  2.9199  1.4906
 3196SOL     OW21223   1.607   4.413   8.908  0.0792  0.0291 -0.0017
 3196SOL    HW121224   1.667   4.402   8.981 -0.7512 -3.5239  0.1653
 3196SOL    HW221225   1.575   4.499   8.931  1.6331  0.2754  1.2212
 3197SOL     OW21226   4.523   2.869   7.182  0.2629 -0.1979 -0.3545
 3197SOL    HW121227   4.471   2.917   7.247 -0.5124 -0.3071 -0.9026
 3197SOL    HW221228   4.455   2.827   7.131  1.0555 -0.0558 -1.5313
 3198SOL     OW21229   1.335   1.643   2.722  0.1823  0.3401 -0.4707
 3198SOL    HW121230   1.241   1.640   2.741  0.4696 -0.5036  0.7991
 3198SOL    HW221231   1.358   1.568   2.667 -0.3544 -1.3953  1.6763
 3199SOL     OW21232   0.448   1.087  12.574 -0.1566  0.1643 -0.1299
 3199SOL    HW121233   0.480   1.084  12.664  1.6382  0.6423 -0.7535
 3199SOL    HW221234   0.523   1.043  12.535 -0.6017 -1.2004  0.5730
 3200SOL     OW21235   0.449   0.462   5.245 -0.2158  0.5585  0.0535
 3200SOL    HW121236   0.466   0.556   5.251 -1.7593  0.9668 -1.8744
 3200SOL    HW221237   0.491   0.439   5.163  0.3141  2.3036 -0.1593
 3201SOL     OW21238   4.179   1.968  14.210 -0.0305  0.1512 -0.1529
 3201SOL    HW121239   4.114   1.960  14.141 -0.7761 -1.1500  0.7003
 3201SOL    HW221240   4.116   1.986  14.281  0.2227  0.4139  0.0056
 3202SOL     OW21241   4.422   0.343   1.177  0.2704 -0.1709  0.2377
 3202SOL    HW121242   4.412   0.416   1.238 -0.5564  0.6615 -0.8809
 3202SOL    HW221243   4.514   0.349   1.150 -0.1139 -2.1110 -1.5255
 3203SOL     OW21244   3.520   3.032  15.984  0.0254 -0.2479  0.7375
 3203SOL    HW121245   3.593   3.003  16.040  2.2611  2.0279 -0.9579
 3203SOL    HW221246   3.545   2.987  15.904  0.4376 -0.6443  1.0887
 3204SOL     OW21247   4.717   0.788   6.210  0.0691  0.2495  0.4415
 3204SOL    HW121248   4.685   0.729   6.278 -0.8180  0.7696  0.4684
 3204SOL    HW221249   0.012   0.723   6.147  0.6316 -0.2384  1.2205
 3205SOL     OW21250   0.263   0.158   5.721 -0.1150 -0.0703 -0.2735
 3205SOL    HW121251   0.274   0.102   5.644  0.6028  0.9627 -0.9227
 3205SOL    HW221252   0.173   0.134   5.745 -0.5522  1.3328 -0.5310
 3206SOL     OW21253   0.050   3.536   1.766 -1.0368  0.5478  0.6512
 3206SOL    HW121254   0.062   3.491   1.683  0.9283 -0.0318  1.2459
 3206SOL    HW221255   4.712   3.487   1.803 -1.3573 -0.5338 -1.4202
 3207SOL     OW21256   1.688   2.677   8.933 -0.4845 -0.2601  0.2777
 3207SOL    HW121257   1.761   2.617   8.947 -0.8831 -0.8303 -0.0873
 3207SOL    HW221258   1.617   2.625   8.894 -0.0765 -1.5301  1.2384
 3208SOL     OW21259   3.410   3.752  15.204  0.4950  0.3383 -0.4409
 3208SOL    HW121260   3.432   3.662  15.180  1.3282  1.3679 -3.5626
 3208SOL    HW221261   3.326   3.764  15.158 -0.6884 -1.0863  1.3644
 3209SOL     OW21262   3.672   0.851  16.891  0.4394  0.0835 -0.8887
 3209SOL    HW121263   3.746   0.908  16.907  0.7371 -1.1459  2.0282
 3209SOL    HW221264   3.693   0.823  16.802  2.8651  0.9647 -0.5665
 3210SOL     OW21265   3.058   2.074  13.784  0.1494  0.1495  0.4181
 3210SOL    HW121266   3.073   2.048  13.693  0.6685 -2.0726  1.1139
 3210SOL    HW221267   2.980   2.129  13.779  0.3272  0.4862  1.4841
 3211SOL     OW21268   0.813   2.559   5.515  0.5863 -0.1405 -0.6845
 3211SOL    HW121269   0.836   2.576   5.607 -0.4447 -1.9237 -0.0974
 3211SOL    HW221270   0.860   2.482   5.485  0.4024 -0.0791 -1.1234
 3212SOL     OW21271   1.566   2.167   5.913  0.2932 -0.1058  0.0946
 3212SOL    HW121272   1.522   2.101   5.859  1.5066  1.0742 -2.3343
 3212SOL    HW221273   1.572   2.129   6.001  0.3848  0.8352  0.4915
 3213SOL     OW21274   1.496   4.220   7.211  0.1207 -0.7866 -0.0357
 3213SOL    HW121275   1.489   4.295   7.270  1.2815 -1.2399  0.6855
 3213SOL    HW221276   1.580   4.226   7.165 -0.3744  3.4440 -0.3610
 3214SOL     OW21277   3.096   4.007   7.729 -0.0270  0.6016  0.4113
 3214SOL    HW121278   3.124   3.972   7.814  0.3629 -0.8627 -0.3364
 3214SOL    HW221279   3.172   4.064   7.723  0.0942  0.6453  2.3271
 3215SOL     OW21280   2.162   4.706   2.269  0.3653 -0.6130 -0.2061
 3215SOL    HW121281   2.154   0.060   2.238 -2.4814 -1.6853 -2.5403
 3215SOL    HW221282   2.239   4.703   2.326 -2.4097 -2.3882  3.4155
 3216SOL     OW21283   0.659   4.444  17.530 -0.6807 -0.0635  0.1590
 3216SOL    HW121284   0.602   4.380  17.573  0.9116 -1.7225 -0.1999
 3216SOL    HW221285   0.617   4.462  17.446 -2.2086  0.9245  1.1402
 3217SOL     OW21286   1.244   2.004   8.565  0.5729  0.6390  0.3121
 3217SOL    HW121287   1.244   2.091   8.527  1.3053  0.5122  0.0236
 3217SOL    HW221288   1.225   1.952   8.487  0.5614  0.2754  0.5540
 3218SOL     OW21289   0.752   3.627   3.795  0.3661  0.8113  0.6804
 3218SOL    HW121290   0.787   3.539   3.785  1.9648  1.6094 -0.9917
 3218SOL    HW221291   0.787   3.643   3.883 -2.2869 -1.5945  2.1642
 3219SOL     OW21292   2.868   3.865   6.672  0.3263  0.2559  0.0483
 3219SOL    HW121293   2.825   3.933   6.620  0.4537  0.7495  0.5906
 3219SOL    HW221294   2.857   3.798   6.604  0.3105 -0.1829  0.4837
 3220SOL     OW21295   4.365   2.469  13.016  0.2714  0.3830 -0.0597
 3220SOL    HW121296   4.414   2.442  13.094  1.7645  0.1977 -1.0670
 3220SOL    HW221297   4.355   2.563  13.033 -0.3014  0.1482  0.8617
 3221SOL     OW21298   4.030   2.855  14.924 -0.0229  0.2863  0.0412
 3221SOL    HW121299   4.073   2.796  14.861  0.3086 -0.2779  0.7928
 3221SOL    HW221300   3.937   2.844  14.904 -0.1905  0.0279  0.9675
 3222SOL     OW21301   3.552   3.093   8.637 -0.2191 -0.2883 -0.3446
 3222SOL    HW121302   3.459   3.076   8.623 -0.5481 -0.6433  2.2620
 3222SOL    HW221303   3.571   3.155   8.567  0.1146  0.6299  0.5638
 3223SOL     OW21304   3.841   1.509  11.313 -0.4939 -0.0631  0.4273
 3223SOL    HW121305   3.758   1.556  11.302 -0.8261 -0.5182  0.9368
 3223SOL    HW221306   3.868   1.514  11.405  1.5239 -0.2364 -0.1712
 3224SOL     OW21307   3.622   3.925   4.349  0.1171  0.4341  0.3166
 3224SOL    HW121308   3.572   4.002   4.322 -0.2019 -0.0069 -0.3501
 3224SOL    HW221309   3.589   3.904   4.436  0.5801  2.7475  1.0692
 3225SOL     OW21310   3.446   0.768   1.218 -0.2312  0.0231  0.0756
 3225SOL    HW121311   3.532   0.741   1.187  1.2746  1.5144  2.9458
 3225SOL    HW221312   3.478   0.806   1.301  2.1175  1.1001 -1.3243
 3226SOL     OW21313   1.495   1.286   2.066 -0.5969  0.1403  0.3533
 3226SOL    HW121314   1.468   1.369   2.105 -0.5418  0.8708 -1.1892
 3226SOL    HW221315   1.583   1.284   2.105  0.4574 -1.7080 -2.1410
 3227SOL     OW21316   0.032   0.251   4.196 -0.6892  0.6980  0.1171
 3227SOL    HW121317   0.126   0.252   4.183 -0.8935  0.3542 -1.4095
 3227SOL    HW221318   0.022   0.161   4.228  0.4276  1.4302  2.4351
 3228SOL     OW21319   4.066   2.168  16.673  0.0156  0.2966  0.2814
 3228SOL    HW121320   4.007   2.154  16.599 -0.5873  0.1941  0.7832
 3228SOL    HW221321   4.035   2.099  16.732  1.6342 -0.8856 -0.2575
 3229SOL     OW21322   2.793   4.731   6.484  0.3681 -0.5684 -0.1555
 3229SOL    HW121323   2.718   4.696   6.436 -0.1123  0.2151  0.0200
 3229SOL    HW221324   2.747   0.042   6.554  0.7442  1.0520 -1.0239
 3230SOL     OW21325   3.094   0.921   6.679 -0.6152  0.1768 -0.4005
 3230SOL    HW121326   3.032   0.937   6.751  0.2621  0.9583  0.1776
 3230SOL    HW221327   3.158   0.986   6.707 -1.6839  1.5227 -1.0980
 3231SOL     OW21328   0.726   1.229  13.164 -0.4841  0.1452 -0.0822
 3231SOL    HW121329   0.785   1.165  13.125 -0.8593 -1.1366  1.4430
 3231SOL    HW221330   0.768   1.248  13.249  0.2345 -1.5578 -0.0555
 3232SOL     OW21331   4.736   2.529   4.974 -0.1889 -0.4028  0.9335
 3232SOL    HW121332   0.095   2.524   4.966 -0.2527  0.6196 -0.5166
 3232SOL    HW221333   4.717   2.573   4.891 -0.2212 -1.6486  0.2767
 3233SOL     OW21334   0.050   0.103   3.142  0.4656  0.0266 -0.1360
 3233SOL    HW121335   4.731   0.063   3.075 -0.6262  1.9043 -0.3379
 3233SOL    HW221336   0.017   0.191   3.159  0.3415 -0.1321  0.4527
 3234SOL     OW21337   3.066   1.362   2.093  0.3511 -0.0637  0.3797
 3234SOL    HW121338   3.081   1.359   1.998 -0.6574 -1.0532  0.2460
 3234SOL    HW221339   3.158   1.378   2.112  1.0755 -3.0136 -0.5886
 3235SOL     OW21340   3.341   4.448   2.814  1.0932 -0.7895  0.1693
 3235SOL    HW121341   3.249   4.453   2.839  0.3650 -3.1481 -2.0636
 3235SOL    HW221342   3.360   4.536   2.848 -1.1674 -0.0201 -0.5625
 3236SOL     OW21343   4.669   2.111  15.126 -0.1275 -0.1306 -0.1799
 3236SOL    HW121344   0.007   2.140  15.180 -0.9821 -1.3720  1.6809
 3236SOL    HW221345   4.711   2.094  15.042 -1.6509 -1.4377 -0.6785
 3237SOL     OW21346   4.163   2.543   7.025 -0.1662  0.2272 -0.0352
 3237SOL    HW121347   4.099   2.580   7.086 -0.0628 -1.7566  1.2658
 3237SOL    HW221348   4.196   2.465   7.068  0.4844  0.6950  0.3175
 3238SOL     OW21349   2.308   0.020   8.699 -0.2519 -0.4418 -0.0930
 3238SOL    HW121350   2.337   0.002   8.788  1.3166  2.3430 -0.0532
 3238SOL    HW221351   2.382   0.046   8.644 -0.2623 -1.0625 -0.3949
 3239SOL     OW21352   1.056   4.434  17.457  0.1765 -0.0248  0.5083
 3239SOL    HW121353   1.048   4.464  17.548  2.1256 -0.4022  0.8013
 3239SOL    HW221354   1.107   4.354  17.464  1.9266  0.9884 -0.7785
 3240SOL     OW21355   0.993   0.956   6.067 -0.1673  0.3131 -0.2859
 3240SOL    HW121356   0.941   1.033   6.092 -0.2145  0.3117 -0.3808
 3240SOL    HW221357   1.050   1.002   6.005 -1.9463  1.6343 -0.9424
 3241SOL     OW21358   2.159   4.631   6.393 -0.9481 -0.8814 -0.0700
 3241SOL    HW121359   2.168   4.625   6.298  0.4299 -1.6442  0.1021
 3241SOL    HW221360   2.066   4.651   6.402 -0.8948  0.4057 -2.4426
 3242SOL     OW21361   0.132   0.665   2.585  0.4019  0.7131 -0.3489
 3242SOL    HW121362   0.046   0.700   2.565 -1.0716 -3.2877 -1.1159
 3242SOL    HW221363   0.150   0.612   2.507 -2.6190  1.4921 -1.5436
 3243SOL     OW21364   4.146   4.367   6.253  0.7861  0.0346  0.0466
 3243SOL    HW121365   4.231   4.372   6.209 -0.1153 -0.8787 -1.8195
 3243SOL    HW221366   4.157   4.426   6.327  1.1710 -0.1986  0.1770
 3244SOL     OW21367   1.172   2.789   8.161 -0.3958  0.0330  0.1613
 3244SOL    HW121368   1.097   2.793   8.221 -1.7240  1.6558 -1.5565
 3244SOL    HW221369   1.238   2.847   8.199  0.0665  0.5615 -1.4463
 3245SOL     OW21370   0.037   1.363  16.863 -0.5471  0.1737 -0.3059
 3245SOL    HW121371   0.034   1.296  16.795 -2.0774  0.7267 -0.7823
 3245SOL    HW221372   4.727   1.331  16.940 -0.0233  0.8574  0.2957
 3246SOL     OW21373   3.158   3.619  14.085 -0.4450 -0.4230 -0.4595
 3246SOL    HW121374   3.178   3.526  14.091 -2.2015 -0.7944 -0.3272
 3246SOL    HW221375   3.222   3.657  14.146 -0.9800 -1.2439  0.6118
 3247SOL     OW21376   2.565   4.660   6.300  0.1245  0.0032  0.9054
 3247SOL    HW121377   2.559   4.690   6.209  0.5842 -2.2519  0.1343
 3247SOL    HW221378   2.511   4.729   6.337  1.3431  3.1183 -3.1273
 3248SOL     OW21379   0.863   3.619  16.143  0.6382  0.5512  0.3754
 3248SOL    HW121380   0.913   3.690  16.102  1.1954 -1.3535 -2.2447
 3248SOL    HW221381   0.901   3.620  16.231 -1.7219  2.2273  1.3727
 3249SOL     OW21382   4.158   2.030   3.814 -0.5047 -0.4480 -0.2670
 3249SOL    HW121383   4.213   1.961   3.850  0.1466 -0.0153 -0.4370
 3249SOL    HW221384   4.111   2.050   3.895 -0.4469  0.5316 -0.4736
 3250SOL     OW21385   3.145   3.045   2.033  0.3405  0.4450  0.1320
 3250SOL    HW121386   3.173   3.003   2.114  1.8327 -0.1170 -0.6706
 3250SOL    HW221387   3.069   3.096   2.061 -1.9757 -2.9200 -0.0339
 3251SOL     OW21388   4.675   1.734   7.156 -0.0499 -0.1847  0.1374
 3251SOL    HW121389   4.677   1.645   7.120  1.5115 -0.3794  0.7473
 3251SOL    HW221390   4.646   1.782   7.078 -0.4056  0.2425  0.5318
 3252SOL     OW21391   4.385   3.025   5.248 -0.2616 -0.2868 -0.0415
 3252SOL    HW121392   4.465   2.976   5.231 -0.0097  1.0064 -2.4307
 3252SOL    HW221393   4.320   2.970   5.204  0.3420 -1.3295  0.3755
 3253SOL     OW21394   3.175   3.537   9.107  0.1047  0.2500  0.6042
 3253SOL    HW121395   3.229   3.598   9.157  0.2514 -0.6810  1.5875
 3253SOL    HW221396   3.092   3.583   9.099 -0.7595 -1.4122 -0.0002
 3254SOL     OW21397   0.973   3.908   0.284  0.3372  0.0568 -0.0371
 3254SOL    HW121398   0.893   3.876   0.325  0.7399  1.8233  2.1320
 3254SOL    HW221399   0.935   3.936   0.201  0.3382 -0.7072 -0.3001
 3255SOL     OW21400   1.237   0.491   3.588  0.6537  0.3393 -0.3435
 3255SOL    HW121401   1.229   0.396   3.579 -1.0566  0.4531 -0.0502
 3255SOL    HW221402   1.176   0.504   3.660  0.6411 -0.3406 -0.2298
 3256SOL     OW21403   1.969   3.328   1.449 -0.4103 -0.0564  0.0779
 3256SOL    HW121404   2.049   3.380   1.451 -0.1895 -0.3345 -1.5383
 3256SOL    HW221405   2.005   3.251   1.494 -2.5096 -0.7233  0.6289
 3257SOL     OW21406   0.981   1.254   5.453 -0.8037 -0.1448 -0.0793
 3257SOL    HW121407   0.916   1.253   5.523  1.7634 -0.6089  2.3048
 3257SOL    HW221408   0.924   1.201   5.398 -3.1107 -1.1365  3.2323
 3258SOL     OW21409   3.302   1.769  12.905 -0.0565  0.2758 -0.3763
 3258SOL    HW121410   3.304   1.831  12.978  3.1163  1.2450 -1.2736
 3258SOL    HW221411   3.216   1.732  12.925  0.0446 -0.2741 -0.9672
 3259SOL     OW21412   4.412   3.459  11.779  0.9197 -0.0488  0.1740
 3259SOL    HW121413   4.317   3.450  11.790  1.0481  0.0683  1.3784
 3259SOL    HW221414   4.422   3.545  11.820 -2.0664  0.2908  0.1744
 3260SOL     OW21415   4.120   2.873   7.250 -0.2647  0.2215  0.3450
 3260SOL    HW121416   4.076   2.788   7.256  0.0109  0.1115  0.8212
 3260SOL    HW221417   4.121   2.885   7.345  0.7993 -2.2421  0.6508
 3261SOL     OW21418   2.347   1.372   5.287  0.9071  0.2952  0.2489
 3261SOL    HW121419   2.281   1.304   5.303  0.9058  0.8059  2.3152
 3261SOL    HW221420   2.400   1.372   5.367  0.9137 -0.2828  0.2491
 3262SOL     OW21421   2.968   4.523   3.817  0.0456  0.1177 -0.5098
 3262SOL    HW121422   2.881   4.499   3.784 -0.5592  0.1999  1.0560
 3262SOL    HW221423   2.959   4.612   3.849 -0.2870  0.2544 -0.9876
 3263SOL     OW21424   4.680   3.798   2.655  0.4389 -0.0957 -0.0521
 3263SOL    HW121425   4.623   3.753   2.717 -0.5034  1.3367  0.1002
 3263SOL    HW221426   0.012   3.731   2.646 -1.4610 -2.1169  0.5451
 3264SOL     OW21427   3.881   0.196   2.176 -0.1673 -0.0739  0.0799
 3264SOL    HW121428   3.950   0.155   2.228 -0.7135  1.0685  1.7071
 3264SOL    HW221429   3.828   0.247   2.237 -0.4985  1.7959 -1.8032
 3265SOL     OW21430   3.079   1.067  14.604 -0.4069 -0.1284 -0.5699
 3265SOL    HW121431   3.027   1.037  14.679 -0.6866  2.3784  0.2482
 3265SOL    HW221432   3.113   1.152  14.632 -0.5247 -0.4270  0.5012
 3266SOL     OW21433   1.414   1.707   3.916  0.0681 -0.0099 -0.5667
 3266SOL    HW121434   1.331   1.720   3.961 -1.8331  0.5317 -4.1864
 3266SOL    HW221435   1.428   1.800   3.896  1.4374  0.2702  1.7658
 3267SOL     OW21436   0.208   2.723  11.907 -0.6055  0.1937 -0.1441
 3267SOL    HW121437   0.301   2.709  11.923 -0.6433  1.5649  1.3251
 3267SOL    HW221438   0.176   2.772  11.983 -0.9995 -0.6380  0.2249
 3268SOL     OW21439   3.886   3.099   5.657  0.0063  0.7185  0.3212
 3268SOL    HW121440   3.930   3.122   5.576 -2.0074  1.7989 -0.4568
 3268SOL    HW221441   3.934   3.026   5.696 -0.3384  0.3446  0.0459
 3269SOL     OW21442   1.855   2.398   8.894 -0.1206 -0.2940  0.0204
 3269SOL    HW121443   1.776   2.352   8.867 -2.1318  2.6689  0.8661
 3269SOL    HW221444   1.897   2.327   8.944 -1.1844 -2.1579 -1.7165
 3270SOL     OW21445   0.830   0.927   4.024  0.2478  0.5988  0.1732
 3270SOL    HW121446   0.859   0.993   4.087 -0.6592  2.6756 -1.5902
 3270SOL    HW221447   0.907   0.916   3.968  0.4424  0.2217  0.5098
 3271SOL     OW21448   3.615   0.006  17.701 -0.6272  0.7581  0.4308
 3271SOL    HW121449   3.634   0.071   0.025 -1.2216  0.1537  1.1834
 3271SOL    HW221450   3.628   4.661   0.008 -0.3116  0.2082 -0.5313
 3272SOL     OW21451   2.086   2.221   4.367  0.1812 -0.7167 -0.5353
 3272SOL    HW121452   2.155   2.262   4.419  0.2696 -2.1524  0.4847
 3272SOL    HW221453   2.129   2.142   4.332 -1.4306 -2.3694  1.2234
 3273SOL     OW21454   2.745   1.195   5.615 -0.4791 -0.0808 -0.3063
 3273SOL    HW121455   2.669   1.232   5.570  0.5409  0.0158 -1.9519
 3273SOL    HW221456   2.711   1.107   5.635  0.7719 -1.0291 -2.3523
 3274SOL     OW21457   4.099   1.720   1.185 -0.2431  0.0214  0.2822
 3274SOL    HW121458   4.173   1.688   1.134  0.0138  0.0957  0.6074
 3274SOL    HW221459   4.025   1.700   1.128  0.2041  2.4338 -1.1308
 3275SOL     OW21460   2.613   4.673   3.820  0.1364 -0.1043  0.3170
 3275SOL    HW121461   2.550   4.711   3.880  1.1920  0.3626  1.1248
 3275SOL    HW221462   2.648   4.612   3.885  2.7770  0.9000 -0.1731
 3276SOL     OW21463   1.731   0.418  16.314 -0.2626 -0.3325  0.2196
 3276SOL    HW121464   1.687   0.338  16.286 -0.3913 -0.7865  1.7319
 3276SOL    HW221465   1.658   0.470  16.348  1.0980  1.8994 -0.2396
 3277SOL     OW21466   0.033   4.222   5.067  0.0141 -0.3549  0.0968
 3277SOL    HW121467   0.119   4.257   5.044 -1.2392  2.7138  0.0765
 3277SOL    HW221468   4.721   4.243   4.987  1.3160  2.2473 -0.0059
 3278SOL     OW21469   0.689   2.966   6.040 -0.1257  0.0957 -0.2797
 3278SOL    HW121470   0.607   2.951   5.994  1.5154  0.0901 -3.1957
 3278SOL    HW221471   0.720   2.882   6.076 -0.4889 -0.5963 -1.5928
 3279SOL     OW21472   1.154   4.603   9.651  0.0601 -0.1313 -0.1201
 3279SOL    HW121473   1.167   4.677   9.710  2.9128 -1.7340  1.2037
 3279SOL    HW221474   1.219   4.537   9.671 -0.6844 -0.6496  0.5989
 3280SOL     OW21475   3.576   4.603  14.124 -0.0950  0.2615  0.0195
 3280SOL    HW121476   3.583   4.508  14.111  0.0603  0.0560  1.5611
 3280SOL    HW221477   3.663   4.623  14.159  0.9611 -2.7555 -0.8461
 3281SOL     OW21478   1.425   2.731  10.547  0.0878  0.0012  0.1074
 3281SOL    HW121479   1.406   2.670  10.618 -0.7231  0.1563  0.0246
 3281SOL    HW221480   1.520   2.728  10.560 -0.1708 -0.8403  1.7439
 3282SOL     OW21481   3.348   1.559   4.435 -0.1660  0.1131 -0.0199
 3282SOL    HW121482   3.280   1.624   4.453  0.9485  1.0831  0.6942
 3282SOL    HW221483   3.375   1.580   4.345 -1.1960  3.6016  0.4943
 3283SOL     OW21484   1.280   0.701   8.685  0.5181 -0.1604 -0.2087
 3283SOL    HW121485   1.217   0.643   8.726 -0.9330  0.4322 -1.5683
 3283SOL    HW221486   1.223   0.738   8.617  0.2434  0.8918  0.5835
 3284SOL     OW21487   1.746   4.171   4.990  0.0215  0.0393 -0.2227
 3284SOL    HW121488   1.676   4.202   5.048  0.9533  1.7940 -0.0545
 3284SOL    HW221489   1.696   4.134   4.917  0.4391  1.2360 -1.1151
 3285SOL     OW21490   0.055   1.413   4.793 -0.3579  0.4843 -0.1252
 3285SOL    HW121491   0.105   1.410   4.711 -0.5165 -1.1785 -0.1575
 3285SOL    HW221492   0.116   1.359   4.842 -0.2387  1.3045  0.6461
 3286SOL     OW21493   0.406   1.610   7.158  0.6894  0.0837 -0.5841
 3286SOL    HW121494   0.385   1.524   7.123  1.3368 -0.3404  0.0810
 3286SOL    HW221495   0.423   1.584   7.249  0.7768  1.0353 -0.3309
 3287SOL     OW21496   0.184   0.902   0.591  0.2044 -0.0537 -0.4661
 3287SOL    HW121497   0.155   0.967   0.655  1.0975 -0.8824  0.7747
 3287SOL    HW221498   0.110   0.845   0.568 -0.9664  0.9048  0.9461
 3288SOL     OW21499   2.243   3.435   3.055 -0.3348  0.1123  0.8269
 3288SOL    HW121500   2.299   3.488   3.112  0.4984  1.0679 -0.8650
 3288SOL    HW221501   2.317   3.392   3.011  0.4040  0.8500  1.3380
 3289SOL     OW21502   1.234   2.634   1.389 -0.2240  0.6661  0.5374
 3289SOL    HW121503   1.275   2.676   1.314 -1.8104 -0.7989 -1.1710
 3289SOL    HW221504   1.309   2.580   1.413  3.0654  4.7563 -0.6750
 3290SOL     OW21505   3.572   2.106   6.684  0.6739  0.1810  0.3842
 3290SOL    HW121506   3.587   2.141   6.596  1.1302 -1.7440 -0.3065
 3290SOL    HW221507   3.482   2.075   6.676  1.2806 -2.0042  2.2373
 3291SOL     OW21508   3.937   1.419   0.040 -0.1822  0.3283  0.1567
 3291SOL    HW121509   3.855   1.370   0.044 -0.8655  1.3896 -1.1775
 3291SOL    HW221510   3.977   1.406   0.127 -0.9760  2.6649  0.8669
 3292SOL     OW21511   3.782   3.826   1.666  0.3162  0.6372 -0.0861
 3292SOL    HW121512   3.875   3.833   1.688  0.3472 -0.4433  0.1240
 3292SOL    HW221513   3.786   3.840   1.571 -1.4827 -0.8541 -0.3757
 3293SOL     OW21514   4.388   3.265   5.112  0.3592 -0.1735  0.0364
 3293SOL    HW121515   4.295   3.260   5.131  0.1226  0.6238 -0.8721
 3293SOL    HW221516   4.418   3.191   5.165 -2.4560 -0.9629  0.4975
 3294SOL     OW21517   3.876   3.763   5.809  0.1327 -0.0526 -0.9131
 3294SOL    HW121518   3.838   3.729   5.890  2.7614 -1.0899 -0.1125
 3294SOL    HW221519   3.830   3.846   5.799 -0.3680 -0.0442  1.4985
 3295SOL     OW21520   3.693   1.726  15.218  0.4721  0.2141 -0.3451
 3295SOL    HW121521   3.673   1.701  15.308 -0.3750  0.9010 -0.3378
 3295SOL    HW221522   3.772   1.777  15.235  0.2799  0.1154  0.8446
 3296SOL     OW21523   4.194   0.167   1.898 -0.3411 -0.0919 -0.6965
 3296SOL    HW121524   4.107   0.165   1.858 -0.9641 -0.2046  0.6646
 3296SOL    HW221525   4.232   0.095   1.848 -2.4764 -0.8603 -1.2222
 3297SOL     OW21526   4.062   2.889   8.348  0.2448  0.1104  0.4073
 3297SOL    HW121527   4.029   2.978   8.355 -1.7621 -0.6444  0.7099
 3297SOL    HW221528   3.992   2.861   8.290  0.9105 -1.2258  0.2522
 3298SOL     OW21529   0.534   1.158  13.734  0.0985  0.3493  0.0237
 3298SOL    HW121530   0.486   1.237  13.756  2.4856  1.9972 -0.6660
 3298SOL    HW221531   0.479   1.104  13.678 -1.0467  2.3652 -0.7955
 3299SOL     OW21532   2.411   3.915  16.637  0.3468 -0.1516  0.3992
 3299SOL    HW121533   2.328   3.868  16.651  0.4675 -1.2915 -2.7054
 3299SOL    HW221534   2.450   3.882  16.718  0.1620 -0.4288  0.3778
 3300SOL     OW21535   4.427   4.250   6.462  0.4454 -0.5458 -0.2520
 3300SOL    HW121536   4.426   4.335   6.419 -0.0240 -0.8634 -0.8705
 3300SOL    HW221537   4.475   4.264   6.544  0.1520 -0.8128 -0.0320
 3301SOL     OW21538   3.300   1.467  11.121 -0.2652  0.0404 -0.2723
 3301SOL    HW121539   3.283   1.373  11.125 -0.2268  0.0590  0.3042
 3301SOL    HW221540   3.395   1.459  11.130 -0.3399  0.1362  0.6328
 3302SOL     OW21541   3.997   4.492   2.971 -0.7538 -0.3987 -0.0286
 3302SOL    HW121542   4.041   4.427   2.916  0.9618  0.3546  0.4321
 3302SOL    HW221543   4.046   4.459   3.046 -0.5771  0.0409  0.0495
 3303SOL     OW21544   1.939   4.210   5.950  0.5964  0.7931  0.2068
 3303SOL    HW121545   2.033   4.211   5.966  0.8501 -1.3464 -1.2070
 3303SOL    HW221546   1.931   4.116   5.963 -0.5372  0.6405 -1.4988
 3304SOL     OW21547   3.530   1.438  17.512  0.0011  0.2403  0.1733
 3304SOL    HW121548   3.585   1.499  17.563  0.8167 -0.6702  0.3799
 3304SOL    HW221549   3.503   1.495  17.440 -1.3499 -0.5511  0.0558
 3305SOL     OW21550   4.296   3.609   2.604  0.5714  0.2081 -0.0039
 3305SOL    HW121551   4.257   3.539   2.657  5.1729 -0.7596  2.0742
 3305SOL    HW221552   4.247   3.584   2.526  1.5928 -3.6849  0.6322
 3306SOL     OW21553   4.514   2.358  17.579 -0.1522  0.3080  0.3221
 3306SOL    HW121554   4.548   2.281  17.534  0.6281  2.3624 -2.6170
 3306SOL    HW221555   4.596   2.407  17.589 -0.3928  1.1322 -1.6117
 3307SOL     OW21556   1.973   3.180  10.433  0.0047  0.3771  0.2576
 3307SOL    HW121557   1.924   3.176  10.351 -1.1709  0.6719  0.9370
 3307SOL    HW221558   2.060   3.200  10.398  0.7065  0.7211  2.1830
 3308SOL     OW21559   1.030   4.263   6.445  0.3221 -0.2270 -0.1799
 3308SOL    HW121560   0.944   4.297   6.421  0.2340 -0.7294 -0.5749
 3308SOL    HW221561   1.086   4.340   6.438 -1.0659  0.3932 -4.9043
 3309SOL     OW21562   2.323   1.952   2.701 -0.3886  0.0845  0.1355
 3309SOL    HW121563   2.232   1.981   2.691 -0.8608 -0.7031  2.1598
 3309SOL    HW221564   2.326   1.903   2.783 -1.0213  0.4386  0.3709
 3310SOL     OW21565   4.729   3.812   4.218  0.1307  0.2202  0.0353
 3310SOL    HW121566   4.720   3.907   4.221  0.0329  0.2678 -1.8465
 3310SOL    HW221567   0.033   3.796   4.304 -1.3941 -3.4566  0.0837
 3311SOL     OW21568   3.936   2.322   9.588 -0.3410  0.4216  0.0172
 3311SOL    HW121569   3.879   2.378   9.535 -1.1483 -2.9473 -2.7196
 3311SOL    HW221570   3.909   2.232   9.569  0.8648 -0.2427  1.4280
 3312SOL     OW21571   4.515   1.852  11.199 -0.2307  0.2732 -0.0292
 3312SOL    HW121572   4.489   1.940  11.226 -2.0762 -0.4386  0.5182
 3312SOL    HW221573   4.604   1.848  11.234  0.4305 -0.0120 -1.7467
 3313SOL     OW21574   4.322   0.131  17.393  0.0950 -1.0496 -0.0495
 3313SOL    HW121575   4.284   0.202  17.341  1.4615 -0.2557  0.0569
 3313SOL    HW221576   4.330   0.065  17.324 -2.4208  0.3367 -1.6626
 3314SOL     OW21577   1.948   4.272   1.861 -0.3198 -0.6570 -0.1485
 3314SOL    HW121578   1.954   4.180   1.836  1.8774 -0.8840  1.1927
 3314SOL    HW221579   2.022   4.309   1.811  1.0300  0.3096  2.5657
 3315SOL     OW21580   2.908   4.663   2.704 -0.1404 -0.0329  0.5311
 3315SOL    HW121581   2.912   4.717   2.625  1.9559 -1.3916 -0.3120
 3315SOL    HW221582   2.850   4.714   2.761 -0.7018  2.1166 -1.9812
 3316SOL     OW21583   2.566   2.412   2.276  0.0142 -0.1420 -0.2211
 3316SOL    HW121584   2.576   2.462   2.195  1.6045 -1.7289 -1.0080
 3316SOL    HW221585   2.638   2.454   2.323 -1.6731  2.9301 -0.4287
 3317SOL     OW21586   0.256   4.637   7.751  0.6699  0.6145  0.0619
 3317SOL    HW121587   0.278   4.585   7.828 -2.6194  0.4502  0.8581
 3317SOL    HW221588   0.336   4.642   7.698  0.4937 -0.6202 -0.3072
 3318SOL     OW21589   3.299   3.464  15.056  0.0646 -0.5128 -0.3061
 3318SOL    HW121590   3.262   3.407  14.989 -1.8278 -0.5163  0.7282
 3318SOL    HW221591   3.370   3.505  15.007 -1.7769  1.2126 -1.5152
 3319SOL     OW21592   0.810   2.017   4.813 -0.1929 -0.0278 -0.4164
 3319SOL    HW121593   0.850   2.104   4.812 -1.5980  0.6145 -1.1922
 3319SOL    HW221594   0.764   2.014   4.729 -1.8434 -0.0916  0.4955
 3320SOL     OW21595   1.983   3.848   7.321 -0.1422 -0.0317  0.2609
 3320SOL    HW121596   1.888   3.841   7.317 -0.2022  0.2774  1.2021
 3320SOL    HW221597   1.986   3.843   7.416  3.1067  0.1781  0.1837
 3321SOL     OW21598   3.518   0.803   4.756 -0.0298 -0.7278  0.2522
 3321SOL    HW121599   3.608   0.787   4.786  0.5358  2.2682  0.1576
 3321SOL    HW221600   3.469   0.738   4.806 -2.6616  0.6188 -0.5698
 3322SOL     OW21601   4.578   0.402   8.765 -0.1014 -0.2949  0.1009
 3322SOL    HW121602   4.633   0.475   8.738 -0.8713  0.2675  0.0349
 3322SOL    HW221603   4.549   0.432   8.851 -0.8790  1.8811 -0.9072
 3323SOL     OW21604   1.239   0.134   3.094 -0.1097  0.0294 -0.4635
 3323SOL    HW121605   1.168   0.194   3.071  0.7365  1.2204  0.0335
 3323SOL    HW221606   1.262   0.099   3.008  2.1973  0.3705  0.0254
 3324SOL     OW21607   4.535   1.120   3.521  0.2415 -0.0896  0.3451
 3324SOL    HW121608   4.626   1.099   3.501  0.9817  0.9418  2.6491
 3324SOL    HW221609   4.541   1.215   3.521 -1.5289  0.0267 -1.8934
 3325SOL     OW21610   4.612   2.058  12.955  0.2197  0.3949 -0.3964
 3325SOL    HW121611   4.678   2.120  12.925 -0.8900  1.0445 -1.5348
 3325SOL    HW221612   4.536   2.112  12.935  1.2731  1.0281 -2.6194
 3326SOL     OW21613   1.919   2.911   8.285 -0.0231  0.2548  0.6066
 3326SOL    HW121614   1.873   2.988   8.318  0.2320  0.7907 -0.2925
 3326SOL    HW221615   2.008   2.940   8.266  0.2322 -1.2818 -0.4690
 3327SOL     OW21616   1.179   1.798   6.164 -0.1495 -0.0623  0.6183
 3327SOL    HW121617   1.161   1.729   6.227  1.9408 -0.6910  0.5288
 3327SOL    HW221618   1.272   1.784   6.144  0.3456 -0.0391  2.8284
 3328SOL     OW21619   2.902   0.691   7.804 -0.2058 -0.2763  0.1445
 3328SOL    HW121620   2.972   0.627   7.809  0.8765  0.7592 -1.6543
 3328SOL    HW221621   2.905   0.715   7.711  0.3629 -1.3624 -0.1180
 3329SOL     OW21622   4.170   2.007  16.894 -0.0096  0.0525  0.4049
 3329SOL    HW121623   4.254   1.963  16.909  0.1122 -0.2597 -1.2211
 3329SOL    HW221624   4.119   1.943  16.846  0.0402  1.1845 -1.1527
 3330SOL     OW21625   1.063   4.076   4.124 -0.3910  0.2326  0.2820
 3330SOL    HW121626   0.973   4.047   4.133  0.0002 -0.2978  2.5563
 3330SOL    HW221627   1.098   4.050   4.209  0.2424 -0.7278 -0.2669
 3331SOL     OW21628   1.392   0.682  13.380 -0.1863 -0.1090 -0.5900
 3331SOL    HW121629   1.311   0.699  13.334  0.7538  0.7035 -1.9527
 3331SOL    HW221630   1.373   0.710  13.469  0.7460 -1.4266  0.0273
 3332SOL     OW21631   3.901   0.223  13.806 -0.1850 -0.0433 -0.0999
 3332SOL    HW121632   3.935   0.274  13.733 -1.9836  0.0348 -0.8843
 3332SOL    HW221633   3.918   0.134  13.776 -0.6852 -1.5083  3.9554
 3333SOL     OW21634   0.774   3.927   0.082 -0.3333 -0.0919  0.5344
 3333SOL    HW121635   0.732   3.975   0.011 -0.1509 -2.8113 -1.3783
 3333SOL    HW221636   0.799   3.854   0.025  0.2507  1.5723 -1.3412
 3334SOL     OW21637   3.923   0.526   7.370  0.1313  0.1484 -0.6238
 3334SOL    HW121638   3.959   0.572   7.294 -0.5835  1.2721 -0.2862
 3334SOL    HW221639   4.000   0.496   7.419  0.5315 -1.2851 -2.1277
 3335SOL     OW21640   0.387   3.480   5.699 -0.4899  0.0301 -0.1416
 3335SOL    HW121641   0.298   3.447   5.685  0.1797 -1.2060 -1.5563
 3335SOL    HW221642   0.409   3.505   5.609 -1.3216  1.5843  0.0856
 3336SOL     OW21643   4.100   2.239   6.005 -0.0760 -0.1743  0.1406
 3336SOL    HW121644   4.113   2.189   5.924 -3.0113 -2.1916  0.9228
 3336SOL    HW221645   4.166   2.202   6.063  0.3636  0.3398 -0.0352
 3337SOL     OW21646   3.690   1.256   4.375  0.2807 -0.0649 -0.0425
 3337SOL    HW121647   3.688   1.351   4.390 -1.4842 -0.4768  2.4378
 3337SOL    HW221648   3.785   1.241   4.374  0.3547  0.3672  0.5217
 3338SOL     OW21649   2.321   0.109   5.798  0.3269  0.7254  0.2213
 3338SOL    HW121650   2.254   0.136   5.860 -0.8889  0.0130 -0.7809
 3338SOL    HW221651   2.286   0.025   5.766  3.7044 -0.3581 -0.6593
 3339SOL     OW21652   2.560   4.728  11.401  0.1664 -0.2370 -0.4808
 3339SOL    HW121653   2.596   0.074  11.436  0.6638  0.2224 -2.0464
 3339SOL    HW221654   2.618   4.713  11.327  1.9051 -1.0175  1.0626
 3340SOL     OW21655   2.861   2.463  17.600 -0.4382 -0.6358 -0.4309
 3340SOL    HW121656   2.904   2.408  17.535  0.8625  2.3537 -2.0744
 3340SOL    HW221657   2.809   2.518  17.541 -0.5326 -2.0238 -1.6382
 3341SOL     OW21658   0.707   3.036   3.087  0.5659  0.3375  0.0137
 3341SOL    HW121659   0.707   3.035   2.992  0.6441  1.6737 -0.0032
 3341SOL    HW221660   0.646   3.109   3.087  0.0024 -0.1439  1.2421
 3342SOL     OW21661   2.630   4.421   7.742 -0.3535 -0.2484  0.6962
 3342SOL    HW121662   2.605   4.358   7.675  2.1340 -0.8227  0.3041
 3342SOL    HW221663   2.656   4.356   7.807 -2.0318 -1.8245 -0.2214
 3343SOL     OW21664   2.045   1.510   8.751 -0.4300  0.4870 -0.6163
 3343SOL    HW121665   2.081   1.460   8.824 -1.1811  1.0489  0.1347
 3343SOL    HW221666   2.117   1.558   8.711  1.7595 -1.4662  1.0194
 3344SOL     OW21667   4.281   0.270   5.935  0.2801 -0.7023  0.1240
 3344SOL    HW121668   4.200   0.235   5.898 -0.6204  3.1046 -1.5281
 3344SOL    HW221669   4.305   0.306   5.850 -1.8375 -0.5555 -0.4015
 3345SOL     OW21670   2.460   1.305   9.160 -0.2943 -0.0751  0.3030
 3345SOL    HW121671   2.449   1.331   9.069 -0.4152 -0.0315  0.3301
 3345SOL    HW221672   2.541   1.254   9.160 -1.1517 -1.4423 -0.8045
 3346SOL     OW21673   0.401   2.381  10.297 -0.3658  0.2766  0.0573
 3346SOL    HW121674   0.327   2.423  10.341 -0.4840 -0.6388  0.7339
 3346SOL    HW221675   0.359   2.347  10.218 -1.0188 -0.3644  0.6897
 3347SOL     OW21676   2.046   1.674   1.058  0.2386  0.2839 -0.0296
 3347SOL    HW121677   2.073   1.590   1.097 -1.2644 -0.4903 -0.6579
 3347SOL    HW221678   2.102   1.659   0.982 -0.1780  0.6166 -0.3985
 3348SOL     OW21679   2.394   2.410  13.373 -0.2042 -0.0344  0.0612
 3348SOL    HW121680   2.431   2.424  13.286  0.7602  0.1408  0.5010
 3348SOL    HW221681   2.314   2.461  13.362 -0.4745 -0.8667 -1.8214
 3349SOL     OW21682   3.458   0.783   5.275 -0.4681  0.3590 -0.2598
 3349SOL    HW121683   3.455   0.815   5.185  1.5696  2.1538  0.3264
 3349SOL    HW221684   3.370   0.745   5.285  0.5154 -1.3329  2.0175
 3350SOL     OW21685   2.001   4.340   3.214 -0.1413 -0.9499 -0.5523
 3350SOL    HW121686   1.997   4.368   3.122 -0.5730 -0.4904 -0.3970
 3350SOL    HW221687   1.956   4.256   3.203 -0.0654 -1.5838  4.1870
 3351SOL     OW21688   4.427   3.408   9.086  0.5650  0.5364 -0.0686
 3351SOL    HW121689   4.465   3.354   9.017  1.0971 -0.6462  1.1523
 3351SOL    HW221690   4.442   3.346   9.157 -0.8064  0.4122  0.1094
 3352SOL     OW21691   1.503   2.231   2.294  0.0356  0.1891  0.3448
 3352SOL    HW121692   1.477   2.168   2.227 -2.0073  2.5084 -1.0069
 3352SOL    HW221693   1.573   2.267   2.239  0.7526  0.4137  1.3866
 3353SOL     OW21694   1.365   1.179   7.109 -0.8346  0.4810 -0.0398
 3353SOL    HW121695   1.436   1.190   7.173 -0.3473 -1.0282 -0.3152
 3353SOL    HW221696   1.391   1.239   7.040 -1.5466 -0.0252 -0.7485
 3354SOL     OW21697   2.065   0.858   8.550  0.1896  0.1975 -0.0490
 3354SOL    HW121698   1.984   0.810   8.564  0.8716 -0.5790  1.2108
 3354SOL    HW221699   2.042   0.896   8.465 -0.0592 -1.1470 -0.5843
 3355SOL     OW21700   0.943   3.547  10.569 -0.0631  0.5713 -0.3218
 3355SOL    HW121701   1.013   3.595  10.523  1.5974 -2.6491 -1.1390
 3355SOL    HW221702   0.950   3.578  10.659 -2.4506  0.8091 -0.2239
 3356SOL     OW21703   1.761   4.355   9.127 -0.2641 -0.0544  0.5352
 3356SOL    HW121704   1.784   4.280   9.071 -0.2886  0.8290 -0.6676
 3356SOL    HW221705   1.693   4.314   9.180 -0.8331  0.0763 -0.0906
 3357SOL     OW21706   2.592   1.916   6.340 -0.1878  0.6279 -0.4088
 3357SOL    HW121707   2.504   1.952   6.349  0.3274  1.6703  0.4630
 3357SOL    HW221708   2.581   1.840   6.283  1.6591 -0.1079  0.2011
 3358SOL     OW21709   2.455   4.704   6.040 -0.2132 -0.3551 -0.0614
 3358SOL    HW121710   2.412   0.044   6.001 -2.2090  0.1388  3.0487
 3358SOL    HW221711   2.539   4.704   5.994 -1.1433  0.1975 -1.7693
 3359SOL     OW21712   0.122   0.189   4.672 -0.4798  0.0929 -0.0808
 3359SOL    HW121713   0.069   0.266   4.694  2.0115  2.3499 -1.9122
 3359SOL    HW221714   0.168   0.173   4.754 -2.7989 -3.9232  0.4054
 3360SOL     OW21715   0.655   0.022   4.092 -0.0056 -0.0906  0.6370
 3360SOL    HW121716   0.589   0.037   4.160 -1.7391  1.1839 -1.3305
 3360SOL    HW221717   0.672   0.116   4.079 -1.9052  0.2199  0.4170
 3361SOL     OW21718   2.752   4.481   9.309 -0.0767 -0.1124 -0.4241
 3361SOL    HW121719   2.731   4.473   9.216  2.5722  2.3392 -1.2189
 3361SOL    HW221720   2.776   4.390   9.329  1.0362  0.3620  0.3890
 3362SOL     OW21721   2.963   1.077   8.509 -0.3244  0.2721  0.0712
 3362SOL    HW121722   2.915   1.000   8.541 -0.9996 -0.4755 -2.7347
 3362SOL    HW221723   2.979   1.058   8.416 -1.6555  2.1842 -0.5620
 3363SOL     OW21724   4.404   2.376   8.155 -0.3268  0.7221 -0.4852
 3363SOL    HW121725   4.401   2.466   8.122 -2.4773  1.3452  1.4051
 3363SOL    HW221726   4.468   2.388   8.225  1.8811  0.2180 -2.4131
 3364SOL     OW21727   1.352   3.709   0.809  0.0020  0.0598  0.0467
 3364SOL    HW121728   1.418   3.717   0.877  1.6808 -2.5762 -1.2854
 3364SOL    HW221729   1.390   3.774   0.749  1.0407  0.6625  1.3671
 3365SOL     OW21730   3.664   0.207  15.689  0.3219 -0.0386 -0.4070
 3365SOL    HW121731   3.606   0.137  15.660  0.1000  0.4990 -1.2692
 3365SOL    HW221732   3.594   0.272  15.688  0.1169 -0.2559 -0.2464
 3366SOL     OW21733   0.407   2.017   1.531 -0.2317  0.3421 -0.0741
 3366SOL    HW121734   0.350   1.941   1.539 -0.8658  0.9189  0.8398
 3366SOL    HW221735   0.446   2.007   1.444 -3.4862 -0.9988 -1.3500
 3367SOL     OW21736   0.627   4.560   3.021 -0.0040  0.0769 -0.0456
 3367SOL    HW121737   0.644   4.654   3.035 -0.3334 -0.0385  1.0918
 3367SOL    HW221738   0.537   4.562   2.988  0.0343  1.8647 -0.0448
 3368SOL     OW21739   0.090   2.907   7.024 -0.1582 -0.1679 -0.4808
 3368SOL    HW121740   0.045   2.824   7.007  2.4653 -2.0972  2.1591
 3368SOL    HW221741   0.061   2.960   6.950  0.7617  0.0150 -0.7104
 3369SOL     OW21742   4.016   2.041   8.600 -0.5579  0.6217 -0.3763
 3369SOL    HW121743   4.058   1.969   8.648 -2.1956  0.8030  1.3210
 3369SOL    HW221744   4.066   2.032   8.519 -1.2187 -0.4779 -0.6650
 3370SOL     OW21745   2.410   2.124   9.482 -0.1028 -0.1525  0.2994
 3370SOL    HW121746   2.486   2.181   9.492  0.1211 -0.3474 -0.2603
 3370SOL    HW221747   2.405   2.100   9.574 -1.3924 -2.1525 -0.2895
 3371SOL     OW21748   4.377   2.997   3.933 -0.0771  0.4031 -0.7286
 3371SOL    HW121749   4.339   2.935   3.871 -0.6236 -0.8342  0.8421
 3371SOL    HW221750   4.383   3.078   3.883  1.3520  1.1251  0.5982
 3372SOL     OW21751   3.758   2.557   5.618  0.4248 -0.0916  0.4686
 3372SOL    HW121752   3.739   2.537   5.709  1.1920  0.6828  0.8035
 3372SOL    HW221753   3.718   2.643   5.603 -0.5618 -0.4701  0.9673
 3373SOL     OW21754   3.543   3.400   3.075 -0.4125 -0.2114 -0.0713
 3373SOL    HW121755   3.560   3.345   2.998 -1.7824  0.6124 -0.9736
 3373SOL    HW221756   3.448   3.411   3.062 -0.7743 -4.6464 -1.3328
 3374SOL     OW21757   4.379   0.302   2.635 -0.0959  0.3371  0.4005
 3374SOL    HW121758   4.397   0.312   2.542  0.5279 -0.2653  0.4554
 3374SOL    HW221759   4.284   0.301   2.626 -0.0936 -2.6284  0.5494
 3375SOL     OW21760   4.280   1.664   2.828  0.0111 -0.2786 -0.1124
 3375SOL    HW121761   4.227   1.742   2.810  0.6422 -0.2937 -2.0460
 3375SOL    HW221762   4.223   1.614   2.886 -0.6883  0.8315  0.1540
 3376SOL     OW21763   3.953   0.017   7.968  0.0859 -0.0921  0.2332
 3376SOL    HW121764   3.976   0.018   7.875  2.1614  3.6726  0.8017
 3376SOL    HW221765   4.047   0.017   7.987  0.4868 -0.8657 -1.6842
 3377SOL     OW21766   0.004   3.147   6.339  0.0234  0.7740  0.5050
 3377SOL    HW121767   4.694   3.229   6.358 -0.5800  0.5987 -0.2145
 3377SOL    HW221768   0.063   3.175   6.270 -0.7472 -0.2978 -0.5711
 3378SOL     OW21769   2.267   1.750   7.355 -0.0104 -0.0225  0.1600
 3378SOL    HW121770   2.284   1.736   7.448 -1.0042 -1.9637  0.0325
 3378SOL    HW221771   2.330   1.687   7.320 -1.1700 -0.0336 -1.9195
 3379SOL     OW21772   1.364   1.396   7.921 -0.1652 -0.4646 -0.4924
 3379SOL    HW121773   1.452   1.364   7.946 -0.2652 -0.7905 -0.5504
 3379SOL    HW221774   1.330   1.377   8.009 -0.3291 -2.5084 -0.9773
 3380SOL     OW21775   2.803   1.591   6.168 -0.3116 -0.5810  0.0702
 3380SOL    HW121776   2.897   1.577   6.179  0.0738  1.8546 -0.0693
 3380SOL    HW221777   2.798   1.572   6.074 -1.2127  0.1741 -0.0311
 3381SOL     OW21778   0.995   0.178   3.973  0.2913 -0.0423 -0.4056
 3381SOL    HW121779   0.899   0.179   3.977  0.3349  0.4177  0.5705
 3381SOL    HW221780   1.005   0.180   3.878 -2.5070  0.2175 -0.6792
 3382SOL     OW21781   1.412   4.542  17.368  0.2504  0.0372  0.5604
 3382SOL    HW121782   1.400   4.560  17.461 -1.2443 -0.4975  0.4644
 3382SOL    HW221783   1.500   4.504  17.370 -0.5807 -2.0038 -1.4495
 3383SOL     OW21784   0.350   1.862   2.385  0.0372  0.2097 -0.5712
 3383SOL    HW121785   0.371   1.796   2.451 -1.4330 -0.7644 -1.0522
 3383SOL    HW221786   0.429   1.861   2.332  0.7691 -0.4913  0.5256
 3384SOL     OW21787   1.719   1.427   7.177 -0.0468 -0.5870 -1.1197
 3384SOL    HW121788   1.755   1.422   7.089  0.0841  0.0253 -1.0943
 3384SOL    HW221789   1.785   1.483   7.216  0.0251  1.2211 -3.9163
 3385SOL     OW21790   2.273   1.046   4.315  0.2039 -0.2069  0.0888
 3385SOL    HW121791   2.238   0.973   4.264 -0.7893 -0.1439  0.6859
 3385SOL    HW221792   2.255   1.124   4.263  0.7732  0.4657  0.9096
 3386SOL     OW21793   0.194   2.654   6.025 -0.9663 -0.6250 -0.3341
 3386SOL    HW121794   0.139   2.702   5.963 -2.6207  0.2128  1.8070
 3386SOL    HW221795   0.245   2.612   5.955  1.4633 -0.0251  1.0786
 3387SOL     OW21796   2.649   0.656   5.952  0.2045 -0.0506 -0.0317
 3387SOL    HW121797   2.575   0.645   6.012 -0.1749  1.7806 -0.1441
 3387SOL    HW221798   2.705   0.582   5.973  0.3771 -0.0930 -0.6510
 3388SOL     OW21799   0.665   0.280  15.186  0.1119 -0.0008 -0.2775
 3388SOL    HW121800   0.695   0.339  15.256  0.5711  0.3086 -0.7376
 3388SOL    HW221801   0.593   0.235  15.230  1.6712 -1.6848  0.5529
 3389SOL     OW21802   4.007   0.494   2.438  0.6425 -0.2670 -0.2750
 3389SOL    HW121803   4.098   0.516   2.422 -0.0922  0.9643 -2.7870
 3389SOL    HW221804   3.973   0.565   2.383 -0.7447 -1.6813 -1.2418
 3390SOL     OW21805   0.674   4.721  16.953 -0.5164  0.2689 -0.4276
 3390SOL    HW121806   0.709   0.073  16.941  0.1983  0.1251  0.5724
 3390SOL    HW221807   0.692   4.687  16.866  0.5481  0.8499 -0.4331
 3391SOL     OW21808   2.885   2.670  11.686 -0.2479 -0.1639 -0.4609
 3391SOL    HW121809   2.790   2.669  11.695 -0.0547  1.0306  1.6497
 3391SOL    HW221810   2.898   2.579  11.712  0.4845  0.3629  1.0259
 3392SOL     OW21811   4.501   2.522   8.755  0.1667  0.0522 -0.2429
 3392SOL    HW121812   4.507   2.611   8.790 -3.1104 -0.0825  0.6745
 3392SOL    HW221813   4.593   2.498   8.741  0.1140 -0.6252  0.6008
 3393SOL     OW21814   3.321   0.706  17.685  0.3864 -0.7582 -0.6292
 3393SOL    HW121815   3.380   0.646  17.731  0.5669 -0.4709 -0.4872
 3393SOL    HW221816   3.236   0.674  17.715 -0.6890 -0.2722 -3.0945
 3394SOL     OW21817   1.647   1.481   9.010  0.3652  0.1848  0.5239
 3394SOL    HW121818   1.586   1.487   9.084  1.0196  0.6323  1.0239
 3394SOL    HW221819   1.726   1.525   9.041  0.8052 -0.7924  0.7944
 3395SOL     OW21820   2.940   0.161   9.753  0.3432  0.1944  0.1635
 3395SOL    HW121821   2.974   0.188   9.838  0.0827 -1.0114  0.6441
 3395SOL    HW221822   2.995   0.218   9.699  0.4369 -0.5010 -0.4663
 3396SOL     OW21823   3.595   1.439   5.659 -0.0662  0.4694 -0.0152
 3396SOL    HW121824   3.587   1.499   5.585 -1.5823  0.3009  0.0062
 3396SOL    HW221825   3.593   1.507   5.727 -0.5038  0.8554 -0.4141
 3397SOL     OW21826   2.364   1.404  14.841 -0.1592 -0.2980 -0.1299
 3397SOL    HW121827   2.448   1.364  14.863 -0.0422 -0.5726 -1.0624
 3397SOL    HW221828   2.391   1.452  14.762  0.0631 -0.8149 -0.3657
 3398SOL     OW21829   0.318   0.594   5.769  0.8462  0.4275 -0.2185
 3398SOL    HW121830   0.411   0.618   5.772  0.8721  0.2461  0.4064
 3398SOL    HW221831   0.293   0.595   5.862  0.5941 -1.2770 -0.2599
 3399SOL     OW21832   1.224   3.288  11.096 -0.0707 -0.3511 -0.4916
 3399SOL    HW121833   1.172   3.365  11.074 -0.1430  0.3450  2.1090
 3399SOL    HW221834   1.151   3.235  11.127  0.1238  0.9097  2.1141
 3400SOL     OW21835   3.609   2.377  12.675  0.2080 -0.1848  0.6376
 3400SOL    HW121836   3.528   2.352  12.630 -0.2175  2.4027 -0.0820
 3400SOL    HW221837   3.572   2.404  12.759 -0.3375  0.2046  0.2735
 3401SOL     OW21838   4.601   2.373   3.746  0.5991  0.4311 -0.0604
 3401SOL    HW121839   4.647   2.296   3.779 -0.2572  0.6778  1.7691
 3401SOL    HW221840   4.510   2.343   3.756  1.0500 -1.6560 -2.2003
 3402SOL     OW21841   2.654   2.490   9.282 -0.7115  0.3602  0.2706
 3402SOL    HW121842   2.593   2.518   9.350 -0.0141  0.6580  0.7803
 3402SOL    HW221843   2.716   2.472   9.353  2.2938  0.0570 -2.4599
 3403SOL     OW21844   4.456   3.812  12.978 -0.0877 -0.1769  0.0110
 3403SOL    HW121845   4.434   3.887  12.923 -2.3856 -1.3688 -0.6753
 3403SOL    HW221846   4.442   3.730  12.931  0.3901 -0.4720  0.3821
 3404SOL     OW21847   4.454   4.132   4.489  0.0200 -0.4728 -0.1590
 3404SOL    HW121848   4.469   4.098   4.401 -0.6175  1.9311 -1.1764
 3404SOL    HW221849   4.388   4.071   4.523  0.1027 -0.3597  0.2058
 3405SOL     OW21850   3.000   0.164   6.622  0.6113  0.2310  0.1938
 3405SOL    HW121851   3.009   0.090   6.563  0.2815  0.1732  0.2161
 3405SOL    HW221852   2.952   0.223   6.563  2.1936  0.4035 -0.9092
 3406SOL     OW21853   1.913   2.144   8.982 -0.0083  0.0736 -0.1936
 3406SOL    HW121854   1.830   2.123   9.026 -0.9490  0.5307 -1.7342
 3406SOL    HW221855   1.974   2.097   9.039 -0.7862 -0.0040  0.5943
 3407SOL     OW21856   4.448   2.477   7.671  0.3955 -0.1515  0.0748
 3407SOL    HW121857   4.532   2.466   7.717 -0.2705  0.1606  1.3614
 3407SOL    HW221858   4.389   2.424   7.725 -0.2844  0.7228  0.1904
 3408SOL     OW21859   2.879   2.847   3.035 -0.1652 -0.1313  0.1096
 3408SOL    HW121860   2.883   2.849   2.939 -1.6972  1.4657  0.0653
 3408SOL    HW221861   2.968   2.822   3.061 -0.3890 -0.7295  0.2927
 3409SOL     OW21862   1.322   2.182  11.100  0.0984  0.4793 -0.6897
 3409SOL    HW121863   1.344   2.267  11.137  0.1747 -0.2301  0.9225
 3409SOL    HW221864   1.226   2.183  11.102  0.0394 -4.1546 -0.1722
 3410SOL     OW21865   4.373   0.261   2.317  0.4084 -0.0106  0.0117
 3410SOL    HW121866   4.446   0.256   2.255  0.4348  3.4263 -0.2244
 3410SOL    HW221867   4.301   0.287   2.260  0.3142 -1.7949 -0.6928
 3411SOL     OW21868   1.205   0.137  12.158  0.0119  0.2164 -0.5632
 3411SOL    HW121869   1.155   0.155  12.237  1.8170  0.0048  0.6191
 3411SOL    HW221870   1.139   0.074  12.126 -0.4876  0.4807 -0.0571
 3412SOL     OW21871   3.713   3.968  17.352  0.3311 -0.0667 -0.2451
 3412SOL    HW121872   3.767   4.046  17.356  1.2780 -0.7034 -0.6280
 3412SOL    HW221873   3.643   3.995  17.292  0.5755 -2.0468 -1.4169
 3413SOL     OW21874   4.584   4.132  10.950 -0.2581  0.3194 -0.6132
 3413SOL    HW121875   4.566   4.224  10.969  0.1482  0.7084 -2.1040
 3413SOL    HW221876   4.506   4.099  10.996 -0.5503  2.9645  0.7899
 3414SOL     OW21877   3.991   3.849   5.472 -0.1724  0.0834  0.1844
 3414SOL    HW121878   4.015   3.862   5.564 -1.0825 -2.2257  0.7473
 3414SOL    HW221879   4.030   3.929   5.435 -1.8247  0.8924  0.1952
 3415SOL     OW21880   0.158   4.167  10.915 -0.0501  0.1523  0.3089
 3415SOL    HW121881   0.124   4.248  10.879  0.9020 -0.3640 -1.7200
 3415SOL    HW221882   0.150   4.187  11.009 -0.5473  1.3045  0.0181
 3416SOL     OW21883   3.590   0.154   7.616 -0.4592 -0.9184  0.2320
 3416SOL    HW121884   3.513   0.195   7.576 -0.1107  0.1815  0.6856
 3416SOL    HW221885   3.656   0.223   7.619 -0.8919 -0.4252 -1.9003
 3417SOL     OW21886   3.242   3.039   8.775  0.3983 -0.6479 -0.2435
 3417SOL    HW121887   3.189   3.118   8.771  0.7414 -0.3828  0.4786
 3417SOL    HW221888   3.238   3.022   8.869 -0.4734 -1.0910 -0.3600
 3418SOL     OW21889   0.341   4.560   7.200 -0.0867  0.0760  0.1449
 3418SOL    HW121890   0.326   4.616   7.124  1.9675  3.5140  2.2538
 3418SOL    HW221891   0.281   4.597   7.266 -1.3342  0.1412 -1.0272
 3419SOL     OW21892   4.171   3.845  16.395  0.1647  0.3400 -0.5881
 3419SOL    HW121893   4.189   3.821  16.486 -1.2202 -0.9241 -0.6529
 3419SOL    HW221894   4.118   3.772  16.363  1.5295 -1.6543  1.6896
 3420SOL     OW21895   2.198   3.358   4.236 -0.2877  0.5700 -0.1559
 3420SOL    HW121896   2.267   3.406   4.191  0.8162  1.0130  2.0295
 3420SOL    HW221897   2.235   3.352   4.324  1.8571  2.2444 -0.9392
 3421SOL     OW21898   2.933   2.741   5.662  0.5150 -0.0319  0.4032
 3421SOL    HW121899   2.920   2.690   5.742 -2.1857  0.1018  0.0471
 3421SOL    HW221900   3.017   2.786   5.671 -0.3883  1.9102 -0.6198
 3422SOL     OW21901   3.437   0.122   4.377  0.0550 -0.4706 -0.1928
 3422SOL    HW121902   3.480   0.104   4.461 -1.4152  0.5328  0.7724
 3422SOL    HW221903   3.361   0.064   4.388 -0.5074  0.4163  0.6181
 3423SOL     OW21904   0.849   0.604   0.131  0.4102 -0.5118 -0.1272
 3423SOL    HW121905   0.777   0.601   0.194 -0.2248  1.7591 -0.7540
 3423SOL    HW221906   0.872   0.515   0.157  1.0031  0.0552  1.2625
 3424SOL     OW21907   2.453   2.657   5.945 -0.2189  0.0897  0.7334
 3424SOL    HW121908   2.439   2.746   5.913 -0.3649  0.3582  1.5547
 3424SOL    HW221909   2.364   2.629   5.964  0.2231 -2.5327 -1.0111
 3425SOL     OW21910   0.166   1.659   5.921  0.1790  0.5432 -0.5278
 3425SOL    HW121911   0.257   1.686   5.927 -0.4006  2.2002  0.7116
 3425SOL    HW221912   0.178   1.572   5.882 -0.0027 -0.6009  1.9692
 3426SOL     OW21913   3.262   2.821  15.780  0.0120 -0.0384 -0.0146
 3426SOL    HW121914   3.235   2.829  15.871 -2.2297  1.4768 -0.8182
 3426SOL    HW221915   3.185   2.859  15.737 -0.7879 -0.8577  0.7090
 3427SOL     OW21916   3.990   1.773   7.549  0.0981  0.8099 -0.5854
 3427SOL    HW121917   3.937   1.839   7.594  0.9073  0.9110  0.2097
 3427SOL    HW221918   4.068   1.828   7.536  1.1221 -0.2842  1.0862
 3428SOL     OW21919   1.264   4.291  17.536 -0.2516 -0.2396 -0.1030
 3428SOL    HW121920   1.318   4.362  17.501  0.5324 -0.8685 -0.1601
 3428SOL    HW221921   1.297   4.298  17.626 -0.7620  0.6636  0.0259
 3429SOL     OW21922   3.526   0.819   3.629 -0.2062 -0.0357 -0.0180
 3429SOL    HW121923   3.573   0.746   3.670 -1.3845  0.2358  1.8111
 3429SOL    HW221924   3.458   0.829   3.695 -0.6280  2.7168 -0.8865
 3430SOL     OW21925   1.892   0.681   6.875  0.4859  0.5982 -0.4651
 3430SOL    HW121926   1.834   0.710   6.806 -2.0182 -0.5571  1.1481
 3430SOL    HW221927   1.971   0.731   6.854  0.7726 -0.2067 -1.2914
 3431SOL     OW21928   3.225   1.547   3.499  0.3592 -0.3824 -0.2213
 3431SOL    HW121929   3.276   1.624   3.526 -1.0744  0.9659 -1.4058
 3431SOL    HW221930   3.168   1.590   3.435 -0.9060 -0.0984  1.0869
 3432SOL     OW21931   4.532   0.800   1.675 -0.3106 -0.4280  0.2029
 3432SOL    HW121932   4.504   0.870   1.734 -1.7683 -1.8510  1.1885
 3432SOL    HW221933   4.447   0.757   1.678  0.1999 -1.4744 -0.0523
 3433SOL     OW21934   0.394   0.466   8.550  0.1010 -0.1617  0.0057
 3433SOL    HW121935   0.430   0.479   8.462  0.5051  0.1944  0.2218
 3433SOL    HW221936   0.471   0.485   8.603 -0.6529 -1.2347  1.5042
 3434SOL     OW21937   0.437   4.240   6.782 -0.4447 -0.0266 -0.1795
 3434SOL    HW121938   0.460   4.324   6.744 -1.3270  0.5714  0.5953
 3434SOL    HW221939   0.377   4.261   6.853 -0.5166  0.6979 -0.4590
 3435SOL     OW21940   0.984   0.908   7.068  0.0772 -0.0429  0.4667
 3435SOL    HW121941   0.993   0.978   7.133  1.6686  1.8474 -1.7846
 3435SOL    HW221942   1.024   0.841   7.124  1.5892  0.2571 -0.2679
 3436SOL     OW21943   3.769   2.685  13.381 -0.0502 -0.3269  0.0384
 3436SOL    HW121944   3.804   2.715  13.465 -0.4366  0.5705 -0.1232
 3436SOL    HW221945   3.743   2.594  13.399 -2.2378 -0.0163 -1.5595
 3437SOL     OW21946   1.098   4.414   5.186  0.6124  0.3511  0.0057
 3437SOL    HW121947   1.095   4.449   5.097 -0.1744 -2.0334 -0.9057
 3437SOL    HW221948   1.129   4.479   5.249  0.4807 -0.5798  1.0347
 3438SOL     OW21949   3.931   0.106   1.794  0.3176  0.0390 -0.0802
 3438SOL    HW121950   3.918   0.078   1.704 -3.4891  0.7321  0.2603
 3438SOL    HW221951   3.923   0.020   1.836  0.5739  0.1266  0.1494
 3439SOL     OW21952   2.773   0.995   6.089 -0.4210 -0.1171  0.5553
 3439SOL    HW121953   2.865   0.979   6.072 -1.1055 -1.8439 -1.3962
 3439SOL    HW221954   2.756   0.936   6.162 -0.7455 -1.2713 -0.4618
 3440SOL     OW21955   2.950   0.435  14.034  0.3579  0.4344 -0.3861
 3440SOL    HW121956   3.037   0.422  14.070  0.1168  0.2135  0.1258
 3440SOL    HW221957   2.943   0.371  13.963  2.3596 -2.3050  1.8959
 3441SOL     OW21958   1.270   4.314   3.445  0.1476 -0.2321 -0.2381
 3441SOL    HW121959   1.212   4.345   3.514 -0.8651  0.5240 -1.4088
 3441SOL    HW221960   1.208   4.267   3.389 -0.0624  1.6916 -1.6391
 3442SOL     OW21961   0.582   3.871   6.225  0.5110  0.4369 -0.3798
 3442SOL    HW121962   0.521   3.814   6.272  0.6954  1.1171  0.6890
 3442SOL    HW221963   0.520   3.936   6.193 -0.2098  0.1463  0.4018
 3443SOL     OW21964   3.495   0.426  15.686 -0.1148  0.4888  0.0293
 3443SOL    HW121965   3.546   0.473  15.620 -1.7106  0.0554 -1.5048
 3443SOL    HW221966   3.513   0.485  15.760  1.1763  0.7951 -0.5480
 3444SOL     OW21967   4.629   3.414   2.125  0.3703 -0.3325 -0.3957
 3444SOL    HW121968   4.641   3.356   2.050  0.2706 -2.2935  1.1144
 3444SOL    HW221969   4.573   3.362   2.181 -1.0259  0.5332 -0.9970
 3445SOL     OW21970   1.729   4.441  16.852  0.2704  0.0834  0.6652
 3445SOL    HW121971   1.728   4.466  16.760  1.8243 -2.4115 -0.0403
 3445SOL    HW221972   1.783   4.510  16.891  0.9387 -0.8876  1.4503
 3446SOL     OW21973   1.577   0.221   7.224  0.0257  0.0092 -0.2708
 3446SOL    HW121974   1.518   0.292   7.200 -0.0512  0.2543  0.6419
 3446SOL    HW221975   1.632   0.220   7.146 -0.7284  0.7958 -0.7983
 3447SOL     OW21976   0.381   2.588  15.644 -0.1699 -0.1176  0.1978
 3447SOL    HW121977   0.385   2.596  15.740 -1.4755  2.6255  0.0445
 3447SOL    HW221978   0.343   2.500  15.638 -0.0113 -0.1207 -0.7408
 3448SOL     OW21979   2.493   4.237   2.665  0.0198  0.1303  0.3203
 3448SOL    HW121980   2.582   4.203   2.672  0.9665  2.3598 -0.7940
 3448SOL    HW221981   2.471   4.239   2.571  0.6651 -1.4077  0.1451
 3449SOL     OW21982   1.535   1.493  10.829  0.8334 -0.5744 -0.0223
 3449SOL    HW121983   1.514   1.401  10.848 -3.3713  0.2677 -0.6711
 3449SOL    HW221984   1.528   1.509  10.735 -1.4636 -0.6815  0.1303
 3450SOL     OW21985   1.761   0.519   2.141  0.1056 -0.0284  0.3621
 3450SOL    HW121986   1.801   0.437   2.112  0.1505 -0.1564  0.7971
 3450SOL    HW221987   1.777   0.512   2.235 -0.9387 -0.1134  0.5405
 3451SOL     OW21988   2.383   2.813   8.191  0.6298  0.1704 -0.1463
 3451SOL    HW121989   2.416   2.885   8.138 -1.7614  1.6378  0.3442
 3451SOL    HW221990   2.365   2.763   8.111 -0.1091  2.2409 -1.2620
 3452SOL     OW21991   3.821   3.726   9.075  0.1479 -0.1580  0.0580
 3452SOL    HW121992   3.769   3.647   9.089 -1.0500  0.5479 -0.3817
 3452SOL    HW221993   3.766   3.767   9.007 -2.2575  0.6740  2.4965
 3453SOL     OW21994   1.918   3.022  16.769 -0.2673  0.4774 -0.0829
 3453SOL    HW121995   1.886   2.953  16.827  2.4624 -3.2491 -3.0464
 3453SOL    HW221996   1.913   2.977  16.685  0.2209 -0.6593  0.5161
 3454SOL     OW21997   4.006   0.853   0.845  0.2244  0.3817  0.1290
 3454SOL    HW121998   3.982   0.932   0.893  0.1767  0.3613  0.1382
 3454SOL    HW221999   4.000   0.888   0.756 -2.2931  1.8472  0.8747
 3455SOL     OW22000   2.943   0.326  14.485 -0.2843  0.2460  0.7637
 3455SOL    HW122001   2.894   0.251  14.518  1.4324 -0.4638  1.6841
 3455SOL    HW222002   3.021   0.288  14.446 -0.0665  1.1673  0.3022
 3456SOL     OW22003   2.615   3.206  16.012  0.2305  0.6100 -0.7116
 3456SOL    HW122004   2.677   3.165  15.952 -2.1479 -0.1672 -2.6660
 3456SOL    HW222005   2.555   3.248  15.950 -0.5600  1.0328  0.3336
 3457SOL     OW22006   0.785   2.994   6.555 -0.4123 -0.1067  0.0752
 3457SOL    HW122007   0.717   3.043   6.601 -0.5513  0.9470 -1.2592
 3457SOL    HW222008   0.845   3.064   6.529 -0.6609  0.3751  0.8055
 3458SOL     OW22009   0.398   3.425   5.168 -0.1087 -0.1005 -0.0215
 3458SOL    HW122010   0.437   3.367   5.104  0.6183 -0.5917  0.8824
 3458SOL    HW222011   0.465   3.493   5.165  0.2791 -0.4556  0.6073
 3459SOL     OW22012   2.434   0.795   7.397 -0.6469 -0.3009 -0.0663
 3459SOL    HW122013   2.483   0.714   7.393 -0.9672 -0.5763  1.5557
 3459SOL    HW222014   2.449   0.835   7.311 -1.9882 -2.2447 -1.2091
 3460SOL     OW22015   0.617   4.251  13.031 -0.4730 -0.4537  0.1414
 3460SOL    HW122016   0.648   4.276  13.118  0.8567  0.6554 -0.6487
 3460SOL    HW222017   0.565   4.325  12.999  1.2066  0.5298 -0.3119
 3461SOL     OW22018   1.052   0.187  11.862 -0.0635 -0.3368  0.6650
 3461SOL    HW122019   0.973   0.218  11.907 -0.1341 -0.8059  0.8648
 3461SOL    HW222020   1.118   0.203  11.929 -0.9050  1.2060  1.1229
 3462SOL     OW22021   1.182   4.546   6.713  0.3991 -0.2707  0.1363
 3462SOL    HW122022   1.270   4.570   6.742  0.6794 -0.6036 -0.4299
 3462SOL    HW222023   1.143   4.523   6.797 -1.1062  1.0986 -0.1954
 3463SOL     OW22024   2.712   4.478   1.762 -0.3096 -0.7831  0.1235
 3463SOL    HW122025   2.782   4.436   1.713 -1.6695 -1.0436 -1.6135
 3463SOL    HW222026   2.760   4.508   1.839  3.1555 -1.4815 -1.7830
 3464SOL     OW22027   2.819   4.208   8.847  0.4866  0.1487  0.1612
 3464SOL    HW122028   2.900   4.201   8.897  1.5295 -3.9071 -2.1277
 3464SOL    HW222029   2.759   4.156   8.901  1.3988 -0.7027  0.3582
 3465SOL     OW22030   1.601   2.995   0.646 -0.2876  0.3695 -0.0936
 3465SOL    HW122031   1.534   2.940   0.605 -0.5263  1.4831 -1.1927
 3465SOL    HW222032   1.579   2.982   0.738 -1.6482 -3.6502 -0.9682
 3466SOL     OW22033   2.645   3.044  12.422 -0.4560 -0.0221 -0.0627
 3466SOL    HW122034   2.692   3.042  12.338 -0.0282 -0.0839  0.1765
 3466SOL    HW222035   2.707   2.991  12.473  0.2082  0.1965 -0.6320
 3467SOL     OW22036   4.084   2.433   6.370  0.4193 -0.3569  0.2193
 3467SOL    HW122037   4.174   2.461   6.387  0.4547 -0.5373  0.3318
 3467SOL    HW222038   4.091   2.388   6.286  0.2146 -3.4567  1.8693
 3468SOL     OW22039   1.342   1.708   8.607 -0.4631 -0.3175 -0.1221
 3468SOL    HW122040   1.290   1.741   8.534 -1.1154 -2.7366 -0.7667
 3468SOL    HW222041   1.276   1.676   8.669 -1.2942  1.6238 -0.0132
 3469SOL     OW22042   0.189   2.521   4.352  0.2405  0.0681 -0.3667
 3469SOL    HW122043   0.226   2.454   4.295  1.7831  0.2275  0.4329
 3469SOL    HW222044   0.146   2.568   4.280 -0.4946  1.8326  1.2256
 3470SOL     OW22045   1.563   2.308   3.290 -0.1669 -0.3962  0.2265
 3470SOL    HW122046   1.631   2.288   3.225 -0.6922 -0.7547 -0.2133
 3470SOL    HW222047   1.551   2.224   3.334  0.2968 -1.0198 -0.8433
 3471SOL     OW22048   3.645   3.577   4.361 -0.8443 -0.1848 -0.3533
 3471SOL    HW122049   3.690   3.607   4.440 -1.1161  0.2934 -0.3782
 3471SOL    HW222050   3.586   3.516   4.405  1.8254 -1.9763  0.7270
 3472SOL     OW22051   1.148   3.927  13.149  0.1606 -0.1689 -0.1835
 3472SOL    HW122052   1.054   3.912  13.155 -0.2232  2.9243  2.1525
 3472SOL    HW222053   1.148   4.019  13.178  1.5030 -0.3038  0.2573
 3473SOL     OW22054   2.563   4.222   1.469 -0.2109 -0.3368 -0.3140
 3473SOL    HW122055   2.566   4.273   1.388  1.5360 -0.5716 -0.4068
 3473SOL    HW222056   2.479   4.177   1.461  0.3879 -1.1865 -1.8108
 3474SOL     OW22057   4.285   1.096   9.086 -0.0827 -0.5265 -0.1217
 3474SOL    HW122058   4.228   1.125   9.158  0.7134 -0.1064  0.3359
 3474SOL    HW222059   4.371   1.085   9.126 -0.1928 -0.1188  0.2356
 3475SOL     OW22060   1.060   3.050   8.803  0.0666 -0.2777 -0.2605
 3475SOL    HW122061   1.059   3.032   8.709 -1.8904 -0.3522 -0.2240
 3475SOL    HW222062   1.123   3.123   8.796  0.2348 -0.3525  0.5504
 3476SOL     OW22063   1.540   3.404   4.848  0.6703 -0.5426  0.3118
 3476SOL    HW122064   1.586   3.359   4.920  0.8713  2.1317  1.8570
 3476SOL    HW222065   1.558   3.494   4.875 -3.3655  0.3828 -0.0252
 3477SOL     OW22066   0.469   1.327   1.104 -0.4324 -0.1102 -0.1507
 3477SOL    HW122067   0.526   1.397   1.072 -3.2189  0.4780 -3.8782
 3477SOL    HW222068   0.443   1.345   1.195  2.1067  2.1836  0.1041
 3478SOL     OW22069   0.289   3.188   1.178  0.0442 -0.0809  0.1326
 3478SOL    HW122070   0.206   3.145   1.159 -0.0859 -0.7788  2.2723
 3478SOL    HW222071   0.248   3.271   1.201  1.6826 -0.2355  3.6327
 3479SOL     OW22072   1.622   3.723   1.892 -0.4820  0.2664 -0.5736
 3479SOL    HW122073   1.581   3.677   1.966 -1.2016  0.5512 -0.7891
 3479SOL    HW222074   1.697   3.775   1.921  1.0242 -2.4573  0.4041
 3480SOL     OW22075   2.742   0.047   2.888  0.1478  0.0459 -0.4242
 3480SOL    HW122076   2.655   0.018   2.915 -1.0376  2.3106 -1.7703
 3480SOL    HW222077   2.709   0.105   2.819 -0.8699 -0.2798 -0.2024
 3481SOL     OW22078   1.906   3.906   2.026 -0.2816 -0.1520  0.2539
 3481SOL    HW122079   1.963   3.834   2.054  0.1854  0.0362 -0.2030
 3481SOL    HW222080   1.938   3.925   1.938 -0.3669 -1.0520  0.0262
 3482SOL     OW22081   2.613   3.228   5.555 -0.2341 -0.6007  0.0700
 3482SOL    HW122082   2.674   3.295   5.585  0.9701 -0.8473 -1.8391
 3482SOL    HW222083   2.628   3.233   5.461  0.8175 -0.8430  0.2216
 3483SOL     OW22084   3.434   3.927   3.586  0.7692 -0.7172 -0.1302
 3483SOL    HW122085   3.358   3.965   3.541  2.2988 -0.7060 -2.7134
 3483SOL    HW222086   3.442   3.835   3.560 -2.6358 -0.5260 -1.8810
 3484SOL     OW22087   3.320   1.626   0.471 -0.2876  0.0179 -0.2142
 3484SOL    HW122088   3.246   1.639   0.531  0.8807  0.6728  1.0954
 3484SOL    HW222089   3.309   1.705   0.419  1.3995  0.1631 -0.3380
 3485SOL     OW22090   3.416   2.144   3.135  0.1619  0.6964  0.5553
 3485SOL    HW122091   3.451   2.225   3.173 -2.4384  2.7334 -1.4062
 3485SOL    HW222092   3.453   2.150   3.047 -0.0161  2.5483  0.5951
 3486SOL     OW22093   2.331   2.162   7.012 -0.5021  0.5390  0.0911
 3486SOL    HW122094   2.288   2.177   6.928  0.4444 -1.9523 -0.8362
 3486SOL    HW222095   2.269   2.108   7.061  0.8302 -1.5195 -0.5039
 3487SOL     OW22096   2.129   1.678   9.106 -0.4517 -1.0468 -0.0820
 3487SOL    HW122097   2.181   1.644   9.034  0.0749  2.3163 -1.3034
 3487SOL    HW222098   2.116   1.773   9.097  0.7077 -0.9538 -0.8086
 3488SOL     OW22099   0.801   0.800   9.156 -0.2708 -0.7155 -0.1699
 3488SOL    HW122100   0.707   0.795   9.169 -0.1135 -0.3899  1.1175
 3488SOL    HW222101   0.813   0.893   9.134 -3.0301 -0.4667 -0.6195
 3489SOL     OW22102   2.383   4.040   1.479  0.2150 -0.0596 -0.2928
 3489SOL    HW122103   2.381   3.969   1.415  0.1029 -0.2605 -0.0661
 3489SOL    HW222104   2.399   3.998   1.564 -0.5875 -0.2499 -0.2353
 3490SOL     OW22105   2.518   2.069   3.621  0.2435  0.3187  0.3872
 3490SOL    HW122106   2.444   2.013   3.646 -0.5780  1.6928  1.0061
 3490SOL    HW222107   2.473   2.152   3.636 -3.1165 -1.8179  2.4798
 3491SOL     OW22108   2.483   1.574   7.312  0.5840  0.2082  0.8319
 3491SOL    HW122109   2.535   1.535   7.242 -0.9157 -0.2457 -0.0253
 3491SOL    HW222110   2.439   1.497   7.349 -0.7692  1.0100  0.9202
 3492SOL     OW22111   1.009   2.112   4.541  0.1217 -0.8487 -0.4929
 3492SOL    HW122112   0.928   2.163   4.547  0.8095  0.0695  0.9322
 3492SOL    HW222113   1.013   2.090   4.448  1.6083 -1.8967 -0.1889
 3493SOL     OW22114   1.725   2.237   8.578 -0.1101  0.0154  0.1698
 3493SOL    HW122115   1.684   2.263   8.660 -1.0316 -0.1786 -0.2351
 3493SOL    HW222116   1.812   2.211   8.610 -0.8967 -1.1430  1.3515
 3494SOL     OW22117   4.527   3.291  13.924  0.4630 -0.1598 -0.1653
 3494SOL    HW122118   4.446   3.325  13.961  0.3207  0.1846 -0.8035
 3494SOL    HW222119   4.493   3.218  13.872  0.1429 -0.5342  0.5721
 3495SOL     OW22120   1.300   2.035   3.554 -0.9118  0.1355  0.2199
 3495SOL    HW122121   1.281   1.945   3.529  0.9804  0.2164 -1.5249
 3495SOL    HW222122   1.244   2.035   3.632 -0.1594  1.8515  0.7801
 3496SOL     OW22123   1.692   3.847   6.684 -0.0683 -0.4053  0.2192
 3496SOL    HW122124   1.783   3.876   6.691 -0.0880 -0.4849  0.7913
 3496SOL    HW222125   1.716   3.755   6.696  1.8857 -0.0697 -0.9817
 3497SOL     OW22126   1.158   2.184  13.175  0.2775 -0.0693 -0.2941
 3497SOL    HW122127   1.219   2.250  13.206  1.1501 -2.0134  2.1153
 3497SOL    HW222128   1.113   2.160  13.256 -0.5741 -2.0529 -1.3564
 3498SOL     OW22129   2.277   0.689   4.561 -0.3932  0.4923 -0.3042
 3498SOL    HW122130   2.284   0.621   4.629  0.6379  2.1353  1.2414
 3498SOL    HW222131   2.351   0.664   4.507  0.2512  0.3256  0.6516
 3499SOL     OW22132   4.236   2.901  12.250 -0.1403  0.7116 -0.8225
 3499SOL    HW122133   4.186   2.847  12.189  0.6812  0.6521 -1.4310
 3499SOL    HW222134   4.316   2.917  12.200 -0.1369 -1.9790 -1.6553
 3500SOL     OW22135   3.568   3.415   5.778 -0.6839 -0.4578  0.2877
 3500SOL    HW122136   3.544   3.400   5.686 -0.7576 -1.4445  0.4699
 3500SOL    HW222137   3.663   3.406   5.767 -0.4857 -0.0958  1.7824
 3501SOL     OW22138   1.492   1.688   7.739  0.1961 -0.1695  0.3018
 3501SOL    HW122139   1.552   1.626   7.697 -1.0075 -1.0727 -0.0827
 3501SOL    HW222140   1.484   1.649   7.826 -0.1001 -0.9087 -0.0557
 3502SOL     OW22141   1.545   0.184  16.369 -0.5388 -0.3936  0.0560
 3502SOL    HW122142   1.456   0.199  16.335 -0.0507  0.8885 -0.6572
 3502SOL    HW222143   1.548   0.247  16.441  1.8773  1.1840 -1.4493
 3503SOL     OW22144   0.618   1.097   1.106 -0.0361 -0.2429 -0.0020
 3503SOL    HW122145   0.610   1.189   1.080  0.7546 -0.4069 -0.8116
 3503SOL    HW222146   0.611   1.045   1.027  0.4311 -0.3507  0.0294
 3504SOL     OW22147   3.105   0.556   3.266 -0.5169  0.5977 -0.0819
 3504SOL    HW122148   3.162   0.545   3.190  0.4023  0.3693  0.6385
 3504SOL    HW222149   3.140   0.633   3.311  1.5830 -0.1932 -0.3277
 3505SOL     OW22150   2.634   3.462  14.412 -0.5352  0.1781 -0.1225
 3505SOL    HW122151   2.539   3.451  14.413 -0.5527  0.4444  0.9789
 3505SOL    HW222152   2.639   3.546  14.456 -0.0852 -0.6296  1.3799
 3506SOL     OW22153   1.793   0.933   2.734  0.1465  0.0804  0.8194
 3506SOL    HW122154   1.876   0.886   2.728 -0.3517 -0.5566 -1.1046
 3506SOL    HW222155   1.733   0.879   2.787 -1.7561 -0.6324 -2.0900
 3507SOL     OW22156   1.405   0.636   2.658 -0.1020  0.0267  0.0089
 3507SOL    HW122157   1.434   0.726   2.675 -1.4344  0.8098 -1.9359
 3507SOL    HW222158   1.480   0.608   2.605 -0.3916 -1.6705  0.5128
 3508SOL     OW22159   2.449   3.011   5.554 -0.2943 -0.1482 -0.0337
 3508SOL    HW122160   2.513   3.081   5.540  0.6102 -0.8385  0.6482
 3508SOL    HW222161   2.434   2.974   5.467 -0.8091 -0.5426  0.2244
 3509SOL     OW22162   0.023   1.100   0.749  0.1305  0.3693  0.1225
 3509SOL    HW122163   0.017   1.196   0.749  1.2688  0.4467  1.5506
 3509SOL    HW222164   4.688   1.067   0.803  1.4791 -0.0750  1.6402
 3510SOL     OW22165   0.276   0.707  13.469  0.4280  0.2702 -0.3359
 3510SOL    HW122166   0.277   0.627  13.417 -1.7895  0.1633 -0.2126
 3510SOL    HW222167   0.303   0.779  13.411 -1.3198  0.4228 -0.9475
 3511SOL     OW22168   2.122   4.525   9.004  0.4111  0.2327  0.0303
 3511SOL    HW122169   2.197   4.580   8.978  1.8279 -2.0816 -0.7335
 3511SOL    HW222170   2.104   4.557   9.092 -0.3684  1.9859 -0.7609
 3512SOL     OW22171   0.970   0.890   6.785  0.0388  0.0987 -0.4433
 3512SOL    HW122172   0.937   0.918   6.871  1.2957 -0.2383  0.1619
 3512SOL    HW222173   1.055   0.859   6.818  0.1641  1.2311  0.2990
 3513SOL     OW22174   2.528   4.270  12.882  0.2923 -0.1236  0.0473
 3513SOL    HW122175   2.545   4.325  12.805  1.7049 -1.7880 -0.8213
 3513SOL    HW222176   2.439   4.295  12.909  0.8597 -1.8058  3.5213
 3514SOL     OW22177   1.703   3.385   8.932  0.2579  0.0040 -0.0628
 3514SOL    HW122178   1.701   3.462   8.875  0.1049 -0.6924 -0.9927
 3514SOL    HW222179   1.748   3.417   9.011  0.3318 -0.1279 -0.0514
 3515SOL     OW22180   1.596   1.482   1.705  0.1229 -0.1656 -0.4312
 3515SOL    HW122181   1.625   1.436   1.626 -0.5894  0.8575 -1.2839
 3515SOL    HW222182   1.547   1.411   1.748  0.0965  0.2680  0.2509
 3516SOL     OW22183   2.831   0.870   8.652  0.7308  0.0792  0.4534
 3516SOL    HW122184   2.834   0.794   8.710 -1.5707  0.3599  0.9255
 3516SOL    HW222185   2.739   0.867   8.627  0.8956  0.2160 -0.1699
 3517SOL     OW22186   0.664   4.163   7.140  0.1159  0.3523 -0.1677
 3517SOL    HW122187   0.592   4.211   7.181 -0.8086  0.0320 -1.4140
 3517SOL    HW222188   0.727   4.175   7.211  0.7404 -0.8490 -0.5205
 3518SOL     OW22189   3.261   3.054  12.388  0.1016 -0.6395  0.5908
 3518SOL    HW122190   3.275   3.138  12.432  0.1089  0.3203 -1.2296
 3518SOL    HW222191   3.343   3.005  12.386 -0.3723 -1.3017 -2.9360
 3519SOL     OW22192   0.216   3.326   8.389  0.0176  0.1175 -0.0836
 3519SOL    HW122193   0.223   3.266   8.463  2.3970 -1.7140 -1.7900
 3519SOL    HW222194   0.305   3.360   8.401 -0.5612  1.2812  0.9423
 3520SOL     OW22195   3.557   2.286   5.952  0.2702 -0.7191 -0.4952
 3520SOL    HW122196   3.487   2.330   6.000 -1.7432 -2.6293 -1.7162
 3520SOL    HW222197   3.627   2.272   6.017 -0.4229  0.9541  0.6225
 3521SOL     OW22198   2.281   2.528  15.453 -0.1798  0.4024 -0.4176
 3521SOL    HW122199   2.210   2.539  15.390  0.8766  0.8863 -1.5275
 3521SOL    HW222200   2.260   2.441  15.485  1.6485  0.4567  0.9524
 3522SOL     OW22201   3.896   2.782  13.137  0.1282  0.2904  0.2876
 3522SOL    HW122202   3.833   2.842  13.097  0.1495 -1.2492 -2.0233
 3522SOL    HW222203   3.863   2.783  13.227 -1.3634  0.2162 -0.2607
 3523SOL     OW22204   2.603   0.759  16.425  0.1485  0.2957 -0.5964
 3523SOL    HW122205   2.654   0.840  16.422  2.4430 -1.1375  0.3007
 3523SOL    HW222206   2.532   0.785  16.483  1.3021  0.6499  0.6417
 3524SOL     OW22207   3.862   1.714   0.262 -0.5342  0.1306  0.0465
 3524SOL    HW122208   3.939   1.771   0.265  1.2273 -2.2003 -1.3150
 3524SOL    HW222209   3.821   1.730   0.347  0.3917 -2.6491  0.9770
 3525SOL     OW22210   4.492   4.396  11.204 -0.5556  0.2703 -0.4027
 3525SOL    HW122211   4.468   4.478  11.247 -0.0046 -0.0038  0.4130
 3525SOL    HW222212   4.464   4.407  11.113  1.1769 -0.5423 -1.0376
 3526SOL     OW22213   3.305   1.448  10.072  0.2055  0.0360  0.0708
 3526SOL    HW122214   3.306   1.505  10.149  2.0852  1.4087 -0.9473
 3526SOL    HW222215   3.243   1.490  10.012 -0.3279 -2.2540 -0.9709
 3527SOL     OW22216   0.526   2.341   4.405 -0.5866 -0.1715 -0.5181
 3527SOL    HW122217   0.463   2.329   4.334 -1.5946  0.4485  0.2699
 3527SOL    HW222218   0.573   2.421   4.381  2.5520 -2.3396 -1.4995
 3528SOL     OW22219   1.336   3.890   9.545 -0.7572  0.2070 -0.4021
 3528SOL    HW122220   1.301   3.828   9.610 -0.4155  2.6808  2.1307
 3528SOL    HW222221   1.428   3.867   9.537 -0.0548  2.3108  1.7898
 3529SOL     OW22222   2.997   2.834   4.273  0.4716  0.3503  0.3555
 3529SOL    HW122223   2.944   2.856   4.349 -0.8269 -0.4836 -0.3122
 3529SOL    HW222224   3.084   2.826   4.313  2.0017  1.7651 -2.6551
 3530SOL     OW22225   1.585   4.482   2.792  0.2496 -0.2547 -0.2640
 3530SOL    HW122226   1.587   4.576   2.770  2.5343 -0.5442 -1.2656
 3530SOL    HW222227   1.496   4.449   2.782  0.2985 -0.6290  0.5717
 3531SOL     OW22228   4.086   0.532   6.294 -0.0086 -0.4149  0.2877
 3531SOL    HW122229   4.095   0.445   6.332  3.3630 -0.1837 -0.0155
 3531SOL    HW222230   4.167   0.544   6.245 -0.3907  2.6476  0.3860
 3532SOL     OW22231   2.001   4.035   0.755  0.1750  0.3020 -0.0156
 3532SOL    HW122232   1.994   4.043   0.850  0.9372 -1.7129  0.2254
 3532SOL    HW222233   1.932   3.970   0.739 -0.5553  1.2863 -0.8954
 3533SOL     OW22234   0.895   2.353   5.340  0.4149  0.0369 -0.3668
 3533SOL    HW122235   0.861   2.376   5.254  1.9857 -0.1850 -1.0366
 3533SOL    HW222236   0.978   2.400   5.334  0.2957  0.9121  4.6436
 3534SOL     OW22237   1.518   3.921  13.808  0.2163 -0.2799 -0.1684
 3534SOL    HW122238   1.450   3.888  13.867  0.4457  4.5834  2.7948
 3534SOL    HW222239   1.469   3.914  13.726 -0.4712  3.3148 -0.0505
 3535SOL     OW22240   3.099   4.423  13.241  0.5212 -0.2251 -0.1518
 3535SOL    HW122241   3.065   4.348  13.291  0.5101 -1.0101 -1.3348
 3535SOL    HW222242   3.160   4.380  13.182  1.8264 -1.3917  2.0312
 3536SOL     OW22243   0.096   0.469   1.296 -0.0400  0.5708 -0.3380
 3536SOL    HW122244   0.056   0.547   1.258  0.0940  1.7880  2.0554
 3536SOL    HW222245   0.155   0.497   1.366  2.7736 -0.4018 -2.3038
 3537SOL     OW22246   2.767   2.138   7.526 -0.3278 -0.1428  0.6207
 3537SOL    HW122247   2.775   2.176   7.439  3.1981  2.3524  2.0492
 3537SOL    HW222248   2.822   2.205   7.566  0.7016 -1.0408  0.7037
 3538SOL     OW22249   4.368   2.597  17.700 -0.0258  0.3650 -0.4709
 3538SOL    HW122250   4.385   2.510  17.664  1.8827  0.1108  1.0599
 3538SOL    HW222251   4.428   2.643  17.641 -0.0047  0.6712 -0.2110
 3539SOL     OW22252   1.090   1.345   6.539 -0.2083  0.2111 -0.6826
 3539SOL    HW122253   1.153   1.372   6.606 -0.0237 -2.8745  0.4086
 3539SOL    HW222254   1.083   1.431   6.498  1.5075  1.1866  1.0579
 3540SOL     OW22255   2.291   1.737   2.367 -0.0605 -0.0184  0.3772
 3540SOL    HW122256   2.288   1.832   2.359 -2.4196  0.0438  2.1800
 3540SOL    HW222257   2.273   1.707   2.456 -0.0231 -0.0343  0.3795
 3541SOL     OW22258   2.136   0.508   4.996  0.5070  0.0794 -0.1093
 3541SOL    HW122259   2.188   0.581   4.961 -0.7999  1.0481 -0.0249
 3541SOL    HW222260   2.147   0.522   5.090 -1.0095 -2.3142  0.4374
 3542SOL     OW22261   0.155   4.716   3.914 -0.5878  0.1929  0.4613
 3542SOL    HW122262   0.105   4.716   3.832  0.6247  2.1660 -0.2695
 3542SOL    HW222263   0.093   4.680   3.977 -3.2827  2.4349 -0.9074
 3543SOL     OW22264   0.507   4.301   3.296 -0.2465 -0.3832 -0.3278
 3543SOL    HW122265   0.452   4.377   3.314 -0.8450 -0.8312 -0.2560
 3543SOL    HW222266   0.451   4.248   3.239 -1.7479  2.8313 -1.8127
 3544SOL     OW22267   2.804   0.159  17.030 -0.1027 -0.9206 -0.2922
 3544SOL    HW122268   2.812   0.118  16.943  0.5889 -3.1721  0.8099
 3544SOL    HW222269   2.786   0.076  17.074  0.8418  0.2855  2.3364
 3545SOL     OW22270   1.427   2.334   8.961  0.7352  0.1469 -0.1147
 3545SOL    HW122271   1.352   2.275   8.954  2.6194 -2.1483 -0.9376
 3545SOL    HW222272   1.447   2.338   9.054  0.3419  0.9940 -0.0710
 3546SOL     OW22273   2.794   0.760  17.412 -0.0670  0.2500 -0.0020
 3546SOL    HW122274   2.858   0.823  17.380 -1.9624  2.1457 -0.1318
 3546SOL    HW222275   2.840   0.681  17.382  0.2172 -0.3575  2.0518
 3547SOL     OW22276   2.869   2.513  12.709 -0.2689 -0.3866  0.0891
 3547SOL    HW122277   2.776   2.531  12.725  0.0488  1.0344  0.2769
 3547SOL    HW222278   2.905   2.601  12.714 -0.2865 -0.3400 -0.6070
 3548SOL     OW22279   2.496   3.863   2.367  0.9956  0.6062  0.1389
 3548SOL    HW122280   2.547   3.910   2.432  1.5987  0.4343 -0.2107
 3548SOL    HW222281   2.543   3.780   2.366 -1.1382 -0.6131 -0.3003
 3549SOL     OW22282   1.604   0.619   8.011 -0.3622 -0.2747 -0.5743
 3549SOL    HW122283   1.657   0.549   7.971 -1.2610 -1.1502 -0.2428
 3549SOL    HW222284   1.591   0.666   7.929  1.6640 -1.5577 -1.6361
 3550SOL     OW22285   2.948   1.143   3.358 -0.0576 -0.1500 -0.5658
 3550SOL    HW122286   3.024   1.128   3.302  0.0303  2.6438 -1.2002
 3550SOL    HW222287   2.930   1.237   3.355 -2.1484 -0.4708  1.3316
 3551SOL     OW22288   1.244   3.180   2.294 -0.3319 -0.1122  0.5695
 3551SOL    HW122289   1.310   3.186   2.364  0.9265  2.2482 -0.8000
 3551SOL    HW222290   1.246   3.087   2.274 -0.2856  0.0747 -0.2749
 3552SOL     OW22291   4.240   3.296   5.405  0.7008 -0.2193  0.2816
 3552SOL    HW122292   4.204   3.372   5.450  0.5281  1.2242 -2.3049
 3552SOL    HW222293   4.327   3.288   5.444  0.1648 -3.5284  0.7974
 3553SOL     OW22294   3.993   1.372   5.701 -0.4589 -0.8081 -0.2302
 3553SOL    HW122295   4.046   1.382   5.780 -0.7247  0.2437 -0.1872
 3553SOL    HW222296   4.055   1.333   5.639 -1.0059  1.2790 -2.0733
 3554SOL     OW22297   1.294   4.246  11.681 -0.4431  0.4404 -0.2977
 3554SOL    HW122298   1.382   4.282  11.693 -0.0398 -0.9896  0.9647
 3554SOL    HW222299   1.272   4.274  11.592 -2.6659 -1.5895 -0.3587
 3555SOL     OW22300   0.742   3.003   0.267 -1.1052  0.3680  0.5362
 3555SOL    HW122301   0.801   2.965   0.202 -0.7212  0.7709  0.6575
 3555SOL    HW222302   0.767   3.091   0.239 -0.8754  1.0814  3.0089
 3556SOL     OW22303   1.474   1.536   8.810 -0.0260 -0.1365 -0.0616
 3556SOL    HW122304   1.482   1.631   8.805 -0.8675 -0.0413  0.2889
 3556SOL    HW222305   1.525   1.518   8.889  0.4287  0.4841 -0.2220
 3557SOL     OW22306   1.932   0.119   9.165 -0.0786 -0.1764 -0.9571
 3557SOL    HW122307   1.891   0.147   9.246  2.0797  0.0297  0.0530
 3557SOL    HW222308   1.912   0.201   9.118 -0.4397  0.1435 -0.2363
 3558SOL     OW22309   1.142   2.216  17.630  0.1878 -0.5805 -0.5435
 3558SOL    HW122310   1.192   2.168  17.564 -0.2241 -2.0394  0.1928
 3558SOL    HW222311   1.126   2.144  17.691 -0.8769 -0.0242 -0.1662
 3559SOL     OW22312   0.041   3.008   7.299 -0.4307 -0.3387 -0.0254
 3559SOL    HW122313   0.124   2.989   7.255 -0.1943  1.6619 -0.4329
 3559SOL    HW222314   4.707   3.013   7.234  0.4087 -0.6815 -0.9600
 3560SOL     OW22315   4.517   2.939   1.810 -0.5744  0.2413 -0.4431
 3560SOL    HW122316   4.465   2.950   1.730  0.1502 -1.2929 -1.1365
 3560SOL    HW222317   4.588   2.896   1.762  1.0694  1.5287  0.8434
 3561SOL     OW22318   1.902   0.593  15.176  0.6067  0.3428  0.4423
 3561SOL    HW122319   1.937   0.673  15.137  1.4567 -0.7914 -1.1268
 3561SOL    HW222320   1.976   0.534  15.187 -0.3588 -1.1861 -1.2003
 3562SOL     OW22321   4.497   3.741   7.797  0.2245  0.4153  0.2084
 3562SOL    HW122322   4.450   3.720   7.878 -1.1470  1.7300 -0.2426
 3562SOL    HW222323   4.580   3.699   7.820  0.6998 -0.2520 -2.6386
 3563SOL     OW22324   4.245   2.043  15.089 -0.2829  0.0223  0.5790
 3563SOL    HW122325   4.314   2.090  15.136  0.5344 -0.9344  0.3412
 3563SOL    HW222326   4.164   2.082  15.120 -1.6863 -0.4654 -2.5360
 3564SOL     OW22327   1.806   2.090   2.555  0.5249 -0.3235  0.5580
 3564SOL    HW122328   1.800   2.142   2.475  0.8072 -0.2306  0.5967
 3564SOL    HW222329   1.782   2.150   2.626  2.3307 -0.2231  1.0932
 3565SOL     OW22330   2.809   4.652  15.477  0.2189  0.1638 -0.4373
 3565SOL    HW122331   2.812   4.559  15.501  1.8799  0.0315 -1.1632
 3565SOL    HW222332   2.865   4.666  15.401 -0.9416  0.0222 -1.3050
 3566SOL     OW22333   3.472   0.166   2.262 -0.5299  0.1188 -0.0603
 3566SOL    HW122334   3.527   0.214   2.200 -0.3584  1.2823  0.9966
 3566SOL    HW222335   3.539   0.117   2.310 -0.6395 -1.4778 -1.5245
 3567SOL     OW22336   0.669   0.291   3.948  0.3957 -0.4489 -0.2845
 3567SOL    HW122337   0.635   0.378   3.968 -0.1635 -0.3537 -1.6150
 3567SOL    HW222338   0.645   0.283   3.855 -2.1146  1.0211  0.2239
 3568SOL     OW22339   3.767   3.493   3.709 -0.0303 -0.2781 -0.0496
 3568SOL    HW122340   3.788   3.566   3.767 -0.4886  0.2899 -0.5995
 3568SOL    HW222341   3.787   3.535   3.625  2.6885 -2.4068 -0.4914
 3569SOL     OW22342   0.568   2.226   3.519  0.4928  0.1987  0.3375
 3569SOL    HW122343   0.562   2.133   3.498 -0.7280  0.3045  0.2394
 3569SOL    HW222344   0.647   2.249   3.470  0.6572 -1.0046  0.0296
 3570SOL     OW22345   4.203   0.011   4.059 -0.4864 -0.6540 -0.5633
 3570SOL    HW122346   4.154   0.003   3.977  0.6610 -0.6665 -1.2559
 3570SOL    HW222347   4.155   4.688   4.117 -2.4634 -0.2609 -1.8202
 3571SOL     OW22348   0.971   4.034   0.672 -0.6288  0.7234 -0.2767
 3571SOL    HW122349   1.039   4.025   0.738 -0.3147 -0.9674 -0.8369
 3571SOL    HW222350   0.942   3.943   0.668 -0.1439  0.5691 -0.2485
 3572SOL     OW22351   1.835   2.965  16.513 -1.0217 -0.0772  0.0277
 3572SOL    HW122352   1.860   2.944  16.423 -0.1689  1.3724 -0.0612
 3572SOL    HW222353   1.786   2.889  16.546  1.5246 -2.0583 -0.6863
 3573SOL     OW22354   2.833   4.358  15.607  0.5481 -0.4392  0.0873
 3573SOL    HW122355   2.816   4.427  15.671 -1.9629 -1.6663  0.7523
 3573SOL    HW222356   2.895   4.301  15.652  0.8618 -0.7371 -0.7221
 3574SOL     OW22357   4.314   2.862  13.653  0.5219 -0.5984  0.2638
 3574SOL    HW122358   4.226   2.893  13.632 -0.0029 -2.1629  0.1520
 3574SOL    HW222359   4.320   2.770  13.626  2.8802  0.0257 -1.3941
 3575SOL     OW22360   0.162   2.687   8.852 -0.0409 -0.0494  0.1377
 3575SOL    HW122361   0.250   2.664   8.883  0.3515  1.6772  0.3041
 3575SOL    HW222362   0.120   2.605   8.825 -0.7334  0.1037  0.7341
 3576SOL     OW22363   2.164   3.465   8.259  0.0965 -0.1749  0.8245
 3576SOL    HW122364   2.220   3.477   8.336 -0.4522 -0.3173  1.2465
 3576SOL    HW222365   2.221   3.405   8.212 -0.6029 -0.7257  0.6843
 3577SOL     OW22366   1.827   2.190  11.307  0.2368 -0.7370 -0.0417
 3577SOL    HW122367   1.872   2.258  11.357 -1.9884  1.1243 -0.5649
 3577SOL    HW222368   1.739   2.200  11.342  0.2933 -0.2929 -0.0267
 3578SOL     OW22369   0.712   0.871   7.718 -0.6128 -0.1493 -0.1088
 3578SOL    HW122370   0.712   0.925   7.797 -0.6859  0.8639 -0.8029
 3578SOL    HW222371   0.797   0.828   7.725  0.6030  1.6511 -3.6010
 3579SOL     OW22372   2.209   4.517   7.963 -0.3612 -0.1742 -0.5016
 3579SOL    HW122373   2.218   4.602   7.919  0.6801  0.5731  1.1513
 3579SOL    HW222374   2.208   4.542   8.056  0.5759  1.2731 -0.8769
 3580SOL     OW22375   1.123   4.707  11.705  0.2129 -0.3033 -0.5573
 3580SOL    HW122376   1.216   4.696  11.685  0.4706  0.8289  0.0194
 3580SOL    HW222377   1.117   0.057  11.746  0.9297 -0.7253  0.4461
 3581SOL     OW22378   3.989   4.154  16.053 -0.1898  0.1929  0.0291
 3581SOL    HW122379   3.919   4.153  15.987  0.7093  1.6032 -0.9413
 3581SOL    HW222380   3.940   4.165  16.135 -3.1281 -0.7390 -1.5965
 3582SOL     OW22381   2.786   3.819  10.548 -0.7557 -0.3202  0.5139
 3582SOL    HW122382   2.707   3.765  10.555 -1.5455  0.3989 -3.1774
 3582SOL    HW222383   2.846   3.762  10.502 -1.5169 -0.1153 -0.7290
 3583SOL     OW22384   1.044   2.476   8.613 -0.8149 -0.3474  0.1386
 3583SOL    HW122385   0.998   2.514   8.688  0.4620 -0.2016  0.8624
 3583SOL    HW222386   1.130   2.518   8.619  0.0507 -2.6323  3.4647
 3584SOL     OW22387   3.526   0.175   6.492 -0.7048  0.4037 -0.1756
 3584SOL    HW122388   3.457   0.109   6.488 -2.8508  2.5514  1.4214
 3584SOL    HW222389   3.602   0.127   6.523 -0.4270  1.3666  0.6467
 3585SOL     OW22390   2.727   4.030   1.166  0.2236  0.4542 -0.0652
 3585SOL    HW122391   2.642   3.986   1.157  1.1239 -1.0893 -1.1712
 3585SOL    HW222392   2.702   4.121   1.149  1.3919  1.1282  1.8313
 3586SOL     OW22393   0.318   2.173  13.373 -0.4218 -0.0688  0.1347
 3586SOL    HW122394   0.237   2.157  13.422 -0.9332  1.5128 -0.1753
 3586SOL    HW222395   0.348   2.082  13.371  0.6257  0.2524  1.2501
 3587SOL     OW22396   3.685   0.465   1.880 -0.0217 -0.0204 -0.7343
 3587SOL    HW122397   3.669   0.540   1.822  0.0966 -1.4726 -2.6444
 3587SOL    HW222398   3.707   0.519   1.956 -1.1666 -0.4401 -0.1200
 3588SOL     OW22399   4.403   1.401   3.157  0.7100 -0.0267  0.5865
 3588SOL    HW122400   4.422   1.340   3.085 -0.2909  1.0805 -0.6327
 3588SOL    HW222401   4.487   1.446   3.156 -0.0554  1.4231  1.5342
 3589SOL     OW22402   2.588   1.091   4.640  0.5460 -0.3720  0.8472
 3589SOL    HW122403   2.542   1.047   4.568  0.1116  0.8971  0.3645
 3589SOL    HW222404   2.573   1.179   4.607  0.0976 -0.3661  1.0733
 3590SOL     OW22405   3.505   4.346   0.976  0.0076 -0.5359 -0.4406
 3590SOL    HW122406   3.453   4.410   0.929  1.4175  0.0750 -1.1688
 3590SOL    HW222407   3.585   4.348   0.923 -0.6846 -3.9764 -1.6367
 3591SOL     OW22408   0.249   2.974   4.263 -0.4766  0.3060 -0.6053
 3591SOL    HW122409   0.292   3.059   4.263 -1.8372  0.9842 -0.0522
 3591SOL    HW222410   0.171   2.992   4.315 -0.4775  1.7923 -1.1253
 3592SOL     OW22411   0.391   0.728   2.553  0.1814  0.0063  0.3375
 3592SOL    HW122412   0.301   0.726   2.584  0.5482  0.8971  1.4627
 3592SOL    HW222413   0.387   0.702   2.461 -2.3491 -1.6084  0.9264
 3593SOL     OW22414   4.244   1.832   3.282  0.7218  0.8921 -0.4129
 3593SOL    HW122415   4.211   1.900   3.222 -0.3663 -0.8566 -1.7856
 3593SOL    HW222416   4.304   1.784   3.226 -0.8607  0.1210 -1.4263
 3594SOL     OW22417   1.883   1.932   0.515  0.4721  0.2832 -1.2526
 3594SOL    HW122418   1.977   1.929   0.530  0.2476 -1.2027 -0.1200
 3594SOL    HW222419   1.888   1.918   0.420  2.2277  1.1176 -1.2852
 3595SOL     OW22420   0.953   3.451   3.024 -0.3456 -0.5500 -0.0836
 3595SOL    HW122421   0.980   3.456   3.115 -0.4786  1.2525 -0.1348
 3595SOL    HW222422   1.008   3.381   2.989 -1.1198  0.0809 -2.6307
 3596SOL     OW22423   2.658   1.716   2.632 -0.2915  0.0142  0.8338
 3596SOL    HW122424   2.646   1.806   2.600  0.0650 -0.3652 -0.3831
 3596SOL    HW222425   2.568   1.688   2.646 -1.4366  1.8863 -2.6720
 3597SOL     OW22426   1.511   0.867   8.272  0.0972  0.1258  0.5503
 3597SOL    HW122427   1.446   0.882   8.341 -1.8727 -0.6011 -1.1540
 3597SOL    HW222428   1.454   0.823   8.209 -1.2738 -0.3638  2.1326
 3598SOL     OW22429   3.709   4.345   2.907 -0.0727  0.0514  0.0521
 3598SOL    HW122430   3.636   4.347   2.969 -0.5333 -1.4071 -0.4594
 3598SOL    HW222431   3.772   4.410   2.938  0.7454 -0.3822 -0.6830
 3599SOL     OW22432   2.163   0.551   8.372 -0.5477 -0.1908 -0.6452
 3599SOL    HW122433   2.121   0.556   8.286 -0.5463  0.1218 -0.6297
 3599SOL    HW222434   2.254   0.571   8.348 -1.0222  0.9486 -1.5069
 3600SOL     OW22435   0.850   4.193  15.496 -0.1437 -0.0350  0.1846
 3600SOL    HW122436   0.861   4.100  15.515 -1.6972 -0.4428 -0.8774
 3600SOL    HW222437   0.870   4.233  15.581 -0.3695  0.2204  0.1170
 3601SOL     OW22438   0.685   0.469   6.079  0.2522  0.4012  0.2649
 3601SOL    HW122439   0.730   0.513   6.006  0.5639 -0.4277 -0.0357
 3601SOL    HW222440   0.743   0.395   6.095 -1.3805 -0.8300  0.3987
 3602SOL     OW22441   4.647   1.714   5.830 -0.4227 -0.0464 -0.1265
 3602SOL    HW122442   0.005   1.709   5.848 -0.4827 -0.8488 -0.0104
 3602SOL    HW222443   4.631   1.795   5.879  0.8452  0.1825 -0.1002
 3603SOL     OW22444   1.208   4.066   2.912 -0.1742  0.4306 -0.1054
 3603SOL    HW122445   1.162   4.028   2.838  1.2067 -1.1075 -0.1851
 3603SOL    HW222446   1.266   4.000   2.949 -1.7919 -0.7159  0.3783
 3604SOL     OW22447   3.069   1.992  13.483 -0.8641 -0.2433  0.1662
 3604SOL    HW122448   3.063   1.904  13.448 -1.1054 -0.5587  0.9886
 3604SOL    HW222449   3.035   2.037  13.406  0.1712 -0.2169 -0.2828
 3605SOL     OW22450   1.180   3.278   9.408  0.4790 -0.3607  0.1792
 3605SOL    HW122451   1.090   3.294   9.435  0.1138  0.0777 -1.3107
 3605SOL    HW222452   1.167   3.229   9.327  1.8082 -2.9094  1.5100
 3606SOL     OW22453   2.187   1.550   2.581 -0.3486 -0.0008  0.2388
 3606SOL    HW122454   2.107   1.581   2.540  1.5891  0.9468 -2.8027
 3606SOL    HW222455   2.179   1.456   2.564 -0.3932 -0.0701  0.6345
 3607SOL     OW22456   0.384   4.050   7.704  0.7279  0.2664 -0.1836
 3607SOL    HW122457   0.434   3.979   7.746 -1.2680 -1.9407 -1.5190
 3607SOL    HW222458   0.408   4.117   7.768 -1.5679 -0.6786  1.6605
 3608SOL     OW22459   2.444   3.827  16.919  0.4530 -0.2420  0.3278
 3608SOL    HW122460   2.421   3.740  16.949  0.9349 -1.0353 -1.5796
 3608SOL    HW222461   2.364   3.868  16.951 -0.1541  0.2522 -1.8586
 3609SOL     OW22462   4.313   0.201  17.103 -0.0732 -0.1872  0.5576
 3609SOL    HW122463   4.397   0.233  17.135  0.3349 -0.8562  0.1479
 3609SOL    HW222464   4.276   0.284  17.073  2.3710  0.4630 -0.6470
 3610SOL     OW22465   1.902   3.665  14.978  0.2912 -1.0514 -0.2841
 3610SOL    HW122466   1.879   3.750  15.016 -1.0339 -1.9597  0.9498
 3610SOL    HW222467   1.994   3.658  15.002  0.2341 -0.0396  0.2353
 3611SOL     OW22468   0.871   1.270   7.318 -0.4394 -0.0910  0.4337
 3611SOL    HW122469   0.783   1.282   7.284 -1.1309  0.3191  2.4197
 3611SOL    HW222470   0.916   1.240   7.238 -1.6775 -1.7287  0.3494
 3612SOL     OW22471   1.371   1.443   6.977 -0.2434  0.4601  0.1205
 3612SOL    HW122472   1.448   1.499   6.976 -0.2157  0.3970 -0.8363
 3612SOL    HW222473   1.312   1.492   7.035 -0.8125 -0.3265  0.2048
 3613SOL     OW22474   2.510   3.792   6.697 -0.2747 -0.2650  0.0555
 3613SOL    HW122475   2.491   3.812   6.606 -1.2042  2.1336  0.7815
 3613SOL    HW222476   2.555   3.709   6.682 -0.0220  0.1768 -1.6336
 3614SOL     OW22477   0.672   4.099  15.795  0.4515  0.0724 -0.7465
 3614SOL    HW122478   0.669   4.014  15.837 -1.4464  1.0828  1.1435
 3614SOL    HW222479   0.599   4.094  15.734 -0.6040  0.8024  0.4624
 3615SOL     OW22480   1.649   3.634  14.705 -0.0775 -0.3260  1.0513
 3615SOL    HW122481   1.608   3.669  14.626 -0.0618 -3.2082 -0.2474
 3615SOL    HW222482   1.678   3.546  14.680  0.8432  0.8718 -2.1076
 3616SOL     OW22483   4.465   2.158   8.448  0.1927  0.3611 -0.2365
 3616SOL    HW122484   4.539   2.190   8.396 -0.6447 -1.4169 -2.5393
 3616SOL    HW222485   4.443   2.241   8.489  2.7762  1.6527 -1.4616
 3617SOL     OW22486   3.468   2.571   9.417 -0.0956  0.3007  0.1224
 3617SOL    HW122487   3.515   2.614   9.345 -2.9908  0.3331 -1.7790
 3617SOL    HW222488   3.458   2.483   9.382  0.8000  0.4067 -0.3966
 3618SOL     OW22489   0.434   0.637   8.072  0.7586  0.3090  0.4573
 3618SOL    HW122490   0.362   0.682   8.027 -0.5258 -1.8497  0.3659
 3618SOL    HW222491   0.486   0.601   7.999 -0.3429  1.1191 -0.7238
 3619SOL     OW22492   1.364   3.841   2.868 -0.3296 -0.5916  0.0463
 3619SOL    HW122493   1.365   3.864   2.775  2.5916  1.0871  0.4843
 3619SOL    HW222494   1.455   3.810   2.873 -0.0398  0.3763  0.7344
 3620SOL     OW22495   2.736   2.707   7.710 -0.1435  0.2995  0.2195
 3620SOL    HW122496   2.809   2.703   7.649 -1.5593  0.7521 -1.5013
 3620SOL    HW222497   2.770   2.643   7.773 -1.2596  1.4578  1.9819
 3621SOL     OW22498   1.514   3.539   8.417 -0.2147 -0.0227  0.0488
 3621SOL    HW122499   1.520   3.630   8.387  1.4302 -0.9361 -2.4042
 3621SOL    HW222500   1.419   3.528   8.413 -0.1036 -1.1414  0.6180
 3622SOL     OW22501   0.584   4.058   6.909  0.3927 -0.1693  0.6137
 3622SOL    HW122502   0.542   4.133   6.866  0.4449 -0.1119  0.6642
 3622SOL    HW222503   0.631   4.095   6.983  0.1341  1.5011 -0.0600
 3623SOL     OW22504   1.847   2.937   3.656 -0.4435 -0.2240 -0.2833
 3623SOL    HW122505   1.802   2.909   3.735  0.0861 -0.5765 -0.1121
 3623SOL    HW222506   1.874   2.856   3.612 -0.8159 -1.1216  1.1617
 3624SOL     OW22507   4.483   1.239   2.957 -0.1660  0.1679 -0.2019
 3624SOL    HW122508   4.454   1.280   2.875  0.1580  3.3838  1.2809
 3624SOL    HW222509   4.562   1.191   2.933 -1.2430 -0.4296 -2.4928
 3625SOL     OW22510   1.758   2.236   2.765  0.2347 -0.6768 -0.1461
 3625SOL    HW122511   1.742   2.320   2.809 -0.9528 -0.9740 -0.0117
 3625SOL    HW222512   1.837   2.209   2.812 -0.2266  0.0586  1.0536
 3626SOL     OW22513   4.678   0.250   3.922 -0.0977  0.1109  0.2346
 3626SOL    HW122514   4.736   0.260   3.998 -0.9891  0.1506  0.9057
 3626SOL    HW222515   4.601   0.215   3.965 -0.4548  2.7208  1.7202
 3627SOL     OW22516   3.468   2.694  11.762 -0.5228  0.2562 -0.0586
 3627SOL    HW122517   3.385   2.710  11.806  0.2428  1.0089  1.1083
 3627SOL    HW222518   3.490   2.608  11.798 -0.4751 -0.0978 -0.9374
 3628SOL     OW22519   3.671   3.532   6.473 -0.2598 -0.0445 -0.1588
 3628SOL    HW122520   3.680   3.571   6.560 -0.0862  0.9233 -0.6124
 3628SOL    HW222521   3.672   3.612   6.421 -0.2479  0.8590  1.2198
 3629SOL     OW22522   1.846   0.218  16.838 -0.0852  0.1351 -0.2706
 3629SOL    HW122523   1.818   0.268  16.915 -2.1228 -0.6074 -0.5388
 3629SOL    HW222524   1.828   0.274  16.762 -1.6802 -0.2988 -0.2086
 3630SOL     OW22525   0.428   4.630   9.996  0.1398  0.0807  0.0491
 3630SOL    HW122526   0.348   4.656  10.042  0.7776  1.4931  0.3517
 3630SOL    HW222527   0.426   4.539   9.967 -2.6226  0.3018 -0.4391
 3631SOL     OW22528   0.745   4.317  13.264 -0.7587  0.0831  0.8542
 3631SOL    HW122529   0.705   4.326  13.350  1.0186 -1.1316  1.7998
 3631SOL    HW222530   0.826   4.270  13.285 -0.0603 -0.4608 -3.0048
 3632SOL     OW22531   3.543   3.182   3.429 -0.5333  0.5147  0.1338
 3632SOL    HW122532   3.469   3.141   3.384 -1.6509  0.9749  1.5499
 3632SOL    HW222533   3.582   3.099   3.454 -2.7455  0.0462  1.9971
 3633SOL     OW22534   2.490   3.259   7.926 -0.0129 -0.3247  0.2769
 3633SOL    HW122535   2.479   3.216   7.842 -0.7809  0.1133  0.1509
 3633SOL    HW222536   2.564   3.317   7.912 -0.9455  0.3454 -1.7801
 3634SOL     OW22537   3.109   0.777   0.197 -0.0066  0.0151 -0.2034
 3634SOL    HW122538   3.032   0.739   0.155 -0.2293  2.3146 -1.9075
 3634SOL    HW222539   3.154   0.701   0.232 -1.0318  0.6250  2.4559
 3635SOL     OW22540   0.942   3.834   7.294 -0.7369 -0.3486  0.0172
 3635SOL    HW122541   0.857   3.812   7.333 -0.6441 -0.6155  0.0662
 3635SOL    HW222542   1.000   3.784   7.351 -0.1049 -0.3379 -0.6213
 3636SOL     OW22543   2.592   3.526   4.997  0.0281  0.0652  0.8756
 3636SOL    HW122544   2.685   3.547   5.008 -1.0423  4.7767  1.1601
 3636SOL    HW222545   2.563   3.485   5.078  0.2788 -0.7337  0.5565
 3637SOL     OW22546   3.387   0.175   9.048 -0.7910  0.2677  0.3862
 3637SOL    HW122547   3.302   0.194   9.010 -1.3584 -1.4612  0.8141
 3637SOL    HW222548   3.386   0.215   9.135  0.4311 -1.4547  1.1973
 3638SOL     OW22549   1.852   4.139  10.773 -0.1327 -0.2388  0.0112
 3638SOL    HW122550   1.835   4.222  10.728  2.5293 -0.4193 -1.2970
 3638SOL    HW222551   1.856   4.082  10.696  2.5572 -0.7368  0.5259
 3639SOL     OW22552   1.908   2.192  11.038  0.1067  0.0900 -0.5956
 3639SOL    HW122553   1.882   2.194  11.130  2.0288  1.4532 -0.0781
 3639SOL    HW222554   1.879   2.109  11.000 -0.3584 -0.5879  1.2379
 3640SOL     OW22555   0.736   0.003   6.593 -0.0273 -0.3667  0.1242
 3640SOL    HW122556   0.665   0.026   6.534 -0.5897  2.0400  1.7523
 3640SOL    HW222557   0.693   0.023   6.676  0.9911 -1.4516  0.9062
 3641SOL     OW22558   1.560   1.396   3.494 -0.0687  0.2423  0.9328
 3641SOL    HW122559   1.652   1.391   3.465 -0.4198 -1.2916  0.0821
 3641SOL    HW222560   1.557   1.311   3.537 -0.0693 -0.5928 -0.7115
 3642SOL     OW22561   2.103   3.391   6.191  0.3571 -0.7090 -0.4171
 3642SOL    HW122562   2.167   3.378   6.121  0.4100  0.2954 -0.5596
 3642SOL    HW222563   2.027   3.403   6.135  0.1399  1.2542  0.2847
 3643SOL     OW22564   0.313   1.121   1.086 -0.0893 -0.0488  0.4545
 3643SOL    HW122565   0.378   1.188   1.106  0.6198 -0.0853 -1.7545
 3643SOL    HW222566   0.326   1.102   0.993  0.4126  2.1214  0.0677
 3644SOL     OW22567   2.401   3.593   1.324 -1.1931 -0.0642  0.0268
 3644SOL    HW122568   2.404   3.546   1.241  2.7816 -1.6245  1.0337
 3644SOL    HW222569   2.475   3.551   1.368 -0.3481 -1.0793 -2.3895
 3645SOL     OW22570   3.620   3.301   4.853  0.5041 -0.6310 -0.3067
 3645SOL    HW122571   3.698   3.249   4.871  0.0027 -1.1483  0.3544
 3645SOL    HW222572   3.603   3.273   4.763  0.3191 -3.0091  0.4677
 3646SOL     OW22573   4.061   1.526  10.164  0.6505  0.6537 -0.1920
 3646SOL    HW122574   4.095   1.587  10.229  0.6188 -0.3961  0.8173
 3646SOL    HW222575   4.132   1.465  10.146  2.7693  2.2761  2.7619
 3647SOL     OW22576   3.694   3.177   6.824 -0.0243  0.7414 -0.1645
 3647SOL    HW122577   3.614   3.160   6.874  2.1319 -0.0383  3.0253
 3647SOL    HW222578   3.654   3.182   6.737 -1.4689 -1.0725  0.3778
 3648SOL     OW22579   2.078   1.879   5.406  0.1755  0.1801 -0.5988
 3648SOL    HW122580   2.112   1.903   5.492 -0.7153 -1.6897  0.2758
 3648SOL    HW222581   1.993   1.923   5.403  1.3040  2.3137 -1.3478
 3649SOL     OW22582   1.825   3.340   5.232  0.2264  0.0929 -0.2922
 3649SOL    HW122583   1.845   3.326   5.140  0.7458  0.6974 -0.2775
 3649SOL    HW222584   1.801   3.252   5.261 -1.6699  0.0625 -1.9611
 3650SOL     OW22585   0.245   1.925  16.479  1.0459  0.1726 -0.4867
 3650SOL    HW122586   0.284   1.950  16.395 -2.7991  0.9925 -2.0192
 3650SOL    HW222587   0.274   2.001  16.530 -0.5380 -0.6115  1.5725
 3651SOL     OW22588   2.688   0.067   9.671  0.1936  0.0312 -0.6899
 3651SOL    HW122589   2.655   0.149   9.634  0.9305 -1.0618 -3.8537
 3651SOL    HW222590   2.780   0.089   9.690  0.2281  0.0198 -0.8425
 3652SOL     OW22591   3.397   1.335  10.796 -0.0521  0.1011  0.6438
 3652SOL    HW122592   3.391   1.427  10.819 -2.0363 -0.4854  2.4723
 3652SOL    HW222593   3.439   1.332  10.710  1.1568  2.5232  1.1593
 3653SOL     OW22594   1.680   4.431   6.838 -0.4700  0.2131  0.0244
 3653SOL    HW122595   1.739   4.382   6.780 -1.2155  0.4710 -0.9484
 3653SOL    HW222596   1.706   4.396   6.923  1.4753  0.6466 -0.3981
 3654SOL     OW22597   2.027   1.881  11.186 -0.3896  0.1259 -0.0883
 3654SOL    HW122598   1.946   1.904  11.139  0.1276  1.7145 -0.2176
 3654SOL    HW222599   2.027   1.786  11.191  0.4724  0.1795  0.9643
 3655SOL     OW22600   0.234   3.083   3.316  0.1841 -0.9060 -0.0643
 3655SOL    HW122601   0.163   3.115   3.260 -0.2184 -1.8747 -0.0932
 3655SOL    HW222602   0.305   3.094   3.253  1.5858 -1.6217  1.4058
 3656SOL     OW22603   3.806   1.089  15.566  0.1308  0.4481 -0.6029
 3656SOL    HW122604   3.784   1.102  15.658  1.2935 -0.1690 -0.2401
 3656SOL    HW222605   3.766   1.006  15.543 -0.6359 -0.3487  3.6746
 3657SOL     OW22606   3.391   1.753   5.614  0.3186  0.5152 -0.1277
 3657SOL    HW122607   3.308   1.734   5.657  1.3447 -0.8734  1.2473
 3657SOL    HW222608   3.402   1.685   5.547  1.0808 -1.3967  1.9206
 3658SOL     OW22609   2.364   4.371   4.262 -0.1139 -0.0114  0.1037
 3658SOL    HW122610   2.332   4.446   4.312  1.5890 -0.1680  1.4393
 3658SOL    HW222611   2.291   4.310   4.256 -0.0538 -0.1379  0.5924
 3659SOL     OW22612   1.798   2.821   0.982 -0.1105 -0.2397 -0.1104
 3659SOL    HW122613   1.855   2.880   1.031  1.0322 -0.8650 -0.6847
 3659SOL    HW222614   1.823   2.735   1.015  0.3864 -0.2970 -0.6413
 3660SOL     OW22615   0.878   2.945   5.106 -0.0309  0.0755 -0.3219
 3660SOL    HW122616   0.849   2.911   5.190  0.6127  1.3329  0.4064
 3660SOL    HW222617   0.885   3.038   5.127 -2.3853  0.2510 -0.3793
 3661SOL     OW22618   0.724   4.219  12.131 -0.0139  0.1209 -0.7807
 3661SOL    HW122619   0.728   4.283  12.060 -0.8448  0.1422 -0.8006
 3661SOL    HW222620   0.770   4.265  12.201  0.1189 -2.3473  0.7480
 3662SOL     OW22621   1.121   1.602   9.995  0.6581  0.4900 -0.2302
 3662SOL    HW122622   1.140   1.525   9.941  0.6974 -0.8543  1.6910
 3662SOL    HW222623   1.163   1.673   9.947  0.0639  0.7221 -0.4077
 3663SOL     OW22624   3.584   4.554   1.110  0.4729 -0.1660 -0.1066
 3663SOL    HW122625   3.523   4.589   1.046 -0.1001 -1.0327 -0.0235
 3663SOL    HW222626   3.550   4.465   1.115  1.1260 -0.4299 -0.3936
 3664SOL     OW22627   3.557   0.657   4.240 -0.3538 -0.1790  0.2371
 3664SOL    HW122628   3.592   0.598   4.173 -1.7051 -0.4498 -0.2472
 3664SOL    HW222629   3.602   0.736   4.211 -0.7709  0.4809  1.3985
 3665SOL     OW22630   0.107   2.677  17.611  0.1142 -0.2737  0.7113
 3665SOL    HW122631   0.114   2.668  17.706 -1.8599 -0.1158  0.8731
 3665SOL    HW222632   0.179   2.738  17.597  0.0822 -0.1547  1.0856
 3666SOL     OW22633   0.518   3.124  14.076 -0.2496  0.2454 -0.2058
 3666SOL    HW122634   0.443   3.172  14.042  0.2167  1.1947  0.1134
 3666SOL    HW222635   0.499   3.040  14.035  0.3264 -0.8236  1.7027
 3667SOL     OW22636   1.768   2.694   8.342 -0.1630 -0.4875  0.5495
 3667SOL    HW122637   1.791   2.688   8.434  0.4767 -0.5582  0.3878
 3667SOL    HW222638   1.816   2.775   8.327 -0.5892 -0.7414 -2.2033
 3668SOL     OW22639   4.003   1.539   8.260  0.2099 -0.3127  0.8909
 3668SOL    HW122640   3.963   1.498   8.336 -3.0405  1.2041 -0.0099
 3668SOL    HW222641   4.084   1.569   8.301  0.6859  0.5328 -0.6443
 3669SOL     OW22642   4.562   2.186   6.208 -0.1526 -0.1945 -0.2851
 3669SOL    HW122643   4.631   2.119   6.209  2.7748  2.8679  3.8334
 3669SOL    HW222644   4.583   2.227   6.292  0.9668  0.8602 -1.0827
 3670SOL     OW22645   0.934   2.031   2.997  0.6042  0.1395 -0.1953
 3670SOL    HW122646   0.883   1.964   2.951  0.0440  0.3965  0.0491
 3670SOL    HW222647   1.025   2.012   2.977  0.4379 -1.1734  0.2996
 3671SOL     OW22648   2.930   2.548   5.864 -0.5609 -0.8217  0.4956
 3671SOL    HW122649   2.938   2.487   5.937 -1.2811 -1.8524 -0.2823
 3671SOL    HW222650   2.868   2.613   5.896  2.2021  1.7296  0.7141
 3672SOL     OW22651   3.278   1.633   7.915 -0.1973 -0.3708 -0.0735
 3672SOL    HW122652   3.333   1.562   7.949  2.9157  2.8184  1.6132
 3672SOL    HW222653   3.341   1.697   7.880 -1.7575  1.0107 -0.3404
 3673SOL     OW22654   3.369   0.529   6.939 -0.1458  0.2870 -0.6489
 3673SOL    HW122655   3.418   0.551   7.018 -0.8967 -0.9178  0.1583
 3673SOL    HW222656   3.279   0.516   6.971 -0.1133  0.0344 -0.6624
 3674SOL     OW22657   2.727   0.404   4.682 -0.1292 -0.5377 -0.3574
 3674SOL    HW122658   2.803   0.352   4.655  0.5481 -0.4703  1.3952
 3674SOL    HW222659   2.663   0.333   4.693  0.5112 -1.2304 -1.1149
 3675SOL     OW22660   0.743   1.034  10.469  0.1703 -0.3321  0.1875
 3675SOL    HW122661   0.777   1.110  10.423 -0.4910  0.1611  0.5094
 3675SOL    HW222662   0.749   1.071  10.557 -0.6252  1.2368 -0.4310
 3676SOL     OW22663   1.520   0.467   3.416 -0.2447 -0.9494  0.3634
 3676SOL    HW122664   1.531   0.516   3.497  0.0719  1.0004 -0.8399
 3676SOL    HW222665   1.430   0.486   3.388  0.4863  1.7273 -0.2354
 3677SOL     OW22666   2.233   3.071   4.368 -0.3901 -0.3123  0.1147
 3677SOL    HW122667   2.235   2.979   4.395  2.1447 -0.5887 -0.9748
 3677SOL    HW222668   2.166   3.066   4.300 -1.4921 -0.2648  1.1949
 3678SOL     OW22669   1.320   2.064   5.148 -0.5807 -0.4843 -0.1671
 3678SOL    HW122670   1.361   2.045   5.064  1.3866 -1.2107  0.9548
 3678SOL    HW222671   1.382   2.123   5.191  0.4319 -2.3346  0.9009
 3679SOL     OW22672   2.158   1.555  14.953 -0.5591  0.8529  0.0288
 3679SOL    HW122673   2.211   1.634  14.953  1.8317 -0.7680 -0.5443
 3679SOL    HW222674   2.229   1.499  14.923 -1.0503  0.5316 -0.5375
 3680SOL     OW22675   3.049   1.779   0.308  0.3586  0.1893 -0.5132
 3680SOL    HW122676   3.144   1.779   0.317  0.1889 -0.8550  1.2862
 3680SOL    HW222677   3.046   1.844   0.238 -2.5130 -1.3129 -1.8173
 3681SOL     OW22678   2.521   4.688   7.232  0.2434  0.6348 -0.1665
 3681SOL    HW122679   2.596   0.003   7.200  1.2326  1.0296  2.7540
 3681SOL    HW222680   2.455   4.705   7.165  1.2109 -3.1477 -2.0524
 3682SOL     OW22681   1.074   1.629  17.379  0.2336  0.1998  0.8656
 3682SOL    HW122682   1.133   1.553  17.381 -0.2033 -0.1967 -1.3949
 3682SOL    HW222683   1.052   1.629  17.286  1.0140 -0.2378  0.6795
 3683SOL     OW22684   4.240   3.096   7.167 -0.2932  0.6762 -0.6356
 3683SOL    HW122685   4.215   3.085   7.075  1.2406 -1.4149 -0.8055
 3683SOL    HW222686   4.190   3.020   7.194 -1.6470  1.5056 -0.8209
 3684SOL     OW22687   2.424   4.296   2.408 -0.2403  0.6848 -0.3292
 3684SOL    HW122688   2.420   4.223   2.347  1.1184  1.4576 -1.3446
 3684SOL    HW222689   2.517   4.320   2.414 -0.4162  1.5984 -1.3305
 3685SOL     OW22690   2.572   0.601   4.791  0.1547  0.0035 -0.1382
 3685SOL    HW122691   2.618   0.525   4.755  0.7955  0.0660  0.5540
 3685SOL    HW222692   2.587   0.672   4.729 -0.3073  1.4820  1.4371
 3686SOL     OW22693   3.829   0.561   6.717  0.3798 -0.2459  0.0778
 3686SOL    HW122694   3.859   0.621   6.649  1.1531  0.6029  1.1736
 3686SOL    HW222695   3.734   0.574   6.710  0.6065  0.7832 -1.0437
 3687SOL     OW22696   0.566   3.687   8.872  0.1339 -0.0952 -0.3345
 3687SOL    HW122697   0.489   3.737   8.843 -1.0839 -1.6140  0.2738
 3687SOL    HW222698   0.619   3.755   8.911 -1.7378  1.1395  0.0430
 3688SOL     OW22699   0.456   1.535  11.180 -0.1721 -0.5023  0.5148
 3688SOL    HW122700   0.453   1.615  11.232 -0.6477 -0.9829  1.2395
 3688SOL    HW222701   0.545   1.539  11.146 -0.6097 -1.6520 -0.7378
 3689SOL     OW22702   4.275   1.623   8.314  0.0310 -0.2634  0.3439
 3689SOL    HW122703   4.346   1.687   8.318 -2.6662  2.9113 -2.2948
 3689SOL    HW222704   4.320   1.548   8.275  0.3573 -0.7216  1.6224
 3690SOL     OW22705   2.929   0.043   3.871 -0.3699 -0.0176 -0.2106
 3690SOL    HW122706   2.934   0.104   3.797 -0.2943 -0.0437 -0.2267
 3690SOL    HW222707   2.854   0.076   3.921 -1.2922 -0.5301 -1.2577
 3691SOL     OW22708   4.336   1.481   4.502  0.2339 -0.2232  0.7028
 3691SOL    HW122709   4.392   1.414   4.461 -1.5023 -1.9532  1.1643
 3691SOL    HW222710   4.257   1.475   4.449  0.3836 -1.6159  0.6246
 3692SOL     OW22711   1.851   2.194   3.193 -0.5224  0.7173 -0.0727
 3692SOL    HW122712   1.937   2.160   3.169 -0.4409 -1.6877  3.4797
 3692SOL    HW222713   1.808   2.110   3.211 -1.3879  1.0035 -0.8242
 3693SOL     OW22714   4.688   1.095  17.234 -0.0595  0.0652 -0.7282
 3693SOL    HW122715   4.668   1.027  17.170 -0.0132 -0.6888  0.0621
 3693SOL    HW222716   4.661   1.056  17.317 -1.4555  0.5512 -0.9334
 3694SOL     OW22717   0.098   0.489   0.074  0.0788  0.4042 -0.7964
 3694SOL    HW122718   0.006   0.508   0.094  0.8714 -0.8203  4.1008
 3694SOL    HW222719   0.106   0.394   0.086  0.9341  0.5014 -0.6445
 3695SOL     OW22720   2.840   2.830   3.499  0.4170  0.3281  0.2700
 3695SOL    HW122721   2.893   2.886   3.555  0.6832 -0.5051  0.8477
 3695SOL    HW222722   2.857   2.871   3.414  2.2613  0.9614  0.9495
 3696SOL     OW22723   4.226   1.272   5.591 -0.4095  0.1357  0.0435
 3696SOL    HW122724   4.229   1.323   5.510 -1.1604  0.5581  0.2822
 3696SOL    HW222725   4.266   1.328   5.658 -0.0493 -1.1771  0.9306
 3697SOL     OW22726   2.822   3.425  16.693 -0.4607  0.5110  0.0956
 3697SOL    HW122727   2.744   3.419  16.639  0.4241 -1.4867 -0.9370
 3697SOL    HW222728   2.884   3.464  16.632  0.9592 -1.6971  0.1250
 3698SOL     OW22729   0.238   0.813   2.855 -0.6161 -0.7306  0.3663
 3698SOL    HW122730   0.301   0.779   2.919  0.1939  0.7605  0.3840
 3698SOL    HW222731   0.179   0.738   2.852 -2.2525  0.5025  1.8131
 3699SOL     OW22732   0.352   3.757  11.747  0.2996 -0.3649 -0.0148
 3699SOL    HW122733   0.407   3.815  11.799  0.1693 -0.8583  0.6699
 3699SOL    HW222734   0.369   3.791  11.658 -1.9702 -0.8830 -0.6359
 3700SOL     OW22735   0.867   0.469   2.374 -0.3257  0.0275  0.5058
 3700SOL    HW122736   0.887   0.447   2.465  0.7533 -0.3943  0.1615
 3700SOL    HW222737   0.780   0.430   2.370 -1.4405  2.3571  1.8561
 3701SOL     OW22738   3.959   3.316   4.726  0.4885  0.4076  0.2139
 3701SOL    HW122739   4.026   3.252   4.701 -0.3895  0.3852 -2.0757
 3701SOL    HW222740   3.919   3.324   4.640 -0.5354  1.9477  0.8299
 3702SOL     OW22741   2.276   0.347   6.150 -0.5053  0.6723  0.4354
 3702SOL    HW122742   2.261   0.401   6.072 -0.9521  1.4868  1.0943
 3702SOL    HW222743   2.370   0.329   6.146 -0.7077 -0.5011  0.9318
 3703SOL     OW22744   0.034   0.987   6.441 -0.4407  0.4663  0.2910
 3703SOL    HW122745   0.024   0.928   6.367 -0.4816  0.7224  0.0953
 3703SOL    HW222746   4.705   1.057   6.440 -0.8532  0.0796 -0.1491
 3704SOL     OW22747   2.126   3.710   0.437  0.5140 -0.1995 -0.2581
 3704SOL    HW122748   2.136   3.649   0.364 -1.7072  0.9146 -1.4758
 3704SOL    HW222749   2.055   3.770   0.413 -1.3363 -1.7756  1.2563
 3705SOL     OW22750   4.532   4.039   6.732 -0.2404 -0.5012  0.3418
 3705SOL    HW122751   4.565   4.008   6.816 -1.0180 -0.5290  0.6327
 3705SOL    HW222752   4.605   4.098   6.713  0.4532 -1.2179  0.7443
 3706SOL     OW22753   0.151   2.337  11.247 -0.3393 -0.5093  0.3999
 3706SOL    HW122754   0.124   2.426  11.223  1.9099  0.0263 -0.0816
 3706SOL    HW222755   0.069   2.313  11.290 -1.1679  0.9476 -0.3438
 3707SOL     OW22756   4.468   2.033   8.151  0.4196 -0.9110 -0.1685
 3707SOL    HW122757   4.549   2.081   8.135 -0.6348  0.4613 -1.3446
 3707SOL    HW222758   4.433   2.083   8.224  0.5623 -0.5529 -0.3482
 3708SOL     OW22759   1.456   1.713   2.982  0.1210  0.0325  0.1683
 3708SOL    HW122760   1.364   1.735   2.992  0.6104  1.2349  2.0395
 3708SOL    HW222761   1.446   1.668   2.898 -0.0328 -0.2547  0.3443
 3709SOL     OW22762   4.190   1.057   5.740  0.3932 -0.2837 -0.0952
 3709SOL    HW122763   4.263   1.058   5.802 -0.2477 -2.5603  0.6942
 3709SOL    HW222764   4.203   1.141   5.696  0.5591  1.3746  3.0931
 3710SOL     OW22765   3.503   3.982   6.782  0.3449 -0.0661  0.2367
 3710SOL    HW122766   3.593   3.967   6.754  0.2097  0.0025 -0.2378
 3710SOL    HW222767   3.513   3.956   6.873  1.1370 -2.0076 -0.4236
 3711SOL     OW22768   4.509   1.257   6.020  0.1921 -1.0290  0.2170
 3711SOL    HW122769   4.532   1.172   6.058  0.6349 -0.8242  0.4041
 3711SOL    HW222770   4.452   1.285   6.092  1.8852 -1.1122  1.5963
 3712SOL     OW22771   1.399   3.704   6.657  0.2242 -0.1381  0.1407
 3712SOL    HW122772   1.424   3.676   6.744  0.3302  0.1007  0.1870
 3712SOL    HW222773   1.333   3.769   6.682 -0.0310 -0.9510  1.5374
 3713SOL     OW22774   2.040   2.397   3.305 -0.1543  0.4876  0.5620
 3713SOL    HW122775   1.983   2.360   3.237  0.6125  0.3505 -0.0035
 3713SOL    HW222776   2.097   2.451   3.249 -0.7136 -0.0801 -0.5568
 3714SOL     OW22777   2.370   4.322   3.170 -0.5030 -0.0392  0.0251
 3714SOL    HW122778   2.354   4.279   3.086  0.7877  0.8572 -0.6781
 3714SOL    HW222779   2.294   4.380   3.173 -0.6956 -0.2921 -0.0283
 3715SOL     OW22780   2.185   4.266   1.697 -0.0452 -0.0375  0.1823
 3715SOL    HW122781   2.275   4.236   1.701 -1.7074 -4.7172  2.3987
 3715SOL    HW222782   2.157   4.231   1.613  0.4954 -1.0443  0.4270
 3716SOL     OW22783   1.054   1.535   5.199  0.4963 -0.0112  0.4925
 3716SOL    HW122784   1.103   1.616   5.215  0.2375  0.4495 -1.0433
 3716SOL    HW222785   0.964   1.567   5.207  0.6715  0.4651  0.5642
 3717SOL     OW22786   2.875   1.455   3.689  0.1187 -0.6688  0.6475
 3717SOL    HW122787   2.968   1.458   3.709  0.2082  0.6398  0.0275
 3717SOL    HW222788   2.839   1.540   3.716 -1.5880 -0.3793 -2.6253
 3718SOL     OW22789   1.885   0.209  13.756  0.4677 -0.3729 -0.6940
 3718SOL    HW122790   1.940   0.261  13.697  1.1115 -0.1495  0.1176
 3718SOL    HW222791   1.822   0.275  13.783  0.5232 -0.3637 -0.5888
 3719SOL     OW22792   0.110   4.616   2.907 -0.2732 -0.1543  0.1784
 3719SOL    HW122793   0.069   4.530   2.901 -1.1615  0.2497  0.3664
 3719SOL    HW222794   0.039   4.680   2.918  0.3623  0.2536  1.9431
 3720SOL     OW22795   1.830   3.184   3.511  0.5967 -0.1091  0.0135
 3720SOL    HW122796   1.824   3.246   3.584  1.5824  1.5167 -1.2737
 3720SOL    HW222797   1.859   3.104   3.555 -0.6392 -0.6303 -0.1204
 3721SOL     OW22798   0.320   2.902  11.371  0.4732 -0.2342 -0.4264
 3721SOL    HW122799   0.261   2.966  11.410 -0.3221 -1.5698  0.5674
 3721SOL    HW222800   0.323   2.830  11.434 -2.8747 -0.3077 -0.3598
 3722SOL     OW22801   2.055   4.556   3.642  0.2559  0.1523  0.7682
 3722SOL    HW122802   1.978   4.517   3.601  0.2691  1.1569 -0.2381
 3722SOL    HW222803   2.110   4.561   3.564  0.6050 -2.2461  0.8740
 3723SOL     OW22804   1.332   3.494   7.018  0.2066 -0.0382  0.4391
 3723SOL    HW122805   1.347   3.583   7.049 -0.0144 -0.8218  2.7922
 3723SOL    HW222806   1.239   3.475   7.030 -0.1652  2.1640  0.9479
 3724SOL     OW22807   2.303   3.237   8.109 -0.1279  0.6735  0.0392
 3724SOL    HW122808   2.263   3.230   8.023 -3.4088 -0.0229  1.6512
 3724SOL    HW222809   2.389   3.262   8.074 -0.3572  0.3216 -0.7656
 3725SOL     OW22810   1.922   1.966   3.451 -0.6405  0.3671 -0.7150
 3725SOL    HW122811   1.982   2.036   3.425 -1.1075 -0.3731 -3.8028
 3725SOL    HW222812   1.873   1.959   3.369  1.0649  1.8018 -1.8621
 3726SOL     OW22813   3.576   2.084   5.037  0.3160 -0.0128  0.0508
 3726SOL    HW122814   3.485   2.111   5.048  0.0602 -0.1820 -1.5829
 3726SOL    HW222815   3.586   2.036   5.119  1.6991  1.9188  1.0021
 3727SOL     OW22816   4.282   4.154   9.319 -0.0504  0.1506  0.0543
 3727SOL    HW122817   4.265   4.183   9.230 -0.3423 -0.4484 -0.0820
 3727SOL    HW222818   4.337   4.075   9.323  0.5356  0.5715  0.3971
 3728SOL     OW22819   1.778   4.397   7.321  0.1144  0.2007 -0.3477
 3728SOL    HW122820   1.870   4.405   7.348  0.6823  0.8694 -2.4893
 3728SOL    HW222821   1.779   4.363   7.232 -0.3054 -0.7756  0.0210
 3729SOL     OW22822   2.243   4.417   5.761  0.0243 -0.6385 -0.2331
 3729SOL    HW122823   2.159   4.390   5.798  0.0348 -0.0476  0.2373
 3729SOL    HW222824   2.243   4.513   5.765 -1.4820 -0.6666  0.4248
 3730SOL     OW22825   1.236   0.921  14.790  0.4408  0.1147 -0.3380
 3730SOL    HW122826   1.279   0.839  14.814 -2.0142 -1.1569 -0.3136
 3730SOL    HW222827   1.143   0.900  14.783  0.5186 -0.3558  0.0405
 3731SOL     OW22828   4.669   1.307  15.712  0.5302 -1.1958 -0.0626
 3731SOL    HW122829   4.580   1.323  15.682  1.8326 -0.0566 -3.2602
 3731SOL    HW222830   4.660   1.337  15.803  0.9413 -1.9675  0.2375
 3732SOL     OW22831   3.509   1.493   7.370 -0.0569  0.8982 -0.1786
 3732SOL    HW122832   3.495   1.458   7.458  3.6262  1.1949  0.4942
 3732SOL    HW222833   3.421   1.518   7.341 -0.3891  0.5639  0.5438
 3733SOL     OW22834   1.696   0.771   4.134 -0.5623 -0.3468 -0.1724
 3733SOL    HW122835   1.720   0.679   4.147 -0.2375 -0.2697 -0.2211
 3733SOL    HW222836   1.778   0.808   4.167 -1.7054  2.4751 -0.5275
 3734SOL     OW22837   1.081   3.597   5.728 -0.0025 -0.4952 -0.2714
 3734SOL    HW122838   1.085   3.593   5.824  0.0970  0.0725 -0.2534
 3734SOL    HW222839   1.032   3.678   5.720  0.8304  0.1049  0.7508
 3735SOL     OW22840   2.425   3.771   6.428  0.1665 -0.2699  0.5207
 3735SOL    HW122841   2.418   3.840   6.362  0.1195 -1.4908 -0.7329
 3735SOL    HW222842   2.392   3.689   6.392 -0.7395 -0.4426  1.7505
 3736SOL     OW22843   2.305   2.691   7.951 -0.5539 -0.1272 -0.5624
 3736SOL    HW122844   2.225   2.667   7.904 -0.9636 -0.1307  0.1315
 3736SOL    HW222845   2.374   2.674   7.887 -0.7770  0.8837 -1.0791
 3737SOL     OW22846   3.570   4.400   2.491  0.1187 -0.0958 -0.1241
 3737SOL    HW122847   3.480   4.430   2.501  0.6290  0.7351  1.9425
 3737SOL    HW222848   3.544   4.318   2.450 -1.6357  1.2399 -1.7149
 3738SOL     OW22849   3.793   3.803  11.130  0.3189 -0.0387  0.0275
 3738SOL    HW122850   3.794   3.878  11.071  1.1721  0.3241  0.5048
 3738SOL    HW222851   3.700   3.793  11.145  0.1747 -0.3614 -1.0286
 3739SOL     OW22852   4.658   2.195   5.204  0.0788 -0.1173 -0.1413
 3739SOL    HW122853   4.686   2.250   5.277 -1.2130  0.2819  0.0450
 3739SOL    HW222854   4.726   2.128   5.213  1.0816  0.9594  0.3393
 3740SOL     OW22855   0.265   2.681   3.875  0.1807  0.7620 -0.0502
 3740SOL    HW122856   0.213   2.751   3.915  0.6160  0.3503  1.2471
 3740SOL    HW222857   0.196   2.618   3.854  0.5156  0.3291  0.1400
 3741SOL     OW22858   4.292   0.605   0.489 -0.0765 -0.4376 -0.1534
 3741SOL    HW122859   4.341   0.560   0.558 -0.4068 -0.3111  0.1692
 3741SOL    HW222860   4.249   0.528   0.452  1.6440 -1.2745 -0.4057
 3742SOL     OW22861   0.939   3.057   3.752 -0.8118 -1.0143 -0.1362
 3742SOL    HW122862   1.029   3.028   3.771 -0.1033 -1.0073 -3.3666
 3742SOL    HW222863   0.913   3.108   3.828  1.0773 -1.3548  0.7467
 3743SOL     OW22864   4.301   0.045   0.753 -0.0432 -0.6388  0.3368
 3743SOL    HW122865   4.286   0.109   0.823  1.9214  1.6222 -1.3245
 3743SOL    HW222866   4.344   0.093   0.683 -1.6464 -1.8991 -1.5401
 3744SOL     OW22867   4.177   0.949  12.769  0.2511  0.1619  0.3474
 3744SOL    HW122868   4.133   1.006  12.832 -1.2977 -0.9828  0.2898
 3744SOL    HW222869   4.255   1.002  12.749 -1.2230  2.2417  0.1184
 3745SOL     OW22870   3.401   0.404   1.286  0.0252 -0.2886 -0.1926
 3745SOL    HW122871   3.306   0.400   1.297  0.1535  0.7830  1.2787
 3745SOL    HW222872   3.428   0.346   1.358  1.1139  0.1416 -0.2591
 3746SOL     OW22873   2.540   4.116   8.497 -0.4078 -0.3406  0.3230
 3746SOL    HW122874   2.552   4.083   8.586  0.4019  0.9027  0.6750
 3746SOL    HW222875   2.567   4.207   8.502 -1.2606 -0.0022 -1.0595
 3747SOL     OW22876   1.021   2.273   7.988  0.4545  0.4783 -0.7500
 3747SOL    HW122877   0.974   2.356   7.998  0.4838  0.2252  1.4358
 3747SOL    HW222878   1.112   2.299   8.005  0.8873 -0.9102 -0.9719
 3748SOL     OW22879   1.329   1.727   0.962  0.1334 -0.1200 -0.1033
 3748SOL    HW122880   1.351   1.642   0.924 -1.6616  0.7591 -3.1318
 3748SOL    HW222881   1.416   1.755   0.990  0.3815 -0.0393 -0.9600
 3749SOL     OW22882   4.288   0.114   1.550  0.3663  0.1335 -0.0638
 3749SOL    HW122883   4.366   0.100   1.496  0.2801  0.5009 -0.2800
 3749SOL    HW222884   4.262   0.022   1.559 -0.2055  0.5012  2.2728
 3750SOL     OW22885   0.953   2.026   3.274  0.1904 -0.2429 -0.1077
 3750SOL    HW122886   1.031   2.079   3.290  0.7570 -0.2596 -2.8094
 3750SOL    HW222887   0.966   2.012   3.180 -0.7815  0.0604 -0.2886
 3751SOL     OW22888   2.828   4.193   6.312  0.1839 -0.8122 -0.4041
 3751SOL    HW122889   2.820   4.154   6.225  0.2111  0.0750 -0.8059
 3751SOL    HW222890   2.750   4.246   6.325  0.1925 -0.5568 -1.3882
 3752SOL     OW22891   1.394   1.210   6.035  0.2827  0.2877  0.4193
 3752SOL    HW122892   1.471   1.188   5.982 -0.2904 -1.5816  0.3851
 3752SOL    HW222893   1.400   1.302   6.061  1.0005 -0.1773  1.9116
 3753SOL     OW22894   1.243   2.782   4.826 -0.3671  0.2540 -0.1307
 3753SOL    HW122895   1.288   2.849   4.775 -1.2828  1.2712  0.4197
 3753SOL    HW222896   1.276   2.699   4.792  0.2745  0.3543  0.2460
 3754SOL     OW22897   2.311   3.270   1.310  1.1017 -0.5848  0.4629
 3754SOL    HW122898   2.262   3.322   1.374  2.0145  1.3339 -0.3793
 3754SOL    HW222899   2.400   3.295   1.335  0.3688  1.7138  0.8522
 3755SOL     OW22900   1.426   4.717   7.243  0.2052 -0.3147 -0.2933
 3755SOL    HW122901   1.419   4.692   7.151 -0.1913 -2.5053  0.3275
 3755SOL    HW222902   1.499   0.040   7.227  0.4132  0.0415  2.0662
 3756SOL     OW22903   0.549   2.604  16.998  0.6145 -0.0796 -0.4270
 3756SOL    HW122904   0.588   2.522  17.027 -0.2434 -0.3937 -0.1620
 3756SOL    HW222905   0.469   2.569  16.959  0.8436 -1.9066  0.7701
 3757SOL     OW22906   2.641   3.025  15.633 -0.3402  0.2062 -0.0567
 3757SOL    HW122907   2.691   2.982  15.563 -1.1353  2.0735 -1.7834
 3757SOL    HW222908   2.711   3.061  15.687  1.0508 -1.1069 -0.9835
 3758SOL     OW22909   2.358   0.598   2.491  0.1896  0.0337  0.6277
 3758SOL    HW122910   2.383   0.534   2.558 -0.2988 -1.7355 -0.8753
 3758SOL    HW222911   2.396   0.682   2.515  0.7442 -0.2418  0.7142
 3759SOL     OW22912   4.088   3.790   7.276 -0.2705 -0.8611  0.2212
 3759SOL    HW122913   4.085   3.695   7.262 -0.2290 -0.9712  0.9846
 3759SOL    HW222914   4.102   3.825   7.188 -1.8648 -0.7151  0.0365
 3760SOL     OW22915   0.223   4.172   4.458 -0.0067  0.2316 -0.3516
 3760SOL    HW122916   0.235   4.266   4.469  0.4450  0.2681 -1.1554
 3760SOL    HW222917   0.152   4.153   4.396 -1.2029 -2.2382  1.7991
 3761SOL     OW22918   3.381   1.925  15.861  0.4491 -0.0123  0.3788
 3761SOL    HW122919   3.458   1.921  15.917  0.0698 -2.0121  0.7325
 3761SOL    HW222920   3.432   1.921  15.779 -1.9638 -0.7112 -1.0774
 3762SOL     OW22921   2.001   3.375  12.050  0.0503  0.0192  0.6200
 3762SOL    HW122922   2.073   3.320  12.021 -0.0866 -0.0733  0.4520
 3762SOL    HW222923   1.932   3.313  12.076  0.9365 -1.2530 -0.0886
 3763SOL     OW22924   3.090   4.118  14.947  0.0917 -0.2493 -0.7957
 3763SOL    HW122925   3.130   4.052  14.890 -0.2119 -3.1394  2.3148
 3763SOL    HW222926   3.008   4.127  14.899 -0.3318 -1.5034 -0.3132
 3764SOL     OW22927   2.126   0.941   3.481 -0.3083  0.2165 -0.4374
 3764SOL    HW122928   2.117   0.866   3.540 -0.4707  1.8080  1.5503
 3764SOL    HW222929   2.217   0.925   3.457 -0.6962 -2.4572 -0.1402
 3765SOL     OW22930   3.375   3.217   5.745 -0.1675 -0.2136 -0.3233
 3765SOL    HW122931   3.424   3.298   5.763  0.3840 -0.2754 -1.5300
 3765SOL    HW222932   3.307   3.222   5.812 -2.1251 -1.8136 -2.2188
 3766SOL     OW22933   4.159   0.023   6.657  0.1794  0.1377  1.1629
 3766SOL    HW122934   4.103   0.027   6.734  0.4613 -0.2337  1.3885
 3766SOL    HW222935   4.116   0.090   6.603 -0.0710 -1.2765 -0.3907
 3767SOL     OW22936   3.080   0.071   5.107 -0.3214  0.1028  0.2567
 3767SOL    HW122937   3.064   0.007   5.038  3.4721 -1.2888  0.6778
 3767SOL    HW222938   3.058   0.146   5.052  0.3416  0.6569  0.7409
 3768SOL     OW22939   1.294   2.653   5.490 -0.5824  0.0658 -0.9743
 3768SOL    HW122940   1.320   2.702   5.568  3.1531 -0.7751 -1.6878
 3768SOL    HW222941   1.307   2.717   5.419 -2.5091  0.0148 -1.3661
 3769SOL     OW22942   1.246   3.210   7.459  0.2005 -0.0369  0.0862
 3769SOL    HW122943   1.322   3.153   7.470 -1.3659 -2.0384  0.5334
 3769SOL    HW222944   1.186   3.174   7.524  0.5471  0.8282  0.8876
 3770SOL     OW22945   4.258   4.100  16.676 -0.2295 -0.5610  0.0144
 3770SOL    HW122946   4.219   4.115  16.590  3.7230  0.0710 -1.6817
 3770SOL    HW222947   4.264   4.005  16.675  0.9150 -0.4902 -0.1055
 3771SOL     OW22948   0.106   2.052   7.272 -0.0694 -0.4337 -0.2831
 3771SOL    HW122949   0.174   2.119   7.266  0.2980 -0.8601 -0.9238
 3771SOL    HW222950   0.163   1.978   7.252  1.4157  0.3961  0.8555
 3772SOL     OW22951   2.815   2.925  17.451  0.3553  0.2557  0.6174
 3772SOL    HW122952   2.866   2.982  17.395 -0.6000 -0.0147 -0.5341
 3772SOL    HW222953   2.739   2.883  17.410 -0.0422  1.0189  0.5761
 3773SOL     OW22954   4.426   0.758  14.694 -0.2548 -0.0524  0.0168
 3773SOL    HW122955   4.459   0.823  14.756  0.0195  1.5686 -1.8250
 3773SOL    HW222956   4.478   0.680  14.715 -3.0281 -1.1680  2.7915
 3774SOL     OW22957   4.374   0.871   4.688 -0.0849  0.5144 -0.2647
 3774SOL    HW122958   4.409   0.820   4.615  0.7295 -0.0568  0.5178
 3774SOL    HW222959   4.286   0.834   4.680  0.3464 -0.5443 -0.2493
 3775SOL     OW22960   2.733   3.589   0.239  0.0855  0.1605  0.0496
 3775SOL    HW122961   2.822   3.623   0.241 -0.2571  1.0734 -0.6324
 3775SOL    HW222962   2.684   3.656   0.286 -1.9284 -0.3695 -1.2874
 3776SOL     OW22963   0.004   0.444   7.300 -0.0151 -0.4634 -0.1480
 3776SOL    HW122964   4.710   0.358   7.329 -3.0609  0.1853 -1.3926
 3776SOL    HW222965   4.693   0.503   7.359  1.0209  0.6611 -0.4359
 3777SOL     OW22966   0.236   4.277   7.796  0.0578 -0.4008 -0.5394
 3777SOL    HW122967   0.181   4.287   7.873  0.2706 -1.6315 -0.2286
 3777SOL    HW222968   0.216   4.185   7.777  0.9290 -0.6216 -0.3771
 3778SOL     OW22969   1.983   0.132   6.277 -0.4473 -0.1060 -0.2182
 3778SOL    HW122970   1.887   0.129   6.279 -0.4682 -0.4156 -2.0491
 3778SOL    HW222971   2.006   0.060   6.219 -1.1342  0.2167 -0.8977
 3779SOL     OW22972   3.130   4.593  10.963 -0.1157 -0.5779 -0.3240
 3779SOL    HW122973   3.108   4.636  11.046 -4.7354  0.0578 -1.8677
 3779SOL    HW222974   3.048   4.593  10.914 -0.6572  2.1200  0.5518
 3780SOL     OW22975   2.763   1.106  14.304 -0.5818  0.9797  0.4364
 3780SOL    HW122976   2.818   1.110  14.383  2.0056  1.1487 -1.3584
 3780SOL    HW222977   2.838   1.112  14.244 -0.6075 -1.5988  0.1537
 3781SOL     OW22978   0.888   0.894   3.024  0.0971  0.5094  0.5201
 3781SOL    HW122979   0.941   0.834   2.971 -0.6684 -0.1884  0.5425
 3781SOL    HW222980   0.854   0.832   3.088 -0.5021  0.5423  0.2348
 3782SOL     OW22981   3.911   4.068   6.089 -0.5100  0.0818  0.2798
 3782SOL    HW122982   3.962   4.078   6.169  0.3531  1.7623 -0.4818
 3782SOL    HW222983   3.853   4.144   6.092 -0.6751 -0.0286 -0.0657
 3783SOL     OW22984   1.928   3.908   9.241 -0.3746  0.0307 -0.2708
 3783SOL    HW122985   1.986   3.833   9.255 -1.8255 -1.1094 -0.3040
 3783SOL    HW222986   1.867   3.866   9.180 -0.1455 -1.3848  0.4780
 3784SOL     OW22987   0.257   2.301   2.904  0.4924  0.1709  0.2536
 3784SOL    HW122988   0.315   2.339   2.837  2.5035 -2.0028  0.7782
 3784SOL    HW222989   0.310   2.226   2.931  1.1192  0.4458 -0.2033
 3785SOL     OW22990   0.546   3.302  10.530 -0.2159  0.6021  0.0941
 3785SOL    HW122991   0.514   3.338  10.613  1.7464  1.4638  0.4778
 3785SOL    HW222992   0.499   3.219  10.521 -0.7133  0.8982 -0.0851
 3786SOL     OW22993   1.561   2.241   5.040  0.4274  0.4442  0.2686
 3786SOL    HW122994   1.603   2.247   4.954 -1.2596  1.2410 -0.5051
 3786SOL    HW222995   1.586   2.152   5.065 -0.1198  0.8570  2.2898
 3787SOL     OW22996   1.431   0.268   8.219  0.3040  0.3628 -0.2700
 3787SOL    HW122997   1.422   0.281   8.313 -0.5478  0.6357 -0.3903
 3787SOL    HW222998   1.339   0.262   8.193  0.2828 -0.6878  0.0531
 3788SOL     OW22999   2.804   3.135  15.820  0.0076  0.2407 -0.1807
 3788SOL    HW123000   2.888   3.111  15.858 -0.8444 -2.0726  0.2311
 3788SOL    HW223001   2.833   3.221  15.789  1.0209  0.6304  1.8475
 3789SOL     OW23002   0.382   1.491   4.793  0.5389 -0.0637 -0.2646
 3789SOL    HW123003   0.342   1.407   4.818 -0.2997  0.3868 -0.0974
 3789SOL    HW223004   0.454   1.488   4.856 -0.3390 -1.0841  0.7068
 3790SOL     OW23005   3.038   0.638   2.616 -0.3193 -0.2535 -0.0465
 3790SOL    HW123006   2.962   0.692   2.595 -0.9045 -1.4333 -0.9551
 3790SOL    HW223007   3.086   0.690   2.680 -1.1631  0.2043  0.2141
 3791SOL     OW23008   1.380   2.351   6.898  1.0360 -0.6259  0.0995
 3791SOL    HW123009   1.415   2.347   6.987 -0.2453 -1.6276  0.5583
 3791SOL    HW223010   1.288   2.353   6.924  0.5330 -1.2414 -1.6224
 3792SOL     OW23011   1.716   0.324  12.911  0.6427  0.1045  1.1619
 3792SOL    HW123012   1.723   0.317  13.006  0.8362  2.0734  1.2963
 3792SOL    HW223013   1.700   0.418  12.904 -1.1311 -0.3014 -0.3114
 3793SOL     OW23014   3.179   3.314   8.737  0.2243 -0.3499  0.2694
 3793SOL    HW123015   3.115   3.385   8.728  0.7805  0.0971 -0.1610
 3793SOL    HW223016   3.190   3.325   8.831  1.8655 -1.3145  0.1907
 3794SOL     OW23017   4.704   0.251  14.965  0.1469 -0.0689  0.4675
 3794SOL    HW123018   4.735   0.264  14.876  4.1553  1.3470  2.0882
 3794SOL    HW223019   0.040   0.197  14.997  2.0608  0.9258 -2.2076
 3795SOL     OW23020   1.497   4.442   3.505 -0.6538 -0.4331 -0.8318
 3795SOL    HW123021   1.432   4.389   3.458 -2.2285 -2.2359  3.3738
 3795SOL    HW223022   1.457   4.529   3.512  2.5023  1.1076 -1.7648
 3796SOL     OW23023   2.583   2.184   7.252  0.3693  0.2088  0.4332
 3796SOL    HW123024   2.539   2.110   7.210 -0.0492 -0.5252  2.1599
 3796SOL    HW223025   2.519   2.252   7.229  0.4748 -0.2843 -1.3145
 3797SOL     OW23026   3.149   2.161   3.132  0.2897  0.0274 -0.4425
 3797SOL    HW123027   3.243   2.182   3.130 -0.4196  3.0380 -2.3691
 3797SOL    HW223028   3.140   2.137   3.040 -0.9010 -4.3639  0.8570
 3798SOL     OW23029   3.407   2.438   3.691 -0.2688  0.8052 -0.1304
 3798SOL    HW123030   3.320   2.468   3.665 -0.8314  1.1541  2.1820
 3798SOL    HW223031   3.453   2.438   3.607  1.5440  0.4825  0.8681
 3799SOL     OW23032   0.489   4.006   4.714 -0.3776  0.4417  0.0701
 3799SOL    HW123033   0.442   3.923   4.705  1.1467 -0.3804 -0.3460
 3799SOL    HW223034   0.562   3.998   4.651 -0.9027  0.4488 -0.5381
 3800SOL     OW23035   2.195   0.724   2.768  0.0231  0.4594 -0.9886
 3800SOL    HW123036   2.268   0.777   2.735  0.5025 -1.0756 -2.3814
 3800SOL    HW223037   2.177   0.770   2.850  1.3554  0.7716 -0.8643
 3801SOL     OW23038   4.403   1.294  15.621 -0.3643  0.4239 -0.0737
 3801SOL    HW123039   4.342   1.265  15.553 -0.7584  1.6014 -0.2284
 3801SOL    HW223040   4.349   1.290  15.700  2.5102  1.8791  1.9813
 3802SOL     OW23041   0.729   2.239   5.826  0.2479  0.0112 -0.1288
 3802SOL    HW123042   0.673   2.170   5.860 -2.3641  1.1911 -1.9754
 3802SOL    HW223043   0.715   2.311   5.888 -1.2419  0.6633 -1.2304
 3803SOL     OW23044   2.715   1.529   4.351  0.2321 -0.0047  0.4038
 3803SOL    HW123045   2.684   1.606   4.399  3.7459  0.7158  1.4805
 3803SOL    HW223046   2.806   1.546   4.327  0.1191  2.0322  1.4719
 3804SOL     OW23047   1.567   3.878  10.444  0.4509 -0.6228  0.2853
 3804SOL    HW123048   1.509   3.897  10.518  2.5019 -1.0782  2.0440
 3804SOL    HW223049   1.652   3.895  10.486  1.1192  0.6412 -1.5806
 3805SOL     OW23050   1.255   0.928   4.457 -0.2343 -0.3825 -0.2460
 3805SOL    HW123051   1.350   0.928   4.461 -0.3107 -2.1856  1.1752
 3805SOL    HW223052   1.227   0.837   4.445 -2.2578  0.5483 -2.6651
 3806SOL     OW23053   0.959   3.823  15.794 -0.7082 -0.3207 -0.1140
 3806SOL    HW123054   0.872   3.836  15.831 -1.3957 -1.5304 -1.3346
 3806SOL    HW223055   0.998   3.907  15.819 -2.4632  0.2472  0.7358
 3807SOL     OW23056   3.869   1.781   3.666  0.1681  0.0561  0.1737
 3807SOL    HW123057   3.862   1.713   3.733  0.5093 -1.1667 -1.0306
 3807SOL    HW223058   3.964   1.786   3.660  0.2193 -2.1426 -0.9905
 3808SOL     OW23059   1.296   3.184   5.186  0.6758 -0.0220 -0.0879
 3808SOL    HW123060   1.357   3.255   5.167 -0.7531  0.9913 -0.9283
 3808SOL    HW223061   1.363   3.117   5.177  0.2685 -0.2743 -1.2320
 3809SOL     OW23062   1.163   3.658  17.282 -0.5079  0.3678  0.3874
 3809SOL    HW123063   1.145   3.725  17.217 -2.6736  1.3380  1.9922
 3809SOL    HW223064   1.218   3.711  17.340 -2.8335  1.0973  1.9361
 3810SOL     OW23065   3.681   2.200   5.549  0.5937 -0.0005  0.2623
 3810SOL    HW123066   3.598   2.233   5.584  0.7648 -1.1343  1.7464
 3810SOL    HW223067   3.725   2.166   5.627 -0.8341  1.3681  1.6693
 3811SOL     OW23068   2.402   2.575   3.476  0.1570  0.2175  0.3798
 3811SOL    HW123069   2.446   2.659   3.491  1.0929  0.1068 -1.6853
 3811SOL    HW223070   2.405   2.588   3.381  1.6057 -2.0004  0.1345
 3812SOL     OW23071   0.818   2.914   7.506 -0.3488  0.3597  0.0277
 3812SOL    HW123072   0.845   2.834   7.550 -3.4637 -0.2177  0.9278
 3812SOL    HW223073   0.869   2.895   7.428  0.5279 -1.0141  0.9403
 3813SOL     OW23074   0.307   2.286   8.340 -0.6973  0.6319 -0.1711
 3813SOL    HW123075   0.381   2.342   8.316  0.2683  0.2396  1.8124
 3813SOL    HW223076   0.286   2.233   8.263 -0.3785  0.0300  0.1495
 3814SOL     OW23077   2.683   4.571   8.324 -0.0872 -0.1710  0.0203
 3814SOL    HW123078   2.706   4.543   8.235 -1.9348 -0.2774 -0.4065
 3814SOL    HW223079   2.768   4.611   8.345 -0.5277  0.6224  0.2882
 3815SOL     OW23080   3.776   2.020   8.231  0.1602 -0.8607  0.1268
 3815SOL    HW123081   3.730   1.978   8.159 -1.8193 -0.7742  1.3344
 3815SOL    HW223082   3.849   1.958   8.235  1.9421  1.1838 -0.9479
 3816SOL     OW23083   1.274   2.842   5.291  0.0689  0.0318  0.2882
 3816SOL    HW123084   1.343   2.897   5.255 -0.7827  1.4440  0.8104
 3816SOL    HW223085   1.239   2.807   5.209 -2.6657 -0.4938  1.6772
 3817SOL     OW23086   0.530   4.455  15.198 -0.5500  0.0369  0.2353
 3817SOL    HW123087   0.600   4.398  15.227  0.5524 -0.4733 -3.4282
 3817SOL    HW223088   0.572   4.492  15.120  3.6501 -2.3737  1.4070
 3818SOL     OW23089   0.377   2.640   6.646  0.4752  0.5559 -0.2563
 3818SOL    HW123090   0.440   2.574   6.617  0.6447  0.5216  0.1976
 3818SOL    HW223091   0.408   2.721   6.605  0.2551  1.8356  2.1262
 3819SOL     OW23092   2.195   2.450  17.012 -0.4772  0.3119 -0.0749
 3819SOL    HW123093   2.154   2.367  16.990  1.9860 -1.1172  0.8093
 3819SOL    HW223094   2.117   2.505  17.002  0.2323  0.9385 -2.1560
 3820SOL     OW23095   3.686   3.974   5.754  0.4515  0.1222 -0.6682
 3820SOL    HW123096   3.621   3.974   5.825 -1.4161 -0.4055 -2.3847
 3820SOL    HW223097   3.633   3.955   5.676  0.8547 -0.7504 -0.7241
 3821SOL     OW23098   3.733   0.015   6.563  0.4206 -0.0524  0.0674
 3821SOL    HW123099   3.713   4.660   6.583  1.7080 -0.0809  1.1977
 3821SOL    HW223100   3.740   0.010   6.467 -0.6040 -0.3499  0.0119
 3822SOL     OW23101   2.315   0.298  16.177  0.3498 -0.2207  0.6145
 3822SOL    HW123102   2.370   0.232  16.135 -0.6298 -0.2040 -0.7084
 3822SOL    HW223103   2.352   0.290  16.265  1.6416  0.0278  0.0826
 3823SOL     OW23104   4.098   0.262   2.621  0.0123  0.0398  0.1732
 3823SOL    HW123105   4.050   0.316   2.559  0.8560 -0.5075 -0.9466
 3823SOL    HW223106   4.040   0.186   2.624  0.5686 -0.3627  0.8613
 3824SOL     OW23107   0.790   1.948   6.569 -0.0564  0.2405  0.2229
 3824SOL    HW123108   0.877   1.955   6.608 -0.3389 -0.9395  1.0660
 3824SOL    HW223109   0.737   1.946   6.649 -1.2348  1.3301 -0.5421
 3825SOL     OW23110   1.290   1.869  10.256  0.0893  0.1821  0.1480
 3825SOL    HW123111   1.309   1.945  10.201 -0.6922  0.1225 -0.2058
 3825SOL    HW223112   1.327   1.795  10.207 -2.6920 -0.1136 -1.4836
 3826SOL     OW23113   3.997   0.433   0.850 -0.1646  0.2152  0.3832
 3826SOL    HW123114   3.943   0.510   0.837  2.3751  1.9346  0.0891
 3826SOL    HW223115   3.946   0.389   0.919  0.4899 -2.5162 -0.8616
 3827SOL     OW23116   4.555   4.435   6.857 -0.0357  0.4200 -0.4197
 3827SOL    HW123117   4.465   4.436   6.823 -0.1532 -2.8135 -0.2656
 3827SOL    HW223118   4.548   4.407   6.948  0.3685 -0.6160 -0.7013
 3828SOL     OW23119   1.397   2.801   0.617 -0.2792  0.5977  0.5381
 3828SOL    HW123120   1.361   2.714   0.602  1.4893  0.0765 -0.7160
 3828SOL    HW223121   1.482   2.775   0.653 -0.2287 -2.9343 -2.1156
 3829SOL     OW23122   0.555   4.096  15.024 -0.5753 -0.1341  0.6924
 3829SOL    HW123123   0.538   4.037  14.950  5.3326 -1.0711  0.0882
 3829SOL    HW223124   0.641   4.130  15.002 -1.2541  0.4545 -1.0953
 3830SOL     OW23125   1.011   3.265   0.301 -0.2064 -0.5935  0.8686
 3830SOL    HW123126   1.031   3.342   0.354 -1.1080  1.2698 -1.5084
 3830SOL    HW223127   1.097   3.224   0.301  1.4201  2.9309  0.0453
 3831SOL     OW23128   2.839   3.112   1.417  0.4528  0.4374 -0.5807
 3831SOL    HW123129   2.819   3.198   1.379  1.6539  0.4313 -1.2072
 3831SOL    HW223130   2.794   3.059   1.351  0.8414  0.4369 -0.8412
 3832SOL     OW23131   1.603   0.974   9.796 -0.1737  0.1333 -0.1567
 3832SOL    HW123132   1.600   0.983   9.700 -0.5297  0.6528 -0.0959
 3832SOL    HW223133   1.599   0.879   9.809  2.5068 -0.1032 -1.0042
 3833SOL     OW23134   3.738   2.106   7.378 -0.4452 -0.2568 -0.2581
 3833SOL    HW123135   3.663   2.158   7.404 -0.8865 -0.5980 -0.8566
 3833SOL    HW223136   3.783   2.124   7.461  1.3138 -0.1686 -1.2369
 3834SOL     OW23137   1.152   0.727  15.744  0.0193 -0.5499 -0.3042
 3834SOL    HW123138   1.229   0.698  15.695  0.0217 -1.5552  0.3016
 3834SOL    HW223139   1.089   0.657  15.729 -1.9855  1.3833 -0.9319
 3835SOL     OW23140   0.983   3.671   3.652  0.7215 -0.3929 -0.4177
 3835SOL    HW123141   0.906   3.651   3.705 -0.7664 -1.6023 -3.0199
 3835SOL    HW223142   1.044   3.662   3.725 -0.4610 -1.1057  0.4697
 3836SOL     OW23143   1.328   1.518   5.702  0.1917  0.0192 -0.2285
 3836SOL    HW123144   1.283   1.491   5.622  1.5308  2.6026 -1.8670
 3836SOL    HW223145   1.403   1.562   5.662 -0.1996  0.0491 -0.9345
 3837SOL     OW23146   2.718   4.261   7.955 -0.5217 -0.2000  0.1902
 3837SOL    HW123147   2.743   4.314   8.030  1.4144  2.8176 -2.5986
 3837SOL    HW223148   2.632   4.237   7.992 -0.4019 -2.5318 -0.9902
 3838SOL     OW23149   2.814   3.249  14.474 -0.0170  0.3119  0.2860
 3838SOL    HW123150   2.886   3.306  14.500 -2.1428  3.1406 -0.0785
 3838SOL    HW223151   2.739   3.305  14.459  0.9651  1.5647  0.0235
 3839SOL     OW23152   3.229   2.375   4.859  0.5338  0.3285 -0.1785
 3839SOL    HW123153   3.245   2.460   4.899  0.9364 -0.1200  0.6285
 3839SOL    HW223154   3.278   2.369   4.777 -0.8111  0.3565 -0.9766
 3840SOL     OW23155   2.497   2.753   9.197 -0.5374 -0.3137 -0.1013
 3840SOL    HW123156   2.448   2.772   9.117 -1.5122  1.5591  0.9357
 3840SOL    HW223157   2.478   2.660   9.205 -0.7197 -0.2658  0.0292
 3841SOL     OW23158   0.215   0.139  14.958 -0.6325  0.3516 -0.2027
 3841SOL    HW123159   0.243   0.052  14.986 -0.0395  1.5525  2.9202
 3841SOL    HW223160   0.287   0.203  14.959  1.1676 -1.6979  0.3124
 3842SOL     OW23161   1.666   3.002  10.667 -0.1487 -0.0322  0.4640
 3842SOL    HW123162   1.622   3.002  10.752 -0.3072 -0.0151  0.3814
 3842SOL    HW223163   1.608   3.056  10.613  1.9792  1.4554 -0.3062
 3843SOL     OW23164   0.776   1.186  13.588  0.0342  0.2170  0.6062
 3843SOL    HW123165   0.695   1.156  13.631 -0.4505  1.1371  0.3308
 3843SOL    HW223166   0.826   1.196  13.670  0.7962  1.6966 -0.0419
 3844SOL     OW23167   2.072   0.759  12.440  0.7375  0.0955 -0.3665
 3844SOL    HW123168   2.052   0.669  12.467 -0.1863  1.1637  2.4830
 3844SOL    HW223169   2.078   0.742  12.346  1.3702 -1.5979 -0.0216
 3845SOL     OW23170   1.585   0.345  11.922  0.2007 -0.0657 -0.1504
 3845SOL    HW123171   1.662   0.308  11.967 -0.5296 -1.3868  0.0166
 3845SOL    HW223172   1.520   0.289  11.965  1.3758 -2.5825 -1.6520
 3846SOL     OW23173   3.070   0.907   2.027  0.2052 -0.3679 -0.0334
 3846SOL    HW123174   3.075   0.814   2.006  0.9625 -0.2492 -0.4081
 3846SOL    HW223175   3.079   0.943   1.939  3.1626 -0.7899  0.0940
 3847SOL     OW23176   1.901   0.552  17.214 -0.2176  0.1751  0.1530
 3847SOL    HW123177   1.933   0.562  17.304 -2.0536  2.4044  0.5469
 3847SOL    HW223178   1.940   0.630  17.174  2.1929  0.3447  2.7525
 3848SOL     OW23179   3.068   4.347  16.031 -0.2737 -0.3262  0.3273
 3848SOL    HW123180   3.126   4.270  16.034  0.0164 -0.1028  0.3846
 3848SOL    HW223181   3.110   4.406  15.969 -1.2256 -1.2117 -1.1358
 3849SOL     OW23182   0.350   1.933  14.995 -0.0589 -0.3490  0.3204
 3849SOL    HW123183   0.320   1.938  15.086  0.8237  1.0021  0.5384
 3849SOL    HW223184   0.402   2.014  14.996 -1.1625  0.3543  0.6809
 3850SOL     OW23185   4.267   0.297   4.104  0.4499 -0.4493 -0.4054
 3850SOL    HW123186   4.279   0.222   4.045 -1.7309 -0.8439 -0.3577
 3850SOL    HW223187   4.172   0.311   4.096  1.0236  3.8233  0.2439
 3851SOL     OW23188   3.795   1.777   4.455  0.7467  0.0428 -0.1444
 3851SOL    HW123189   3.736   1.709   4.487  1.9079 -0.7134  0.3654
 3851SOL    HW223190   3.858   1.730   4.400 -1.7802  0.3735 -3.3931
 3852SOL     OW23191   4.137   2.885   8.625  0.3063  0.1244 -0.5929
 3852SOL    HW123192   4.117   2.848   8.539 -1.0321 -0.2869 -0.1010
 3852SOL    HW223193   4.102   2.974   8.622 -3.0990 -1.2680 -1.3779
 3853SOL     OW23194   0.349   2.922  17.347 -0.0631 -0.2059  0.3994
 3853SOL    HW123195   0.422   2.912  17.407 -0.6104 -2.3464  0.6984
 3853SOL    HW223196   0.292   2.847  17.364  1.4546 -1.2144  1.0245
 3854SOL     OW23197   2.650   3.859   5.311  0.1050  0.6365  0.0474
 3854SOL    HW123198   2.568   3.896   5.280 -0.6591 -1.4972 -0.4526
 3854SOL    HW223199   2.711   3.925   5.277  2.1498 -0.2640  1.9817
 3855SOL     OW23200   0.153   0.684  11.689 -0.1646  0.4224  0.2377
 3855SOL    HW123201   0.191   0.597  11.678 -1.7506 -0.0289 -1.6404
 3855SOL    HW223202   0.189   0.716  11.772  0.2451 -0.9636  0.5975
 3856SOL     OW23203   3.001   0.601   4.147  0.0641 -0.3196  0.0373
 3856SOL    HW123204   3.007   0.693   4.174 -0.4130 -0.8015  1.7703
 3856SOL    HW223205   2.935   0.604   4.078 -0.7545  0.2646  0.8402
 3857SOL     OW23206   0.658   0.728  15.108  0.1139 -0.5749  0.2391
 3857SOL    HW123207   0.688   0.817  15.092  0.0899 -0.5625  0.2625
 3857SOL    HW223208   0.736   0.678  15.131  0.6104  0.2646  0.3688
 3858SOL     OW23209   3.524   1.127  12.262  1.0372  0.1009  0.1737
 3858SOL    HW123210   3.551   1.070  12.334  1.1412 -1.6362 -1.2250
 3858SOL    HW223211   3.604   1.152  12.215 -0.0649 -0.4185 -2.0041
 3859SOL     OW23212   1.047   1.401  17.724  0.5773 -0.5959  0.4296
 3859SOL    HW123213   1.001   1.318  17.736 -0.8882  0.5801  2.7594
 3859SOL    HW223214   1.019   1.429  17.637  0.6016  1.3313  1.0313
 3860SOL     OW23215   0.089   2.717   7.760  0.3411  0.4299  0.2001
 3860SOL    HW123216   0.033   2.641   7.745  1.1669  0.1040 -1.1868
 3860SOL    HW223217   0.077   2.781   7.690 -0.1838 -0.5275 -0.5758
 3861SOL     OW23218   1.116   2.052   1.868  0.1269 -0.0490 -0.3141
 3861SOL    HW123219   1.087   1.990   1.800  0.2773 -1.7152  1.1318
 3861SOL    HW223220   1.208   2.060   1.843  0.3873 -1.9377  0.0204
 3862SOL     OW23221   2.268   2.648   5.494 -0.2198  0.2151 -0.2514
 3862SOL    HW123222   2.226   2.639   5.409  1.8317 -1.6440 -1.0563
 3862SOL    HW223223   2.358   2.670   5.470 -1.2185  1.8429 -2.4721
 3863SOL     OW23224   0.826   2.858   4.172 -0.1738  0.5054 -0.5494
 3863SOL    HW123225   0.810   2.764   4.173  2.4929  0.0522 -0.4668
 3863SOL    HW223226   0.882   2.868   4.096 -1.6895  1.3147 -1.5595
 3864SOL     OW23227   0.113   4.692   3.636 -0.7677  0.0226  0.0309
 3864SOL    HW123228   0.157   4.607   3.635  0.3990  0.5825  3.7573
 3864SOL    HW223229   0.054   4.675   3.563  0.1724 -0.4036 -0.6344
 3865SOL     OW23230   4.565   3.867  11.580  0.0633  0.2236  0.3883
 3865SOL    HW123231   4.614   3.874  11.498 -1.2535 -0.1355 -0.4366
 3865SOL    HW223232   4.625   3.827  11.643 -2.9026 -2.8388  1.2489
 3866SOL     OW23233   3.988   2.388   8.431  0.0966  0.6931  0.3626
 3866SOL    HW123234   4.068   2.440   8.423  2.0105 -1.9603  2.3816
 3866SOL    HW223235   4.020   2.343   8.509 -0.0425 -0.9529 -0.5328
 3867SOL     OW23236   0.459   1.732  15.249  0.2011  0.1712  0.2459
 3867SOL    HW123237   0.547   1.762  15.226  0.2017 -1.4930 -1.9200
 3867SOL    HW223238   0.452   1.781  15.331 -2.0783  1.7861 -0.9257
 3868SOL     OW23239   4.560   0.736   9.492 -0.5566  0.5175 -0.0628
 3868SOL    HW123240   4.615   0.694   9.559 -2.9121 -2.9081 -0.2869
 3868SOL    HW223241   4.549   0.824   9.526 -0.3548  0.5729 -0.1414
 3869SOL     OW23242   1.689   0.539  15.980  0.4520 -0.1488 -0.1661
 3869SOL    HW123243   1.721   0.580  15.899  1.5523 -0.4133  0.1397
 3869SOL    HW223244   1.762   0.564  16.036 -0.4477  0.8481  0.5630
 3870SOL     OW23245   3.739   0.484   8.871 -0.4459 -0.0921 -0.2090
 3870SOL    HW123246   3.656   0.514   8.835 -0.7028  0.1137  0.5433
 3870SOL    HW223247   3.743   0.541   8.948  0.4777  0.9968 -1.0545
 3871SOL     OW23248   1.791   4.271  14.859  0.4086 -0.3494 -0.3026
 3871SOL    HW123249   1.727   4.205  14.884 -0.1363  0.8598  1.4473
 3871SOL    HW223250   1.787   4.265  14.763  0.5962 -0.7611 -0.2865
 3872SOL     OW23251   2.795   0.916   4.936 -0.4287  0.1324 -0.5960
 3872SOL    HW123252   2.768   1.001   4.903 -2.4160  0.3089  1.4917
 3872SOL    HW223253   2.759   0.928   5.024 -1.3231  1.6164 -1.1729
 3873SOL     OW23254   4.228   3.318   3.958  0.4551  0.5610  0.0157
 3873SOL    HW123255   4.287   3.273   3.898 -0.1793 -0.3920  0.1068
 3873SOL    HW223256   4.269   3.290   4.040 -2.1313 -0.8839  0.8207
 3874SOL     OW23257   0.505   2.528   8.264 -0.3106  0.8427  0.1665
 3874SOL    HW123258   0.465   2.615   8.271 -2.2078 -0.1466  1.6243
 3874SOL    HW223259   0.452   2.490   8.194 -0.1321 -0.2363  0.6200
 3875SOL     OW23260   2.520   3.600   4.046 -0.2833  0.0402 -0.0875
 3875SOL    HW123261   2.570   3.553   3.979 -0.7081  2.2252 -1.8992
 3875SOL    HW223262   2.439   3.553   4.029 -1.1772  0.8781  1.8479
 3876SOL     OW23263   2.045   2.567   5.318  0.0622  0.0688 -0.5053
 3876SOL    HW123264   2.039   2.625   5.242 -0.1490  2.5640  1.4014
 3876SOL    HW223265   2.075   2.487   5.276 -1.1083 -0.7619  0.2451
 3877SOL     OW23266   4.067   0.503   9.286 -0.0980  0.1969 -0.0534
 3877SOL    HW123267   4.037   0.593   9.269  0.6267  0.5577  0.5567
 3877SOL    HW223268   4.131   0.492   9.216 -0.3154  0.1259 -0.2409
 3878SOL     OW23269   0.012   0.447   5.840  0.3811 -0.1527  0.1874
 3878SOL    HW123270   0.066   0.377   5.802  1.3653 -2.0673  4.9786
 3878SOL    HW223271   4.678   0.444   5.776  0.7444  0.3081 -0.2318
 3879SOL     OW23272   3.914   0.692  12.213 -0.5424 -0.5279  0.0497
 3879SOL    HW123273   3.970   0.756  12.258  0.9056 -2.2352  0.6554
 3879SOL    HW223274   3.855   0.747  12.161  0.4056 -0.5730 -1.0894
 3880SOL     OW23275   1.467   4.244   4.913  0.0363  0.5679 -0.2284
 3880SOL    HW123276   1.423   4.322   4.880 -1.4722 -1.1386 -2.2571
 3880SOL    HW223277   1.393   4.190   4.941  0.4853  0.6601  1.1326
 3881SOL     OW23278   3.166   3.445   8.253  0.1168 -0.2831 -0.4547
 3881SOL    HW123279   3.163   3.517   8.190 -0.4616 -0.3156 -0.4628
 3881SOL    HW223280   3.240   3.396   8.216  0.5329 -2.1021  2.7789
 3882SOL     OW23281   2.975   1.860   7.007 -0.3073  0.3820  0.4624
 3882SOL    HW123282   2.881   1.840   7.006 -0.3469  0.5269  1.3960
 3882SOL    HW223283   3.016   1.776   6.987  1.0259  1.1273  0.0591
 3883SOL     OW23284   0.449   2.768   5.658  0.3457 -0.3976  0.2923
 3883SOL    HW123285   0.484   2.685   5.626  0.7985  0.0148 -0.2799
 3883SOL    HW223286   0.444   2.814   5.574 -0.4633 -0.4688  0.2991
 3884SOL     OW23287   3.068   3.460   7.842 -0.3526  0.6599  0.0499
 3884SOL    HW123288   3.090   3.531   7.903  0.3664  1.7104 -1.4525
 3884SOL    HW223289   3.113   3.488   7.763 -2.5533  3.4328 -0.2051
 3885SOL     OW23290   1.674   2.892   7.153  0.1005  0.1340 -0.2600
 3885SOL    HW123291   1.686   2.881   7.059 -1.7980  1.3560 -0.6470
 3885SOL    HW223292   1.748   2.944   7.185  1.3909  0.1366 -3.2678
 3886SOL     OW23293   4.686   0.618   8.645 -0.1892 -0.3529  0.0801
 3886SOL    HW123294   0.020   0.593   8.586 -1.2915 -2.0676 -0.5258
 3886SOL    HW223295   4.614   0.632   8.584  0.2614  0.0665 -0.3528
 3887SOL     OW23296   1.535   1.286  11.114  0.3806  0.0530 -0.1426
 3887SOL    HW123297   1.584   1.248  11.041  1.3565 -1.6654  1.4116
 3887SOL    HW223298   1.537   1.212  11.175  0.6591  1.2343  1.3008
 3888SOL     OW23299   0.197   2.616   6.837  0.1682  0.1008 -0.1553
 3888SOL    HW123300   0.241   2.651   6.760  0.3504 -0.3387 -0.2502
 3888SOL    HW223301   0.265   2.625   6.903 -1.2124  0.8513  1.1732
 3889SOL     OW23302   1.919   3.762   4.835 -0.0566 -0.0858  0.6235
 3889SOL    HW123303   1.912   3.820   4.759 -2.0353  1.1972  1.7851
 3889SOL    HW223304   1.893   3.676   4.804  0.5624 -0.1961  0.3997
 3890SOL     OW23305   1.152   1.076   2.195  0.4020  0.8751 -0.2201
 3890SOL    HW123306   1.141   1.156   2.143  0.3968  0.2512 -1.1757
 3890SOL    HW223307   1.213   1.033   2.135 -0.0001 -1.5880  1.1492
 3891SOL     OW23308   0.163   1.924   5.736  0.6301  0.1749 -0.3850
 3891SOL    HW123309   0.253   1.938   5.706 -0.4038  1.0774 -3.0785
 3891SOL    HW223310   0.116   1.882   5.665  1.9060 -2.5908  0.4198
 3892SOL     OW23311   2.510   4.376   0.088  0.3414 -0.4382  0.2142
 3892SOL    HW123312   2.459   4.302   0.053  1.7340 -1.8332  1.1377
 3892SOL    HW223313   2.496   4.365   0.182 -1.2968 -3.8779 -0.4132
 3893SOL     OW23314   0.000   4.628  10.199  0.7467  0.0899 -0.2714
 3893SOL    HW123315   0.016   4.587  10.114 -1.4070 -0.9216 -0.1718
 3893SOL    HW223316   0.080   4.681  10.202  2.3900 -2.1222 -3.7087
 3894SOL     OW23317   3.698   2.123  15.195  0.3950  0.1823  0.1322
 3894SOL    HW123318   3.705   2.216  15.173 -1.1474  0.2395 -0.1817
 3894SOL    HW223319   3.744   2.083  15.121  0.0342  1.6471 -0.8797
 3895SOL     OW23320   1.493   0.416   8.650 -0.1025  0.4489  0.3926
 3895SOL    HW123321   1.479   0.451   8.738 -0.6941 -1.0914  0.9139
 3895SOL    HW223322   1.541   0.337   8.676  0.4993  1.2985  1.8882
 3896SOL     OW23323   4.698   4.428   2.660  0.0283  0.0205 -0.3177
 3896SOL    HW123324   0.017   4.504   2.680 -1.8939  0.7571  2.1759
 3896SOL    HW223325   4.619   4.478   2.638  0.3768  0.0415 -1.5570
 3897SOL     OW23326   0.058   1.594  11.285 -0.0873  0.1318 -0.1356
 3897SOL    HW123327   0.119   1.592  11.211 -1.1791  0.3497 -1.0461
 3897SOL    HW223328   0.021   1.506  11.275 -0.8777  0.3775  0.6646
 3898SOL     OW23329   1.219   4.173   5.107  0.2099 -0.0494 -0.2697
 3898SOL    HW123330   1.230   4.093   5.158  0.5290  0.4094  0.3877
 3898SOL    HW223331   1.209   4.231   5.183 -0.5382 -0.3098 -0.1662
 3899SOL     OW23332   3.359   1.396   7.648  0.0575 -0.2366 -0.0287
 3899SOL    HW123333   3.356   1.488   7.677 -1.8565  0.0363 -1.0504
 3899SOL    HW223334   3.290   1.399   7.582 -1.6278  2.3415  1.8264
 3900SOL     OW23335   0.260   1.939  15.256 -0.1941  0.4283  0.6262
 3900SOL    HW123336   0.328   1.926  15.322 -1.1938 -2.2365  1.1156
 3900SOL    HW223337   0.185   1.927  15.314  1.4254 -1.4508  2.3013
 3901SOL     OW23338   1.909   4.361   5.480  0.0102 -0.0813  0.4861
 3901SOL    HW123339   1.879   4.272   5.500  2.1708 -0.8095  0.5833
 3901SOL    HW223340   1.835   4.389   5.427 -0.3395 -0.8487  0.5711
 3902SOL     OW23341   0.165   3.188   6.114  0.8071 -0.3384  0.4292
 3902SOL    HW123342   0.145   3.276   6.082  1.7461  0.6494  2.5561
 3902SOL    HW223343   0.257   3.173   6.093  0.8944  1.3179 -0.3964
 3903SOL     OW23344   2.382   1.923   9.979  0.0243  0.0099 -0.4999
 3903SOL    HW123345   2.370   1.969  10.063  0.9336  1.3046 -1.0771
 3903SOL    HW223346   2.456   1.867  10.001  0.1770  0.2451 -0.4139
 3904SOL     OW23347   4.195   1.280   0.507 -0.2876  0.4163 -0.4422
 3904SOL    HW123348   4.281   1.274   0.549  0.1950 -0.8242 -1.5990
 3904SOL    HW223349   4.181   1.370   0.479  0.6922  0.1010 -1.8988
 3905SOL     OW23350   1.697   2.446   6.760  0.2909  0.1814 -0.0698
 3905SOL    HW123351   1.778   2.492   6.781  1.4329 -2.1596  0.5889
 3905SOL    HW223352   1.696   2.441   6.665 -0.2703 -1.0372 -0.0060
 3906SOL     OW23353   1.561   2.762   9.557 -0.4648 -0.2273  0.2783
 3906SOL    HW123354   1.476   2.788   9.592 -0.6169  2.8135 -2.3181
 3906SOL    HW223355   1.602   2.847   9.544  1.5155 -0.9326  1.8090
 3907SOL     OW23356   4.496   4.519  15.750  0.0208  0.5398 -0.7577
 3907SOL    HW123357   4.406   4.529  15.782 -0.7721  1.8458 -3.4059
 3907SOL    HW223358   4.534   4.600  15.785  0.2152 -0.3960  1.2095
 3908SOL     OW23359   3.784   3.090   1.900 -0.9651 -0.2389  0.4126
 3908SOL    HW123360   3.870   3.089   1.859 -1.0853 -0.2481  0.1621
 3908SOL    HW223361   3.751   3.173   1.866  1.5888  0.0245 -1.3635
 3909SOL     OW23362   3.101   3.664   7.199  0.2644 -0.5491 -0.4510
 3909SOL    HW123363   3.062   3.743   7.236  1.0399 -0.6253  0.5172
 3909SOL    HW223364   3.130   3.697   7.114 -2.0683 -1.0188 -1.4315
 3910SOL     OW23365   0.685   2.064  14.874  0.0187 -0.1084  0.2390
 3910SOL    HW123366   0.699   1.981  14.829 -0.1219 -0.4036  0.7453
 3910SOL    HW223367   0.648   2.114  14.801  2.8225  0.8963 -0.5201
 3911SOL     OW23368   0.331   1.507   4.362  0.0435  0.3709  0.2107
 3911SOL    HW123369   0.329   1.558   4.281  0.2028  0.1755  0.0851
 3911SOL    HW223370   0.249   1.534   4.404  0.0206 -0.2759  0.5794
 3912SOL     OW23371   2.816   3.866   1.375 -0.2594  0.1736  1.3592
 3912SOL    HW123372   2.822   3.918   1.455 -0.5149  0.0909  1.4334
 3912SOL    HW223373   2.789   3.934   1.313  1.9928  0.3317  0.5514
 3913SOL     OW23374   0.374   4.653   1.947 -0.4059 -0.3598 -0.0929
 3913SOL    HW123375   0.358   4.579   2.005  0.4766 -0.0149  0.5681
 3913SOL    HW223376   0.336   4.622   1.865  1.4776 -0.5703 -0.8860
 3914SOL     OW23377   0.259   4.606  14.181 -0.0348  0.2368 -0.0843
 3914SOL    HW123378   0.292   4.520  14.210  0.7229  0.4736 -0.2280
 3914SOL    HW223379   0.184   4.581  14.126 -1.1783  1.0404  1.1336
 3915SOL     OW23380   3.478   1.347   2.672 -0.2992  0.0308 -0.6571
 3915SOL    HW123381   3.450   1.428   2.716 -0.8240 -1.4156  1.6912
 3915SOL    HW223382   3.551   1.378   2.619 -0.7096  2.0168 -0.0742
 3916SOL     OW23383   2.126   2.229   5.497 -0.6541 -0.5522  0.0524
 3916SOL    HW123384   2.173   2.211   5.415 -1.2668  0.5971 -0.5466
 3916SOL    HW223385   2.120   2.150   5.552 -0.0747 -2.0099 -1.9723
 3917SOL     OW23386   2.727   2.333   4.065  0.0985 -0.2938 -0.8699
 3917SOL    HW123387   2.652   2.311   4.009  1.0120 -0.5762 -1.9983
 3917SOL    HW223388   2.776   2.399   4.014 -0.2810  1.2865  0.8031
 3918SOL     OW23389   4.210   3.973  14.913 -0.0276  0.0071 -0.2949
 3918SOL    HW123390   4.244   4.057  14.884 -0.2909  0.1731 -0.1216
 3918SOL    HW223391   4.232   3.971  15.006 -2.0312 -1.7835  0.1473
 3919SOL     OW23392   0.530   4.466   5.195  0.5250  0.1893 -0.2512
 3919SOL    HW123393   0.578   4.384   5.181  1.3903  0.6455  0.0321
 3919SOL    HW223394   0.580   4.521   5.256  1.2816 -0.6051 -0.1514
 3920SOL     OW23395   1.202   2.865   7.446  0.4287  0.5817 -0.7265
 3920SOL    HW123396   1.289   2.880   7.484  0.5690  1.1178 -1.2673
 3920SOL    HW223397   1.175   2.790   7.499 -1.8332  1.4842 -0.5939
 3921SOL     OW23398   0.419   3.091   8.328 -0.3415  0.1556 -0.2515
 3921SOL    HW123399   0.371   3.174   8.340 -0.4783  0.1356 -0.6573
 3921SOL    HW223400   0.498   3.122   8.285  0.9437 -2.4631  0.2239
 3922SOL     OW23401   3.459   4.096  14.439  0.1861  0.2064  0.4424
 3922SOL    HW123402   3.408   4.075  14.361 -0.4375  0.6698  0.7334
 3922SOL    HW223403   3.485   4.009  14.470 -1.1752 -0.6769 -0.9409
 3923SOL     OW23404   4.055   1.177   0.237  0.4924 -0.0701  0.1099
 3923SOL    HW123405   3.960   1.182   0.228  0.7431  0.2974 -2.3496
 3923SOL    HW223406   4.073   1.264   0.272 -1.7197  0.2950  0.3162
 3924SOL     OW23407   0.786   0.761   8.594  0.2781 -0.3586 -0.4892
 3924SOL    HW123408   0.764   0.739   8.504  0.0760 -0.7708 -0.3376
 3924SOL    HW223409   0.780   0.855   8.575 -0.2316  0.5535  4.3237
 3925SOL     OW23410   3.419   3.871   4.530  0.2443 -0.1753  0.5636
 3925SOL    HW123411   3.341   3.878   4.476  1.0751 -1.3447 -0.8041
 3925SOL    HW223412   3.410   3.790   4.581  3.3550 -2.1212 -1.9614
 3926SOL     OW23413   0.048   1.207   0.255 -0.0146 -0.1441 -0.1564
 3926SOL    HW123414   0.001   1.281   0.217 -0.6066  0.5165  1.8861
 3926SOL    HW223415   0.142   1.218   0.240 -0.1627  1.1030 -0.1832
 3927SOL     OW23416   2.272   1.305  11.151 -0.4315  0.4218  0.1011
 3927SOL    HW123417   2.259   1.396  11.124  0.6597  1.2745  2.4188
 3927SOL    HW223418   2.367   1.309  11.166 -0.0462 -0.1576 -2.1563
 3928SOL     OW23419   0.716   4.645   5.331 -0.3521 -0.1108  0.3045
 3928SOL    HW123420   0.764   4.710   5.279  0.0319 -0.4085  0.2818
 3928SOL    HW223421   0.766   4.648   5.413 -1.0341 -1.0187  0.7418
 3929SOL     OW23422   3.749   0.500   9.381 -0.2423 -0.0104  0.8652
 3929SOL    HW123423   3.684   0.534   9.442 -1.9426 -2.4347  0.3818
 3929SOL    HW223424   3.779   0.418   9.421  0.7960 -0.4463 -0.7858
 3930SOL     OW23425   4.411   0.912   0.132 -0.1799  1.2845  0.4619
 3930SOL    HW123426   4.360   0.897   0.212 -1.1443  1.6231 -0.0960
 3930SOL    HW223427   4.490   0.944   0.176  1.5164 -0.8066 -1.1075
 3931SOL     OW23428   3.247   1.999   1.219 -0.5009  0.0889  0.0210
 3931SOL    HW123429   3.333   2.000   1.260 -1.7292 -0.8654  2.6619
 3931SOL    HW223430   3.229   2.093   1.224 -0.2867 -0.0020  2.3921
 3932SOL     OW23431   2.023   1.250  16.537  0.0307 -0.2602  0.2203
 3932SOL    HW123432   2.074   1.179  16.575  0.3882 -0.4693 -0.6364
 3932SOL    HW223433   2.094   1.286  16.484 -2.3219  2.4970 -1.0542
 3933SOL     OW23434   4.082   3.331   9.348  0.1778 -0.4035 -0.1831
 3933SOL    HW123435   4.070   3.406   9.406  0.0658 -0.0993 -0.6038
 3933SOL    HW223436   4.051   3.368   9.266  0.3100 -1.7460 -0.8349
 3934SOL     OW23437   1.935   2.174   7.378  0.2044 -0.6431  0.2864
 3934SOL    HW123438   1.909   2.191   7.468 -0.1052 -2.2986  0.5049
 3934SOL    HW223439   1.924   2.259   7.334  2.0546 -0.2785  0.5450
 3935SOL     OW23440   2.548   4.147  12.416  0.1380  0.5276 -0.1463
 3935SOL    HW123441   2.563   4.215  12.350  0.5048  0.9224  0.3415
 3935SOL    HW223442   2.637   4.138  12.449 -0.3272  1.6271  1.4381
 3936SOL     OW23443   2.384   4.262  10.580 -0.2582  0.4180 -0.1127
 3936SOL    HW123444   2.400   4.341  10.630 -0.3033 -0.6971  1.6651
 3936SOL    HW223445   2.466   4.245  10.534 -0.5951 -1.1394 -0.1651
 3937SOL     OW23446   4.381   0.311   4.353  0.0016 -0.2405 -0.4735
 3937SOL    HW123447   4.352   0.299   4.263 -2.0238 -1.1693  0.2907
 3937SOL    HW223448   4.346   0.234   4.399 -1.1390  0.4553 -0.1646
 3938SOL     OW23449   1.642   3.373  13.409  0.1624 -0.0764 -0.2784
 3938SOL    HW123450   1.708   3.429  13.369  2.0402 -1.2150  1.2753
 3938SOL    HW223451   1.653   3.372  13.504 -0.1381 -1.1644 -0.2600
 3939SOL     OW23452   3.235   1.603   6.609 -0.0892  0.1611 -0.4987
 3939SOL    HW123453   3.195   1.562   6.686  1.2645 -1.2115 -0.5205
 3939SOL    HW223454   3.330   1.590   6.619 -0.1141 -0.3681 -0.9191
 3940SOL     OW23455   4.223   3.178   4.388  0.6478  0.2912  0.1018
 3940SOL    HW123456   4.162   3.233   4.339  1.9857  0.3119 -1.5598
 3940SOL    HW223457   4.160   3.157   4.457  0.6155  1.3421  0.3929
 3941SOL     OW23458   3.337   3.366   1.949 -0.1049 -0.1325 -0.3873
 3941SOL    HW123459   3.326   3.295   1.887 -1.4856  0.7347 -1.1299
 3941SOL    HW223460   3.403   3.327   2.006 -0.9233 -0.6685  0.1826
 3942SOL     OW23461   0.593   4.678   7.892  0.5779 -0.4807 -0.4338
 3942SOL    HW123462   0.683   4.666   7.861  0.6104  1.3755 -1.0002
 3942SOL    HW223463   0.555   4.590   7.891  2.0023 -1.0774 -1.9276
 3943SOL     OW23464   3.379   1.101  14.510  0.4366  0.3076 -0.2378
 3943SOL    HW123465   3.359   1.185  14.469  0.0800  0.8038  0.9510
 3943SOL    HW223466   3.288   1.074  14.517  0.5435  0.0953  0.3123
 3944SOL     OW23467   3.844   3.302   6.285  0.2011 -0.2457  0.1613
 3944SOL    HW123468   3.785   3.358   6.236  0.5162  0.3996  0.5120
 3944SOL    HW223469   3.932   3.322   6.253 -0.9819  1.6776 -1.9181
 3945SOL     OW23470   1.134   2.904  16.721 -0.4468 -0.0027 -0.4007
 3945SOL    HW123471   1.051   2.870  16.685 -0.5043  0.7455 -0.9884
 3945SOL    HW223472   1.130   2.856  16.803 -0.2381 -0.8949 -0.9159
 3946SOL     OW23473   1.523   3.452   1.944  0.0530 -0.5003 -0.0427
 3946SOL    HW123474   1.578   3.433   2.020 -1.2138 -0.2939  0.9265
 3946SOL    HW223475   1.455   3.500   1.990  1.5709 -0.1639  1.8449
 3947SOL     OW23476   0.954   3.206   7.855 -0.2276  0.1024  0.1085
 3947SOL    HW123477   0.923   3.296   7.858 -1.1977 -0.2197 -0.2896
 3947SOL    HW223478   0.871   3.160   7.840 -0.7254  1.1254 -0.2459
 3948SOL     OW23479   3.618   1.835   4.739 -0.4928 -0.6616  0.9125
 3948SOL    HW123480   3.554   1.849   4.809 -1.9805  0.2006 -0.6181
 3948SOL    HW223481   3.608   1.742   4.722 -0.7221 -0.5701  0.5500
 3949SOL     OW23482   3.671   2.316   7.683 -0.0021  0.7155  0.4827
 3949SOL    HW123483   3.689   2.282   7.771  0.1744  1.1423  0.6115
 3949SOL    HW223484   3.576   2.325   7.690 -0.1668 -0.8537  0.4458
 3950SOL     OW23485   0.774   2.006   2.371 -0.1105 -0.5227  0.6565
 3950SOL    HW123486   0.790   2.006   2.466 -1.4140 -0.2367  0.8770
 3950SOL    HW223487   0.804   2.097   2.361 -0.5168 -0.4612  0.0045
 3951SOL     OW23488   2.179   2.523   3.106  0.2307  0.3720  0.1315
 3951SOL    HW123489   2.144   2.559   3.025  0.1291  1.3527  0.6121
 3951SOL    HW223490   2.233   2.597   3.135  1.0786 -0.4702  0.7007
 3952SOL     OW23491   3.728   1.481   7.951  0.1600  0.0873 -0.4472
 3952SOL    HW123492   3.790   1.416   7.920  1.3941 -0.1180  2.4714
 3952SOL    HW223493   3.661   1.417   7.976 -0.8530  1.0725 -0.6451
 3953SOL     OW23494   4.629   0.677   7.459 -0.3353 -0.0462  0.2713
 3953SOL    HW123495   4.543   0.713   7.482  0.2095  2.2169 -1.2336
 3953SOL    HW223496   4.680   0.749   7.497 -1.3046  0.2638  1.0181
 3954SOL     OW23497   3.109   2.818   6.166 -0.0851 -0.8455  0.2960
 3954SOL    HW123498   3.182   2.772   6.126 -0.0653 -0.4364 -0.1413
 3954SOL    HW223499   3.087   2.894   6.111  2.0156  1.2080  2.2695
 3955SOL     OW23500   3.249   1.004   0.069 -0.0678 -0.5984 -0.0556
 3955SOL    HW123501   3.188   0.930   0.070 -1.0813  0.2311  0.2351
 3955SOL    HW223502   3.208   1.066   0.129  1.1235  0.8697 -0.7865
 3956SOL     OW23503   0.842   4.546   8.488 -0.1875 -0.4455 -0.0973
 3956SOL    HW123504   0.815   4.571   8.400 -0.2369  0.2915  0.1225
 3956SOL    HW223505   0.762   4.543   8.540 -0.6146 -3.1015 -0.9154
 3957SOL     OW23506   0.347   0.806   1.627 -0.7337 -0.4981  0.5083
 3957SOL    HW123507   0.260   0.847   1.630 -0.4411  0.2005 -0.6750
 3957SOL    HW223508   0.375   0.828   1.538  0.6227 -0.7726  0.8753
 3958SOL     OW23509   1.331   3.435   1.678 -0.0105 -0.1096 -0.2651
 3958SOL    HW123510   1.289   3.395   1.602  0.1027 -1.8952  0.6241
 3958SOL    HW223511   1.403   3.483   1.638  1.0488 -0.2499  1.5156
 3959SOL     OW23512   2.053   2.039   3.104  0.0913 -0.2601 -0.6471
 3959SOL    HW123513   2.120   2.104   3.079  1.0686 -0.6559  0.9304
 3959SOL    HW223514   2.104   1.972   3.148 -1.5846 -1.6625 -0.8463
 3960SOL     OW23515   0.030   1.306  14.897 -0.3239 -0.2124 -0.2135
 3960SOL    HW123516   0.027   1.402  14.893 -0.0680 -0.1321  1.5334
 3960SOL    HW223517   0.069   1.305  14.984  0.1369  0.0941 -0.4201
 3961SOL     OW23518   2.469   2.425   8.431 -0.5307  0.0045  0.2626
 3961SOL    HW123519   2.509   2.413   8.518 -0.3538 -0.6720  0.0833
 3961SOL    HW223520   2.459   2.338   8.394 -0.9747  0.7765 -1.4298
 3962SOL     OW23521   1.116   4.283   3.076 -0.6251 -0.2700  0.0747
 3962SOL    HW123522   1.151   4.203   3.037 -0.6092 -1.3470  2.2794
 3962SOL    HW223523   1.091   4.256   3.165  1.0491 -1.9332  0.0305
 3963SOL     OW23524   0.263   4.530   4.735 -0.0468  0.1430 -1.0844
 3963SOL    HW123525   0.173   4.504   4.755 -0.5647  0.1606 -3.4761
 3963SOL    HW223526   0.301   4.537   4.823 -0.2275  1.1199 -1.0873
 3964SOL     OW23527   4.402   0.731  12.556  0.2888  0.0163 -0.2803
 3964SOL    HW123528   4.314   0.704  12.528 -0.5652  2.4078  0.1441
 3964SOL    HW223529   4.391   0.733  12.651 -1.9677  2.0256 -0.5785
 3965SOL     OW23530   0.451   2.854   1.859  0.0248 -0.0717 -0.1658
 3965SOL    HW123531   0.469   2.800   1.782  1.0530 -0.1710  0.1456
 3965SOL    HW223532   0.464   2.792   1.931 -0.4656 -1.6764 -1.4496
 3966SOL     OW23533   0.903   4.489   2.401  0.3828 -0.3345 -0.3541
 3966SOL    HW123534   0.952   4.493   2.484  1.9353 -0.8592 -1.2524
 3966SOL    HW223535   0.851   4.568   2.417 -0.9071 -1.4991  1.2831
 3967SOL     OW23536   2.879   2.954   7.930  0.3685 -0.2404  0.1277
 3967SOL    HW123537   2.960   2.915   7.896  0.6830  2.5210 -2.2938
 3967SOL    HW223538   2.818   2.883   7.913  0.3994 -0.0432 -0.7760
 3968SOL     OW23539   0.838   4.644   8.223  0.7045 -0.3898  0.4070
 3968SOL    HW123540   0.857   4.600   8.140  2.2287 -0.6689  0.9123
 3968SOL    HW223541   0.773   4.709   8.196 -0.8044 -0.8827  2.7879
 3969SOL     OW23542   0.898   4.361   8.813  0.6238 -0.0516  0.1738
 3969SOL    HW123543   0.806   4.390   8.810 -0.0814 -2.3758 -0.3695
 3969SOL    HW223544   0.914   4.383   8.905 -0.7984 -0.1840  0.4579
 3970SOL     OW23545   0.806   1.489   5.959 -0.3868  0.4893  0.3636
 3970SOL    HW123546   0.797   1.575   6.001 -1.3905 -0.3095  1.7566
 3970SOL    HW223547   0.882   1.506   5.904  1.7564  0.1261  3.2360
 3971SOL     OW23548   1.191   2.156   3.322  1.0213  0.9596  0.3012
 3971SOL    HW123549   1.209   2.246   3.293  2.1285  0.3942 -0.7853
 3971SOL    HW223550   1.241   2.157   3.403  1.2204 -1.3771  0.2106
 3972SOL     OW23551   0.288   1.029  13.612 -0.2705  0.3752 -0.2073
 3972SOL    HW123552   0.203   0.992  13.590 -0.0101 -1.3416  1.6288
 3972SOL    HW223553   0.301   1.093  13.542  0.9531 -0.8396 -1.1142
 3973SOL     OW23554   0.491   1.098  15.709  0.2591 -0.3313 -0.2175
 3973SOL    HW123555   0.453   1.140  15.632  0.3455 -0.1296 -0.1500
 3973SOL    HW223556   0.573   1.072  15.668 -0.1670 -1.4451 -0.3694
 3974SOL     OW23557   0.890   1.126   8.853 -0.1634  0.5506  0.7789
 3974SOL    HW123558   0.893   1.222   8.844  0.0714  0.3209 -1.4430
 3974SOL    HW223559   0.978   1.115   8.817  0.0241  0.1353  1.3706
 3975SOL     OW23560   4.041   0.014  13.735  0.3806 -0.2386  0.2483
 3975SOL    HW123561   4.035   4.718  13.825  0.6423  2.4289  1.2114
 3975SOL    HW223562   4.124   4.718  13.700  0.9997  1.3832  0.2416
 3976SOL     OW23563   1.390   2.401   5.597 -0.4905  0.2155  0.0710
 3976SOL    HW123564   1.484   2.411   5.583 -0.5302  1.8056  0.9638
 3976SOL    HW223565   1.351   2.483   5.565 -0.0990 -0.1553 -1.3458
 3977SOL     OW23566   2.082   0.293   3.564 -0.1842 -0.3742 -0.2106
 3977SOL    HW123567   2.015   0.338   3.513  0.1038  0.1036 -0.1687
 3977SOL    HW223568   2.032   0.232   3.618 -0.4227 -1.4677 -1.6594
 3978SOL     OW23569   0.066   4.512   8.500  0.3331 -0.0077  0.4410
 3978SOL    HW123570   0.104   4.589   8.543 -2.1615  1.6292 -0.2867
 3978SOL    HW223571   0.032   4.461   8.573 -0.1604 -0.7451 -0.3034
 3979SOL     OW23572   3.067   0.986  13.417 -0.2929 -0.1147  0.2587
 3979SOL    HW123573   3.019   0.931  13.478 -2.1639  0.2323 -0.8915
 3979SOL    HW223574   3.119   0.922  13.367  0.2215  0.2992  0.2607
 3980SOL     OW23575   2.764   4.292   6.991 -0.6327 -0.1536 -0.7306
 3980SOL    HW123576   2.706   4.244   7.051 -1.8256 -0.7942 -2.4025
 3980SOL    HW223577   2.714   4.373   6.982  1.1480  1.1240  0.9142
 3981SOL     OW23578   0.678   0.093   8.409  0.1226  0.1033  0.0941
 3981SOL    HW123579   0.669   0.118   8.500  0.5471 -0.4861  0.2963
 3981SOL    HW223580   0.773   0.093   8.403  0.2283  1.6214  1.9715
 3982SOL     OW23581   4.588   4.193  11.420  0.1723 -0.1552  0.6402
 3982SOL    HW123582   4.676   4.230  11.406 -0.9073  2.4067  0.6944
 3982SOL    HW223583   4.611   4.103  11.395  2.1210 -0.0307  1.9767
 3983SOL     OW23584   2.153   3.924   4.810  0.0738 -0.3780 -0.0460
 3983SOL    HW123585   2.097   3.861   4.854 -0.1071  0.4307  0.8997
 3983SOL    HW223586   2.198   3.973   4.880  0.3879 -2.0026  0.8804
 3984SOL     OW23587   4.303   2.612   6.064 -0.3780 -0.1469 -0.2631
 3984SOL    HW123588   4.397   2.612   6.080 -0.5842  1.4805  0.9482
 3984SOL    HW223589   4.298   2.680   5.997 -1.0985 -1.2595 -1.3370
 3985SOL     OW23590   4.053   2.234   3.326 -0.0736 -0.2394  0.6574
 3985SOL    HW123591   4.032   2.178   3.400 -2.7611  1.0613  0.8747
 3985SOL    HW223592   4.115   2.295   3.364 -0.5139  0.4036  0.3361
 3986SOL     OW23593   0.371   3.593   7.594  0.2284  0.4724  0.2573
 3986SOL    HW123594   0.342   3.506   7.624  0.1958  0.7011  0.8831
 3986SOL    HW223595   0.342   3.586   7.502  0.9620 -0.1675  0.0737
 3987SOL     OW23596   2.112   4.663   5.847  0.2864  0.3228  0.1732
 3987SOL    HW123597   2.078   4.728   5.909  0.3719 -0.6642  1.2809
 3987SOL    HW223598   2.044   4.595   5.846  0.6042  0.0887 -3.4286
 3988SOL     OW23599   0.476   3.863   0.464 -0.0406  0.0926 -0.2961
 3988SOL    HW123600   0.426   3.783   0.482  0.8817 -0.0333  1.7294
 3988SOL    HW223601   0.471   3.908   0.549 -2.5551  0.8644 -0.8505
 3989SOL     OW23602   1.567   4.726   1.891 -0.8072  0.0071 -0.3805
 3989SOL    HW123603   1.486   4.676   1.904  0.3538 -2.0065 -0.9776
 3989SOL    HW223604   1.536   0.076   1.921 -3.6661 -1.1528  0.0180
 3990SOL     OW23605   2.280   4.199  10.226  0.1615  0.6776  0.2108
 3990SOL    HW123606   2.242   4.281  10.195 -0.4195 -0.1186 -1.1871
 3990SOL    HW223607   2.226   4.176  10.301 -1.0184 -0.9057 -1.1081
 3991SOL     OW23608   3.556   2.353   0.101  0.3348  0.0919  0.0956
 3991SOL    HW123609   3.567   2.297   0.024  1.0149  2.1400 -1.3010
 3991SOL    HW223610   3.621   2.420   0.080  1.6736 -1.4978 -0.8551
 3992SOL     OW23611   0.983   3.718   5.451  0.3009  0.6244 -0.0815
 3992SOL    HW123612   0.946   3.669   5.524 -0.9013 -1.1083 -1.8507
 3992SOL    HW223613   0.949   3.807   5.464 -0.2597  0.3921  0.0191
 3993SOL     OW23614   4.320   3.074   6.281  0.2689 -0.8192 -0.3430
 3993SOL    HW123615   4.382   3.005   6.256  0.6666  0.0018 -1.6455
 3993SOL    HW223616   4.239   3.041   6.243 -0.2549  0.1041 -0.0217
 3994SOL     OW23617   4.691   1.093   1.699  0.1004  0.1752  0.6410
 3994SOL    HW123618   0.001   1.012   1.679 -1.2045 -0.2420 -0.6736
 3994SOL    HW223619   4.673   1.090   1.793  0.6125 -1.2019  0.7025
 3995SOL     OW23620   1.398   2.829   6.394 -0.3580  0.5126 -0.5262
 3995SOL    HW123621   1.440   2.912   6.369  0.8457  0.3896  1.0656
 3995SOL    HW223622   1.373   2.795   6.308  0.6223 -0.8921 -0.2529
 3996SOL     OW23623   2.164   1.357   8.356  0.0602  0.4277 -0.3401
 3996SOL    HW123624   2.146   1.451   8.351  1.0042  0.6138 -0.2312
 3996SOL    HW223625   2.097   1.339   8.422 -0.0979 -1.2459 -0.9639
 3997SOL     OW23626   3.154   0.744   9.258 -0.2953 -0.1940  0.7100
 3997SOL    HW123627   3.107   0.755   9.175  1.6133  3.0939  0.0695
 3997SOL    HW223628   3.108   0.805   9.316 -0.9090 -1.6506  1.7622
 3998SOL     OW23629   4.566   2.762  12.261  0.4009  0.1229 -0.2407
 3998SOL    HW123630   4.566   2.679  12.214 -0.5352  0.2052 -0.3819
 3998SOL    HW223631   4.530   2.820  12.194  1.6039  1.9630  0.7008
 3999SOL     OW23632   3.305   3.132  14.622 -0.7156 -0.2190 -0.0858
 3999SOL    HW123633   3.399   3.130  14.640 -0.7146 -0.9076 -0.1734
 3999SOL    HW223634   3.277   3.197  14.686 -1.8734 -0.0367 -0.7752
 4000SOL     OW23635   3.831   1.882   5.269 -0.0973  0.7807  0.8030
 4000SOL    HW123636   3.849   1.826   5.344 -0.2899  1.0757  1.0656
 4000SOL    HW223637   3.748   1.925   5.290 -0.3110  0.9130 -0.2895
 4001SOL     OW23638   1.636   0.061   2.995  0.4048  0.7118 -0.0370
 4001SOL    HW123639   1.654   0.155   2.998  0.5629  0.5852  2.3946
 4001SOL    HW223640   1.566   0.039   3.056  1.0998  1.0040  0.8582
 4002SOL     OW23641   2.956   2.540   8.092  0.0383  0.0548  0.3722
 4002SOL    HW123642   3.019   2.571   8.157  0.3529 -1.1055  0.6146
 4002SOL    HW223643   2.876   2.559   8.142  0.1173  2.9557 -0.6007
 4003SOL     OW23644   3.458   4.517   8.413 -0.0540 -0.1751 -0.2135
 4003SOL    HW123645   3.417   4.514   8.327  2.5105  0.3790 -1.4336
 4003SOL    HW223646   3.550   4.534   8.393  0.1252  0.7200  1.2772
 4004SOL     OW23647   3.563   0.226   9.782  0.3405 -0.5586 -0.5447
 4004SOL    HW123648   3.482   0.265   9.816  0.2983 -1.2992  0.1806
 4004SOL    HW223649   3.632   0.276   9.825 -1.5320  2.9930 -1.6512
 4005SOL     OW23650   0.157   3.660   7.325 -0.1565 -0.5295  0.5268
 4005SOL    HW123651   0.135   3.660   7.232  0.3024  2.0528  0.4296
 4005SOL    HW223652   0.080   3.613   7.358 -3.2098  3.4211 -0.8984
 4006SOL     OW23653   3.266   0.546   0.274  0.4007 -0.3389  0.0711
 4006SOL    HW123654   3.335   0.500   0.226  1.3267  1.4583 -0.2999
 4006SOL    HW223655   3.327   0.600   0.324 -1.2227 -0.4768  2.2067
 4007SOL     OW23656   4.437   4.070  14.556 -0.0271 -0.2302  0.6691
 4007SOL    HW123657   4.489   4.058  14.477 -0.2346  0.0600  0.4888
 4007SOL    HW223658   4.389   4.151  14.538  1.5536  0.3739 -0.7878
 4008SOL     OW23659   2.906   2.942   9.738 -0.1988  0.7286 -0.0836
 4008SOL    HW123660   2.923   2.952   9.832  0.7791 -3.2970  0.1721
 4008SOL    HW223661   2.965   2.873   9.709 -0.2086  0.8183 -0.3131
 4009SOL     OW23662   4.643   1.178   0.477 -0.7194 -1.0636  0.3647
 4009SOL    HW123663   4.696   1.205   0.552  1.8766 -0.4325 -1.6552
 4009SOL    HW223664   4.706   1.181   0.404 -1.2827 -1.6286 -0.1396
 4010SOL     OW23665   3.343   4.458   9.677  0.1529 -0.2107  0.2285
 4010SOL    HW123666   3.359   4.495   9.590  2.3932 -1.2370  0.1876
 4010SOL    HW223667   3.357   4.538   9.728  1.9228 -2.4454  3.2313
 4011SOL     OW23668   0.826   3.123   2.523 -0.1116  0.5535  0.5441
 4011SOL    HW123669   0.832   3.206   2.571  0.0214  2.4188 -2.6946
 4011SOL    HW223670   0.753   3.133   2.462  0.2663 -0.1453 -0.0227
 4012SOL     OW23671   2.162   1.906   6.641 -0.7006  0.8336  0.1642
 4012SOL    HW123672   2.204   1.828   6.606 -1.0222  1.5930 -1.9228
 4012SOL    HW223673   2.165   1.899   6.736 -2.3586  1.9971  0.3137
 4013SOL     OW23674   0.013   1.477   8.642 -0.0087  0.2023  0.4400
 4013SOL    HW123675   0.042   1.568   8.642  1.1071 -0.1436 -0.2427
 4013SOL    HW223676   0.092   1.428   8.667  1.3025  2.3914  0.6290
 4014SOL     OW23677   2.808   0.193   8.612 -0.8172  0.1076  0.2508
 4014SOL    HW123678   2.818   0.105   8.576  0.8297  0.1798  0.5161
 4014SOL    HW223679   2.871   0.246   8.564 -1.0535 -0.5780 -0.8241
 4015SOL     OW23680   4.060   1.961   8.237  0.3551 -0.4439 -0.3601
 4015SOL    HW123681   4.083   1.897   8.169 -0.5809  0.1724 -1.2490
 4015SOL    HW223682   4.116   1.926   8.307  0.7536 -0.0236 -0.4723
 4016SOL     OW23683   0.167   1.440  17.146  0.2962 -0.6743  0.1620
 4016SOL    HW123684   0.084   1.394  17.143  0.7330 -1.3779 -0.9836
 4016SOL    HW223685   0.220   1.395  17.080 -0.0640  0.1808 -0.7273
 4017SOL     OW23686   3.846   2.875   7.433 -0.3197  0.3118  0.2757
 4017SOL    HW123687   3.938   2.858   7.455 -0.7745 -1.2517  0.9991
 4017SOL    HW223688   3.805   2.791   7.454 -1.4354  0.8072  0.0735
 4018SOL     OW23689   4.237   3.441   8.308  0.4477 -0.0322 -0.1211
 4018SOL    HW123690   4.320   3.472   8.346 -0.3356  0.7892  0.9289
 4018SOL    HW223691   4.178   3.457   8.381  1.3048 -0.2800  0.6224
 4019SOL     OW23692   0.418   2.190  15.004 -0.0920  0.5392 -0.3398
 4019SOL    HW123693   0.455   2.252  14.942  1.8143 -0.6819 -0.4142
 4019SOL    HW223694   0.361   2.250  15.053  1.6706  1.8958  0.0240
 4020SOL     OW23695   3.113   3.120  11.047 -0.1045  0.2633 -0.3930
 4020SOL    HW123696   3.175   3.058  11.010  0.4035 -0.4482  1.6926
 4020SOL    HW223697   3.087   3.162  10.964 -1.1087  0.0036 -0.2092
 4021SOL     OW23698   4.393   4.462  14.824  0.3673  0.3207  0.4223
 4021SOL    HW123699   4.426   4.487  14.737 -2.8048  0.2190 -0.8314
 4021SOL    HW223700   4.472   4.489  14.871  1.1123 -0.7852 -0.2057
 4022SOL     OW23701   2.851   1.133   4.059  0.4944  0.2463 -0.4357
 4022SOL    HW123702   2.822   1.136   4.150 -1.6996 -0.8554 -1.1004
 4022SOL    HW223703   2.920   1.067   4.063  0.9142  0.6741 -0.5870
 4023SOL     OW23704   1.613   1.003   2.936 -0.0229  0.0766  0.0052
 4023SOL    HW123705   1.529   1.044   2.958  0.4243  0.2447  1.3995
 4023SOL    HW223706   1.675   1.077   2.941 -0.1948  0.2541 -0.4597
 4024SOL     OW23707   2.790   3.616   8.087 -0.8162  0.2183  0.1582
 4024SOL    HW123708   2.823   3.706   8.090  0.2921 -0.2244  1.1639
 4024SOL    HW223709   2.775   3.590   8.178 -0.6293  1.1645  0.4578
 4025SOL     OW23710   3.978   1.859   1.929  0.3904 -0.4568 -0.0573
 4025SOL    HW123711   3.924   1.936   1.916  1.6707  0.1855 -1.5565
 4025SOL    HW223712   3.941   1.826   2.011 -1.2897 -1.5088 -1.2313
 4026SOL     OW23713   2.566   0.340   6.117 -0.7842  0.8548  0.0529
 4026SOL    HW123714   2.593   0.394   6.191  0.4072 -1.3855  1.2440
 4026SOL    HW223715   2.640   0.281   6.131 -2.6414 -1.3727  0.5444
 4027SOL     OW23716   2.788   3.804  12.287 -0.1431  0.0625  0.0544
 4027SOL    HW123717   2.725   3.735  12.310  0.4435 -0.5817 -0.2545
 4027SOL    HW223718   2.724   3.874  12.276 -0.7125 -0.4840 -0.1482
 4028SOL     OW23719   3.186   3.756  15.068  0.0713 -0.1272 -0.5650
 4028SOL    HW123720   3.098   3.720  15.079  1.3509 -3.1277  0.0236
 4028SOL    HW223721   3.181   3.824  15.001 -2.3674  1.5660  1.3422
 4029SOL     OW23722   3.513   1.395  16.373  0.3565  0.5402  0.1257
 4029SOL    HW123723   3.531   1.401  16.467  0.1653  1.0461  0.1290
 4029SOL    HW223724   3.536   1.486  16.355  0.9115  0.6218  1.2130
 4030SOL     OW23725   1.995   2.317  10.499 -0.1631  0.3601  0.7018
 4030SOL    HW123726   2.015   2.393  10.444  1.0434 -1.4162 -1.3160
 4030SOL    HW223727   1.947   2.366  10.566 -0.3671 -0.8686  1.4389
 4031SOL     OW23728   1.182   3.157   7.724 -0.0579  0.4315 -0.1388
 4031SOL    HW123729   1.193   3.069   7.759 -1.8308  1.0372  1.9208
 4031SOL    HW223730   1.094   3.185   7.750  0.1109  0.4205  0.4436
 4032SOL     OW23731   1.826   2.074  13.681 -0.1030 -0.1025  0.5988
 4032SOL    HW123732   1.880   2.005  13.721  0.6901  0.6134  0.7565
 4032SOL    HW223733   1.887   2.145  13.663  0.1912 -0.8450 -1.3887
 4033SOL     OW23734   1.712   1.938   3.633 -0.5665  0.0173 -0.4035
 4033SOL    HW123735   1.793   1.895   3.608  0.0307  2.2807 -2.3386
 4033SOL    HW223736   1.686   1.981   3.552 -1.1744 -0.8544 -0.6790
 4034SOL     OW23737   1.070   0.568  15.014 -0.3411  0.2602  0.4029
 4034SOL    HW123738   1.070   0.524  15.099 -1.1021  0.6888  0.6281
 4034SOL    HW223739   0.990   0.526  14.981 -0.0370 -1.4886  1.9209
 4035SOL     OW23740   0.157   4.365  12.711  0.9035  0.4408 -0.0195
 4035SOL    HW123741   0.112   4.448  12.725 -2.3246 -1.1836 -0.9510
 4035SOL    HW223742   0.224   4.361  12.780  1.7153 -0.7283 -0.8643
 4036SOL     OW23743   1.962   2.048  17.303  0.3169 -0.5108  0.0652
 4036SOL    HW123744   1.974   2.143  17.308  0.7785 -0.5088 -1.0850
 4036SOL    HW223745   1.927   2.032  17.216 -0.2792  0.5351  0.1168
 4037SOL     OW23746   2.005   1.225   4.701  0.1921 -0.1372  0.0439
 4037SOL    HW123747   2.035   1.293   4.641 -0.5583  1.1700  1.1432
 4037SOL    HW223748   2.086   1.177   4.717  0.5929  0.3936 -0.4003
 4038SOL     OW23749   3.233   0.763  13.368 -0.0570  0.0236  0.1551
 4038SOL    HW123750   3.294   0.761  13.442  0.0684  0.8499  0.0742
 4038SOL    HW223751   3.294   0.761  13.294  0.6485  2.2969  0.6876
 4039SOL     OW23752   0.187   4.038   2.740 -0.5788  0.0417  0.1225
 4039SOL    HW123753   0.106   4.088   2.749  0.3473  1.6508 -0.5151
 4039SOL    HW223754   0.218   4.077   2.658  0.4873 -0.1886  0.4174
 4040SOL     OW23755   2.306   2.405   9.570 -0.0986 -0.5852  0.8831
 4040SOL    HW123756   2.280   2.325   9.525  0.9877 -0.5150  0.1210
 4040SOL    HW223757   2.359   2.363   9.639  0.1271 -1.1039  0.3983
 4041SOL     OW23758   1.520   0.239  11.662  0.5734  0.3543  0.2115
 4041SOL    HW123759   1.551   0.278  11.744  0.5722  1.5452 -0.3572
 4041SOL    HW223760   1.431   0.276  11.660  0.5220  0.2411  0.3606
 4042SOL     OW23761   1.753   2.292   3.990 -0.2328  0.2319  0.5656
 4042SOL    HW123762   1.711   2.232   3.929  3.1741 -2.3699  0.8258
 4042SOL    HW223763   1.768   2.240   4.069  0.9300 -1.5907 -0.8670
 4043SOL     OW23764   1.165   1.558   1.966  0.2852  0.6199 -0.1829
 4043SOL    HW123765   1.094   1.573   1.903 -0.7607  1.2903  1.1645
 4043SOL    HW223766   1.142   1.604   2.046  0.7082  1.0625 -0.3153
 4044SOL     OW23767   3.333   4.120   3.086  0.1183  0.0902  0.6589
 4044SOL    HW123768   3.243   4.149   3.097 -0.4425 -2.2776  2.2685
 4044SOL    HW223769   3.327   4.034   3.044  0.6956 -0.0747  0.9199
 4045SOL     OW23770   3.978   0.238  14.682  0.3425 -0.0325  0.4353
 4045SOL    HW123771   3.917   0.212  14.613  1.9957  1.4369 -1.5774
 4045SOL    HW223772   3.959   0.332  14.682  1.2100  0.1411  0.2650
 4046SOL     OW23773   4.611   1.676  15.988  0.2165  0.4807  0.1399
 4046SOL    HW123774   4.603   1.648  16.079  0.5339 -0.9476 -0.2767
 4046SOL    HW223775   4.692   1.633  15.961 -0.7306 -0.4559 -1.1665
 4047SOL     OW23776   4.705   0.989   3.791 -0.3061 -0.1265  0.1006
 4047SOL    HW123777   4.723   0.945   3.708 -0.9973  1.3770 -0.8281
 4047SOL    HW223778   0.053   0.994   3.836 -0.8377 -1.1915  1.2155
 4048SOL     OW23779   2.226   1.661   3.292  0.1678 -0.4593  0.6238
 4048SOL    HW123780   2.160   1.631   3.354 -0.8550 -0.8348 -0.6345
 4048SOL    HW223781   2.263   1.576   3.269  0.5396 -0.7951  2.4939
 4049SOL     OW23782   4.705   4.103   6.940  0.2891 -0.4884 -0.2151
 4049SOL    HW123783   4.698   4.054   7.023 -1.8671 -0.2921 -0.3022
 4049SOL    HW223784   0.037   4.168   6.956 -0.9274  1.2757 -2.2836
 4050SOL     OW23785   2.169   0.948   7.176  0.1993  0.3255 -0.0233
 4050SOL    HW123786   2.187   1.028   7.126 -1.2021  0.9158  0.4276
 4050SOL    HW223787   2.237   0.970   7.240  0.0759 -0.3177  0.3251
 4051SOL     OW23788   1.802   0.435  11.171 -0.0924 -0.2474 -0.4107
 4051SOL    HW123789   1.847   0.430  11.255 -0.1468 -1.2568 -0.4463
 4051SOL    HW223790   1.836   0.522  11.149  0.5623 -0.6668 -1.0715
 4052SOL     OW23791   4.462   1.836   4.258 -0.4192 -0.0812  0.1063
 4052SOL    HW123792   4.395   1.786   4.304  0.0962 -0.7278  0.1570
 4052SOL    HW223793   4.513   1.868   4.332  1.2088 -0.9134 -0.6506
 4053SOL     OW23794   3.869   1.510   0.548 -0.5278  0.2572  0.1885
 4053SOL    HW123795   3.814   1.586   0.563  1.5262  1.6721  0.5948
 4053SOL    HW223796   3.901   1.503   0.638  0.5959  0.6527 -0.1767
 4054SOL     OW23797   3.078   3.804   7.568 -0.4292 -0.2583  0.0351
 4054SOL    HW123798   3.132   3.824   7.492  2.0104 -1.5323  1.4205
 4054SOL    HW223799   3.103   3.871   7.631 -2.1028  0.2682  0.1500
 4055SOL     OW23800   1.355   2.960   2.874 -0.4229 -0.1506  0.3240
 4055SOL    HW123801   1.407   2.883   2.895  0.7721 -0.5225 -3.9941
 4055SOL    HW223802   1.340   3.004   2.958  0.3709 -0.3636  0.5767
 4056SOL     OW23803   0.031   0.929   1.983 -0.8142 -0.2784 -0.1842
 4056SOL    HW123804   0.104   0.930   2.045  0.8518 -0.4367 -2.1335
 4056SOL    HW223805   4.727   1.015   1.995 -0.9058 -0.5570  1.3970
 4057SOL     OW23806   0.105   4.538  15.076  0.2487  0.0389 -0.3816
 4057SOL    HW123807   0.123   4.449  15.045  2.5641  0.7906 -1.1987
 4057SOL    HW223808   0.061   4.523  15.160  1.1875 -0.9411 -0.0640
 4058SOL     OW23809   4.168   3.581   7.592  0.1566 -0.2188 -0.7768
 4058SOL    HW123810   4.230   3.601   7.522  2.1685  0.1731  1.1364
 4058SOL    HW223811   4.097   3.544   7.539 -0.1558  0.5087 -0.8599
 4059SOL     OW23812   0.952   3.274   8.997  0.2423 -0.2487  0.1532
 4059SOL    HW123813   0.922   3.345   8.940  1.6770 -0.3262 -0.6930
 4059SOL    HW223814   1.042   3.264   8.965  0.1005 -2.8423  0.5174
 4060SOL     OW23815   1.363   1.885   9.543 -0.0990  0.1263  0.1797
 4060SOL    HW123816   1.288   1.825   9.547  1.6467 -1.8566  4.0619
 4060SOL    HW223817   1.317   1.969   9.541  0.6327  0.5429  0.9610
 4061SOL     OW23818   1.175   1.680   5.510 -0.8799 -0.3698  0.3383
 4061SOL    HW123819   1.096   1.687   5.457  0.8156 -1.2623 -2.2682
 4061SOL    HW223820   1.173   1.751   5.574 -1.6648 -0.9915  1.0146
 4062SOL     OW23821   4.179   4.270  15.893 -0.0965 -0.2679 -0.5721
 4062SOL    HW123822   4.139   4.331  15.831  1.1755  0.2264 -0.9095
 4062SOL    HW223823   4.112   4.228  15.947 -0.8267  0.1033 -1.1868
 4063SOL     OW23824   2.235   2.039   0.396 -0.0722  0.2756 -0.2235
 4063SOL    HW123825   2.213   1.980   0.468 -1.1887 -0.5980 -1.2720
 4063SOL    HW223826   2.281   2.112   0.437 -1.5028 -0.5220  2.8245
 4064SOL     OW23827   0.941   1.399   8.774 -0.0599  0.8391  0.2318
 4064SOL    HW123828   1.035   1.392   8.785  0.1838  1.2386 -1.6374
 4064SOL    HW223829   0.939   1.485   8.816  2.1346  0.8087  0.3739
 4065SOL     OW23830   0.064   0.910   6.680  0.3440 -0.7492  0.0908
 4065SOL    HW123831   0.049   0.822   6.713  0.3361 -0.8220 -0.1081
 4065SOL    HW223832   0.048   0.910   6.586  1.7435 -1.5017 -0.1496
 4066SOL     OW23833   1.923   3.425   8.594  0.1732  0.1250 -0.6557
 4066SOL    HW123834   1.830   3.429   8.614  0.1152 -2.3217 -0.3869
 4066SOL    HW223835   1.943   3.332   8.605  0.6455  0.2671 -0.3014
 4067SOL     OW23836   1.647   0.693   2.463 -0.0880  0.1186 -0.2346
 4067SOL    HW123837   1.571   0.729   2.418 -1.6466 -0.6418  1.7887
 4067SOL    HW223838   1.713   0.760   2.446 -0.6284  1.0366  1.2667
 4068SOL     OW23839   0.642   3.152   2.319  0.9499  0.2901 -0.9506
 4068SOL    HW123840   0.599   3.162   2.234  1.5973  2.4331 -1.0256
 4068SOL    HW223841   0.693   3.071   2.313  1.1319  0.1914  1.9173
 4069SOL     OW23842   0.835   3.793  11.524  0.0103 -0.3028  0.4450
 4069SOL    HW123843   0.884   3.810  11.605  2.2793  1.3677 -1.2992
 4069SOL    HW223844   0.833   3.882  11.489  1.6703 -0.4713 -0.0558
 4070SOL     OW23845   2.005   0.514   5.517  0.3823 -0.4062 -0.2999
 4070SOL    HW123846   2.016   0.424   5.546 -1.4778  0.3782  2.8392
 4070SOL    HW223847   1.919   0.516   5.474  0.1467  0.3815  0.2124
 4071SOL     OW23848   0.243   2.584   2.933 -0.5903  0.0713  0.1832
 4071SOL    HW123849   0.262   2.614   3.022  0.8857 -0.2260 -0.0231
 4071SOL    HW223850   0.228   2.490   2.937 -0.8511  0.1596  1.3177
 4072SOL     OW23851   2.207   2.676   3.641  0.2166  0.3142  0.3653
 4072SOL    HW123852   2.114   2.657   3.641  0.2203  0.2983  0.8200
 4072SOL    HW223853   2.244   2.615   3.576 -0.4782  0.2942 -0.0060
 4073SOL     OW23854   1.328   3.042   9.490  0.0361  0.2066 -0.4543
 4073SOL    HW123855   1.261   3.101   9.457 -1.7998 -1.3557  0.4872
 4073SOL    HW223856   1.411   3.077   9.456  0.9548 -2.9491 -1.5046
 4074SOL     OW23857   0.980   0.851   1.694  1.1596  0.2915  1.0139
 4074SOL    HW123858   0.970   0.891   1.607  0.2374 -0.4383  0.7790
 4074SOL    HW223859   0.960   0.935   1.736  0.4471  0.1520  0.9516
 4075SOL     OW23860   4.156   4.265   6.690 -0.1454  0.1295 -0.6442
 4075SOL    HW123861   4.171   4.278   6.596  2.0230 -2.3065 -0.6301
 4075SOL    HW223862   4.141   4.172   6.702  0.8269  0.4081  2.5695
 4076SOL     OW23863   2.997   0.148   6.928 -0.5134 -0.0276 -0.1960
 4076SOL    HW123864   2.997   0.142   6.832 -1.4983 -0.3944 -0.1713
 4076SOL    HW223865   3.090   0.167   6.941 -0.5462  0.7851 -1.1732
 4077SOL     OW23866   0.921   2.435   7.528 -0.6131  0.3864 -0.0823
 4077SOL    HW123867   0.939   2.342   7.547 -1.2886 -0.1988 -2.3361
 4077SOL    HW223868   0.855   2.448   7.596  0.5747 -1.1118  1.3860
 4078SOL     OW23869   3.606   3.138   3.157  0.0971  0.0693 -0.1687
 4078SOL    HW123870   3.644   3.223   3.135 -0.4624  0.2514 -0.4548
 4078SOL    HW223871   3.636   3.128   3.247  4.3194  1.0859 -1.4766
 4079SOL     OW23872   3.070   4.575  12.062  0.0058  0.2194  0.4250
 4079SOL    HW123873   3.128   4.651  12.068  0.7242 -0.2674 -0.4945
 4079SOL    HW223874   3.081   4.553  11.970 -0.6981  0.0104  0.3910
 4080SOL     OW23875   3.093   3.558   1.827 -0.1848  0.2605 -0.1299
 4080SOL    HW123876   3.089   3.616   1.751 -1.0722  1.1939  0.6117
 4080SOL    HW223877   3.186   3.564   1.847  0.0784 -0.9445 -0.9934
 4081SOL     OW23878   4.632   0.408   4.717 -0.1289  0.1087  0.0909
 4081SOL    HW123879   4.601   0.369   4.799 -0.4258  1.2065  0.4872
 4081SOL    HW223880   4.608   0.500   4.723  0.4112  0.4553 -3.1067
 4082SOL     OW23881   3.075   2.268   0.037  0.7469  0.5676 -0.9136
 4082SOL    HW123882   3.107   2.356   0.056 -1.0582  0.7336  1.3561
 4082SOL    HW223883   2.985   2.294   0.015  0.4863 -0.3085 -0.8947
 4083SOL     OW23884   0.203   0.643  14.354 -0.7166 -0.2071  0.0740
 4083SOL    HW123885   0.126   0.660  14.407 -1.3674 -1.2685 -0.5400
 4083SOL    HW223886   0.164   0.577  14.297 -0.0336  0.0184 -0.6737
 4084SOL     OW23887   4.663   1.019   2.922 -0.0621 -0.5692  0.8618
 4084SOL    HW123888   4.649   0.975   3.006 -0.9297 -2.1078 -0.0912
 4084SOL    HW223889   0.018   0.999   2.900  0.2607  0.4253  1.2961
 4085SOL     OW23890   1.967   0.449  11.409 -0.1035  0.4121  0.6918
 4085SOL    HW123891   1.954   0.365  11.452 -0.2185  0.6337  1.0949
 4085SOL    HW223892   1.902   0.499  11.458  0.0334  1.8622 -0.5860
 4086SOL     OW23893   2.071   0.326   8.508 -0.0148 -0.3489 -0.1884
 4086SOL    HW123894   1.980   0.299   8.520 -0.0994 -0.4825 -1.1703
 4086SOL    HW223895   2.074   0.403   8.451 -1.0598  0.6867  1.1536
 4087SOL     OW23896   3.622   2.057   7.793 -0.2215  0.0371 -0.4521
 4087SOL    HW123897   3.610   1.983   7.853 -4.7409  0.8438 -0.3479
 4087SOL    HW223898   3.638   2.126   7.857 -1.6324  0.9839 -1.1246
 4088SOL     OW23899   2.570   2.254   5.477  1.1843 -0.2290 -0.2729
 4088SOL    HW123900   2.554   2.161   5.462  0.1903 -0.6003  3.0629
 4088SOL    HW223901   2.661   2.270   5.503  1.0587  1.2761 -0.7428
 4089SOL     OW23902   4.465   1.278  10.910 -1.2633  0.2643 -0.5304
 4089SOL    HW123903   4.557   1.261  10.894 -0.4749  0.8373  3.3001
 4089SOL    HW223904   4.448   1.370  10.889 -0.5915  0.0806 -1.8844
 4090SOL     OW23905   2.507   0.615   9.265  0.0890 -0.4453 -0.0319
 4090SOL    HW123906   2.456   0.694   9.245  1.0443 -0.1214 -1.1337
 4090SOL    HW223907   2.456   0.551   9.216  0.8487 -0.6051 -0.6098
 4091SOL     OW23908   0.741   4.421   6.626 -0.0350  0.2350  0.1940
 4091SOL    HW123909   0.698   4.423   6.711 -0.7230 -4.1518 -0.0722
 4091SOL    HW223910   0.757   4.515   6.610  0.2070  0.0659 -0.5793
 4092SOL     OW23911   2.470   3.891  14.584 -0.0540  0.9459 -0.4560
 4092SOL    HW123912   2.443   3.972  14.627  0.3174  1.4168 -1.1137
 4092SOL    HW223913   2.425   3.898  14.500 -0.0164  0.3803 -0.5207
 4093SOL     OW23914   3.082   4.577   1.699 -0.1217  0.9367  0.5212
 4093SOL    HW123915   3.174   4.553   1.700 -0.4300 -0.2897 -0.8495
 4093SOL    HW223916   3.095   4.670   1.680  0.4175  0.5486 -1.0104
 4094SOL     OW23917   3.629   0.922   0.971  0.3641 -0.2552  0.7473
 4094SOL    HW123918   3.613   1.014   0.952 -2.0202 -0.9933 -0.8228
 4094SOL    HW223919   3.685   0.934   1.048  2.3884  2.3904 -1.1241
 4095SOL     OW23920   4.587   4.148   1.765 -0.2488  0.1238  0.1985
 4095SOL    HW123921   4.537   4.227   1.747  1.8891  1.5101  0.3008
 4095SOL    HW223922   4.530   4.086   1.719  1.8744 -0.3173 -1.8761
 4096SOL     OW23923   3.713   4.046   7.646 -0.3724  0.3919 -0.1040
 4096SOL    HW123924   3.659   4.002   7.711 -1.2082  1.9892  0.2980
 4096SOL    HW223925   3.779   3.978   7.634  0.6219  1.2285  0.6264
 4097SOL     OW23926   0.984   3.709   6.894  0.1624 -0.1150  0.7446
 4097SOL    HW123927   0.938   3.644   6.839 -0.9753  1.7518 -0.5245
 4097SOL    HW223928   0.907   3.760   6.921 -2.4438 -2.1595 -2.7658
 4098SOL     OW23929   1.373   4.401   8.424 -0.2623 -0.0666  0.2856
 4098SOL    HW123930   1.286   4.438   8.440  0.3112  0.7116  1.5705
 4098SOL    HW223931   1.431   4.463   8.468  0.6823  0.1148 -1.2138
 4099SOL     OW23932   2.338   4.240   6.245 -0.3016 -0.1201 -0.6696
 4099SOL    HW123933   2.255   4.286   6.233 -0.0459  0.8580  1.2371
 4099SOL    HW223934   2.393   4.317   6.256  0.0938 -0.4938 -0.0224
 4100SOL     OW23935   1.073   0.978  17.611  0.3455 -0.0376  0.2539
 4100SOL    HW123936   1.017   0.903  17.632 -1.5841  1.2677 -0.1927
 4100SOL    HW223937   1.002   1.042  17.611  0.6467  0.2757 -3.5170
 4101SOL     OW23938   4.223   3.088   7.653  0.0086 -0.1347 -0.3822
 4101SOL    HW123939   4.304   3.127   7.686 -1.4271  1.7017  0.9081
 4101SOL    HW223940   4.161   3.143   7.700 -1.1471 -0.0943 -1.9391
 4102SOL     OW23941   1.813   1.164  11.298  0.0947  0.2581  0.5057
 4102SOL    HW123942   1.744   1.129  11.241  1.8197 -0.8717 -0.9056
 4102SOL    HW223943   1.799   1.119  11.381 -1.2305 -1.7134 -0.7596
 4103SOL     OW23944   0.610   1.573   6.205  0.1491  0.4231  0.2337
 4103SOL    HW123945   0.681   1.564   6.268 -0.9643  2.3633  1.7529
 4103SOL    HW223946   0.546   1.602   6.270  0.0361  1.0858 -0.1732
 4104SOL     OW23947   0.938   2.730   7.651 -0.5875  0.7175  0.4310
 4104SOL    HW123948   0.981   2.645   7.640  0.5389  1.2660  0.5274
 4104SOL    HW223949   0.959   2.760   7.739 -1.8961  0.7127  0.7360
 4105SOL     OW23950   2.453   2.545   2.041 -0.0686  0.0956 -0.2748
 4105SOL    HW123951   2.521   2.496   1.995 -0.4998 -2.6360  1.9142
 4105SOL    HW223952   2.453   2.633   2.004 -0.2666 -0.4424 -1.5340
 4106SOL     OW23953   2.101   0.690   7.176  1.0511  0.0325  0.0082
 4106SOL    HW123954   2.178   0.645   7.211  1.7050 -1.1815 -3.0095
 4106SOL    HW223955   2.119   0.783   7.193  0.3159  0.2240 -0.2617
 4107SOL     OW23956   1.332   1.327  12.343  0.6313 -0.3595 -0.2106
 4107SOL    HW123957   1.396   1.302  12.276  0.4705 -0.6801 -0.2450
 4107SOL    HW223958   1.393   1.364  12.406  0.6529  0.3572 -0.6515
 4108SOL     OW23959   2.292   3.120   5.938 -0.6062 -0.0129  0.6164
 4108SOL    HW123960   2.204   3.145   5.908 -0.0227  0.4571 -0.6938
 4108SOL    HW223961   2.299   3.173   6.017 -0.0191  1.9042 -0.7529
 4109SOL     OW23962   0.834   3.880   4.262 -0.5700 -0.2411 -0.5415
 4109SOL    HW123963   0.792   3.826   4.329 -0.2090 -1.8267 -1.6037
 4109SOL    HW223964   0.767   3.948   4.255 -0.3572 -0.3314 -3.2368
 4110SOL     OW23965   0.355   4.520   3.373 -0.3349  0.2551  0.0684
 4110SOL    HW123966   0.303   4.487   3.446 -0.9747  0.6571 -0.2036
 4110SOL    HW223967   0.289   4.576   3.331 -0.7544  0.6083  1.1871
 4111SOL     OW23968   0.736   1.695  11.262 -0.0313 -0.1659 -0.4740
 4111SOL    HW123969   0.663   1.683  11.323  1.4762  2.8222  1.9273
 4111SOL    HW223970   0.813   1.671  11.313  0.1243  0.3192 -0.4758
 4112SOL     OW23971   2.608   1.333   3.170 -0.0372 -0.2151  0.1723
 4112SOL    HW123972   2.652   1.369   3.247  1.0325 -0.8046 -0.1516
 4112SOL    HW223973   2.685   1.310   3.117  0.3764 -0.3991  0.8509
 4113SOL     OW23974   0.659   4.541   5.706  0.0075 -0.7029  0.0318
 4113SOL    HW123975   0.722   4.518   5.638  0.4600  0.6517  0.0060
 4113SOL    HW223976   0.699   4.497   5.781  2.2676  0.1482 -0.6776
 4114SOL     OW23977   0.642   3.842   8.241  0.1846 -0.0146 -0.1256
 4114SOL    HW123978   0.547   3.857   8.237  0.1715  0.0574  0.4318
 4114SOL    HW223979   0.670   3.933   8.236  1.2579 -0.3842 -0.8048
 4115SOL     OW23980   1.555   3.751   9.378 -0.7437  0.0593 -0.3930
 4115SOL    HW123981   1.631   3.705   9.340  0.1765  1.0324  0.2819
 4115SOL    HW223982   1.587   3.800   9.454  0.8916 -0.7118 -0.5816
 4116SOL     OW23983   3.933   3.558   2.544  0.2931  0.1145 -0.2372
 4116SOL    HW123984   3.952   3.550   2.637 -0.4391 -2.4138 -0.2851
 4116SOL    HW223985   3.863   3.492   2.544  0.0560  0.3646 -2.5521
 4117SOL     OW23986   0.205   1.605   6.637  0.2681  0.3001  0.0136
 4117SOL    HW123987   0.164   1.641   6.558 -0.9634  0.8982  0.9280
 4117SOL    HW223988   0.198   1.510   6.626 -1.3713  0.2167  1.7395
 4118SOL     OW23989   1.033   3.976  14.921 -0.4228 -0.3387  0.0256
 4118SOL    HW123990   1.121   3.999  14.891 -0.3467  0.7554  1.0974
 4118SOL    HW223991   1.025   3.884  14.895 -1.2682 -0.6559  1.4508
 4119SOL     OW23992   3.962   2.408   4.994  0.3306  0.5328  0.5385
 4119SOL    HW123993   3.872   2.420   5.023 -0.3430 -0.8399 -1.0280
 4119SOL    HW223994   3.966   2.314   4.977 -1.2562  0.2522  1.7444
 4120SOL     OW23995   1.906   2.120   6.812  0.0884 -0.1133 -0.1422
 4120SOL    HW123996   1.882   2.155   6.726  1.1763 -2.1889 -1.3110
 4120SOL    HW223997   1.909   2.200   6.863  1.1109  0.1220 -0.5889
 4121SOL     OW23998   3.071   4.082  17.434 -0.2409  0.7382 -0.1137
 4121SOL    HW123999   3.030   4.098  17.519  1.0122 -0.6164  0.7750
 4121SOL    HW224000   3.115   3.997  17.441  1.1229  1.4790  0.3314
 4122SOL     OW24001   2.147   4.658   9.247  0.4840 -0.3156  0.0110
 4122SOL    HW124002   2.091   4.733   9.229 -0.7875 -1.3676 -0.4227
 4122SOL    HW224003   2.209   4.696   9.309 -0.0843 -0.3426  0.5826
 4123SOL     OW24004   2.026   2.897   7.979 -0.5713 -0.9604  0.4982
 4123SOL    HW124005   2.073   2.825   8.023 -0.2381 -0.6956  0.5777
 4123SOL    HW224006   2.014   2.956   8.054  2.0725 -0.4330  0.5214
 4124SOL     OW24007   1.088   1.684  16.890  0.8640  0.8258  0.1999
 4124SOL    HW124008   1.011   1.649  16.844  0.7039 -0.8268  1.7116
 4124SOL    HW224009   1.158   1.640  16.842  1.9208  2.4427  0.2446
 4125SOL     OW24010   4.246   1.693  16.545 -0.1538  0.3182 -0.1003
 4125SOL    HW124011   4.198   1.617  16.513  1.2624 -1.9660  3.1556
 4125SOL    HW224012   4.335   1.658  16.545  0.3782  1.6656 -1.0836
 4126SOL     OW24013   4.647   4.091   2.007 -0.0272  0.1160  0.4305
 4126SOL    HW124014   4.625   4.103   1.915  1.2384 -0.2181  0.0890
 4126SOL    HW224015   4.623   4.176   2.045  1.6062  0.5839  0.3887
 4127SOL     OW24016   1.922   4.016   1.010  0.1726 -0.0467  0.4977
 4127SOL    HW124017   1.920   3.921   1.015  0.4756 -0.0048  1.3938
 4127SOL    HW224018   1.910   4.046   1.100  0.7632  2.2607 -0.2001
 4128SOL     OW24019   1.901   0.135   2.300  0.5375  0.1327  0.7701
 4128SOL    HW124020   1.942   0.107   2.382 -1.6469 -2.4991  0.9861
 4128SOL    HW224021   1.922   0.057   2.248  0.0815  0.3095  0.3152
 4129SOL     OW24022   4.401   0.607   8.758  0.0434 -0.4906  0.2120
 4129SOL    HW124023   4.336   0.590   8.826 -2.6463  0.1508 -2.2091
 4129SOL    HW224024   4.439   0.521   8.739  1.1282  0.2618 -1.0134
 4130SOL     OW24025   2.728   2.914   2.744 -0.4320  0.1988  0.3318
 4130SOL    HW124026   2.788   2.982   2.713 -0.7120  0.4376  0.3257
 4130SOL    HW224027   2.729   2.854   2.669 -0.9186 -0.5176  0.8952
 4131SOL     OW24028   4.578   4.257   4.893  0.2669  0.4464 -0.2235
 4131SOL    HW124029   4.534   4.300   4.819 -0.6425 -0.6774 -0.3310
 4131SOL    HW224030   4.537   4.171   4.897 -0.4364  0.7831 -0.2833
 4132SOL     OW24031   0.121   0.285  14.393 -0.4106  0.0054 -0.0667
 4132SOL    HW124032   0.068   0.210  14.417 -1.0750 -0.3125 -2.4688
 4132SOL    HW224033   0.080   0.314  14.311 -3.0607 -2.3698  0.4460
 4133SOL     OW24034   0.816   4.281  12.383 -0.5687  0.1101 -0.3740
 4133SOL    HW124035   0.844   4.194  12.412  1.3897  0.0636 -2.3593
 4133SOL    HW224036   0.885   4.330  12.429 -0.4173  0.4425 -0.9473
 4134SOL     OW24037   1.893   3.022   4.516 -0.5809 -0.3656  0.3985
 4134SOL    HW124038   1.925   3.093   4.460 -2.9523  1.0182  0.8028
 4134SOL    HW224039   1.827   3.065   4.569 -1.9580 -0.9418 -0.8468
 4135SOL     OW24040   3.404   3.674  16.053  0.2291 -0.0925  0.0686
 4135SOL    HW124041   3.329   3.717  16.096  0.8579  0.3530  0.7140
 4135SOL    HW224042   3.421   3.599  16.110 -1.8554 -1.5459 -1.2192
 4136SOL     OW24043   2.937   4.343   1.574 -0.4905  0.8519  0.1446
 4136SOL    HW124044   2.997   4.295   1.517 -1.0309  0.9014 -0.4605
 4136SOL    HW224045   2.987   4.422   1.593  0.8189  0.6616 -2.6162
 4137SOL     OW24046   1.170   1.593   7.452 -0.0836  1.0028 -0.6004
 4137SOL    HW124047   1.074   1.601   7.447 -0.4309 -2.5226  0.6595
 4137SOL    HW224048   1.183   1.542   7.532 -0.4407  0.1701 -1.0727
 4138SOL     OW24049   1.291   4.611   1.900  0.5884  0.1556 -0.3363
 4138SOL    HW124050   1.289   4.581   1.809  2.6789 -1.1891  0.0648
 4138SOL    HW224051   1.260   4.700   1.882 -1.6235 -0.5653 -0.1197
 4139SOL     OW24052   2.544   0.635  16.201 -0.7811 -0.5043 -0.3718
 4139SOL    HW124053   2.481   0.701  16.171  0.5609  0.9666  0.0607
 4139SOL    HW224054   2.555   0.667  16.291 -1.3274 -2.0112  0.2355
 4140SOL     OW24055   2.334   0.116   9.716 -0.1345  0.5398 -0.0053
 4140SOL    HW124056   2.346   0.075   9.631  2.3241  0.1948  0.5132
 4140SOL    HW224057   2.388   0.194   9.706 -1.5333  1.4583 -0.4907
 4141SOL     OW24058   0.471   2.816   8.308 -0.4725  0.6645 -0.9125
 4141SOL    HW124059   0.549   2.825   8.363 -0.2543  2.1440 -1.4658
 4141SOL    HW224060   0.430   2.903   8.313  1.6651  1.6402 -0.0060
 4142SOL     OW24061   2.236   1.290  15.808  0.2480  0.4910  0.4675
 4142SOL    HW124062   2.286   1.371  15.816 -0.1400  0.7495  0.2679
 4142SOL    HW224063   2.148   1.322  15.785 -0.3067  0.4994  2.6061
 4143SOL     OW24064   0.882   0.785  17.672 -0.8595 -0.5867  0.4247
 4143SOL    HW124065   0.829   0.855  17.709 -1.9568 -0.5460 -1.2172
 4143SOL    HW224066   0.854   0.719  17.735  2.2560 -1.6391  0.6986
 4144SOL     OW24067   2.814   4.472   9.636  0.7815  0.1857  0.5175
 4144SOL    HW124068   2.774   4.542   9.584  0.7296  0.1536  0.5150
 4144SOL    HW224069   2.763   4.393   9.617  0.5544  0.3268  0.5432
 4145SOL     OW24070   1.321   2.402   0.743 -0.0634 -0.1607  0.7862
 4145SOL    HW124071   1.377   2.332   0.776  3.7091  0.9928 -3.2812
 4145SOL    HW224072   1.313   2.376   0.652 -0.8459  2.9798 -0.0641
 4146SOL     OW24073   4.369   2.083   7.202 -0.6315  0.0059 -0.2466
 4146SOL    HW124074   4.373   2.088   7.298  1.5578 -0.9379 -0.2897
 4146SOL    HW224075   4.461   2.086   7.179 -0.0754 -0.4166  1.9082
 4147SOL     OW24076   1.627   2.089   2.057  0.0242 -0.2070  0.4214
 4147SOL    HW124077   1.706   2.117   2.009  0.2620 -0.5134  0.6309
 4147SOL    HW224078   1.671   2.062   2.138 -2.1862  0.5399  1.8601
 4148SOL     OW24079   2.655   2.623  17.491  0.3504 -0.3597 -0.7573
 4148SOL    HW124080   2.670   2.694  17.428 -2.2512 -0.1183 -1.1090
 4148SOL    HW224081   2.580   2.575  17.456  0.7470 -1.5346  0.0308
 4149SOL     OW24082   0.176   3.692  12.157  0.1214 -0.5385 -0.0213
 4149SOL    HW124083   0.192   3.609  12.113  0.7361  0.8549 -2.4294
 4149SOL    HW224084   0.235   3.752  12.112 -1.1402  0.1746 -0.7232
 4150SOL     OW24085   3.068   2.407  10.975  0.6575  0.1643  0.8780
 4150SOL    HW124086   3.077   2.502  10.971 -0.3527  0.2617  0.9512
 4150SOL    HW224087   3.058   2.383  11.067 -1.7547  1.3477  0.9156
 4151SOL     OW24088   1.717   4.582  16.130  0.7317  0.1250  0.3208
 4151SOL    HW124089   1.622   4.587  16.140  0.6033  1.7934 -1.5338
 4151SOL    HW224090   1.743   4.624  16.212  1.0962  1.2103 -0.3370
 4152SOL     OW24091   3.353   3.023   6.100  0.5850 -0.4242 -0.3614
 4152SOL    HW124092   3.283   3.030   6.035 -0.1181 -1.4573  0.2829
 4152SOL    HW224093   3.423   2.992   6.044  0.8883  0.9949 -0.7728
 4153SOL     OW24094   4.286   3.579  14.793 -0.1240  0.4001  0.0549
 4153SOL    HW124095   4.351   3.610  14.856 -1.1184  0.6428  0.9744
 4153SOL    HW224096   4.211   3.550  14.845  1.2149  0.1640  1.8591
 4154SOL     OW24097   3.043   4.630   6.472 -0.1200 -0.8347  0.1872
 4154SOL    HW124098   2.958   4.672   6.460 -0.4421 -1.0627  1.5760
 4154SOL    HW224099   3.018   4.539   6.454 -1.5603 -0.7407  1.6588
 4155SOL     OW24100   2.633   1.754  15.380 -0.5315 -0.1988  0.0054
 4155SOL    HW124101   2.694   1.826  15.394 -2.3248  1.1478  0.7874
 4155SOL    HW224102   2.690   1.677  15.377  0.4075  0.4852  0.4224
 4156SOL     OW24103   2.550   0.264   8.669  0.1803  0.4032  0.3114
 4156SOL    HW124104   2.523   0.262   8.577  2.0363  1.4027 -0.2477
 4156SOL    HW224105   2.637   0.230   8.649 -0.2304 -1.0197  0.8926
 4157SOL     OW24106   2.040   1.829   7.220  0.1808  0.1625 -1.0544
 4157SOL    HW124107   2.040   1.752   7.163 -0.3573 -0.7887  0.2257
 4157SOL    HW224108   2.120   1.813   7.271  2.1295 -0.2606 -4.2388
 4158SOL     OW24109   1.067   1.143   6.339 -0.0328 -0.3301 -0.1418
 4158SOL    HW124110   1.052   1.212   6.404 -0.5164 -1.7128  1.1903
 4158SOL    HW224111   1.058   1.202   6.264  1.7264 -1.4825 -1.2519
 4159SOL     OW24112   3.591   4.123   3.633 -0.1774 -0.0017  0.1895
 4159SOL    HW124113   3.535   4.049   3.612 -0.3849  0.2108 -0.0022
 4159SOL    HW224114   3.537   4.200   3.614 -1.2794 -0.7127  0.4617
 4160SOL     OW24115   0.199   2.471   3.516  0.0965 -0.6282 -0.2777
 4160SOL    HW124116   0.170   2.455   3.606 -0.3283 -0.9839 -0.4813
 4160SOL    HW224117   0.269   2.533   3.534  0.5502 -1.6423  1.5260
 4161SOL     OW24118   2.882   1.586   5.076 -0.3102  0.5102 -0.3087
 4161SOL    HW124119   2.969   1.547   5.072  0.2131  1.9921 -2.6165
 4161SOL    HW224120   2.846   1.603   4.990 -0.4724 -1.7273 -0.6865
 4162SOL     OW24121   0.664   1.758   7.785  0.5016 -0.1056 -0.3362
 4162SOL    HW124122   0.742   1.808   7.761  0.0906  0.7867  0.1839
 4162SOL    HW224123   0.683   1.669   7.755 -0.0970 -0.2988 -0.1455
 4163SOL     OW24124   1.940   3.491   6.455 -0.3810  0.2307  0.0757
 4163SOL    HW124125   1.979   3.404   6.445 -0.8466  0.1476 -0.9408
 4163SOL    HW224126   2.002   3.533   6.515 -0.5973  0.9393 -0.1901
 4164SOL     OW24127   4.359   1.126   8.185 -0.1816  0.5494  0.4968
 4164SOL    HW124128   4.318   1.202   8.226  1.9546  0.9950  1.8008
 4164SOL    HW224129   4.315   1.054   8.229 -2.0816  1.8837  0.7575
 4165SOL     OW24130   1.465   2.954   5.110 -0.0882 -0.5860  0.4109
 4165SOL    HW124131   1.554   2.925   5.130 -0.0614  0.3199  1.6094
 4165SOL    HW224132   1.488   2.975   5.020  1.0831 -0.8488  0.6425
 4166SOL     OW24133   4.558   4.623  13.576 -0.0354 -0.1963  0.8376
 4166SOL    HW124134   4.554   4.586  13.488 -1.2554  1.5897  0.1415
 4166SOL    HW224135   4.640   4.669  13.557 -0.3388 -0.5823 -1.3609
 4167SOL     OW24136   0.745   0.408   8.280  0.1096  0.2584 -0.5123
 4167SOL    HW124137   0.807   0.341   8.249 -0.2966 -0.2858 -0.1409
 4167SOL    HW224138   0.663   0.359   8.289 -0.5114  1.3891 -0.0253
 4168SOL     OW24139   1.426   4.557   6.871 -0.4870  0.0111 -0.1744
 4168SOL    HW124140   1.430   4.648   6.901 -0.4523 -0.4339  1.1380
 4168SOL    HW224141   1.518   4.534   6.876 -0.6517 -0.5179  0.4156
 4169SOL     OW24142   1.748   4.685   1.297  0.0532 -0.0569 -0.0913
 4169SOL    HW124143   1.814   0.016   1.317  0.6666 -0.6503 -0.1365
 4169SOL    HW224144   1.673   4.728   1.339  0.3336 -1.2135  1.6127
 4170SOL     OW24145   4.060   3.849  10.209 -0.1199  0.5423 -0.1177
 4170SOL    HW124146   4.066   3.754  10.214  0.9210  0.6435  0.7540
 4170SOL    HW224147   4.154   3.867  10.203 -0.3626  2.5027  1.8478
 4171SOL     OW24148   4.452   2.884   6.167  0.1690  0.3414 -0.2972
 4171SOL    HW124149   4.437   2.879   6.072 -0.0026 -1.2608 -0.1982
 4171SOL    HW224150   4.528   2.827   6.179  0.0244  0.2029 -0.0201
 4172SOL     OW24151   2.602   4.612  16.080  0.0604  0.5142  0.1673
 4172SOL    HW124152   2.606   4.523  16.046  0.8661 -0.0167  1.6457
 4172SOL    HW224153   2.686   4.649  16.053 -1.2554  1.9488 -1.9496
 4173SOL     OW24154   3.805   2.007  11.841  0.6451  0.4024 -0.1588
 4173SOL    HW124155   3.752   2.025  11.764  0.0368  0.1080  0.1963
 4173SOL    HW224156   3.889   1.986  11.800  1.1671 -1.8686  2.0462
 4174SOL     OW24157   1.373   1.443   2.493 -0.0478  0.5193  0.2090
 4174SOL    HW124158   1.355   1.357   2.455  1.3118 -0.6963  2.2770
 4174SOL    HW224159   1.464   1.448   2.463 -0.8235 -0.5111 -2.3111
 4175SOL     OW24160   2.163   2.611   8.545 -0.6871  0.4497 -0.2753
 4175SOL    HW124161   2.204   2.620   8.458  0.8452 -2.1198  0.1904
 4175SOL    HW224162   2.196   2.690   8.587  0.1237 -0.8565  1.5617
 4176SOL     OW24163   0.572   0.240   5.383  0.4898 -0.0429 -0.1820
 4176SOL    HW124164   0.599   0.274   5.298 -2.3659  1.1398 -0.6078
 4176SOL    HW224165   0.524   0.312   5.425 -1.8468 -0.2314 -2.5169
 4177SOL     OW24166   1.152   3.252   2.706  0.5858  0.7509 -0.3472
 4177SOL    HW124167   1.168   3.333   2.659 -1.8133  1.4290  0.0159
 4177SOL    HW224168   1.057   3.244   2.709  0.6451 -0.2284 -0.7766
 4178SOL     OW24169   1.257   3.906   6.749 -0.5737  0.2876  0.0516
 4178SOL    HW124170   1.162   3.901   6.751 -0.5248 -0.3861  0.4688
 4178SOL    HW224171   1.270   3.930   6.841  1.5147 -1.6113  0.2427
 4179SOL     OW24172   2.649   3.568   9.490  0.3785  0.0182 -0.0394
 4179SOL    HW124173   2.669   3.552   9.582 -2.1988 -0.8499  0.3488
 4179SOL    HW224174   2.731   3.529   9.460 -0.8391 -0.3235 -2.9657
 4180SOL     OW24175   1.079   3.112   6.105 -0.5803  0.4885 -0.9353
 4180SOL    HW124176   1.109   3.088   6.018  0.3895 -1.0039 -0.1909
 4180SOL    HW224177   1.127   3.194   6.111 -1.0785  0.7019  0.2133
 4181SOL     OW24178   2.161   3.714   3.342 -0.1118  0.2323 -0.2760
 4181SOL    HW124179   2.085   3.771   3.329  0.5153  1.0755 -0.2243
 4181SOL    HW224180   2.192   3.727   3.252 -3.1260 -1.0623 -1.5311
 4182SOL     OW24181   2.888   1.273   6.338  0.6472 -0.1535  0.4704
 4182SOL    HW124182   2.969   1.226   6.319 -0.5688 -1.7768 -0.7419
 4182SOL    HW224183   2.913   1.365   6.349 -1.0741 -0.1186  3.8822
 4183SOL     OW24184   0.296   0.814   8.774 -0.4485  0.4746 -0.1543
 4183SOL    HW124185   0.360   0.867   8.727 -0.2422  0.8710  0.5718
 4183SOL    HW224186   0.262   0.881   8.833 -0.5486  1.0038 -0.8068
 4184SOL     OW24187   3.785   2.385   2.682 -0.3279  0.6547  0.7550
 4184SOL    HW124188   3.840   2.438   2.740 -1.6326  1.2813  1.4045
 4184SOL    HW224189   3.804   2.296   2.711 -0.3966  0.7203  1.0007
 4185SOL     OW24190   4.619   4.606   4.032  0.6652 -0.1245 -0.0011
 4185SOL    HW124191   4.614   4.544   4.105  2.1703  1.7424  1.6910
 4185SOL    HW224192   4.580   4.555   3.961  0.4286  1.9141 -1.3404
 4186SOL     OW24193   4.723   0.126   5.774  0.3052 -0.7522  0.3538
 4186SOL    HW124194   4.644   0.092   5.732  1.4304 -1.0605 -1.5451
 4186SOL    HW224195   0.019   0.195   5.716 -1.5319 -0.2681 -0.0678
 4187SOL     OW24196   2.433   3.837  14.113 -0.3646  0.0358  0.3439
 4187SOL    HW124197   2.521   3.801  14.121  0.7547  2.8445  0.8273
 4187SOL    HW224198   2.433   3.860  14.020  0.9523 -0.9120  0.1074
 4188SOL     OW24199   0.634   3.807  15.844 -0.1419  0.2154 -0.3980
 4188SOL    HW124200   0.633   3.800  15.749 -1.1026  1.5237 -0.4888
 4188SOL    HW224201   0.564   3.743  15.861  0.2815 -0.0021  0.5361
 4189SOL     OW24202   2.229   3.771  13.855 -0.3348 -0.8678  0.6217
 4189SOL    HW124203   2.153   3.828  13.845  0.7656  0.7690  1.4904
 4189SOL    HW224204   2.304   3.830  13.846  0.0895 -1.4549  0.3206
 4190SOL     OW24205   3.517   3.609   6.164 -0.6869 -0.5554  0.1420
 4190SOL    HW124206   3.520   3.631   6.257  1.2983  1.4637 -0.3906
 4190SOL    HW224207   3.427   3.639   6.159 -0.5587  0.1245  1.9264
 4191SOL     OW24208   0.918   0.131  12.251 -0.2760 -0.0720  0.0097
 4191SOL    HW124209   0.907   0.213  12.300 -0.9870 -0.1635  0.0095
 4191SOL    HW224210   0.876   0.151  12.168 -1.1668 -2.9870 -0.2659
 4192SOL     OW24211   4.561   1.096   7.767  0.0333  0.4534  0.3614
 4192SOL    HW124212   4.513   1.116   7.687 -2.8777 -0.4121  1.9025
 4192SOL    HW224213   4.495   1.122   7.831  2.0381  0.6671  2.3848
 4193SOL     OW24214   1.435   1.538   4.176 -0.0429  0.0836  0.6564
 4193SOL    HW124215   1.408   1.511   4.263 -0.4733  2.1440  1.1587
 4193SOL    HW224216   1.374   1.610   4.159  0.9882  1.0036  0.8575
 4194SOL     OW24217   3.242   3.068  12.082 -0.4860 -0.2259 -0.4351
 4194SOL    HW124218   3.230   3.062  12.176 -1.9827  2.2938 -0.4496
 4194SOL    HW224219   3.332   3.038  12.067 -0.9006 -2.2304  1.2054
 4195SOL     OW24220   2.390   2.498  14.293  0.3472  0.2805  0.1518
 4195SOL    HW124221   2.384   2.483  14.387  0.0034 -0.7506 -0.0315
 4195SOL    HW224222   2.364   2.411  14.261  0.8529  0.9022 -1.9701
 4196SOL     OW24223   2.191   3.433   0.896  0.4398 -0.2278 -0.0174
 4196SOL    HW124224   2.224   3.493   0.830 -0.0748 -0.4163 -0.4424
 4196SOL    HW224225   2.158   3.490   0.966 -0.0614 -2.4210  1.5406
 4197SOL     OW24226   2.526   3.172   5.265 -0.4275  0.4066 -1.0716
 4197SOL    HW124227   2.587   3.100   5.249  0.2815  0.4728  1.2464
 4197SOL    HW224228   2.455   3.154   5.204 -1.2340  0.2068 -0.0711
 4198SOL     OW24229   2.563   3.920  15.658  0.0515  0.2661 -0.1882
 4198SOL    HW124230   2.537   3.907  15.750 -2.9260  0.0417 -1.0360
 4198SOL    HW224231   2.472   3.923  15.628 -0.1012  0.9202  0.3314
 4199SOL     OW24232   0.563   2.993  11.048 -0.3534 -0.3839  0.3369
 4199SOL    HW124233   0.481   3.042  11.054  2.1942  3.7525  0.5964
 4199SOL    HW224234   0.580   2.960  11.137  0.6333  0.2665  0.3897
 4200SOL     OW24235   4.058   1.387  14.682 -0.1731  0.4707  0.4950
 4200SOL    HW124236   4.148   1.382  14.648 -0.5252 -2.5574  0.0038
 4200SOL    HW224237   4.027   1.477  14.670  0.2372  0.2465 -2.3867
 4201SOL     OW24238   3.998   1.246   6.563 -0.3570  0.0328  0.2308
 4201SOL    HW124239   3.934   1.296   6.511  0.6671 -0.0451 -1.1134
 4201SOL    HW224240   3.955   1.162   6.573 -0.1540 -0.0445  0.4325
 4202SOL     OW24241   1.762   2.799  10.510  0.0882 -0.7159  0.2991
 4202SOL    HW124242   1.749   2.766  10.599 -1.0835  1.0207  0.7698
 4202SOL    HW224243   1.776   2.893  10.526 -0.2292 -0.4362 -1.0457
 4203SOL     OW24244   1.903   0.600   2.812 -0.2279 -0.0230  0.3043
 4203SOL    HW124245   1.944   0.581   2.727 -0.9652  2.8647 -0.7157
 4203SOL    HW224246   1.959   0.668   2.851  0.5354 -0.4890  0.0222
 4204SOL     OW24247   2.516   3.149   9.019  0.3586  0.8530  0.1908
 4204SOL    HW124248   2.466   3.230   9.013 -0.2640  0.6028  1.9565
 4204SOL    HW224249   2.581   3.172   8.953  1.3474 -1.5728  0.3087
 4205SOL     OW24250   2.200   1.078  15.995 -0.9286 -0.0343  0.2685
 4205SOL    HW124251   2.183   1.148  15.932 -0.6387  1.4505  1.8516
 4205SOL    HW224252   2.170   1.005  15.941 -1.1794  0.2476  0.0266
 4206SOL     OW24253   1.920   3.023   7.127 -0.5323  0.3609 -0.0017
 4206SOL    HW124254   1.980   2.973   7.182  1.2512  1.1903 -1.2051
 4206SOL    HW224255   1.964   3.048   7.046 -1.1669  0.3776 -0.3488
 4207SOL     OW24256   3.948   0.880  13.360 -0.3280 -0.0744 -0.0650
 4207SOL    HW124257   3.856   0.886  13.336 -0.6380 -1.6753  0.7550
 4207SOL    HW224258   3.979   0.841  13.278  0.0997 -1.2702  0.6801
 4208SOL     OW24259   0.789   1.018   8.492 -0.5909  0.5803 -0.1207
 4208SOL    HW124260   0.868   1.072   8.487 -0.6700  0.9185  2.0704
 4208SOL    HW224261   0.743   1.048   8.414  0.3320  0.1704 -0.8267
 4209SOL     OW24262   2.947   1.837   6.211  0.5658  0.1852  0.7114
 4209SOL    HW124263   3.006   1.762   6.204 -0.3616 -0.5284  0.5002
 4209SOL    HW224264   2.916   1.859   6.123  2.0070 -1.0754 -0.1258
 4210SOL     OW24265   3.503   1.460   4.905  0.2624 -0.5288  0.2812
 4210SOL    HW124266   3.490   1.411   4.986  0.8717  1.5646  1.6520
 4210SOL    HW224267   3.425   1.515   4.903 -0.1853 -1.1487  1.0305
 4211SOL     OW24268   4.692   3.916   5.680  0.3432  0.0906 -0.3734
 4211SOL    HW124269   0.021   3.945   5.616 -1.4439 -0.8653 -2.6197
 4211SOL    HW224270   4.684   3.823   5.660 -2.1725  0.5807 -1.7776
 4212SOL     OW24271   3.576   2.108   9.456  0.2438 -0.3818  0.0879
 4212SOL    HW124272   3.491   2.117   9.414  1.0863 -1.6534 -1.9130
 4212SOL    HW224273   3.621   2.063   9.384 -0.5174  0.3729 -0.8609
 4213SOL     OW24274   3.288   3.154  11.820 -0.0554 -0.4551 -0.0018
 4213SOL    HW124275   3.210   3.156  11.764  0.2985 -2.9649 -0.5861
 4213SOL    HW224276   3.251   3.147  11.908  0.5173  4.1316  0.5777
 4214SOL     OW24277   2.482   4.123   9.931 -0.1838  0.1409 -0.0912
 4214SOL    HW124278   2.524   4.134  10.016  1.0096  0.1429 -0.6816
 4214SOL    HW224279   2.454   4.213   9.914  0.6884  0.1737 -1.3162
 4215SOL     OW24280   1.737   3.834   3.106 -0.5391  0.0902  0.8828
 4215SOL    HW124281   1.720   3.927   3.122 -1.5618 -0.1844  1.3442
 4215SOL    HW224282   1.666   3.819   3.044  1.2260  0.2565 -1.1887
 4216SOL     OW24283   2.164   3.984   7.929  0.0406  0.0030  0.4022
 4216SOL    HW124284   2.124   3.930   7.861 -0.7456  1.0752  0.0154
 4216SOL    HW224285   2.151   3.931   8.007  3.2968 -0.7584  0.4481
 4217SOL     OW24286   3.377   0.902   9.299 -0.2106  0.4871  0.0883
 4217SOL    HW124287   3.318   0.830   9.321 -0.2694  0.0658 -1.4207
 4217SOL    HW224288   3.426   0.910   9.381 -0.3173  0.8321  0.1155
 4218SOL     OW24289   4.143   2.670   2.574  0.4781  0.0958  0.2523
 4218SOL    HW124290   4.082   2.602   2.545  0.1531  1.7500 -2.9124
 4218SOL    HW224291   4.221   2.633   2.533 -1.1988 -2.1961 -0.8815
 4219SOL     OW24292   2.284   3.934   8.215 -0.4218  0.2365 -0.4189
 4219SOL    HW124293   2.289   4.015   8.266  0.1053  0.2564 -0.5082
 4219SOL    HW224294   2.191   3.911   8.225  0.3109 -1.9051  1.4841
 4220SOL     OW24295   1.934   3.348   2.219  0.1929  0.3950  0.5892
 4220SOL    HW124296   1.962   3.427   2.265 -1.0527  2.2561 -1.7758
 4220SOL    HW224297   1.856   3.395   2.189  0.3708 -0.1271 -0.6866
 4221SOL     OW24298   2.069   3.672   7.033  0.2304  0.3739 -0.2002
 4221SOL    HW124299   2.040   3.581   7.019  0.5675  0.2508 -0.0839
 4221SOL    HW224300   2.015   3.728   6.977  0.3467 -0.8805 -1.5808
 4222SOL     OW24301   0.552   2.190   7.671 -0.0913 -0.2232 -0.2545
 4222SOL    HW124302   0.591   2.131   7.735 -0.0565 -0.1488 -0.2068
 4222SOL    HW224303   0.633   2.221   7.630 -0.3338  1.0172  0.1919
 4223SOL     OW24304   3.089   2.224   2.368 -0.4193 -0.4078 -0.5418
 4223SOL    HW124305   3.085   2.129   2.379 -0.4855 -0.2142  1.1555
 4223SOL    HW224306   3.176   2.235   2.330 -0.5358  0.5902 -0.5350
 4224SOL     OW24307   0.418   3.292   6.080  0.3831 -0.1767 -0.7775
 4224SOL    HW124308   0.436   3.382   6.108  1.2597 -1.0732  1.5160
 4224SOL    HW224309   0.472   3.246   6.144 -0.7714  0.1927  0.4839
 4225SOL     OW24310   4.087   1.255   1.484  0.3093 -0.3820  0.0001
 4225SOL    HW124311   4.066   1.321   1.418 -0.2285 -1.0192 -0.4634
 4225SOL    HW224312   4.177   1.239   1.453 -0.9171 -1.8970 -2.7849
 4226SOL     OW24313   0.595   0.784  10.508 -0.1232 -0.4951 -0.5011
 4226SOL    HW124314   0.523   0.806  10.566  0.3159  0.0207 -0.1504
 4226SOL    HW224315   0.651   0.859  10.530 -1.1043  0.1467 -0.2373
 4227SOL     OW24316   4.267   0.466   4.646 -0.3956  0.3565 -0.2372
 4227SOL    HW124317   4.279   0.379   4.606  1.4541 -0.1456  1.4195
 4227SOL    HW224318   4.190   0.495   4.596 -0.2518 -0.2429 -0.8131
 4228SOL     OW24319   3.666   0.169   2.644 -0.2087  0.2972  0.0214
 4228SOL    HW124320   3.659   0.076   2.665 -0.7764  0.7332  1.7464
 4228SOL    HW224321   3.638   0.174   2.552  0.7919  1.5317 -0.2147
 4229SOL     OW24322   2.906   2.706   7.515  0.2131 -0.4475 -0.0371
 4229SOL    HW124323   2.877   2.645   7.447  0.4318 -1.2947  0.6285
 4229SOL    HW224324   2.931   2.786   7.468  0.9674  0.6926  2.3338
 4230SOL     OW24325   4.149   1.363   7.923 -0.3792 -0.2360 -0.3057
 4230SOL    HW124326   4.155   1.454   7.895  1.1385  0.0037  0.7924
 4230SOL    HW224327   4.082   1.339   7.859  0.2289  0.5696 -1.2399
 4231SOL     OW24328   0.512   3.766   6.740  0.3456  0.3301  0.4843
 4231SOL    HW124329   0.484   3.854   6.716 -0.4222 -0.7040 -2.3826
 4231SOL    HW224330   0.593   3.758   6.689  0.8282 -0.7027  1.4038
 4232SOL     OW24331   2.291   0.456   7.864 -0.0406  0.3003 -0.5327
 4232SOL    HW124332   2.284   0.547   7.892 -1.9574 -0.3544  1.1239
 4232SOL    HW224333   2.278   0.462   7.770 -0.2007 -0.3853 -0.5549
 4233SOL     OW24334   2.835   2.663   5.419  0.5420  0.0459 -0.3235
 4233SOL    HW124335   2.857   2.691   5.508 -0.5330  2.5582 -0.8393
 4233SOL    HW224336   2.907   2.683   5.359 -0.0355  1.3504 -0.5920
 4234SOL     OW24337   0.193   1.364   3.364  0.2284 -0.1409  0.4341
 4234SOL    HW124338   0.236   1.352   3.449  2.5627  1.6811 -0.4842
 4234SOL    HW224339   0.253   1.326   3.300 -0.8485 -1.0020 -0.0590
 4235SOL     OW24340   2.413   1.023   1.912  0.4149  0.0887  0.0463
 4235SOL    HW124341   2.507   1.039   1.912  0.5766 -0.7791 -3.0916
 4235SOL    HW224342   2.402   1.101   1.966 -1.0010 -2.1346  2.9408
 4236SOL     OW24343   2.165   3.009   8.205 -0.4618  0.1239  0.0785
 4236SOL    HW124344   2.245   2.956   8.215  1.0916  2.3276 -0.6436
 4236SOL    HW224345   2.209   3.088   8.173  0.8835 -0.4030  0.5956
 4237SOL     OW24346   1.535   2.954   4.840  0.6522 -0.3007 -0.5910
 4237SOL    HW124347   1.598   2.987   4.776  0.7977  0.2484 -0.1668
 4237SOL    HW224348   1.448   2.981   4.812 -0.0810 -0.6370  1.4176
 4238SOL     OW24349   2.458   3.667   6.949  0.2105  0.0059  0.4568
 4238SOL    HW124350   2.553   3.670   6.963  0.5802  1.3961 -2.3903
 4238SOL    HW224351   2.455   3.685   6.855  1.5196  0.9751  0.5972
 4239SOL     OW24352   0.098   4.041   3.401  0.2234  0.1273 -0.8040
 4239SOL    HW124353   0.116   3.984   3.326  0.8613  0.5611 -0.9802
 4239SOL    HW224354   0.043   3.978   3.447  1.9245 -1.3084 -0.7294
 4240SOL     OW24355   3.394   1.147   5.295 -0.0594  0.1035  0.2934
 4240SOL    HW124356   3.342   1.134   5.374 -1.3801 -0.7174 -0.7173
 4240SOL    HW224357   3.470   1.094   5.319  0.5878  1.6609  1.7536
 4241SOL     OW24358   2.197   3.894   9.621 -0.3677 -0.5450  0.5083
 4241SOL    HW124359   2.266   3.832   9.643  0.8005  0.6797  0.3356
 4241SOL    HW224360   2.212   3.955   9.693  0.7450 -2.0053  1.5155
 4242SOL     OW24361   4.694   3.776   6.822  0.5835  0.1357  0.2523
 4242SOL    HW124362   4.682   3.742   6.734 -0.2107  1.4455 -0.1524
 4242SOL    HW224363   4.735   3.859   6.800 -0.9514  0.6644 -0.6556
 4243SOL     OW24364   0.783   2.989   4.719  0.2255  0.3225 -0.1275
 4243SOL    HW124365   0.706   3.008   4.772 -1.1587 -0.0649 -2.0077
 4243SOL    HW224366   0.756   2.910   4.671 -1.0112  0.2580  0.6808
 4244SOL     OW24367   3.597   1.707   8.880  0.1263 -0.4792  0.4794
 4244SOL    HW124368   3.639   1.698   8.966  1.6396  0.6533 -0.1449
 4244SOL    HW224369   3.602   1.802   8.867 -1.3968 -0.5489 -0.6501
 4245SOL     OW24370   1.486   0.286  10.162 -0.3723  0.4159  0.0597
 4245SOL    HW124371   1.543   0.250  10.231 -0.7365 -1.2091 -0.4831
 4245SOL    HW224372   1.404   0.290  10.212  0.0499  0.3055  0.7750
 4246SOL     OW24373   2.701   1.978   5.064  0.0852  0.4246 -0.0347
 4246SOL    HW124374   2.624   2.034   5.067 -0.3978 -0.2552  0.1885
 4246SOL    HW224375   2.682   1.928   5.143  1.4523  1.5759  1.0393
 4247SOL     OW24376   1.048   3.580  14.549  0.0737 -0.2866  0.0708
 4247SOL    HW124377   1.091   3.544  14.471 -0.0409  0.4093 -0.3132
 4247SOL    HW224378   1.130   3.603  14.593  0.4920 -0.9053 -0.3724
 4248SOL     OW24379   2.327   0.215  16.632 -0.3177  0.6202 -0.1275
 4248SOL    HW124380   2.238   0.192  16.607 -0.0067  0.1905 -0.8518
 4248SOL    HW224381   2.367   0.226  16.546  2.0476  1.1219  1.0125
 4249SOL     OW24382   1.786   4.283  14.584 -0.4314 -0.0722  0.0401
 4249SOL    HW124383   1.706   4.333  14.567  0.3963  0.3098 -2.7243
 4249SOL    HW224384   1.762   4.208  14.531  0.8650  0.4872 -1.3439
 4250SOL     OW24385   1.179   3.513  14.886  0.2334  0.4251 -0.1632
 4250SOL    HW124386   1.234   3.438  14.908  0.1505  0.1920 -0.7552
 4250SOL    HW224387   1.223   3.550  14.810  1.2376  1.1970  0.7884
 4251SOL     OW24388   4.610   3.783   3.013  0.2631  0.1169 -0.0083
 4251SOL    HW124389   4.699   3.748   3.022 -0.9312 -2.7784  0.4998
 4251SOL    HW224390   4.570   3.731   2.943 -0.2374  1.3242 -0.6034
 4252SOL     OW24391   2.095   0.820   6.788  0.4863 -0.2483 -0.5093
 4252SOL    HW124392   2.093   0.769   6.707  2.5499  2.7053 -2.4343
 4252SOL    HW224393   2.056   0.901   6.755  1.2402 -0.2477 -1.4224
 4253SOL     OW24394   3.620   3.884  14.842  0.0804 -0.7098 -0.3527
 4253SOL    HW124395   3.666   3.967  14.830 -0.5892 -0.2712  0.0887
 4253SOL    HW224396   3.682   3.825  14.799  0.6716 -0.4504  0.1634
 4254SOL     OW24397   2.891   1.817   7.749 -0.1199  0.1648  0.1555
 4254SOL    HW124398   2.856   1.806   7.661  2.4566 -1.9050 -0.6156
 4254SOL    HW224399   2.984   1.805   7.729 -0.0149 -0.6725  1.1232
 4255SOL     OW24400   1.699   1.524   7.647  0.0588  0.0559  0.1663
 4255SOL    HW124401   1.753   1.463   7.597  0.1098 -0.5019  0.9022
 4255SOL    HW224402   1.742   1.607   7.624  0.4118 -0.4234 -0.8896
 4256SOL     OW24403   0.199   1.134   5.582  0.1439  0.1422  0.2448
 4256SOL    HW124404   0.256   1.153   5.656 -1.7341 -1.0266  1.9932
 4256SOL    HW224405   0.135   1.204   5.595  1.3564  1.3410 -0.2577
 4257SOL     OW24406   0.576   2.453   6.572  0.9609  0.0666 -0.4311
 4257SOL    HW124407   0.647   2.506   6.608  1.1515 -1.2397  1.1019
 4257SOL    HW224408   0.623   2.370   6.564  0.6104 -0.3302  1.7004
 4258SOL     OW24409   3.366   1.893   9.082  0.5705 -0.5780 -0.1519
 4258SOL    HW124410   3.437   1.918   9.023 -0.8670 -0.9479 -2.0559
 4258SOL    HW224411   3.418   1.831   9.133  0.1212 -0.0367  0.9573
 4259SOL     OW24412   4.054   2.478   7.710 -0.6514  0.2479 -0.3210
 4259SOL    HW124413   4.033   2.571   7.709  0.2029  0.4449 -0.3220
 4259SOL    HW224414   4.043   2.454   7.802 -0.5354 -3.1191 -1.1996
 4260SOL     OW24415   1.300   0.207   5.773  0.5351 -0.0216 -0.3409
 4260SOL    HW124416   1.266   0.252   5.850 -0.0896 -1.8958  0.4762
 4260SOL    HW224417   1.241   0.133   5.765  0.3202  0.0536  0.5029
 4261SOL     OW24418   2.998   3.845   6.228  0.4504  0.1618 -0.3486
 4261SOL    HW124419   3.041   3.915   6.277 -2.4964  1.2309  0.6968
 4261SOL    HW224420   2.999   3.776   6.294  1.5812 -0.4798 -1.0362
 4262SOL     OW24421   0.189   4.712   6.635  0.1467 -0.0511  0.3429
 4262SOL    HW124422   0.209   4.626   6.673  3.5230 -0.2815 -1.9177
 4262SOL    HW224423   0.108   4.679   6.595  0.6164 -1.1658  0.3126
 4263SOL     OW24424   0.892   3.300  12.554  0.2507 -0.2362 -0.4447
 4263SOL    HW124425   0.849   3.375  12.513  2.6542  1.2025 -0.3313
 4263SOL    HW224426   0.970   3.293  12.498  0.9390  0.4811  0.4298
 4264SOL     OW24427   2.498   2.223   3.116  0.7888  0.5095  0.1644
 4264SOL    HW124428   2.470   2.251   3.203  4.2000  4.2023  0.0442
 4264SOL    HW224429   2.555   2.149   3.134 -0.1672 -0.5526 -1.1558
 4265SOL     OW24430   3.726   3.625   4.595 -0.3597 -0.4182 -0.0204
 4265SOL    HW124431   3.813   3.660   4.616 -0.3474 -0.5806  0.1968
 4265SOL    HW224432   3.689   3.600   4.680 -2.0302  1.0006 -0.3454
 4266SOL     OW24433   1.425   2.640   0.065 -0.1391 -0.0873  0.8530
 4266SOL    HW124434   1.465   2.606   0.145  0.4773 -0.6759  0.2926
 4266SOL    HW224435   1.405   2.558   0.018 -1.7390 -0.6423  2.5062
 4267SOL     OW24436   1.483   0.965   3.268 -0.2289 -0.2185 -0.3705
 4267SOL    HW124437   1.560   1.019   3.248  1.5737 -2.4597  0.5352
 4267SOL    HW224438   1.434   0.999   3.193 -2.6838  1.2385  1.9246
 4268SOL     OW24439   1.588   3.408   2.976  0.0154  0.0382 -0.5935
 4268SOL    HW124440   1.524   3.477   2.990  1.2221  0.6652  1.8104
 4268SOL    HW224441   1.656   3.437   3.036 -0.6312  2.0421 -0.8158
 4269SOL     OW24442   2.854   3.146   2.670 -0.3060 -0.3432  0.3615
 4269SOL    HW124443   2.873   3.156   2.576  1.4863 -0.8944  0.6695
 4269SOL    HW224444   2.943   3.158   2.703  0.1720  0.1370 -1.0883
 4270SOL     OW24445   3.832   0.037  14.196 -0.6919  0.1354  0.2629
 4270SOL    HW124446   3.899   4.706  14.188 -0.1452  0.6185  0.7892
 4270SOL    HW224447   3.887   0.115  14.185 -2.0955  1.5239  3.1020
 4271SOL     OW24448   1.493   3.880   0.659 -0.1298 -0.3855 -0.1007
 4271SOL    HW124449   1.432   3.936   0.611  0.6628  0.2991 -0.3176
 4271SOL    HW224450   1.492   3.933   0.738 -0.4722  0.1549 -0.4686
 4272SOL     OW24451   1.151   3.505  13.385 -0.4766 -0.5515  0.2933
 4272SOL    HW124452   1.095   3.544  13.317  0.3690  0.2925  0.0721
 4272SOL    HW224453   1.225   3.565  13.381  0.2404 -1.5680 -1.5058
 4273SOL     OW24454   1.927   3.659   0.674  0.5010  0.5704 -0.1222
 4273SOL    HW124455   1.964   3.598   0.738  0.2006  0.7027  0.1781
 4273SOL    HW224456   1.931   3.604   0.596  0.1232 -0.5063  0.6265
 4274SOL     OW24457   2.492   2.406  10.449 -0.5129  0.3292 -0.0755
 4274SOL    HW124458   2.539   2.489  10.456  0.9550 -0.3695 -1.6582
 4274SOL    HW224459   2.420   2.416  10.512  1.4662 -0.3303  2.2758
 4275SOL     OW24460   2.602   0.965  16.011  0.3382  0.1237  0.4539
 4275SOL    HW124461   2.692   0.932  16.010 -0.2871 -1.5618 -0.4559
 4275SOL    HW224462   2.564   0.918  15.937 -1.6767  1.8770  0.3772
 4276SOL     OW24463   2.506   3.276   4.917 -0.3537  0.2158 -0.4128
 4276SOL    HW124464   2.452   3.244   4.989 -0.1149 -0.5361 -0.5559
 4276SOL    HW224465   2.552   3.350   4.956 -0.0882  0.4390 -1.1413
 4277SOL     OW24466   0.650   3.956  14.662 -0.2090 -0.2741 -0.1066
 4277SOL    HW124467   0.608   3.898  14.725  0.3674 -1.0433 -0.4311
 4277SOL    HW224468   0.721   3.894  14.646 -1.0471 -0.8363 -1.6100
 4278SOL     OW24469   3.608   2.765   5.510  0.5078 -0.0654 -0.1905
 4278SOL    HW124470   3.626   2.840   5.567 -0.2001  1.5151 -2.0356
 4278SOL    HW224471   3.567   2.807   5.434  1.9229  1.0525 -0.3410
 4279SOL     OW24472   3.673   1.896   3.516  0.6665  0.1262 -0.0999
 4279SOL    HW124473   3.744   1.849   3.560  1.0406  0.3910 -0.4197
 4279SOL    HW224474   3.659   1.975   3.567 -0.8383 -0.6574  0.7043
 4280SOL     OW24475   1.106   0.461   1.556  0.3845 -0.4235 -0.2057
 4280SOL    HW124476   1.175   0.476   1.491  0.0915  0.8355 -0.2220
 4280SOL    HW224477   1.122   0.533   1.618  0.9146  0.1806 -1.0496
 4281SOL     OW24478   2.994   3.941  14.537 -0.0880 -0.6021  0.0929
 4281SOL    HW124479   2.917   3.998  14.535 -1.2626 -2.1460  2.0606
 4281SOL    HW224480   3.061   4.010  14.539  0.0215 -0.7077  0.0446
 4282SOL     OW24481   1.579   2.795   8.015 -0.1218 -0.1297  0.3911
 4282SOL    HW124482   1.629   2.815   7.936 -1.9662 -1.5768 -1.1397
 4282SOL    HW224483   1.508   2.859   8.014  0.8808  0.9841  0.4265
 4283SOL     OW24484   0.749   3.466  15.953 -0.2287  0.2364 -0.3735
 4283SOL    HW124485   0.831   3.419  15.940  0.1156  1.1553 -1.5700
 4283SOL    HW224486   0.777   3.541  16.007 -0.5022 -0.6568  1.0038
 4284SOL     OW24487   3.731   2.535   0.026 -0.0045  0.1716 -0.0865
 4284SOL    HW124488   3.676   2.593  17.715  2.0630  1.0647 -1.2447
 4284SOL    HW224489   3.799   2.525  17.702 -1.1981  0.5061 -1.3590
 4285SOL     OW24490   2.068   3.621   6.655  0.5134  0.0039 -0.0224
 4285SOL    HW124491   2.152   3.577   6.655  1.0499  1.0038  1.2127
 4285SOL    HW224492   2.017   3.563   6.712 -0.1891  0.0858 -0.5598
 4286SOL     OW24493   0.294   3.713   4.538  0.1917  0.3532 -0.1991
 4286SOL    HW124494   0.360   3.662   4.490  0.2181 -1.9581  2.2945
 4286SOL    HW224495   0.332   3.732   4.624 -0.4203 -3.1673  0.8462
 4287SOL     OW24496   1.750   0.965  17.483 -0.1461 -0.5861  0.0612
 4287SOL    HW124497   1.779   0.962  17.392 -0.4472  1.1433 -0.0917
 4287SOL    HW224498   1.766   0.873  17.506  0.4423 -0.7035 -0.7991
 4288SOL     OW24499   2.307   0.355   5.663  0.3736  0.0154 -0.2101
 4288SOL    HW124500   2.386   0.405   5.683  0.2211  0.3652 -0.4762
 4288SOL    HW224501   2.330   0.278   5.715 -1.4542  0.2253  0.9116
 4289SOL     OW24502   4.503   4.332  14.085  0.2313 -0.2033 -0.3220
 4289SOL    HW124503   4.462   4.402  14.137  2.9475  1.3625 -0.3248
 4289SOL    HW224504   4.495   4.370  13.998 -0.4865  0.2479 -0.0577
 4290SOL     OW24505   3.948   1.003   5.530 -0.0360 -0.0641 -0.3202
 4290SOL    HW124506   3.879   1.000   5.597 -0.3232  0.0442 -0.6098
 4290SOL    HW224507   3.954   1.098   5.520  3.9081 -0.3070 -0.2359
 4291SOL     OW24508   3.687   0.658   2.097  0.5304 -0.0649  0.2925
 4291SOL    HW124509   3.601   0.681   2.061 -0.7100 -1.0208  2.6615
 4291SOL    HW224510   3.689   0.696   2.185  1.3265  1.4087 -0.3504
 4292SOL     OW24511   0.076   1.544   7.680 -0.9571  0.3564 -0.2886
 4292SOL    HW124512   4.725   1.510   7.660 -1.1164  1.3901 -1.3212
 4292SOL    HW224513   0.101   1.479   7.745  0.2877  0.6135 -0.5057
 4293SOL     OW24514   0.507   4.001  11.009  0.0051 -0.6319 -0.1634
 4293SOL    HW124515   0.560   4.015  10.930 -0.5398  0.8218 -0.2684
 4293SOL    HW224516   0.462   3.921  10.981 -0.3381 -1.2691  2.2194
 4294SOL     OW24517   0.241   0.890  15.120 -0.1823 -0.6511 -0.0524
 4294SOL    HW124518   0.190   0.966  15.146 -0.8230 -0.3351 -2.2358
 4294SOL    HW224519   0.240   0.905  15.025 -0.8090 -0.6983 -0.0502
 4295SOL     OW24520   3.674   2.416   5.391  0.2795 -0.2348 -0.4898
 4295SOL    HW124521   3.693   2.463   5.472  0.2861 -0.9491 -0.0724
 4295SOL    HW224522   3.684   2.326   5.423 -1.6196  0.2717  1.5583
 4296SOL     OW24523   2.847   1.292  12.371  0.0762 -0.2631 -0.0113
 4296SOL    HW124524   2.829   1.386  12.365 -0.2740 -0.1262  3.4966
 4296SOL    HW224525   2.852   1.281  12.465 -1.6803  1.1785  0.2551
 4297SOL     OW24526   3.048   0.105   7.472 -0.3871  0.7412 -0.2474
 4297SOL    HW124527   2.953   0.116   7.483 -0.4574  1.1167 -1.2354
 4297SOL    HW224528   3.063   0.017   7.506 -2.1848 -0.6522 -3.0310
 4298SOL     OW24529   0.754   4.367   4.195 -0.3946  0.1387  0.5953
 4298SOL    HW124530   0.727   4.289   4.147  1.8853 -0.5594  0.4786
 4298SOL    HW224531   0.667   4.397   4.223 -0.5438  1.1999 -1.0280
 4299SOL     OW24532   2.696   4.401  15.041  0.5692  0.2253 -0.0886
 4299SOL    HW124533   2.658   4.413  15.128 -0.5723 -2.3689 -0.2562
 4299SOL    HW224534   2.750   4.480  15.032 -0.5420  1.0347  0.3930
 4300SOL     OW24535   2.188   1.722   6.864  0.3877  0.5375  0.1065
 4300SOL    HW124536   2.169   1.638   6.823 -1.9409  1.4077 -0.5954
 4300SOL    HW224537   2.102   1.760   6.879  0.5888  0.4489  1.5150
 4301SOL     OW24538   3.765   0.652   7.837 -0.6996  0.0254 -0.4961
 4301SOL    HW124539   3.766   0.738   7.880  0.9324 -0.1153 -0.2552
 4301SOL    HW224540   3.789   0.594   7.909  0.9548  0.1173 -0.9744
 4302SOL     OW24541   4.040   1.930   0.160  0.0447 -0.3433  0.0145
 4302SOL    HW124542   4.072   1.923   0.070 -0.6665 -0.1725 -0.2536
 4302SOL    HW224543   4.124   1.943   0.204 -0.9670  1.9807  1.2520
 4303SOL     OW24544   0.564   2.289  13.391  0.2117  0.0689 -0.0259
 4303SOL    HW124545   0.481   2.243  13.382 -0.5377  1.4374  0.0781
 4303SOL    HW224546   0.541   2.370  13.435 -0.8196  0.0123 -0.4743
 4304SOL     OW24547   4.629   2.361  15.693 -0.6862 -0.2489  0.2912
 4304SOL    HW124548   4.665   2.281  15.731  1.3589 -0.3013 -1.7629
 4304SOL    HW224549   4.537   2.354  15.720 -0.7915 -0.1764 -0.0434
 4305SOL     OW24550   2.700   2.056   2.359 -0.4274  0.0117 -0.2177
 4305SOL    HW124551   2.756   2.115   2.408 -2.8155  1.4192  0.8370
 4305SOL    HW224552   2.648   2.014   2.428  1.0742 -1.0926  0.2365
 4306SOL     OW24553   3.773   4.075   8.885  0.5224  0.2341 -0.2106
 4306SOL    HW124554   3.737   3.988   8.903  0.1418  1.0631  3.0814
 4306SOL    HW224555   3.867   4.066   8.898  0.1442 -0.5262  2.0521
 4307SOL     OW24556   0.315   3.948   7.280  0.1569  0.0885  0.0883
 4307SOL    HW124557   0.295   3.954   7.186  0.6912  1.9307  0.0996
 4307SOL    HW224558   0.260   3.878   7.315 -1.1586  1.3718  0.5627
 4308SOL     OW24559   3.424   3.639   7.041  0.0082 -0.0683 -1.0507
 4308SOL    HW124560   3.362   3.619   6.971 -1.0096  0.1600 -0.2147
 4308SOL    HW224561   3.427   3.552   7.081  0.8695 -1.3952 -3.9968
 4309SOL     OW24562   1.527   1.405   8.212  0.1678 -0.3625  0.7808
 4309SOL    HW124563   1.432   1.402   8.209  0.1847  0.2629 -0.5434
 4309SOL    HW224564   1.549   1.343   8.142 -0.5988 -1.0379  1.1365
 4310SOL     OW24565   1.887   3.154   8.930 -0.0563 -0.4235  0.2593
 4310SOL    HW124566   1.978   3.174   8.950 -0.0067  0.3496 -0.7185
 4310SOL    HW224567   1.840   3.233   8.956  1.0571  0.7951 -1.3903
 4311SOL     OW24568   3.490   3.116   1.867  0.4807  0.4607 -0.2049
 4311SOL    HW124569   3.495   3.073   1.952 -0.7644  0.4836 -0.1226
 4311SOL    HW224570   3.582   3.138   1.853  1.3582 -2.1459  1.4425
 4312SOL     OW24571   3.907   2.340   6.949 -0.3299  0.3779 -0.5096
 4312SOL    HW124572   3.887   2.305   7.036  0.8193  1.4527  0.1755
 4312SOL    HW224573   3.863   2.285   6.884 -1.2233  1.4025 -0.7546
 4313SOL     OW24574   4.483   1.713   2.146 -0.5354 -0.4702 -0.0280
 4313SOL    HW124575   4.399   1.691   2.187 -2.1121  2.2005 -1.8050
 4313SOL    HW224576   4.544   1.707   2.219  1.1714 -3.9724 -1.7657
 4314SOL     OW24577   3.092   1.003   3.976  0.0878 -0.0685  0.0553
 4314SOL    HW124578   3.123   1.084   3.935  1.3451 -0.6261 -0.0820
 4314SOL    HW224579   3.170   0.952   3.955 -0.6137 -1.5390  1.0478
 4315SOL     OW24580   2.607   3.539   6.662 -0.3902 -0.1500 -0.0188
 4315SOL    HW124581   2.523   3.497   6.647 -0.1693  0.2845 -2.3472
 4315SOL    HW224582   2.651   3.476   6.720  1.9769 -0.0840 -1.7180
 4316SOL     OW24583   3.954   0.829  11.377  0.2736 -0.5340 -1.2433
 4316SOL    HW124584   3.964   0.870  11.463  1.7437  1.6844 -2.4494
 4316SOL    HW224585   4.042   0.818  11.341  1.1193 -0.7257  0.8936
 4317SOL     OW24586   2.969   0.619   8.246 -0.0398 -0.4484 -0.6071
 4317SOL    HW124587   2.892   0.669   8.219 -0.6915 -1.2888 -0.3053
 4317SOL    HW224588   2.968   0.644   8.338  3.3525  0.1960 -0.7183
 4318SOL     OW24589   1.417   1.683   7.097  1.0834 -0.2776 -0.4575
 4318SOL    HW124590   1.401   1.744   7.025  0.4225 -1.6428 -1.4908
 4318SOL    HW224591   1.466   1.740   7.155  0.6493 -0.2853 -0.0888
 4319SOL     OW24592   4.612   1.910   6.601 -0.2033  0.1594  0.7262
 4319SOL    HW124593   4.687   1.943   6.650  0.0894  0.0946  0.3150
 4319SOL    HW224594   4.572   1.995   6.581 -0.4692 -0.2827 -0.6218
 4320SOL     OW24595   0.567   2.677  17.429  0.0703  0.6805 -0.3523
 4320SOL    HW124596   0.651   2.635  17.450  0.2274  0.9225 -0.4981
 4320SOL    HW224597   0.516   2.599  17.408  2.1702 -1.0701  0.9419
 4321SOL     OW24598   3.755   3.118   4.230 -0.1741  0.3294  0.2114
 4321SOL    HW124599   3.834   3.065   4.240 -1.2640 -1.3219 -0.0455
 4321SOL    HW224600   3.692   3.053   4.201  1.2888 -0.2279 -1.7235
 4322SOL     OW24601   2.164   2.350   8.633  0.3731 -0.3090 -0.2084
 4322SOL    HW124602   2.166   2.394   8.719  1.1488  0.7346 -0.7493
 4322SOL    HW224603   2.154   2.424   8.573 -2.0847 -1.7147 -1.4780
 4323SOL     OW24604   4.667   3.001   6.792  0.1767  0.0113 -0.0466
 4323SOL    HW124605   4.622   3.084   6.805  0.5954  0.3899 -1.0344
 4323SOL    HW224606   4.592   2.942   6.785  0.9080 -0.9923  0.6075
 4324SOL     OW24607   1.210   3.851   2.428 -0.1460  0.2834 -0.3764
 4324SOL    HW124608   1.156   3.785   2.384 -1.2296  0.3619  0.8143
 4324SOL    HW224609   1.280   3.859   2.364  0.7391  0.0930  0.5559
 4325SOL     OW24610   0.972   3.548   4.500  0.1022  0.0093 -0.1404
 4325SOL    HW124611   0.966   3.481   4.567  0.8388 -0.6549 -0.7430
 4325SOL    HW224612   0.884   3.586   4.503  0.9210  1.9799 -0.8388
 4326SOL     OW24613   3.844   3.737  11.595  0.0134 -0.3868 -0.4164
 4326SOL    HW124614   3.807   3.777  11.673 -1.4105 -1.0851 -0.7301
 4326SOL    HW224615   3.771   3.682  11.564 -0.9054  0.0947  0.8788
 4327SOL     OW24616   0.200   2.381  15.674 -0.4484  0.6035  0.2822
 4327SOL    HW124617   0.161   2.387  15.587 -0.5994  0.4476  0.3391
 4327SOL    HW224618   0.151   2.315  15.723 -0.7878  0.2552 -0.5257
 4328SOL     OW24619   2.728   0.708   2.729 -0.0956 -0.1423  0.0415
 4328SOL    HW124620   2.691   0.681   2.813  1.5621  3.1084  1.8176
 4328SOL    HW224621   2.812   0.744   2.756 -0.6059  2.1344 -1.4242
 4329SOL     OW24622   4.111   3.219   1.254  0.3936 -0.2103 -0.0967
 4329SOL    HW124623   4.056   3.244   1.180 -0.5500 -1.3579  0.2261
 4329SOL    HW224624   4.131   3.132   1.220  0.0736 -1.3623  2.6733
 4330SOL     OW24625   2.493   3.311   7.398  0.4392 -0.0526 -0.6646
 4330SOL    HW124626   2.478   3.383   7.336  0.7144 -0.5574 -1.3142
 4330SOL    HW224627   2.571   3.274   7.356  2.1205  1.7565  0.9205
 4331SOL     OW24628   0.899   0.795   5.753  0.3435 -0.8993 -0.2383
 4331SOL    HW124629   0.961   0.732   5.717  1.4950  0.1344 -0.0804
 4331SOL    HW224630   0.953   0.839   5.818 -1.0911 -0.5027  0.6925
 4332SOL     OW24631   1.615   3.637   5.015  0.1352 -0.3017 -0.1789
 4332SOL    HW124632   1.646   3.674   4.932  2.1042  0.3756  0.8469
 4332SOL    HW224633   1.695   3.654   5.065  0.7472 -0.0997 -1.2222
 4333SOL     OW24634   1.376   0.579   0.365 -0.6728  0.2143 -0.0962
 4333SOL    HW124635   1.437   0.531   0.420 -0.6879  1.4755  1.0390
 4333SOL    HW224636   1.321   0.508   0.332  1.6355 -1.2260 -0.8102
 4334SOL     OW24637   2.718   1.682   3.755  0.2653  0.8159 -0.2321
 4334SOL    HW124638   2.724   1.777   3.743  1.4407  1.0318  1.8396
 4334SOL    HW224639   2.649   1.655   3.695  1.2933  0.3858 -1.2309
 4335SOL     OW24640   2.292   3.544   6.326 -0.5774 -0.3235  0.4317
 4335SOL    HW124641   2.226   3.490   6.284 -1.9986  1.3046  0.5553
 4335SOL    HW224642   2.333   3.476   6.379  0.8648  0.3466  0.1655
 4336SOL     OW24643   3.967   1.904   0.567  0.0307 -0.2590  0.2498
 4336SOL    HW124644   3.889   1.863   0.529  0.4062  1.1710 -2.0368
 4336SOL    HW224645   3.927   1.958   0.635  0.1270 -0.7048  0.6552
 4337SOL     OW24646   2.209   1.601  16.394 -0.0887  0.0494 -0.0087
 4337SOL    HW124647   2.125   1.627  16.430  0.9888  2.3667  0.8622
 4337SOL    HW224648   2.254   1.684  16.408  0.6143 -0.0757 -1.5297
 4338SOL     OW24649   3.482   4.060  17.236  0.0225  0.2874 -0.3337
 4338SOL    HW124650   3.387   4.046  17.226  0.0598 -0.7214  0.5729
 4338SOL    HW224651   3.491   4.151  17.211  3.3047  0.2885  0.8435
 4339SOL     OW24652   0.814   4.059   3.112 -0.2380  0.6030 -0.3886
 4339SOL    HW124653   0.796   4.152   3.101  1.7958  0.9374 -0.9334
 4339SOL    HW224654   0.766   4.027   3.188  1.6128 -2.4422 -0.4864
 4340SOL     OW24655   4.419   2.499  11.895 -0.3418 -0.6705  0.0907
 4340SOL    HW124656   4.460   2.521  11.978 -1.0820  0.7464  0.0788
 4340SOL    HW224657   4.430   2.404  11.892 -0.5483 -0.6015 -3.8167
 4341SOL     OW24658   1.338   3.474   7.470  0.0614 -0.0439  0.0536
 4341SOL    HW124659   1.294   3.397   7.435 -0.8598  1.3706 -1.8772
 4341SOL    HW224660   1.338   3.451   7.563  1.0975  1.2414  0.3679
 4342SOL     OW24661   3.538   2.247  13.124  0.3657  0.3354 -0.0688
 4342SOL    HW124662   3.561   2.157  13.147 -2.3117  0.1554  1.9327
 4342SOL    HW224663   3.532   2.279  13.213  0.2490 -0.6701  0.2924
 4343SOL     OW24664   4.087   0.159   7.396 -0.8558  0.1675 -0.8152
 4343SOL    HW124665   4.072   0.254   7.401  2.0079  0.6250 -1.3096
 4343SOL    HW224666   3.993   0.138   7.390 -0.3934 -1.6479 -1.6335
 4344SOL     OW24667   2.734   1.276   6.599  0.7532 -0.1485 -0.2262
 4344SOL    HW124668   2.640   1.258   6.587  0.9704 -2.0677  1.0089
 4344SOL    HW224669   2.766   1.333   6.529  2.9960  0.6110  1.4476
 4345SOL     OW24670   1.297   1.324   3.244  0.2963 -0.1999 -0.0168
 4345SOL    HW124671   1.221   1.323   3.185 -0.3819  0.5254  0.8344
 4345SOL    HW224672   1.356   1.255   3.215  0.4271  0.3836 -1.1277
 4346SOL     OW24673   1.050   0.748   6.428  0.1839  0.3465 -0.1925
 4346SOL    HW124674   1.052   0.652   6.429  0.8514  0.3518 -1.5364
 4346SOL    HW224675   0.973   0.766   6.374  0.0947  0.1180 -0.1400
 4347SOL     OW24676   4.149   3.098   4.646 -0.1602 -0.7373 -0.5255
 4347SOL    HW124677   4.155   3.054   4.731 -2.1664 -1.0084 -0.5176
 4347SOL    HW224678   4.235   3.140   4.643  0.4403 -1.7315  2.8019
 4348SOL     OW24679   3.476   1.805   2.623 -0.0787 -0.0474 -0.7230
 4348SOL    HW124680   3.466   1.720   2.579  0.8475 -1.4068  1.7280
 4348SOL    HW224681   3.551   1.776   2.675 -2.7288 -1.4926  2.2398
 4349SOL     OW24682   1.365   4.496   5.703 -0.3752 -0.1985 -0.1149
 4349SOL    HW124683   1.272   4.491   5.679 -0.5031  0.7155  0.1880
 4349SOL    HW224684   1.401   4.579   5.673 -1.5380  1.9182  4.2877
 4350SOL     OW24685   1.614   4.507   6.330  0.1963  0.2170 -0.3007
 4350SOL    HW124686   1.576   4.495   6.417 -1.8404 -0.4341 -1.2904
 4350SOL    HW224687   1.615   4.423   6.283 -0.6575  0.1935 -0.2793
 4351SOL     OW24688   3.558   2.506   9.790 -0.1485  0.3334 -0.6279
 4351SOL    HW124689   3.579   2.466   9.874  1.1558 -0.2208 -1.2147
 4351SOL    HW224690   3.590   2.451   9.719 -3.2095  1.3907 -2.8421
 4352SOL     OW24691   1.261   0.677   3.949  0.5913 -0.3564  0.1297
 4352SOL    HW124692   1.340   0.730   3.938 -0.1956  0.3178 -2.2976
 4352SOL    HW224693   1.202   0.737   3.903  2.8769  1.0801 -0.9546
 4353SOL     OW24694   0.147   0.380   3.523 -0.1967 -0.6357 -0.1707
 4353SOL    HW124695   0.150   0.371   3.618  0.9497 -4.4523 -0.5495
 4353SOL    HW224696   0.181   0.469   3.524 -1.6751 -0.0711 -0.3960
 4354SOL     OW24697   0.075   1.219   8.207  0.6454 -0.0934  0.3276
 4354SOL    HW124698   0.021   1.184   8.137 -1.5272  2.1482  0.8960
 4354SOL    HW224699   0.020   1.289   8.241 -2.5951 -2.0492 -0.9036
 4355SOL     OW24700   4.652   1.543  11.007  0.3139 -0.3449  0.5652
 4355SOL    HW124701   4.703   1.616  11.043 -0.3334  0.0337  0.7062
 4355SOL    HW224702   4.718   1.482  10.975 -0.5819 -0.6600 -0.6797
 4356SOL     OW24703   2.831   3.058  14.273 -0.4329  0.3299 -0.0685
 4356SOL    HW124704   2.763   3.003  14.311 -0.4812  2.7483  3.3398
 4356SOL    HW224705   2.851   3.118  14.345 -2.7648  1.9096 -0.7535
 4357SOL     OW24706   0.741   2.287   5.052 -0.3604 -0.2548 -0.9329
 4357SOL    HW124707   0.706   2.373   5.074 -0.1675  0.1920 -2.3605
 4357SOL    HW224708   0.791   2.306   4.972  2.0968 -0.1980  0.6021
 4358SOL     OW24709   1.866   3.975   2.441 -0.1021  0.2385  0.1162
 4358SOL    HW124710   1.960   3.958   2.447 -0.0334  0.4660 -0.3144
 4358SOL    HW224711   1.850   4.063   2.407  0.9115 -0.3578 -1.9195
 4359SOL     OW24712   4.355   2.582  15.087 -0.4903  0.3108  0.1393
 4359SOL    HW124713   4.430   2.542  15.132  1.4595  4.0881  0.3142
 4359SOL    HW224714   4.327   2.518  15.021  0.4708 -2.0679  2.0704
 4360SOL     OW24715   0.857   0.473  11.083  0.4022  0.0090 -0.4756
 4360SOL    HW124716   0.816   0.540  11.028 -1.5958 -0.2466  0.6811
 4360SOL    HW224717   0.934   0.518  11.117 -0.7679  2.4125 -1.0384
 4361SOL     OW24718   1.015   0.326   7.287 -0.5079 -0.7955 -0.3845
 4361SOL    HW124719   0.973   0.278   7.215  1.1786 -2.4750 -0.2323
 4361SOL    HW224720   1.051   0.261   7.346 -1.4540 -0.3269  0.7223
 4362SOL     OW24721   0.074   1.315  11.724  0.1485  0.5037 -0.2518
 4362SOL    HW124722   4.734   1.329  11.667 -2.0254 -1.3646  2.1565
 4362SOL    HW224723   0.040   1.322  11.813  0.5746  1.5145 -0.1719
 4363SOL     OW24724   2.291   4.591  15.127  0.5173  0.1223  0.0491
 4363SOL    HW124725   2.357   4.634  15.072 -0.0565  1.0256  0.0781
 4363SOL    HW224726   2.286   4.642  15.208 -2.1238 -2.1952  1.3449
 4364SOL     OW24727   1.774   4.681   5.732  0.4926 -0.2714 -0.2045
 4364SOL    HW124728   1.738   4.683   5.643  0.3599 -0.0170 -0.1453
 4364SOL    HW224729   1.825   4.600   5.729  0.7750  0.0365 -3.3708
 4365SOL     OW24730   1.343   2.364   3.033  0.1196  0.4674  0.5238
 4365SOL    HW124731   1.345   2.348   2.939 -0.7842  2.0412  0.2403
 4365SOL    HW224732   1.385   2.281   3.056 -1.0128 -0.6496 -1.4204
 4366SOL     OW24733   2.084   2.158   6.457  0.3892  0.7217  0.4386
 4366SOL    HW124734   2.145   2.084   6.460  1.6553  1.7163 -1.0785
 4366SOL    HW224735   2.143   2.233   6.446  2.5811 -1.4635 -2.5253
 4367SOL     OW24736   1.213   2.153   9.506  0.7623 -0.2200 -0.6507
 4367SOL    HW124737   1.149   2.224   9.498 -0.4368 -1.2477 -0.0703
 4367SOL    HW224738   1.224   2.135   9.599  0.8019 -0.4492 -0.7015
 4368SOL     OW24739   0.309   1.986   6.575 -0.5486 -0.3214 -0.7452
 4368SOL    HW124740   0.276   2.054   6.516 -1.3561  0.8903  1.0836
 4368SOL    HW224741   0.380   1.942   6.528  0.5216  2.3090 -1.5844
 4369SOL     OW24742   4.261   4.627  13.615  0.0431 -0.1366  0.1328
 4369SOL    HW124743   4.354   4.605  13.610  0.0701  0.0527 -0.2630
 4369SOL    HW224744   4.213   4.559  13.569  0.5037  0.5105 -1.3158
 4370SOL     OW24745   2.912   2.742   2.086  0.0837  0.2337 -0.0938
 4370SOL    HW124746   2.981   2.804   2.109  0.7921 -0.2655 -0.8755
 4370SOL    HW224747   2.962   2.665   2.059  0.4450  0.0724  1.0543
 4371SOL     OW24748   4.182   3.318   3.619  0.4549 -0.3289 -0.0875
 4371SOL    HW124749   4.175   3.408   3.587 -0.3977 -0.6574 -0.8216
 4371SOL    HW224750   4.092   3.293   3.637  0.4510  0.0436  0.4127
 4372SOL     OW24751   3.596   4.730   2.002 -0.1277  0.0158 -0.1987
 4372SOL    HW124752   3.557   0.080   1.985  1.2487  0.8928  1.1390
 4372SOL    HW224753   3.633   0.012   2.089  0.5115  1.7427 -0.8351
 4373SOL     OW24754   4.336   4.350   9.086 -0.1405  0.2242 -0.1666
 4373SOL    HW124755   4.328   4.422   9.023  1.3834  0.3901 -0.1689
 4373SOL    HW224756   4.279   4.280   9.054  0.2036  0.6643 -1.7489
 4374SOL     OW24757   1.214   2.915   6.943 -0.2833  0.6751  0.0476
 4374SOL    HW124758   1.152   2.978   6.979  0.9725  1.3261  1.0478
 4374SOL    HW224759   1.257   2.964   6.874  0.1528  3.2713  2.1685
 4375SOL     OW24760   0.185   4.363   6.452 -0.2003 -0.1510  0.5427
 4375SOL    HW124761   0.279   4.374   6.436 -0.3912 -0.6266 -0.9024
 4375SOL    HW224762   0.158   4.325   6.369  0.0711 -0.2869  0.5188
 4376SOL     OW24763   4.082   4.654   4.884 -0.7104  0.0015  0.1334
 4376SOL    HW124764   4.103   4.732   4.935  0.3847  0.0016 -0.3123
 4376SOL    HW224765   3.988   4.664   4.875 -0.8972 -1.1200  0.7639
 4377SOL     OW24766   2.213   1.081  16.267 -0.4137 -0.2608 -0.3262
 4377SOL    HW124767   2.200   1.092  16.173  2.7414 -0.3945 -0.7973
 4377SOL    HW224768   2.225   1.166  16.308  0.5306 -1.7829  2.5482
 4378SOL     OW24769   2.751   0.952   9.334  0.4607 -0.2293  0.2098
 4378SOL    HW124770   2.762   0.905   9.251  0.0278  0.0317  0.0048
 4378SOL    HW224771   2.722   0.881   9.391  2.5270  0.1789  1.7804
 4379SOL     OW24772   2.962   0.867   2.815  0.4093  0.5680 -0.3924
 4379SOL    HW124773   3.011   0.869   2.898  0.6665  2.6839 -0.5804
 4379SOL    HW224774   3.010   0.930   2.761 -0.0907 -0.1225 -1.6323
 4380SOL     OW24775   4.075   4.493  12.342 -0.0443  0.0073  0.0689
 4380SOL    HW124776   4.012   4.527  12.278  1.7758  1.7169 -0.8103
 4380SOL    HW224777   4.029   4.540  12.411  0.0781 -1.5901  1.2329
 4381SOL     OW24778   1.329   0.680  12.494 -0.0903 -0.2523  0.2008
 4381SOL    HW124779   1.317   0.735  12.417 -0.5613 -2.2341 -1.1223
 4381SOL    HW224780   1.247   0.631  12.497  1.1995 -2.5011 -2.0880
 4382SOL     OW24781   2.549   3.984  13.466  0.0559 -0.3270 -0.0892
 4382SOL    HW124782   2.567   3.919  13.534 -0.0020  0.6482  0.8581
 4382SOL    HW224783   2.605   3.961  13.391  0.4693 -1.9954  0.7305
 4383SOL     OW24784   2.395   3.575  14.021  0.5472  0.2031 -0.3547
 4383SOL    HW124785   2.398   3.656  14.072  0.8161 -0.0125 -0.0311
 4383SOL    HW224786   2.301   3.567  14.007  0.6244 -1.0043 -0.1218
 4384SOL     OW24787   3.082   2.737   9.678  0.7625 -0.1336  0.0436
 4384SOL    HW124788   3.171   2.700   9.680 -0.2955 -2.6208 -0.0685
 4384SOL    HW224789   3.058   2.720   9.587  1.7535  2.2644 -0.6879
 4385SOL     OW24790   1.552   2.218  11.402 -0.1997  0.1018 -0.1403
 4385SOL    HW124791   1.530   2.275  11.328  2.5779  2.0306  0.5319
 4385SOL    HW224792   1.478   2.158  11.398 -1.9263  2.0242  3.0137
 4386SOL     OW24793   2.274   0.923   8.128 -0.0342  0.6470  0.0736
 4386SOL    HW124794   2.216   0.980   8.178 -1.1862  0.5960 -1.2244
 4386SOL    HW224795   2.319   0.983   8.068  2.0062 -1.2558 -0.2835
 4387SOL     OW24796   3.220   0.169   2.653  0.1967  0.5859 -0.2980
 4387SOL    HW124797   3.140   0.135   2.612 -0.2527  1.1187  0.1282
 4387SOL    HW224798   3.181   0.215   2.728 -1.3247 -0.3688 -0.4915
 4388SOL     OW24799   3.602   2.392  10.027 -0.3353 -0.4283 -0.0428
 4388SOL    HW124800   3.512   2.365  10.045 -0.7233  1.2584  0.5892
 4388SOL    HW224801   3.642   2.323  10.079 -0.0152  0.5606  1.0416
 4389SOL     OW24802   4.226   1.373   5.846 -0.3696 -0.0776  0.1694
 4389SOL    HW124803   4.303   1.348   5.897 -0.2349  2.8588  1.3942
 4389SOL    HW224804   4.233   1.468   5.851 -1.3142 -0.0419  0.8601
 4390SOL     OW24805   1.379   2.664  12.675 -0.1586  0.2288  0.1760
 4390SOL    HW124806   1.285   2.654  12.692  0.3692 -2.4609  1.5160
 4390SOL    HW224807   1.411   2.729  12.737  1.3515 -1.2508  0.9474
 4391SOL     OW24808   1.006   0.152   3.428 -0.0569 -0.4361  0.4090
 4391SOL    HW124809   1.052   0.093   3.370 -0.2695  0.5185 -0.7292
 4391SOL    HW224810   0.917   0.120   3.416 -0.3768 -0.3780  2.5789
 4392SOL     OW24811   0.503   1.277   3.982  0.2700 -0.5247  0.5613
 4392SOL    HW124812   0.593   1.264   4.010  1.2699 -1.0451 -2.9138
 4392SOL    HW224813   0.462   1.210   4.037 -0.5766 -2.7280 -2.7760
 4393SOL     OW24814   4.600   3.937   9.747 -0.1049  0.1603 -0.3862
 4393SOL    HW124815   4.590   3.906   9.837  0.2668 -0.9884 -0.7420
 4393SOL    HW224816   4.672   3.883   9.715 -0.6265 -0.6516 -0.1819
 4394SOL     OW24817   3.609   4.368  17.702  0.1960 -0.0396 -0.1300
 4394SOL    HW124818   3.689   4.361  17.650  0.3384  0.8637 -0.0250
 4394SOL    HW224819   3.558   4.292  17.673  2.2683 -2.0432  1.4272
 4395SOL     OW24820   0.843   0.365   8.960  0.0398  0.7175 -0.6060
 4395SOL    HW124821   0.910   0.324   8.905 -1.5479 -1.2345 -1.0877
 4395SOL    HW224822   0.837   0.457   8.936  1.1225  1.4844  1.9924
 4396SOL     OW24823   1.644   2.134   3.801  0.0713 -0.3718 -0.1051
 4396SOL    HW124824   1.712   2.069   3.783  0.6472  0.4120 -0.7454
 4396SOL    HW224825   1.649   2.194   3.727  1.1080 -0.1406  0.1536
 4397SOL     OW24826   0.700   1.722  17.547  0.6364 -0.3955 -0.0401
 4397SOL    HW124827   0.715   1.769  17.464 -0.2024 -0.3230 -0.1538
 4397SOL    HW224828   0.605   1.725  17.537  0.5721  0.1788  0.7030
 4398SOL     OW24829   3.219   0.311   0.111 -0.2262 -0.1172 -0.0172
 4398SOL    HW124830   3.309   0.342   0.101  0.0213 -0.5909  0.7026
 4398SOL    HW224831   3.221   0.216   0.102  0.0781 -0.0429 -0.7092
 4399SOL     OW24832   2.950   4.111   3.657  0.3416 -0.2121 -0.7100
 4399SOL    HW124833   2.867   4.072   3.631  0.0081  2.2375 -3.4099
 4399SOL    HW224834   2.951   4.096   3.751 -3.9629 -2.1121 -0.9876
 4400SOL     OW24835   3.317   3.218  16.012  0.2727 -0.6521 -0.2582
 4400SOL    HW124836   3.347   3.305  16.040 -1.2262 -0.1042 -0.3383
 4400SOL    HW224837   3.399   3.169  16.008  0.7326  0.1430 -0.6026
 4401SOL     OW24838   4.284   3.046   2.171 -0.0153 -0.2381 -0.1672
 4401SOL    HW124839   4.270   3.003   2.255 -2.4269 -0.9909 -0.9683
 4401SOL    HW224840   4.338   2.985   2.122  0.7685 -0.4759  0.9817
 4402SOL     OW24841   1.880   1.133   5.688  0.1767  0.1353  1.0403
 4402SOL    HW124842   1.796   1.136   5.642  0.5907 -0.1425  0.2575
 4402SOL    HW224843   1.867   1.196   5.759 -0.2690  0.8463  0.3351
 4403SOL     OW24844   2.394   0.684   8.288 -0.2217  0.0615 -0.0755
 4403SOL    HW124845   2.343   0.725   8.218 -0.3744 -2.1940 -1.2923
 4403SOL    HW224846   2.394   0.755   8.352  0.6352 -0.1143  0.1199
 4404SOL     OW24847   4.694   0.516  14.997  0.3878 -0.1297  0.2786
 4404SOL    HW124848   4.662   0.539  14.910 -0.4910 -1.4891  0.2372
 4404SOL    HW224849   4.692   0.420  14.995 -1.1628 -0.1750  2.9464
 4405SOL     OW24850   2.953   2.293   2.104 -0.3407 -0.0567 -0.0028
 4405SOL    HW124851   2.982   2.206   2.079 -1.7629 -0.2408 -0.9823
 4405SOL    HW224852   2.948   2.272   2.197 -1.7369 -0.9530 -0.2893
 4406SOL     OW24853   0.872   2.061   3.534 -0.1449 -0.1830 -0.3555
 4406SOL    HW124854   0.934   2.001   3.577 -0.1013 -1.3241 -2.0039
 4406SOL    HW224855   0.881   2.049   3.440 -0.4844 -2.7865 -0.0726
 4407SOL     OW24856   4.095   0.313   0.626 -0.1055  0.0451 -0.3395
 4407SOL    HW124857   4.063   0.228   0.657 -1.7691  1.1109  0.8473
 4407SOL    HW224858   4.056   0.377   0.686  0.2638 -0.0140 -0.0372
 4408SOL     OW24859   4.192   1.171   1.797 -0.6104 -0.6337  0.1545
 4408SOL    HW124860   4.193   1.161   1.701  3.5571  0.9409  0.0342
 4408SOL    HW224861   4.126   1.240   1.802 -0.2579 -0.2790 -0.0372
 4409SOL     OW24862   0.264   4.232  16.271  0.6634 -0.1145  0.0154
 4409SOL    HW124863   0.312   4.315  16.261  0.7966  0.3561  4.4607
 4409SOL    HW224864   0.241   4.241  16.364  2.7094 -2.8843  0.7572
 4410SOL     OW24865   1.951   0.082   3.715 -0.7623 -0.1588  0.7440
 4410SOL    HW124866   2.009   0.007   3.701 -0.2720  0.0925  1.4409
 4410SOL    HW224867   1.866   0.039   3.730 -1.0458 -0.3686 -1.5180
 4411SOL     OW24868   4.533   0.389   5.685  0.4805  0.2066  0.3664
 4411SOL    HW124869   4.572   0.325   5.625  0.3945  2.1148 -1.7149
 4411SOL    HW224870   4.455   0.415   5.636  0.3439 -0.9283 -0.0324
 4412SOL     OW24871   2.174   2.092   5.181  0.6811  0.5974  0.2140
 4412SOL    HW124872   2.119   2.034   5.235  2.6881  0.5176  2.1634
 4412SOL    HW224873   2.245   2.036   5.150  0.0425 -0.0969 -0.0207
 4413SOL     OW24874   0.087   3.810   1.842  0.1993  0.0411 -0.5118
 4413SOL    HW124875   0.007   3.855   1.812  0.8554  1.7591  0.3339
 4413SOL    HW224876   0.066   3.726   1.800  1.0364 -0.1707 -0.5079
 4414SOL     OW24877   3.855   3.935   2.348 -0.2229 -0.0006 -0.1814
 4414SOL    HW124878   3.780   3.945   2.407  1.8626  1.1830  2.2871
 4414SOL    HW224879   3.917   3.995   2.390  0.4021 -0.4685 -0.4240
 4415SOL     OW24880   3.572   2.412   8.733  0.8752 -0.0819 -0.3145
 4415SOL    HW124881   3.633   2.383   8.800 -0.3733 -1.3998  0.2360
 4415SOL    HW224882   3.621   2.385   8.655  2.1508 -0.6520  0.7039
 4416SOL     OW24883   2.691   2.683  16.675 -0.6764 -0.0201  0.4252
 4416SOL    HW124884   2.774   2.709  16.634 -1.3237 -0.0125 -0.8686
 4416SOL    HW224885   2.642   2.765  16.679 -0.7238 -0.1433  2.4384
 4417SOL     OW24886   2.000   1.116   7.404 -0.1444 -0.3104  0.5962
 4417SOL    HW124887   2.096   1.114   7.396 -0.2897 -1.0977 -0.8846
 4417SOL    HW224888   1.990   1.131   7.498 -1.1862 -0.1162  0.4535
 4418SOL     OW24889   0.107   3.750   6.337  0.1332  0.2004 -0.1498
 4418SOL    HW124890   0.175   3.732   6.272 -0.4771  0.6614 -0.9190
 4418SOL    HW224891   0.158   3.793   6.405  1.8537 -0.0779 -1.2860
 4419SOL     OW24892   3.623   1.246   5.832 -0.4789 -0.4329  0.2731
 4419SOL    HW124893   3.610   1.302   5.755 -0.4918  0.0576  0.6273
 4419SOL    HW224894   3.653   1.312   5.894 -0.9289  0.9160 -0.9274
 4420SOL     OW24895   0.460   0.254   2.792  0.4937  0.0831  0.5668
 4420SOL    HW124896   0.411   0.219   2.867 -0.4529  0.4498  0.1179
 4420SOL    HW224897   0.487   0.178   2.741 -1.1563 -0.6218  0.7450
 4421SOL     OW24898   2.112   3.127   1.591 -0.5231 -0.5399  0.3502
 4421SOL    HW124899   2.205   3.129   1.616 -0.3108  1.1377 -0.5848
 4421SOL    HW224900   2.074   3.157   1.673 -1.5531 -0.2367 -0.2463
 4422SOL     OW24901   1.252   1.684   6.770  0.3986  0.3850 -0.4316
 4422SOL    HW124902   1.165   1.676   6.810 -0.6116  1.5068 -2.3827
 4422SOL    HW224903   1.284   1.768   6.804  1.9598  0.7449 -2.8312
 4423SOL     OW24904   2.700   4.582   6.928  0.1840  0.7180 -0.0129
 4423SOL    HW124905   2.770   4.611   6.987 -1.2377 -0.6357  2.3527
 4423SOL    HW224906   2.705   4.652   6.863 -2.1087  0.5952 -0.3267
 4424SOL     OW24907   0.849   4.667   7.731  0.4124 -0.1975 -0.1634
 4424SOL    HW124908   0.914   0.001   7.726 -0.3918  0.5782  0.3430
 4424SOL    HW224909   0.877   4.615   7.655 -2.1191 -1.5710 -0.1563
 4425SOL     OW24910   1.689   1.709   4.509 -0.0537 -0.5091  0.7594
 4425SOL    HW124911   1.752   1.772   4.545 -1.3565  0.1964  1.8062
 4425SOL    HW224912   1.622   1.767   4.474  0.9093 -0.7911 -1.5578
 4426SOL     OW24913   1.950   4.081   8.386  0.1486  0.2240 -0.0601
 4426SOL    HW124914   1.857   4.061   8.386 -0.3037  2.3196 -1.2948
 4426SOL    HW224915   1.976   4.103   8.297 -2.2758 -0.3329 -0.8900
 4427SOL     OW24916   2.457   3.827   8.932 -0.4039 -0.3832  0.0217
 4427SOL    HW124917   2.383   3.785   8.887  0.9288 -1.6791 -0.9576
 4427SOL    HW224918   2.409   3.865   9.006 -0.3443 -0.4054  0.0719
 4428SOL     OW24919   1.096   0.301   9.098  0.4191  0.3934  0.0042
 4428SOL    HW124920   1.102   0.219   9.049 -0.3364  0.0898  0.4206
 4428SOL    HW224921   1.014   0.331   9.060  0.5391  0.2668 -0.3550
 4429SOL     OW24922   4.013   3.820  11.904 -0.4253 -1.2257 -0.2732
 4429SOL    HW124923   3.983   3.856  11.821  0.6122  0.2145 -0.0182
 4429SOL    HW224924   4.050   3.897  11.946 -1.1525 -0.8203 -0.3763
 4430SOL     OW24925   1.109   1.513   2.404  0.2264 -0.4774 -0.0084
 4430SOL    HW124926   1.120   1.582   2.338  3.3937  0.3964  1.4417
 4430SOL    HW224927   1.196   1.515   2.445  0.0712  1.1161  0.2463
 4431SOL     OW24928   4.467   1.079   3.924 -0.2613 -0.3423 -0.2762
 4431SOL    HW124929   4.431   1.155   3.879  4.0220  1.7973 -0.0078
 4431SOL    HW224930   4.533   1.046   3.864  0.0559 -1.6451  0.7868
 4432SOL     OW24931   0.650   4.397   8.156  0.3815 -0.1508  0.7372
 4432SOL    HW124932   0.696   4.463   8.105 -0.0067 -0.1829  0.3445
 4432SOL    HW224933   0.595   4.460   8.202 -0.0958 -0.5862  0.7697
 4433SOL     OW24934   2.252   1.097  12.473  0.1299 -0.1742 -0.4047
 4433SOL    HW124935   2.191   1.057  12.411  1.3844 -0.6279 -1.3539
 4433SOL    HW224936   2.214   1.079  12.559  0.2261 -2.0552 -0.7375
 4434SOL     OW24937   2.406   2.228   5.710 -0.2266  0.3006 -0.3202
 4434SOL    HW124938   2.435   2.264   5.626 -0.6509 -0.8368 -0.9458
 4434SOL    HW224939   2.432   2.136   5.712  0.7694  0.5999  0.7528
 4435SOL     OW24940   2.174   0.952   5.797  0.2265  0.8336  0.2875
 4435SOL    HW124941   2.245   0.948   5.861  0.1225 -1.3415  0.2860
 4435SOL    HW224942   2.132   0.876   5.837  1.0907  1.7540  2.9123
 4436SOL     OW24943   3.471   4.332   6.136 -0.3591 -0.2442  0.4685
 4436SOL    HW124944   3.442   4.240   6.135 -2.4923  0.4077  2.1055
 4436SOL    HW224945   3.539   4.324   6.202 -1.7821 -1.7168  1.7673
 4437SOL     OW24946   0.680   4.588   2.734  0.1524 -0.3832  0.5988
 4437SOL    HW124947   0.683   4.559   2.825  2.7307  2.2897  1.4087
 4437SOL    HW224948   0.771   4.597   2.705 -0.3274  0.6190 -0.6278
 4438SOL     OW24949   2.911   2.137  17.466  0.2713 -0.3052  0.0843
 4438SOL    HW124950   2.910   2.045  17.491 -2.0496 -0.9369 -2.3771
 4438SOL    HW224951   2.819   2.160  17.478  0.3601 -0.1461  0.4449
 4439SOL     OW24952   1.658   0.107   5.926  0.0256 -0.1008 -0.2084
 4439SOL    HW124953   1.701   0.053   5.860 -0.1177 -0.3531 -0.0951
 4439SOL    HW224954   1.617   0.038   5.978  1.2267 -0.1537  0.6474
 4440SOL     OW24955   2.143   1.713  12.736  0.1345  0.4252 -0.3703
 4440SOL    HW124956   2.222   1.685  12.782  0.3216  1.1122 -0.2806
 4440SOL    HW224957   2.146   1.808  12.745  1.6208  0.3152  0.2476
 4441SOL     OW24958   1.956   3.811   8.594  0.1871  0.0654  0.3446
 4441SOL    HW124959   1.962   3.897   8.552  0.8485 -0.8139 -1.3633
 4441SOL    HW224960   1.954   3.751   8.519 -1.3232  0.9330 -0.3189
 4442SOL     OW24961   0.252   2.326   5.272 -0.1883  0.2601 -0.0592
 4442SOL    HW124962   0.293   2.240   5.280  1.8912  1.1405 -1.1656
 4442SOL    HW224963   0.172   2.322   5.324  0.2252 -0.0358  0.5500
 4443SOL     OW24964   1.037   0.200   8.846 -0.6859  0.0521 -0.0075
 4443SOL    HW124965   1.034   0.118   8.895  0.2393  1.4412  2.3975
 4443SOL    HW224966   1.040   0.170   8.755  0.6248 -0.0424  0.0621
 4444SOL     OW24967   1.893   1.485   3.964  0.2627  0.4143  0.5884
 4444SOL    HW124968   1.833   1.494   4.038 -0.2290  0.7522  0.1441
 4444SOL    HW224969   1.966   1.537   3.999 -0.1609 -0.3857  2.6778
 4445SOL     OW24970   4.121   2.720   6.235 -0.0625 -0.0212  0.2125
 4445SOL    HW124971   4.188   2.676   6.182 -0.0946  1.8380 -1.3961
 4445SOL    HW224972   4.166   2.765   6.306 -0.6242  0.4555  0.2719
 4446SOL     OW24973   1.815   2.492   3.402  0.4274 -0.0937  0.0740
 4446SOL    HW124974   1.799   2.537   3.319  0.6120 -1.1429 -0.5301
 4446SOL    HW224975   1.876   2.429   3.366  0.3551  0.0534 -0.2993
 4447SOL     OW24976   2.955   4.388   7.927 -0.0950  0.2065 -0.1424
 4447SOL    HW124977   2.871   4.356   7.894 -0.4713  1.0232  0.0325
 4447SOL    HW224978   2.935   4.408   8.019 -1.2101  0.2198 -0.3897
 4448SOL     OW24979   3.574   4.407  16.662 -0.5241 -0.1762  0.3893
 4448SOL    HW124980   3.530   4.367  16.736 -0.4668 -0.2811  0.3669
 4448SOL    HW224981   3.639   4.338  16.650 -0.4514 -0.1173  0.4450
 4449SOL     OW24982   2.370   0.886   9.180 -0.6882 -0.3131  0.1807
 4449SOL    HW124983   2.319   0.914   9.105 -3.2142  3.1795  3.2352
 4449SOL    HW224984   2.349   0.946   9.252 -3.4851 -0.5474 -0.4566
 4450SOL     OW24985   3.023   3.347  12.451 -0.9944  0.1155 -0.9175
 4450SOL    HW124986   3.086   3.418  12.458 -0.0360 -0.8762  0.6452
 4450SOL    HW224987   2.943   3.386  12.417 -1.5727  0.4588  0.8760
 4451SOL     OW24988   4.084   4.550   1.548 -0.1866  0.0278 -0.1172
 4451SOL    HW124989   4.144   4.555   1.474 -0.2380  2.3759 -0.0039
 4451SOL    HW224990   4.078   4.457   1.571  0.5368 -0.1444 -0.6191
 4452SOL     OW24991   0.053   0.990  11.098 -0.2681 -0.3069  0.1928
 4452SOL    HW124992   0.057   0.925  11.028 -0.7533  1.2336 -1.2547
 4452SOL    HW224993   4.696   1.012  11.102  0.1696  0.5967  5.7142
 4453SOL     OW24994   3.120   2.965  14.705 -0.5197 -0.5168  0.2667
 4453SOL    HW124995   3.078   2.955  14.620  0.1687  3.1063 -0.5246
 4453SOL    HW224996   3.191   3.022  14.676 -0.5290 -0.2338  0.7980
 4454SOL     OW24997   0.758   0.746  10.291 -0.3378 -0.2598  0.2971
 4454SOL    HW124998   0.831   0.760  10.351  0.0103  0.4974 -0.2913
 4454SOL    HW224999   0.693   0.756  10.360 -0.1874  2.5539  0.0346
 4455SOL     OW25000   3.767   4.713   9.493 -0.0430  0.3750  0.1532
 4455SOL    HW125001   3.759   4.635   9.438  2.3977  1.8059 -2.2390
 4455SOL    HW225002   3.797   4.669   9.572  0.2654 -0.1468 -0.2589
 4456SOL     OW25003   2.777   3.278   7.357 -0.0318 -0.0462  0.4764
 4456SOL    HW125004   2.860   3.324   7.344 -0.4670  1.1486  1.9882
 4456SOL    HW225005   2.772   3.305   7.449  1.2047 -1.1625  0.8732
 4457SOL     OW25006   1.635   4.276   6.198  0.0781 -0.4400 -0.0119
 4457SOL    HW125007   1.641   4.185   6.169 -0.1651 -0.6963  0.7327
 4457SOL    HW225008   1.698   4.324   6.146 -0.7387  0.9217  0.2573
 4458SOL     OW25009   0.689   1.287   4.880 -0.1602  0.4061  0.1897
 4458SOL    HW125010   0.761   1.240   4.924 -0.1203 -0.0884 -0.4071
 4458SOL    HW225011   0.668   1.357   4.942 -0.7004 -0.7510  1.3120
 4459SOL     OW25012   1.816   2.602   8.053 -0.3039  0.4922 -0.2350
 4459SOL    HW125013   1.764   2.663   8.105 -0.5433 -1.4143  1.7642
 4459SOL    HW225014   1.900   2.600   8.100  0.2015 -0.9491 -1.1851
 4460SOL     OW25015   1.421   0.545   2.362 -0.0486 -0.0908 -0.0868
 4460SOL    HW125016   1.406   0.459   2.323 -1.6814 -0.5692  1.6034
 4460SOL    HW225017   1.505   0.566   2.321 -0.3474  0.0865 -0.6028
 4461SOL     OW25018   0.238   1.420   1.537  0.8467  0.0591  0.2372
 4461SOL    HW125019   0.241   1.365   1.615 -0.0790  0.0981  0.3020
 4461SOL    HW225020   0.160   1.474   1.540 -0.6705 -1.9891 -1.5992
 4462SOL     OW25021   3.133   4.375   3.668  0.4435 -0.4644 -0.2440
 4462SOL    HW125022   3.092   4.444   3.720 -0.7909 -0.4348 -1.2422
 4462SOL    HW225023   3.075   4.298   3.660 -0.1985 -0.1718  1.5753
 4463SOL     OW25024   1.727   3.530   9.345 -0.3464 -0.4646 -0.6162
 4463SOL    HW125025   1.648   3.476   9.342 -0.5518 -0.3455  2.3145
 4463SOL    HW225026   1.773   3.493   9.270  0.4854  3.2406 -1.9212
 4464SOL     OW25027   3.518   3.845   6.369  0.1958  0.1738 -0.3546
 4464SOL    HW125028   3.435   3.875   6.406 -0.4783 -0.8898 -1.0018
 4464SOL    HW225029   3.563   3.930   6.372  2.6125 -1.0990 -0.5595
 4465SOL     OW25030   3.335   1.991   5.449  0.1519  0.3836  0.0856
 4465SOL    HW125031   3.335   1.915   5.391 -0.6578 -1.4026  2.4280
 4465SOL    HW225032   3.402   1.966   5.512  0.3827  2.3257  0.6082
 4466SOL     OW25033   2.635   0.528   8.289  0.4440 -0.6315  0.0027
 4466SOL    HW125034   2.545   0.560   8.294  0.2477 -1.3858  1.1790
 4466SOL    HW225035   2.621   0.433   8.295  1.6228 -0.8761 -1.0447
 4467SOL     OW25036   2.681   4.325   7.412  0.4012 -0.2061 -0.1509
 4467SOL    HW125037   2.647   4.298   7.328  1.2360 -0.0185 -0.5501
 4467SOL    HW225038   2.638   4.266   7.474  2.3143  0.3236  1.6897
 4468SOL     OW25039   0.638   3.635   7.640 -0.1960 -0.4384  0.6323
 4468SOL    HW125040   0.543   3.645   7.632 -0.0352  0.7434  0.2524
 4468SOL    HW225041   0.648   3.540   7.644  1.1343 -0.3211  0.0483
 4469SOL     OW25042   3.623   1.758  10.487 -0.2842 -0.2130 -0.2991
 4469SOL    HW125043   3.548   1.740  10.545 -0.2742 -1.9324 -0.8029
 4469SOL    HW225044   3.670   1.675  10.496  0.3512  0.0021 -1.7515
 4470SOL     OW25045   1.046   0.990  13.231 -0.0348 -0.0018  0.1015
 4470SOL    HW125046   1.040   0.899  13.259 -0.3774  0.4653  1.5636
 4470SOL    HW225047   1.048   1.033  13.317 -0.7499  1.4710 -0.6215
 4471SOL     OW25048   0.737   3.716   7.402  0.3510 -0.4282 -0.1434
 4471SOL    HW125049   0.670   3.770   7.360  0.7724 -0.0791 -0.3574
 4471SOL    HW225050   0.710   3.723   7.494  0.1163  0.6981 -0.3083
 4472SOL     OW25051   0.420   0.348   6.717 -0.4813  0.3212  0.0606
 4472SOL    HW125052   0.349   0.349   6.652 -0.7207 -3.5894  0.2241
 4472SOL    HW225053   0.455   0.436   6.709 -1.7917  0.8128 -0.2616
 4473SOL     OW25054   3.182   0.998   1.780 -0.1133 -0.4254 -0.0180
 4473SOL    HW125055   3.123   1.045   1.721 -1.4128 -1.2766  0.6046
 4473SOL    HW225056   3.231   0.944   1.718 -0.4565  0.4844 -1.0855
 4474SOL     OW25057   0.864   0.981   2.089  0.3656  0.1715 -0.0408
 4474SOL    HW125058   0.904   1.004   2.173  1.0484  1.1958 -0.6458
 4474SOL    HW225059   0.872   0.885   2.086  0.1190  0.1671 -0.5508
 4475SOL     OW25060   2.663   3.720  14.497  0.0192  0.4540  0.2494
 4475SOL    HW125061   2.696   3.751  14.413 -0.9736 -3.3307 -1.5788
 4475SOL    HW225062   2.596   3.784  14.519 -1.0583 -0.6223  0.1068
 4476SOL     OW25063   3.969   3.242   2.692 -0.2072  0.0770  0.5063
 4476SOL    HW125064   3.933   3.235   2.780 -0.8323  0.0548  0.2520
 4476SOL    HW225065   3.890   3.278   2.650 -1.0577 -0.3647  1.7251
 4477SOL     OW25066   2.079   4.721   4.641 -1.0244 -0.5502  0.4209
 4477SOL    HW125067   1.994   4.731   4.685 -0.3188  0.3282  1.5766
 4477SOL    HW225068   2.080   0.060   4.582  0.4231  1.4256  2.9078
 4478SOL     OW25069   2.277   2.396   8.060  0.1343 -0.2304  0.4716
 4478SOL    HW125070   2.314   2.336   8.124 -0.3958 -1.4942 -0.4132
 4478SOL    HW225071   2.261   2.469   8.120 -2.4474 -0.3523 -0.0571
 4479SOL     OW25072   3.017   0.380   5.531  0.3485  0.6389  0.4301
 4479SOL    HW125073   3.005   0.316   5.461  0.1519 -0.8737  1.8226
 4479SOL    HW225074   2.938   0.370   5.585  0.0243  0.9167  0.0016
 4480SOL     OW25075   4.345   1.120   1.566  0.3149  0.0742 -0.4816
 4480SOL    HW125076   4.411   1.080   1.622 -0.1156  1.5404  1.0794
 4480SOL    HW225077   4.371   1.086   1.481 -1.4330  0.2856 -1.1085
 4481SOL     OW25078   3.074   1.477  14.089  0.8687 -0.5801  0.4096
 4481SOL    HW125079   3.046   1.517  14.006 -0.2186  0.1279  1.1373
 4481SOL    HW225080   3.165   1.507  14.095  0.1937  1.1957  1.3498
 4482SOL     OW25081   0.047   2.409   5.925 -0.8513 -0.6745 -0.3355
 4482SOL    HW125082   0.040   2.380   6.016  2.0895  0.1098  0.1231
 4482SOL    HW225083   0.067   2.502   5.929 -0.6462 -0.5731 -3.4552
 4483SOL     OW25084   3.484   1.974   4.531  0.5826  0.4599 -0.5927
 4483SOL    HW125085   3.519   1.912   4.594 -2.6644 -1.7941 -1.0097
 4483SOL    HW225086   3.517   1.943   4.446  1.1925  2.0155 -0.9160
 4484SOL     OW25087   4.511   2.343   1.134 -0.0830  0.4378  0.3161
 4484SOL    HW125088   4.536   2.317   1.223  1.9801  0.1281 -0.3430
 4484SOL    HW225089   4.589   2.393   1.110  0.7799  0.7075  3.6090
 4485SOL     OW25090   1.390   4.499   5.088 -0.2351 -0.2722  0.4693
 4485SOL    HW125091   1.362   4.506   4.996  0.8191 -0.1677  0.1610
 4485SOL    HW225092   1.310   4.471   5.132  0.7226 -1.5519  1.3622
 4486SOL     OW25093   0.009   1.440   4.491 -0.4022  0.4014 -0.3705
 4486SOL    HW125094   4.675   1.379   4.470  1.3414 -0.5299 -3.3485
 4486SOL    HW225095   0.082   1.379   4.487 -1.5446 -1.0878  1.5341
 4487SOL     OW25096   1.530   1.461   8.537 -0.1960  0.6525 -0.0802
 4487SOL    HW125097   1.521   1.479   8.631 -2.6319  0.1098 -0.1913
 4487SOL    HW225098   1.548   1.550   8.505  2.5022  0.3800  0.7196
 4488SOL     OW25099   0.738   1.473  11.907 -0.0971  0.2671  0.3651
 4488SOL    HW125100   0.704   1.558  11.877 -0.6088 -0.4231 -0.9957
 4488SOL    HW225101   0.652   1.434  11.923  0.1294 -1.3014 -2.2467
 4489SOL     OW25102   1.234   3.980   8.623  0.3860 -0.0688  0.5734
 4489SOL    HW125103   1.175   4.051   8.647  1.0832  0.2657  1.3204
 4489SOL    HW225104   1.297   4.034   8.575 -1.1903  1.3237  0.0757
 4490SOL     OW25105   1.086   0.175  10.023 -0.2743  0.7058 -0.1273
 4490SOL    HW125106   0.996   0.181  10.055 -0.3572 -0.9706 -0.0177
 4490SOL    HW225107   1.072   0.253   9.970  0.6739 -0.4704 -2.1381
 4491SOL     OW25108   3.254   2.611   1.841  0.5027  0.3339 -0.0142
 4491SOL    HW125109   3.170   2.618   1.887  0.2116 -2.3447 -0.1813
 4491SOL    HW225110   3.312   2.585   1.913  2.5460 -0.6379 -1.9944
 4492SOL     OW25111   2.222   4.316  13.471 -0.7247  0.2594  0.3470
 4492SOL    HW125112   2.146   4.372  13.484 -0.3048  0.8242  0.3973
 4492SOL    HW225113   2.238   4.339  13.380 -1.3522 -0.2348  0.1124
 4493SOL     OW25114   4.168   3.185   7.961  0.1637 -0.6637 -0.6884
 4493SOL    HW125115   4.127   3.205   8.045 -0.6465 -1.1828 -0.9531
 4493SOL    HW225116   4.240   3.248   7.963 -1.2041  0.8995 -1.2445
 4494SOL     OW25117   2.523   0.344  17.534 -1.1143 -0.5436  0.4253
 4494SOL    HW125118   2.583   0.371  17.605  0.5252 -0.8658 -0.8512
 4494SOL    HW225119   2.462   0.289  17.582  1.2314 -2.6915  0.9776
 4495SOL     OW25120   3.113   4.724   2.061  0.2188 -0.0911  0.1944
 4495SOL    HW125121   3.105   4.630   2.048 -0.3218 -0.3154  2.2964
 4495SOL    HW225122   3.151   0.026   1.981 -1.8470  2.4902  0.4401
 4496SOL     OW25123   3.093   4.639   7.663 -0.0904 -0.1611 -0.4708
 4496SOL    HW125124   3.124   4.695   7.734  1.4664  0.2113 -1.4359
 4496SOL    HW225125   3.123   4.557   7.700 -0.7682 -1.3985 -2.6655
 4497SOL     OW25126   2.104   2.941   7.335 -0.3423 -0.2143 -0.2629
 4497SOL    HW125127   2.073   2.895   7.413 -1.1556  0.5208 -0.1476
 4497SOL    HW225128   2.163   3.008   7.372  1.2745 -1.6049 -0.3086
 4498SOL     OW25129   3.166   0.135  17.548  0.8367 -0.1535 -0.3273
 4498SOL    HW125130   3.165   0.048  17.508  0.4124 -0.3126  0.0233
 4498SOL    HW225131   3.070   0.141  17.552  0.8504  0.4172 -0.8828
 4499SOL     OW25132   1.657   1.213   5.568 -0.3535 -0.2685  0.0881
 4499SOL    HW125133   1.659   1.229   5.474 -1.3391  0.2269  0.1494
 4499SOL    HW225134   1.610   1.129   5.567 -2.2051  0.7597 -0.3433
 4500SOL     OW25135   3.414   1.609  13.288  0.3350 -0.3528 -0.3466
 4500SOL    HW125136   3.403   1.544  13.357  1.6920  0.6322  0.7896
 4500SOL    HW225137   3.433   1.554  13.212 -0.3055 -0.7428 -0.2270
 4501SOL     OW25138   2.079   4.239   0.614 -0.3087  0.2686 -0.0985
 4501SOL    HW125139   2.014   4.258   0.546  0.1278 -0.6465 -0.7661
 4501SOL    HW225140   2.049   4.158   0.655 -2.4263  0.3788 -1.4303
 4502SOL     OW25141   4.349   2.145   1.773 -0.5604 -0.1876 -0.3097
 4502SOL    HW125142   4.357   2.062   1.819  0.6579 -1.4131 -2.7804
 4502SOL    HW225143   4.330   2.195   1.853 -2.3784 -0.3409 -0.6479
 4503SOL     OW25144   3.434   4.360  17.302  0.7612  0.8247 -0.4008
 4503SOL    HW125145   3.527   4.353  17.320  0.8963  2.6734 -0.3791
 4503SOL    HW225146   3.429   4.455  17.293 -0.8349  0.7563 -0.3774
 4504SOL     OW25147   1.833   4.578   2.207  0.5537  0.3715 -0.0842
 4504SOL    HW125148   1.785   4.519   2.265 -0.0637  0.7992 -0.1627
 4504SOL    HW225149   1.881   4.512   2.156 -1.1210 -0.8525 -0.0746
 4505SOL     OW25150   4.492   2.377   6.911 -0.1071 -0.2136  0.0373
 4505SOL    HW125151   4.448   2.400   6.993 -1.8581 -2.4265 -0.2876
 4505SOL    HW225152   4.537   2.458   6.888  1.6366 -1.9577 -2.7919
 4506SOL     OW25153   1.623   0.432   4.417  0.0852 -0.1146  0.1851
 4506SOL    HW125154   1.565   0.491   4.370  0.0865  2.0217  2.8322
 4506SOL    HW225155   1.635   0.484   4.496  0.5847 -0.3268  0.2511
 4507SOL     OW25156   0.799   1.840  11.859 -0.1049  0.1521  0.0254
 4507SOL    HW125157   0.828   1.839  11.951  0.7981 -1.3502 -0.2606
 4507SOL    HW225158   0.709   1.869  11.869 -0.1613  0.3385 -1.0684
 4508SOL     OW25159   1.384   2.556   3.835 -0.7039 -0.1834 -0.0984
 4508SOL    HW125160   1.306   2.502   3.823  0.3396 -1.6694 -0.1481
 4508SOL    HW225161   1.443   2.550   3.760  2.7967 -2.7417  2.8941
 4509SOL     OW25162   1.277   2.617   0.901 -0.2064  0.5854  0.5524
 4509SOL    HW125163   1.199   2.607   0.845  0.7848 -0.1432 -0.7060
 4509SOL    HW225164   1.346   2.581   0.845  0.2383  1.1899  0.7162
 4510SOL     OW25165   1.031   1.311   6.120  0.0291  0.2710  0.1182
 4510SOL    HW125166   0.947   1.270   6.098 -0.2731  1.0040 -0.0927
 4510SOL    HW225167   1.070   1.332   6.035  1.3230  0.8151  0.8439
 4511SOL     OW25168   3.834   1.613  16.400  0.3981 -0.0653 -0.1783
 4511SOL    HW125169   3.912   1.561  16.414 -0.5329 -0.9276  1.8283
 4511SOL    HW225170   3.864   1.697  16.436  1.2420 -1.8417  3.2741
 4512SOL     OW25171   1.602   4.064   3.230  0.0077  0.6140 -0.0496
 4512SOL    HW125172   1.626   4.137   3.286  2.8823 -1.2010  1.0924
 4512SOL    HW225173   1.594   4.006   3.305  3.3713  0.3710  0.1449
 4513SOL     OW25174   2.918   1.679   3.941 -0.2224  0.8114  0.2128
 4513SOL    HW125175   2.839   1.678   3.886  0.3578 -2.6954 -0.5452
 4513SOL    HW225176   2.940   1.590   3.969 -1.4417 -0.2057 -1.9396
 4514SOL     OW25177   2.050   4.520   1.759  0.0866 -0.1454 -0.2114
 4514SOL    HW125178   2.113   4.461   1.717  1.9434  0.1761  2.0693
 4514SOL    HW225179   2.050   4.491   1.851  1.6526  1.0228  0.1439
 4515SOL     OW25180   3.729   1.728   6.051 -0.1623  0.4231 -0.0279
 4515SOL    HW125181   3.793   1.798   6.040  2.3223 -2.0629 -1.5369
 4515SOL    HW225182   3.654   1.752   5.996  0.2591 -1.5966 -1.5056
 4516SOL     OW25183   4.250   3.583  13.826 -0.4378 -0.3408 -0.1468
 4516SOL    HW125184   4.284   3.524  13.894 -1.0334  0.6256  0.9949
 4516SOL    HW225185   4.184   3.534  13.779  0.8354 -2.2167  0.0200
 4517SOL     OW25186   3.235   4.567   9.158  0.6515 -0.0031  0.4811
 4517SOL    HW125187   3.299   4.599   9.095 -0.4380 -2.1465 -1.7328
 4517SOL    HW225188   3.152   4.608   9.131 -0.4438 -2.5317 -0.0679
 4518SOL     OW25189   3.037   2.099  16.673 -0.0125 -0.2457  0.2301
 4518SOL    HW125190   2.947   2.077  16.694 -0.6159  2.1061  0.1458
 4518SOL    HW225191   3.013   2.172  16.615  0.8681  0.2018  0.4317
 4519SOL     OW25192   1.775   1.772   4.912 -0.4075  0.9487 -0.0405
 4519SOL    HW125193   1.843   1.721   4.957 -1.2549 -0.0991  0.0436
 4519SOL    HW225194   1.712   1.701   4.904  0.1135  0.4068  0.6064
 4520SOL     OW25195   0.428   3.301   4.502  0.6599  0.9600 -0.6051
 4520SOL    HW125196   0.517   3.315   4.535  0.7667  0.8124 -0.8295
 4520SOL    HW225197   0.373   3.288   4.579 -0.8223 -1.7411 -2.1266
 4521SOL     OW25198   4.651   2.298  11.369 -0.4090  0.1250  0.0287
 4521SOL    HW125199   4.575   2.241  11.376 -1.5953  1.7021  0.0720
 4521SOL    HW225200   4.617   2.386  11.384  1.3593  0.6651  0.9293
 4522SOL     OW25201   0.475   3.947   9.097  0.1219 -0.4702  0.0529
 4522SOL    HW125202   0.430   4.006   9.157 -0.5760  0.7716 -1.6988
 4522SOL    HW225203   0.566   3.962   9.121  0.1032  0.5983 -0.5195
 4523SOL     OW25204   0.110   2.953   8.733 -0.1580 -0.1035  0.0774
 4523SOL    HW125205   0.094   2.902   8.653 -1.0985  0.9425 -0.4052
 4523SOL    HW225206   0.116   2.881   8.796 -2.3441 -1.5287 -1.3069
 4524SOL     OW25207   4.361   3.294   3.099  0.3447 -0.4976 -0.7861
 4524SOL    HW125208   4.335   3.386   3.110 -1.2472 -1.2988  2.1044
 4524SOL    HW225209   4.323   3.263   3.181  1.1640  3.2181  1.0057
 4525SOL     OW25210   4.185   4.448   2.416  0.2654  0.0460  0.3151
 4525SOL    HW125211   4.201   4.412   2.503 -3.2372 -1.1016  0.4827
 4525SOL    HW225212   4.237   4.527   2.432  0.2679 -0.2326  1.7347
 4526SOL     OW25213   2.699   3.467   3.230  0.7999  0.0099 -0.6163
 4526SOL    HW125214   2.788   3.435   3.218  0.5382 -1.8029  2.0338
 4526SOL    HW225215   2.647   3.400   3.186 -2.0052  1.9761 -0.3221
 4527SOL     OW25216   1.562   3.275   7.820 -0.5427 -0.0949 -0.8058
 4527SOL    HW125217   1.638   3.278   7.877 -2.0267  0.3082  1.1654
 4527SOL    HW225218   1.611   3.290   7.739 -1.6986 -2.6672 -1.9948
 4528SOL     OW25219   3.408   2.144   8.832 -0.2104  0.5852 -0.3334
 4528SOL    HW125220   3.419   2.231   8.794 -0.6251  1.1878  0.9141
 4528SOL    HW225221   3.312   2.140   8.835 -0.0735 -2.2732  0.7542
 4529SOL     OW25222   1.870   0.360   4.358  0.4291  0.5424 -0.0794
 4529SOL    HW125223   1.852   0.356   4.264  3.8958  0.9081 -0.7419
 4529SOL    HW225224   1.779   0.382   4.381  0.0171 -2.4968  1.2159
 4530SOL     OW25225   1.311   2.859   2.312 -0.0096  0.4938  0.0580
 4530SOL    HW125226   1.236   2.908   2.346 -0.6066  0.6838 -1.5499
 4530SOL    HW225227   1.276   2.820   2.233 -0.2189 -0.4117  0.5923
 4531SOL     OW25228   0.714   2.210   6.534 -0.0025 -0.3412 -0.2010
 4531SOL    HW125229   0.751   2.123   6.548 -4.6746 -2.0408  1.2918
 4531SOL    HW225230   0.731   2.221   6.440 -1.2759  1.1881 -0.2570
 4532SOL     OW25231   0.252   0.548  17.572  0.1225 -0.2603  0.0465
 4532SOL    HW125232   0.317   0.606  17.610 -0.5181  1.3939 -1.3754
 4532SOL    HW225233   0.223   0.503  17.651  1.0010 -0.1607  0.4207
 4533SOL     OW25234   3.190   2.899   2.622 -0.5377  0.3023  0.1715
 4533SOL    HW125235   3.199   2.986   2.584  1.9148 -0.9465 -2.1225
 4533SOL    HW225236   3.165   2.930   2.709 -0.0426  2.2066 -0.3723
 4534SOL     OW25237   2.964   2.368   4.843 -0.1473  0.1511  0.2194
 4534SOL    HW125238   3.058   2.386   4.844 -0.1917  0.3455  0.7832
 4534SOL    HW225239   2.950   2.365   4.938  2.1650 -1.4345  0.5131
 4535SOL     OW25240   2.214   3.643  16.219  0.1548  0.4886  0.5491
 4535SOL    HW125241   2.213   3.549  16.202  0.7027  0.1861  2.2643
 4535SOL    HW225242   2.184   3.697  16.145 -2.3289 -0.8911  0.5449
 4536SOL     OW25243   3.758   2.656   7.556 -0.4559  0.2753 -0.4666
 4536SOL    HW125244   3.728   2.586   7.498 -0.5401  2.9916 -3.7553
 4536SOL    HW225245   3.756   2.617   7.643  2.6661  0.2518 -0.4106
 4537SOL     OW25246   4.354   4.669  12.465  0.1497  0.4066  0.7114
 4537SOL    HW125247   4.392   4.610  12.530 -0.0092  0.3957  0.7961
 4537SOL    HW225248   4.332   4.612  12.391  1.1758 -1.7649  2.0778
 4538SOL     OW25249   4.480   1.222  17.595 -0.1660  0.5991 -0.2180
 4538SOL    HW125250   4.502   1.144  17.545  0.6574 -2.3656  4.7732
 4538SOL    HW225251   4.423   1.178  17.658 -0.5828  2.1503  0.5131
 4539SOL     OW25252   4.204   2.893   7.909  0.3721  0.5117 -0.1803
 4539SOL    HW125253   4.263   2.949   7.859  0.4840 -0.3758 -1.0349
 4539SOL    HW225254   4.194   2.942   7.991  2.3277  1.2288 -0.3699
 4540SOL     OW25255   1.746   1.298   9.509 -0.2332  0.2879  0.3906
 4540SOL    HW125256   1.673   1.277   9.567 -1.7646 -1.4299 -2.1838
 4540SOL    HW225257   1.811   1.326   9.574 -0.4431 -1.2023  1.2439
 4541SOL     OW25258   1.680   1.030   4.830  0.1161  0.0818 -0.2270
 4541SOL    HW125259   1.705   0.981   4.908  1.3068 -0.4440 -0.9413
 4541SOL    HW225260   1.761   1.027   4.779  0.0329 -0.2132 -0.3384
 4542SOL     OW25261   2.080   0.710  15.883 -0.7196  0.6355 -0.1607
 4542SOL    HW125262   2.068   0.619  15.908 -0.9487  0.4732 -0.8694
 4542SOL    HW225263   2.007   0.723  15.822 -1.6796 -1.6537  0.5077
 4543SOL     OW25264   1.807   2.632   7.395 -0.0668 -0.1494 -0.1276
 4543SOL    HW125265   1.817   2.722   7.426 -1.1469  0.2737 -1.0453
 4543SOL    HW225266   1.725   2.611   7.440 -0.4671  0.1703 -0.7136
 4544SOL     OW25267   1.285   1.057   3.463  0.0717 -0.0572 -0.1758
 4544SOL    HW125268   1.332   1.035   3.382  0.5197 -0.0492  0.0836
 4544SOL    HW225269   1.349   1.025   3.527  0.4867 -0.3081 -0.7176
 4545SOL     OW25270   3.486   3.543   3.766  0.7852  0.0812  0.0442
 4545SOL    HW125271   3.455   3.461   3.728 -0.3844  0.8438 -0.6462
 4545SOL    HW225272   3.570   3.508   3.796  0.6590 -0.3546 -0.1136
 4546SOL     OW25273   2.832   1.392  14.806  0.8312 -0.5200  0.9112
 4546SOL    HW125274   2.853   1.470  14.756  0.2716 -0.4624  0.7589
 4546SOL    HW225275   2.897   1.396  14.876  0.9465  0.0160  0.7664
 4547SOL     OW25276   3.958   1.764  11.496  0.2110  0.0136  0.6318
 4547SOL    HW125277   3.954   1.684  11.548 -4.0202 -1.3010 -1.6936
 4547SOL    HW225278   4.015   1.738  11.423 -1.3909 -1.4508 -0.0958
 4548SOL     OW25279   0.506   2.410   2.449  0.1231 -0.6950 -0.0671
 4548SOL    HW125280   0.469   2.330   2.487 -2.7732 -0.8397 -3.1339
 4548SOL    HW225281   0.572   2.439   2.511 -0.0608 -3.5345  1.4268
 4549SOL     OW25282   4.056   0.869  12.382 -0.3962 -0.2170 -0.2126
 4549SOL    HW125283   4.021   0.941  12.436 -1.3113  1.0703 -2.5327
 4549SOL    HW225284   4.124   0.919  12.338 -1.8152  2.2747  0.3739
 4550SOL     OW25285   2.575   3.115  13.650  0.4766 -0.1807  0.1753
 4550SOL    HW125286   2.586   3.207  13.675  2.3749 -0.4236  0.2233
 4550SOL    HW225287   2.480   3.100  13.649  0.3011  0.6749  1.9410
 4551SOL     OW25288   2.818   1.915   5.959  0.5942 -0.0262 -0.5782
 4551SOL    HW125289   2.878   1.989   5.964 -2.2407  2.0553  2.2574
 4551SOL    HW225290   2.758   1.965   5.904  0.6527  0.8869  0.2054
 4552SOL     OW25291   4.583   3.206   1.943  0.0547  0.0188  0.4966
 4552SOL    HW125292   4.678   3.200   1.956 -0.2500  0.7084  3.1917
 4552SOL    HW225293   4.561   3.116   1.921 -0.5865  0.3820 -0.3308
 4553SOL     OW25294   3.227   3.913   8.462  0.4217  0.5787 -0.1176
 4553SOL    HW125295   3.219   4.007   8.477  0.2095  0.4363  0.6764
 4553SOL    HW225296   3.150   3.906   8.406 -0.8418  1.4201  1.5482
 4554SOL     OW25297   2.479   1.361   2.466  0.7385  0.7266 -0.4898
 4554SOL    HW125298   2.518   1.276   2.443 -0.4376  0.0321  0.1025
 4554SOL    HW225299   2.494   1.360   2.561  2.0396  0.3878 -0.6936
 4555SOL     OW25300   4.682   1.936   8.561 -0.6528  0.1447  0.6552
 4555SOL    HW125301   0.039   1.916   8.551 -0.4551  0.5556  1.6895
 4555SOL    HW225302   4.668   2.010   8.502  1.4705 -0.3263 -0.4420
 4556SOL     OW25303   0.792   1.753   5.150  0.0281  0.1230 -0.1698
 4556SOL    HW125304   0.778   1.844   5.124  1.8640  0.5251  0.2590
 4556SOL    HW225305   0.809   1.718   5.063  0.0949 -0.7456  0.1924
 4557SOL     OW25306   1.455   3.778  14.831 -0.1569 -0.3502  0.3823
 4557SOL    HW125307   1.450   3.759  14.925 -0.2111  1.7853  0.8228
 4557SOL    HW225308   1.527   3.718  14.813  0.9356  1.1111 -0.1527
 4558SOL     OW25309   4.360   3.990   6.311 -0.1939 -0.1574  0.1015
 4558SOL    HW125310   4.452   3.972   6.293 -0.8585 -2.1415 -1.2694
 4558SOL    HW225311   4.366   4.079   6.347 -3.0263  0.9820 -2.2050
 4559SOL     OW25312   0.568   2.499   6.257  0.0033 -0.1958  0.2607
 4559SOL    HW125313   0.640   2.535   6.309  0.8433 -0.9219 -0.4008
 4559SOL    HW225314   0.497   2.552   6.293 -0.8665 -1.0177 -0.2437
 4560SOL     OW25315   0.240   0.607   7.261 -0.1187 -0.4861 -0.2652
 4560SOL    HW125316   0.308   0.549   7.295  0.9129  1.8928  1.7204
 4560SOL    HW225317   0.163   0.551   7.261 -0.9396  0.6223  1.7299
 4561SOL     OW25318   2.957   0.910   2.450  0.1030  0.0742 -0.1924
 4561SOL    HW125319   2.969   0.976   2.519  0.3454  1.7913 -1.8757
 4561SOL    HW225320   2.866   0.927   2.426  0.2494  0.4963 -0.4469
 4562SOL     OW25321   1.746   0.776   9.030  0.3589 -0.6874 -0.3092
 4562SOL    HW125322   1.701   0.722   9.095  0.1846  2.6818  2.4347
 4562SOL    HW225323   1.676   0.786   8.965 -0.5655  0.0329  0.7734
 4563SOL     OW25324   1.146   3.509   2.580  0.2237  0.1005 -0.2419
 4563SOL    HW125325   1.079   3.565   2.620  1.1106  1.4363 -0.6252
 4563SOL    HW225326   1.138   3.537   2.489  1.4578  2.2145  0.2968
 4564SOL     OW25327   3.403   2.394   8.236  0.1031  0.3715  0.0938
 4564SOL    HW125328   3.329   2.407   8.295  0.3278 -0.2321  0.5169
 4564SOL    HW225329   3.408   2.299   8.250  1.6379  0.3824 -0.3773
 4565SOL     OW25330   2.846   0.753   5.727 -0.3102  0.2266  0.1498
 4565SOL    HW125331   2.805   0.738   5.812 -1.2538 -1.4465 -0.6048
 4565SOL    HW225332   2.901   0.827   5.754 -0.5086  0.1419  0.7729
 4566SOL     OW25333   2.123   0.166   5.975 -0.2800 -0.1082  0.2219
 4566SOL    HW125334   2.094   0.257   5.969  1.7984  0.5273 -0.3608
 4566SOL    HW225335   2.131   0.159   6.071  1.0928  1.0625  0.1844
 4567SOL     OW25336   0.674   3.340   3.377 -0.0729 -0.6212 -0.3097
 4567SOL    HW125337   0.619   3.287   3.435  0.0649 -0.0378  0.3547
 4567SOL    HW225338   0.601   3.391   3.340 -0.9455  0.3658  2.7576
 4568SOL     OW25339   4.055   3.866   9.557  0.1807 -0.3309  0.3966
 4568SOL    HW125340   4.075   3.772   9.550  0.2496 -0.1558 -1.6789
 4568SOL    HW225341   4.022   3.882   9.469  1.1977  1.4564  0.3451
 4569SOL     OW25342   4.729   3.677  17.324 -0.1848  0.0056 -0.4193
 4569SOL    HW125343   4.645   3.720  17.341 -0.4907 -1.4443  1.8005
 4569SOL    HW225344   0.022   3.699  17.236 -0.6121 -1.2917 -0.8928
 4570SOL     OW25345   1.407   1.227  10.808 -0.7255 -0.1073 -0.0936
 4570SOL    HW125346   1.378   1.260  10.894  4.2236  1.0692  1.1192
 4570SOL    HW225347   1.415   1.132  10.812  0.2891  0.0162  0.7108
 4571SOL     OW25348   2.953   2.365   9.259  0.8993  0.2184 -0.0081
 4571SOL    HW125349   2.951   2.458   9.234  0.0599  0.6740  1.7351
 4571SOL    HW225350   2.997   2.363   9.344 -1.2368  0.0922  1.0928
 4572SOL     OW25351   4.016   1.091   5.961  0.2784 -0.8061  0.0490
 4572SOL    HW125352   4.055   1.099   5.874  1.5446 -3.0838  0.4065
 4572SOL    HW225353   4.098   1.099   6.009 -1.3423 -3.4798  3.2811
 4573SOL     OW25354   2.539   4.564  10.438  0.0317 -0.0196 -0.0247
 4573SOL    HW125355   2.468   4.503  10.456  2.3935 -3.7189 -3.2731
 4573SOL    HW225356   2.524   4.575  10.344 -0.0012  3.0808  0.3292
 4574SOL     OW25357   2.429   1.997   9.098 -0.1042  0.7270  0.0010
 4574SOL    HW125358   2.390   1.958   9.019 -1.4805  2.2290 -0.0739
 4574SOL    HW225359   2.520   1.986   9.073 -0.6635 -0.4363 -1.5265
 4575SOL     OW25360   0.209   2.419  11.716 -0.0452  0.3437 -0.1074
 4575SOL    HW125361   0.299   2.388  11.707  0.3667  1.7208 -0.6416
 4575SOL    HW225362   0.166   2.336  11.693 -1.8443  1.8044 -2.0841
 4576SOL     OW25363   4.105   4.066   6.269  0.6189  0.2121  0.3826
 4576SOL    HW125364   4.194   4.030   6.263  0.8836  0.6953  1.4867
 4576SOL    HW225365   4.116   4.156   6.298 -0.7298 -0.0621  1.7115
 4577SOL     OW25366   0.271   1.549   6.262  0.6540 -0.1841  0.1839
 4577SOL    HW125367   0.248   1.464   6.299  4.3269 -0.8026  1.0640
 4577SOL    HW225368   0.301   1.511   6.179 -0.1769  0.1649 -0.2751
 4578SOL     OW25369   3.795   4.343  17.518 -0.0432 -0.4843  0.1585
 4578SOL    HW125370   3.799   4.300  17.433 -0.9275  2.2912 -1.2792
 4578SOL    HW225371   3.837   4.426  17.498 -2.8131  0.9659  0.3843
 4579SOL     OW25372   3.656   2.236   3.958 -0.1272  0.3222  0.1713
 4579SOL    HW125373   3.672   2.293   4.033 -1.9987  0.7380  0.2636
 4579SOL    HW225374   3.562   2.255   3.954  0.1793  1.5882 -1.0641
 4580SOL     OW25375   2.532   3.438   5.284 -1.5340  0.5222 -0.1677
 4580SOL    HW125376   2.445   3.451   5.246 -0.0195  1.5741 -3.2121
 4580SOL    HW225377   2.531   3.343   5.284 -1.3352  0.5208  0.4447
 4581SOL     OW25378   1.888   2.438   8.480  0.4822 -0.7983  0.2343
 4581SOL    HW125379   1.819   2.393   8.433  1.3249 -0.7245 -1.0792
 4581SOL    HW225380   1.847   2.473   8.559  1.1745  0.9119 -0.1512
 4582SOL     OW25381   1.726   3.902   7.682  0.1920 -0.5565 -0.4981
 4582SOL    HW125382   1.730   3.833   7.749  0.9715 -0.8436 -0.8441
 4582SOL    HW225383   1.667   3.965   7.723  3.7583  0.8032  2.5020
 4583SOL     OW25384   0.232   1.092  16.198  0.7954 -0.6802 -0.0362
 4583SOL    HW125385   0.168   1.158  16.170  1.5826 -0.0094 -0.2388
 4583SOL    HW225386   0.289   1.088  16.122  0.9012  0.0327  0.0056
 4584SOL     OW25387   4.406   3.269   1.339  0.0071 -0.1352 -0.3094
 4584SOL    HW125388   4.322   3.234   1.308 -0.1943 -2.2790  2.6106
 4584SOL    HW225389   4.437   3.198   1.396  0.0942  1.0242  1.0954
 4585SOL     OW25390   0.405   0.124   8.004 -0.6731 -0.8255 -0.3751
 4585SOL    HW125391   0.459   0.151   8.078 -2.0113 -0.0091  0.3035
 4585SOL    HW225392   0.451   0.056   7.955  0.8423 -1.5147  2.0237
 4586SOL     OW25393   4.479   4.257   8.610  0.3459 -0.2585  1.3452
 4586SOL    HW125394   4.460   4.344   8.644 -1.6871  0.2552 -1.1429
 4586SOL    HW225395   4.409   4.255   8.545  1.2454 -1.9443  0.4345
 4587SOL     OW25396   4.000   0.109   7.705  0.1278  0.2916 -1.0146
 4587SOL    HW125397   3.959   0.028   7.676  0.0946  0.3304 -1.0763
 4587SOL    HW225398   4.087   0.087   7.673 -0.4358 -2.0605 -0.9350
 4588SOL     OW25399   1.256   3.131   5.872 -0.5022 -0.4234  0.0154
 4588SOL    HW125400   1.253   3.225   5.856 -1.9328 -0.6613 -1.0771
 4588SOL    HW225401   1.217   3.102   5.790  0.3994 -2.3581  0.2683
 4589SOL     OW25402   0.245   0.413  11.648  0.1343  0.1897 -0.7266
 4589SOL    HW125403   0.252   0.393  11.554 -0.0014  1.5630 -1.0218
 4589SOL    HW225404   0.316   0.365  11.691  0.9508  1.1341 -1.0319
 4590SOL     OW25405   2.423   2.970   7.414  0.0420 -0.6549 -0.0709
 4590SOL    HW125406   2.509   3.006   7.392  0.8568 -1.8169  1.1924
 4590SOL    HW225407   2.443   2.880   7.439  0.4593 -0.8499 -1.1368
 4591SOL     OW25408   1.556   0.612   9.651 -0.0038  0.3035  0.0845
 4591SOL    HW125409   1.597   0.602   9.565 -0.9885 -2.1291 -0.1024
 4591SOL    HW225410   1.477   0.560   9.635 -1.1149  2.0908 -0.2449
 4592SOL     OW25411   0.570   1.622   5.232 -0.7918  0.1136  0.3411
 4592SOL    HW125412   0.637   1.681   5.197 -0.0885 -0.6507  0.4091
 4592SOL    HW225413   0.512   1.675   5.286 -2.5647 -0.5846 -0.8806
 4593SOL     OW25414   2.681   1.270   8.023  0.2149 -0.6027  0.2582
 4593SOL    HW125415   2.749   1.294   8.085 -1.4074 -0.1818  1.8526
 4593SOL    HW225416   2.729   1.277   7.940 -1.1535 -2.2133 -0.6679
 4594SOL     OW25417   2.727   3.915  17.005  0.0868 -0.0663  0.1458
 4594SOL    HW125418   2.649   3.940  16.955 -0.4779 -0.7414  0.6872
 4594SOL    HW225419   2.686   3.873  17.081  1.8718 -0.8090  0.6936
 4595SOL     OW25420   1.074   3.489   0.086 -0.4887 -0.2475 -0.3197
 4595SOL    HW125421   1.081   3.508   0.180  1.4813  0.1181 -0.5454
 4595SOL    HW225422   1.124   3.409   0.070  0.2730  0.2139 -0.2158
 4596SOL     OW25423   2.562   4.725   9.278 -0.6815 -0.1228  0.7833
 4596SOL    HW125424   2.518   4.695   9.357 -0.3915  0.7511  1.2778
 4596SOL    HW225425   2.541   4.646   9.229  0.6628 -0.5461  0.8793
 4597SOL     OW25426   3.800   2.147   2.802 -0.0386 -0.0089  0.2177
 4597SOL    HW125427   3.875   2.097   2.771  0.9110  1.9682 -0.6953
 4597SOL    HW225428   3.816   2.155   2.896 -0.8608  2.8074  0.1249
 4598SOL     OW25429   2.412   1.478   8.495 -0.1508 -0.2451  0.4266
 4598SOL    HW125430   2.504   1.451   8.499 -0.1217 -0.1204  0.5926
 4598SOL    HW225431   2.362   1.406   8.458  3.9357 -2.6272 -0.4414
 4599SOL     OW25432   0.270   4.127   8.637  0.4227 -0.5414  0.3629
 4599SOL    HW125433   0.179   4.147   8.619  0.3259 -2.8594 -1.7767
 4599SOL    HW225434   0.294   4.086   8.554  0.2520 -0.2899  0.1880
 4600SOL     OW25435   2.405   1.948   5.189 -0.3338 -0.2213 -0.1598
 4600SOL    HW125436   2.434   1.859   5.167 -0.1813 -0.2547  0.1864
 4600SOL    HW225437   2.452   1.964   5.271 -1.3420  0.7765  0.2088
 4601SOL     OW25438   1.489   0.298   1.049  0.3114  0.3763  0.2879
 4601SOL    HW125439   1.399   0.332   1.051 -0.3043 -1.2936  1.2035
 4601SOL    HW225440   1.469   0.208   1.076 -0.2399  0.3155 -0.3210
 4602SOL     OW25441   3.813   2.701   6.018  0.4414  0.2184 -0.0481
 4602SOL    HW125442   3.856   2.703   6.104 -0.5593 -2.4587  0.5074
 4602SOL    HW225443   3.890   2.682   5.964  0.6815 -0.3789  0.5066
 4603SOL     OW25444   1.675   1.243   5.037  0.3612  0.6787 -0.1070
 4603SOL    HW125445   1.742   1.175   5.028  0.4400  0.8370 -0.6838
 4603SOL    HW225446   1.709   1.296   4.966 -3.5702 -1.4332 -3.5787
 4604SOL     OW25447   1.075   3.623   5.994 -0.3181  0.4472  0.0176
 4604SOL    HW125448   1.048   3.709   6.025 -0.5756  0.6757 -0.8509
 4604SOL    HW225449   1.000   3.565   6.004  1.3152 -1.2698  2.5732
 4605SOL     OW25450   1.394   1.979   4.146  0.1948 -0.8381 -0.3931
 4605SOL    HW125451   1.465   2.019   4.196 -0.0513 -0.9676  0.0555
 4605SOL    HW225452   1.435   1.956   4.062 -1.2107  0.8887 -1.5780
 4606SOL     OW25453   3.904   3.835   2.627 -0.1412  0.6988 -0.4038
 4606SOL    HW125454   3.973   3.771   2.607 -1.2769 -0.5540 -0.3066
 4606SOL    HW225455   3.852   3.832   2.547 -0.5314 -0.4351 -0.1156
 4607SOL     OW25456   1.658   3.999   3.746 -0.0677 -0.0078  0.0617
 4607SOL    HW125457   1.696   4.039   3.669  0.3026 -0.4677  0.0067
 4607SOL    HW225458   1.605   4.061   3.797  0.4758  1.1071 -0.7374
 4608SOL     OW25459   2.801   3.381   9.127  0.0188  0.3633 -0.7869
 4608SOL    HW125460   2.752   3.406   9.049 -1.4244  0.0857  0.0312
 4608SOL    HW225461   2.887   3.348   9.102 -1.0392 -1.1788 -2.3457
 4609SOL     OW25462   1.354   1.821   5.355  0.0935  0.2402 -0.1483
 4609SOL    HW125463   1.308   1.750   5.399 -1.7414  1.4649 -0.1255
 4609SOL    HW225464   1.312   1.803   5.271 -1.2077  4.3611 -0.3760
 4610SOL     OW25465   0.071   2.812   7.485  0.6123 -0.1641  0.2222
 4610SOL    HW125466   0.139   2.753   7.452  0.5955  0.4197 -0.8694
 4610SOL    HW225467   0.069   2.885   7.423  0.1430  1.7849  2.5344
 4611SOL     OW25468   2.403   1.045   3.402  0.1391 -0.9381  0.0606
 4611SOL    HW125469   2.427   1.078   3.315  0.0237 -1.9507 -0.3575
 4611SOL    HW225470   2.461   0.970   3.415 -0.7500 -1.0349  3.3867
 4612SOL     OW25471   1.137   1.834   4.404  0.2395  0.4751 -0.7780
 4612SOL    HW125472   1.044   1.814   4.413 -0.2117  2.2722 -1.3322
 4612SOL    HW225473   1.171   1.751   4.437  0.0474 -0.3405 -2.6035
 4613SOL     OW25474   0.897   0.602   5.987 -0.0377 -0.0264  0.8205
 4613SOL    HW125475   0.945   0.534   5.940  2.1044  1.2978  1.0969
 4613SOL    HW225476   0.972   0.658   6.009 -0.6745  0.0746  2.7101
 4614SOL     OW25477   2.469   2.534   4.206  0.1861  0.5047  0.1172
 4614SOL    HW125478   2.436   2.476   4.274  1.2808 -1.5994 -1.1328
 4614SOL    HW225479   2.547   2.577   4.240  0.9360 -0.6170 -0.1772
 4615SOL     OW25480   3.894   3.216   4.978  0.2247  0.0603 -0.0943
 4615SOL    HW125481   3.898   3.259   4.893  0.0737 -0.1816 -0.2222
 4615SOL    HW225482   3.877   3.129   4.943  0.7981  1.0409 -2.7812
 4616SOL     OW25483   0.301   0.032   5.181  0.2115  0.1892  0.0093
 4616SOL    HW125484   0.368   0.022   5.250  0.6325  4.0750  0.1647
 4616SOL    HW225485   0.224   0.031   5.237  0.6078  1.3944  0.5909
 4617SOL     OW25486   3.067   3.412   5.727 -0.3285 -0.1745  0.4049
 4617SOL    HW125487   2.983   3.440   5.690 -0.1782  1.5460  1.3423
 4617SOL    HW225488   3.120   3.398   5.648 -2.7391  1.2390 -1.4559
 4618SOL     OW25489   1.490   3.040   7.493  0.2322  0.1761  0.3687
 4618SOL    HW125490   1.552   3.013   7.560 -0.4058  0.7205  1.1882
 4618SOL    HW225491   1.514   2.989   7.416 -2.6864  0.8165 -0.9800
 4619SOL     OW25492   4.421   3.258   2.588 -0.4890 -0.2240 -0.0088
 4619SOL    HW125493   4.464   3.289   2.508 -1.1403 -1.6643 -0.9024
 4619SOL    HW225494   4.344   3.211   2.558 -2.2158  1.0138  2.4721
 4620SOL     OW25495   0.589   2.355   8.624 -0.6167 -0.0537  0.2287
 4620SOL    HW125496   0.643   2.417   8.675  0.4138  0.4558 -1.4831
 4620SOL    HW225497   0.631   2.343   8.539 -2.0305 -0.9093 -0.3453
 4621SOL     OW25498   3.704   2.099   3.700 -0.0641  0.2097  0.4261
 4621SOL    HW125499   3.710   2.116   3.794  1.6079  0.7844  0.2164
 4621SOL    HW225500   3.615   2.126   3.680 -0.2603 -1.4466 -0.9256
 4622SOL     OW25501   3.784   1.999   1.798 -0.2993  0.2120  0.0505
 4622SOL    HW125502   3.763   2.065   1.864  2.1962  2.3480 -1.2940
 4622SOL    HW225503   3.703   2.017   1.750 -1.2612 -0.9836  1.2154
 4623SOL     OW25504   3.815   2.288   6.106  0.0525  0.1525 -0.1878
 4623SOL    HW125505   3.831   2.226   6.177  0.4519  0.5730  0.0917
 4623SOL    HW225506   3.899   2.289   6.060 -0.2973 -1.4701 -0.8622
 4624SOL     OW25507   1.496   1.128   4.624 -0.2438  0.2778 -0.2725
 4624SOL    HW125508   1.537   1.086   4.549 -2.0652  0.9750 -1.6630
 4624SOL    HW225509   1.568   1.137   4.686  0.7152  1.3159 -1.5443
 4625SOL     OW25510   3.680   3.047  15.756 -0.1187 -0.4005 -0.1162
 4625SOL    HW125511   3.773   3.041  15.778 -0.1560 -0.9106 -0.1149
 4625SOL    HW225512   3.652   3.125  15.804  2.2701 -0.5585  1.5486
 4626SOL     OW25513   0.768   2.739   1.963  0.6734 -0.1179 -0.1015
 4626SOL    HW125514   0.831   2.670   1.949  1.0298  0.0669  0.5857
 4626SOL    HW225515   0.686   2.691   1.953 -0.0837  0.4590  3.1117
 4627SOL     OW25516   3.804   1.688   8.095 -0.1643 -0.2798 -0.1291
 4627SOL    HW125517   3.873   1.634   8.135 -0.0546  0.9245  1.3101
 4627SOL    HW225518   3.761   1.617   8.047 -1.1216  0.5212 -0.4341
 4628SOL     OW25519   3.666   4.477   9.025 -0.6520  0.3761 -0.7050
 4628SOL    HW125520   3.695   4.436   8.944 -0.4025 -0.0780 -0.3879
 4628SOL    HW225521   3.696   4.421   9.097 -2.8285 -1.3520 -1.1268
 4629SOL     OW25522   0.286   4.632   1.517  0.7353  0.2135 -0.8411
 4629SOL    HW125523   0.361   4.629   1.458  0.7995  1.9861 -0.8503
 4629SOL    HW225524   0.302   4.719   1.554  0.5115 -0.4590  0.8299
 4630SOL     OW25525   4.525   0.736   2.857  0.2833 -0.0403  0.1013
 4630SOL    HW125526   4.543   0.738   2.950  2.2946 -0.0070 -0.2915
 4630SOL    HW225527   4.511   0.828   2.835  1.9959  0.3460  0.6853
 4631SOL     OW25528   0.037   0.703   4.205 -0.0560 -0.0645  0.0193
 4631SOL    HW125529   0.115   0.669   4.249 -0.2504  1.2388  1.3548
 4631SOL    HW225530   4.715   0.725   4.278 -2.5538  1.5020 -2.4168
 4632SOL     OW25531   4.725   3.604   7.914 -0.3548  0.0084  0.0037
 4632SOL    HW125532   0.063   3.650   7.875 -0.1411  1.0680  1.6399
 4632SOL    HW225533   4.719   3.519   7.871  0.9519  0.4859 -1.1234
 4633SOL     OW25534   0.359   3.284   2.836  0.0635  0.0446  0.2318
 4633SOL    HW125535   0.286   3.231   2.866 -0.0280 -0.9416 -1.7068
 4633SOL    HW225536   0.406   3.233   2.769 -0.3892 -0.9446  0.6763
 4634SOL     OW25537   2.442   0.984   6.585 -0.1713 -0.2114  0.1048
 4634SOL    HW125538   2.387   0.921   6.539 -0.5183 -2.1093  3.0580
 4634SOL    HW225539   2.485   0.938   6.658 -2.5224  0.1871  1.7612
 4635SOL     OW25540   2.739   2.706   5.965 -0.1692  0.5065 -0.0019
 4635SOL    HW125541   2.714   2.777   6.025 -0.1034  1.2954 -0.9227
 4635SOL    HW225542   2.665   2.650   5.991  0.5426 -0.7725 -0.7284
 4636SOL     OW25543   4.039   0.274  15.431  0.1233  0.6994  0.0593
 4636SOL    HW125544   4.123   0.233  15.451  0.3250  0.9194 -0.3251
 4636SOL    HW225545   4.024   0.231  15.346  2.9633  0.3152 -0.2547
 4637SOL     OW25546   0.095   3.612   8.954 -0.2623 -0.3053  0.6091
 4637SOL    HW125547   0.151   3.655   9.019  0.6421  1.9187 -1.6480
 4637SOL    HW225548   0.099   3.521   8.983  2.0227 -1.4422 -3.1395
 4638SOL     OW25549   2.800   2.975   6.114  0.4051  0.1384 -0.1848
 4638SOL    HW125550   2.808   2.977   6.019 -0.0023  0.0734 -0.2201
 4638SOL    HW225551   2.888   2.992   6.147 -0.6083 -1.4046  3.3816
 4639SOL     OW25552   2.361   4.058   3.985 -0.5135 -0.1579  0.2041
 4639SOL    HW125553   2.326   4.026   3.902 -0.9083  0.2329  0.2216
 4639SOL    HW225554   2.359   3.971   4.026 -1.4490  0.5509  1.6488
 4640SOL     OW25555   2.176   0.553   5.275 -0.3676 -0.6827 -0.8188
 4640SOL    HW125556   2.118   0.581   5.346 -0.5997  0.0113 -1.2902
 4640SOL    HW225557   2.225   0.486   5.324 -0.1504 -1.1135 -1.6221
 4641SOL     OW25558   3.578   4.108   1.432  0.2233 -0.4135  0.2135
 4641SOL    HW125559   3.650   4.048   1.451  1.9284  2.1143  1.8397
 4641SOL    HW225560   3.549   4.137   1.519  1.1110 -0.5321  0.5578
 4642SOL     OW25561   2.296   0.100   1.636  0.1220  0.2001  0.2227
 4642SOL    HW125562   2.245   0.160   1.690  0.2893 -2.1055  2.9246
 4642SOL    HW225563   2.289   0.020   1.687 -1.0995  0.0211 -0.2321
 4643SOL     OW25564   0.718   2.710   4.677 -0.1348  0.3215  0.8391
 4643SOL    HW125565   0.651   2.641   4.676  0.0617  0.1413  0.4169
 4643SOL    HW225566   0.781   2.681   4.611 -1.0454 -2.1314  1.0490
 4644SOL     OW25567   3.882   2.978   6.832  0.1838 -0.1241  0.3914
 4644SOL    HW125568   3.947   3.009   6.895  0.2655 -0.7816  0.6381
 4644SOL    HW225569   3.823   3.051   6.816 -0.3719 -0.5246  0.6313
 4645SOL     OW25570   1.648   2.223  13.481 -0.3020 -0.3988 -0.3491
 4645SOL    HW125571   1.693   2.307  13.486  0.6284 -1.0359  2.1106
 4645SOL    HW225572   1.557   2.240  13.505 -0.9046 -0.2521 -2.7145
 4646SOL     OW25573   0.858   3.416  13.067 -0.1779  0.2152  0.0244
 4646SOL    HW125574   0.845   3.344  13.006  2.6499 -0.1630 -0.1253
 4646SOL    HW225575   0.945   3.453  13.053 -0.4397  0.5203 -0.8333
 4647SOL     OW25576   2.298   1.298   5.792  0.4069 -0.0801 -0.1971
 4647SOL    HW125577   2.213   1.287   5.833  1.7922  0.1201  2.7188
 4647SOL    HW225578   2.348   1.233   5.842 -0.2586  0.6266  1.3633
 4648SOL     OW25579   1.068   3.899  10.407  0.1565  0.2957 -0.3429
 4648SOL    HW125580   1.071   3.992  10.429 -2.2982  0.4380 -0.6064
 4648SOL    HW225581   1.072   3.857  10.493 -0.6181  1.1213  0.0975
 4649SOL     OW25582   1.377   0.376   2.162 -0.5508  0.1341 -0.0212
 4649SOL    HW125583   1.416   0.336   2.085 -0.8014 -0.2976  0.0742
 4649SOL    HW225584   1.315   0.436   2.120 -0.2185 -0.8113 -1.8144
 4650SOL     OW25585   3.099   4.034   4.629  0.1568 -0.3643 -0.1935
 4650SOL    HW125586   3.189   4.030   4.662  0.7792  0.1281 -1.8307
 4650SOL    HW225587   3.060   3.981   4.698  2.3668 -2.7603 -0.7955
 4651SOL     OW25588   1.768   2.949  17.275 -0.4963 -0.6308  0.1958
 4651SOL    HW125589   1.687   2.962  17.324 -0.1596 -1.5764  1.0193
 4651SOL    HW225590   1.727   2.933  17.190  1.3959 -2.3510 -0.3916
 4652SOL     OW25591   4.599   4.191   9.122 -0.2275  0.1234  0.0443
 4652SOL    HW125592   4.624   4.184   9.214 -0.4493 -1.3968 -0.0148
 4652SOL    HW225593   4.509   4.223   9.129 -0.2182  0.3470 -0.7760
 4653SOL     OW25594   1.942   3.023   3.312  0.2202  0.1351  0.0329
 4653SOL    HW125595   1.941   3.075   3.393  1.4361 -1.2755  0.9519
 4653SOL    HW225596   1.940   3.097   3.251  1.1557 -0.3359 -0.5567
 4654SOL     OW25597   3.443   1.977  15.196 -0.1418 -1.0432  0.3563
 4654SOL    HW125598   3.520   2.034  15.189 -1.9209  1.1344 -1.5058
 4654SOL    HW225599   3.478   1.909  15.138  2.7294  0.4711  0.2881
 4655SOL     OW25600   4.717   2.815   1.651 -0.2594  0.2048 -0.1096
 4655SOL    HW125601   4.732   2.721   1.656  2.2714  0.5556 -1.0221
 4655SOL    HW225602   0.061   2.849   1.693  0.6110 -0.9978 -0.8040
 4656SOL     OW25603   0.626   3.630   8.498  0.2554  0.8039 -0.2872
 4656SOL    HW125604   0.581   3.710   8.527 -2.2871  0.4612 -3.2620
 4656SOL    HW225605   0.680   3.670   8.429 -1.2241  1.3855 -1.1287
 4657SOL     OW25606   4.549   0.745  17.659 -0.0376 -0.3388  0.1299
 4657SOL    HW125607   4.588   0.675  17.711  0.4365  0.0515  0.2960
 4657SOL    HW225608   4.555   0.820  17.719 -0.5072 -0.9113  0.8966
 4658SOL     OW25609   4.498   4.252  12.844  0.3342  0.3482 -0.0818
 4658SOL    HW125610   4.406   4.268  12.863 -0.1624 -0.9839 -1.2826
 4658SOL    HW225611   4.501   4.258  12.748  2.7876  0.4815 -0.0129
 4659SOL     OW25612   4.310   3.840   8.582  0.2038  0.2130 -0.7343
 4659SOL    HW125613   4.383   3.815   8.638 -1.4146  0.7703  1.6216
 4659SOL    HW225614   4.345   3.825   8.494 -3.3718 -0.0563 -2.1100
 4660SOL     OW25615   1.019   4.440   3.562  0.0110 -0.1559  0.0793
 4660SOL    HW125616   0.988   4.524   3.528  0.9625  0.8425  1.6931
 4660SOL    HW225617   1.079   4.463   3.632 -1.6062 -0.3422  1.5101
 4661SOL     OW25618   1.613   0.468  17.739  0.6116 -0.5263 -0.5916
 4661SOL    HW125619   1.652   0.466  17.652  0.0185  0.3631 -0.8813
 4661SOL    HW225620   1.533   0.519  17.721  0.8407  0.1693  0.3406
 4662SOL     OW25621   2.215   1.765   4.365  0.2835  0.0895  0.1571
 4662SOL    HW125622   2.238   1.762   4.458  0.6286  2.0442  0.1406
 4662SOL    HW225623   2.246   1.851   4.335  0.2996 -0.7731 -2.2793
 4663SOL     OW25624   1.725   0.348   9.737 -0.7030 -0.8356  0.5902
 4663SOL    HW125625   1.807   0.375   9.778 -0.4009 -0.0471 -0.5418
 4663SOL    HW225626   1.675   0.429   9.743 -1.4448 -1.4012  2.0883
 4664SOL     OW25627   1.486   2.164  15.260 -0.1843 -0.5009 -0.3306
 4664SOL    HW125628   1.484   2.069  15.254 -3.5850 -0.1594 -3.9422
 4664SOL    HW225629   1.504   2.173  15.354  2.4110  0.5002 -0.9142
 4665SOL     OW25630   0.057   1.850   7.684  0.6250 -0.2003 -0.0193
 4665SOL    HW125631   0.046   1.762   7.722  1.7883 -0.3268  0.0369
 4665SOL    HW225632   0.060   1.840   7.589  0.8858 -1.3892  0.1027
 4666SOL     OW25633   4.334   0.749   9.361 -0.2337 -0.2858  0.3688
 4666SOL    HW125634   4.343   0.831   9.313 -0.8877 -0.5455 -0.1951
 4666SOL    HW225635   4.421   0.729   9.395 -0.0261 -1.3214 -0.7502
 4667SOL     OW25636   1.781   1.499   6.909  0.9034 -0.0789 -0.2469
 4667SOL    HW125637   1.725   1.576   6.900 -0.2756 -0.7720  1.1717
 4667SOL    HW225638   1.769   1.468   6.820 -0.1253  1.5800 -0.6920
 4668SOL     OW25639   4.568   0.969  17.480  0.1005  0.4667 -0.0430
 4668SOL    HW125640   4.512   0.955  17.404 -0.6398 -1.9599  0.9737
 4668SOL    HW225641   4.550   0.892  17.534  0.7064  2.2160  2.6537
 4669SOL     OW25642   0.723   3.657   8.021 -0.0974 -0.2418  0.2512
 4669SOL    HW125643   0.696   3.593   8.087  0.1476 -0.5615  0.0355
 4669SOL    HW225644   0.711   3.740   8.068  0.5148 -2.0243  3.5449
 4670SOL     OW25645   0.309   1.015   6.172 -0.1155 -0.0151  0.1607
 4670SOL    HW125646   0.230   1.046   6.127 -0.3057  1.1379  1.2823
 4670SOL    HW225647   0.322   0.925   6.143 -0.9594  0.1859 -0.8457
 4671SOL     OW25648   2.606   0.813   4.004 -0.3564  0.4850  0.0508
 4671SOL    HW125649   2.641   0.859   4.081 -2.4397 -1.5222  2.1767
 4671SOL    HW225650   2.599   0.891   3.948 -0.2867 -0.9533 -1.9298
 4672SOL     OW25651   0.750   0.153   5.557  0.0841  0.0933 -0.0664
 4672SOL    HW125652   0.670   0.179   5.510  0.6978 -2.5337 -2.5303
 4672SOL    HW225653   0.821   0.148   5.494  0.5760 -1.6155  0.6440
 4673SOL     OW25654   0.974   4.037  12.839  0.3547  0.2558 -0.2497
 4673SOL    HW125655   0.946   4.120  12.878 -2.3285  0.0459 -1.7319
 4673SOL    HW225656   0.888   4.002  12.816  0.6728  0.9671 -2.5438
 4674SOL     OW25657   2.825   2.200  13.704 -0.1234  0.2007  0.1252
 4674SOL    HW125658   2.820   2.245  13.619 -0.3734  2.2673  1.2420
 4674SOL    HW225659   2.770   2.128  13.671 -1.1834 -0.1193  2.6342
 4675SOL     OW25660   3.525   2.068  14.215  0.0197  0.4863  0.1871
 4675SOL    HW125661   3.562   2.072  14.303  2.3837  0.6336 -0.8253
 4675SOL    HW225662   3.568   2.145  14.177 -1.6052  1.0328 -0.5638
 4676SOL     OW25663   3.799   1.814  17.699  0.3183  0.6640 -0.2806
 4676SOL    HW125664   3.778   1.907  17.708 -2.2784 -0.1840  2.0975
 4676SOL    HW225665   3.835   1.806   0.044  2.9291  0.5499 -1.3511
 4677SOL     OW25666   4.582   1.125   1.365 -0.2475  0.1024 -0.2792
 4677SOL    HW125667   4.619   1.036   1.363  0.5524  0.3983  1.0635
 4677SOL    HW225668   4.653   1.164   1.416 -0.3107  0.8808 -0.7887
 4678SOL     OW25669   3.807   3.635  14.811 -0.2596 -0.1853  0.0423
 4678SOL    HW125670   3.864   3.711  14.814 -0.7612  0.1818  0.2452
 4678SOL    HW225671   3.875   3.570  14.797  2.2187  2.4260  0.0439
 4679SOL     OW25672   3.330   4.028   4.787  0.7958  0.5769  0.7518
 4679SOL    HW125673   3.348   4.002   4.877  1.8815  0.2984  0.4463
 4679SOL    HW225674   3.361   4.118   4.788 -0.6879  1.1042 -0.8490
 4680SOL     OW25675   3.836   1.143   4.124  0.1701  0.2372  0.0090
 4680SOL    HW125676   3.829   1.234   4.093  1.2975  0.1449 -0.5138
 4680SOL    HW225677   3.872   1.097   4.048  0.2713 -0.9858  0.7969
 4681SOL     OW25678   2.860   4.342   8.265  0.3930  0.0308  0.2164
 4681SOL    HW125679   2.779   4.368   8.221 -0.3421 -0.3973  1.3373
 4681SOL    HW225680   2.872   4.420   8.318 -0.0504  2.0950 -2.6879
 4682SOL     OW25681   0.491   3.851   3.113  0.1748  0.6256  0.4393
 4682SOL    HW125682   0.532   3.846   3.200  0.8362 -1.4116  0.0074
 4682SOL    HW225683   0.424   3.784   3.125 -0.9455  1.7067  0.1867
 4683SOL     OW25684   1.519   0.437   3.740 -0.6553 -0.4626 -0.1568
 4683SOL    HW125685   1.442   0.458   3.793 -0.2505  0.1805  0.1745
 4683SOL    HW225686   1.495   0.349   3.712 -0.6500 -0.7214  0.6472
 4684SOL     OW25687   3.178   1.944   7.894  0.0839 -0.5754  0.3961
 4684SOL    HW125688   3.217   2.027   7.921 -1.7322  0.5504 -0.4693
 4684SOL    HW225689   3.186   1.957   7.800 -1.9225 -0.4947  0.2510
 4685SOL     OW25690   2.163   4.067   5.405 -0.7292  0.3287  0.4200
 4685SOL    HW125691   2.106   4.061   5.482 -1.8706 -1.9266 -0.5764
 4685SOL    HW225692   2.139   3.987   5.357  0.0819  0.8505 -0.8496
 4686SOL     OW25693   2.461   2.591   6.237 -0.2753 -0.1759  0.0161
 4686SOL    HW125694   2.532   2.527   6.241  0.2611  0.4344  0.2576
 4686SOL    HW225695   2.464   2.619   6.146  0.9913  2.8728  1.0014
 4687SOL     OW25696   4.223   3.374   2.760  0.1016  0.0026  0.4310
 4687SOL    HW125697   4.149   3.331   2.718  0.8683 -1.0057  0.0996
 4687SOL    HW225698   4.296   3.324   2.723  1.6505  0.4738  2.8495
 4688SOL     OW25699   2.098   0.396  15.210  0.2603 -0.2035  0.0519
 4688SOL    HW125700   2.069   0.305  15.201 -0.1012 -0.2114  1.2687
 4688SOL    HW225701   2.193   0.396  15.216  0.2222 -0.1995  0.6826
 4689SOL     OW25702   2.608   4.255   3.262  0.4501  0.0329  0.1288
 4689SOL    HW125703   2.528   4.301   3.237  1.2053  1.8275  0.9805
 4689SOL    HW225704   2.582   4.186   3.323  0.7446  2.1769  2.6899
 4690SOL     OW25705   2.576   3.590   1.650  0.1225 -0.2940  0.2169
 4690SOL    HW125706   2.652   3.555   1.604 -0.1474 -0.7795  0.1410
 4690SOL    HW225707   2.621   3.614   1.731  3.4497  0.0363 -1.7385
 4691SOL     OW25708   3.072   4.074   6.364  0.6190  1.3252  0.0406
 4691SOL    HW125709   3.117   4.157   6.382 -1.8235  3.2855 -2.8741
 4691SOL    HW225710   2.984   4.111   6.366 -0.2069 -0.7396  2.5135
 4692SOL     OW25711   2.137   4.364   2.410  0.1266  0.4480 -0.2304
 4692SOL    HW125712   2.233   4.367   2.418  0.2350 -0.0500 -1.3890
 4692SOL    HW225713   2.133   4.372   2.315 -2.1474  0.9367 -0.0909
 4693SOL     OW25714   3.968   4.358  11.657 -0.5458  0.4255  0.1210
 4693SOL    HW125715   4.053   4.365  11.613 -0.5623  2.2686  0.4042
 4693SOL    HW225716   3.954   4.263  11.657  0.9169  0.2002  1.6370
 4694SOL     OW25717   3.375   1.217  13.266 -0.5547  1.0104 -0.1169
 4694SOL    HW125718   3.425   1.136  13.249 -2.7525 -0.7998  2.1159
 4694SOL    HW225719   3.365   1.221  13.361 -0.4774  2.0068 -0.1507
 4695SOL     OW25720   3.182   2.222   4.507  0.0582 -0.3469  0.1673
 4695SOL    HW125721   3.106   2.179   4.545 -0.1205 -1.6344 -1.6386
 4695SOL    HW225722   3.144   2.274   4.437  0.1409 -1.5262 -0.7532
 4696SOL     OW25723   4.431   0.740   7.661 -0.7888 -0.4703  0.4288
 4696SOL    HW125724   4.358   0.774   7.610  0.4004 -0.2051 -1.0726
 4696SOL    HW225725   4.408   0.784   7.743 -0.2938 -1.1587  0.9447
 4697SOL     OW25726   4.704   2.090  17.160  0.2787  1.0658 -0.6251
 4697SOL    HW125727   0.017   2.055  17.085  0.8321  1.2430 -0.3508
 4697SOL    HW225728   4.633   2.131  17.111  0.7518  2.1448 -0.4142
 4698SOL     OW25729   3.352   1.897  14.154 -0.1775 -0.3240  0.3267
 4698SOL    HW125730   3.314   1.940  14.078  0.2709  0.6283  0.6390
 4698SOL    HW225731   3.421   1.959  14.181  1.1197 -0.6665 -2.2131
 4699SOL     OW25732   3.258   3.650  13.790  0.4187 -0.4625 -0.3703
 4699SOL    HW125733   3.252   3.578  13.727  3.4390  0.0126 -1.1824
 4699SOL    HW225734   3.203   3.628  13.865  1.2681 -0.0696  0.3726
 4700SOL     OW25735   3.852   3.729  15.642 -0.6324  0.1527  0.4365
 4700SOL    HW125736   3.921   3.792  15.663  1.9209 -2.6970  0.6205
 4700SOL    HW225737   3.787   3.786  15.602  0.1651  1.3898  0.9218
 4701SOL     OW25738   2.227   1.313  17.310 -0.0965  0.3302  0.0949
 4701SOL    HW125739   2.144   1.360  17.320 -0.3517 -0.1395  0.1893
 4701SOL    HW225740   2.274   1.352  17.384 -0.2365  1.4276 -0.3825
 4702SOL     OW25741   3.453   1.273  13.544 -0.6183 -0.7609  0.4335
 4702SOL    HW125742   3.454   1.178  13.556 -0.7577 -0.3192  4.1135
 4702SOL    HW225743   3.365   1.285  13.580 -0.1408  1.1986  0.9304
 4703SOL     OW25744   0.785   0.348   6.698 -0.2504  0.3302 -0.3325
 4703SOL    HW125745   0.786   0.427   6.751 -0.1690 -0.0111  0.1765
 4703SOL    HW225746   0.876   0.325   6.717  0.7102  2.0369 -2.8190
 4704SOL     OW25747   2.572   4.198  13.891 -0.1867 -0.0460 -0.3762
 4704SOL    HW125748   2.541   4.227  13.805  0.4873 -0.5019 -0.7752
 4704SOL    HW225749   2.649   4.254  13.902 -1.1462  0.7889  2.1101
 4705SOL     OW25750   1.619   2.404  10.512  0.1145 -0.4732 -0.2700
 4705SOL    HW125751   1.614   2.477  10.574 -0.6947 -1.3208  0.6616
 4705SOL    HW225752   1.544   2.350  10.538 -2.3835  3.1529  0.1056
 4706SOL     OW25753   1.638   3.806   5.834 -0.7686  0.2907  0.1673
 4706SOL    HW125754   1.604   3.841   5.916 -0.3995 -1.9431  1.2824
 4706SOL    HW225755   1.558   3.779   5.788 -0.3016 -0.8691  0.0458
 4707SOL     OW25756   0.335   2.514  16.870 -0.3854  0.3186  0.9503
 4707SOL    HW125757   0.294   2.600  16.872  0.1310  0.6017 -0.5344
 4707SOL    HW225758   0.281   2.477  16.800  2.5121 -0.1529 -1.0468
 4708SOL     OW25759   1.507   3.142   9.320  0.0522 -0.7585  0.2572
 4708SOL    HW125760   1.513   3.232   9.287  0.2874 -0.6579  0.5715
 4708SOL    HW225761   1.473   3.090   9.247 -2.0073  2.1845 -0.8823
 4709SOL     OW25762   3.739   1.224   8.109 -0.4479 -0.2191  0.4204
 4709SOL    HW125763   3.834   1.210   8.106  0.1145  3.9546 -1.2906
 4709SOL    HW225764   3.720   1.229   8.203 -1.1934  0.3936  0.2269
 4710SOL     OW25765   0.088   2.026  16.085 -0.5268  0.5535 -0.5540
 4710SOL    HW125766   0.053   2.114  16.071 -1.0674  0.5804  0.9410
 4710SOL    HW225767   0.020   1.982  16.136  0.4925  1.5003  1.6112
 4711SOL     OW25768   4.077   4.383   3.234 -0.1003 -0.4085 -0.7312
 4711SOL    HW125769   4.117   4.470   3.235  0.6031 -0.7660  2.6487
 4711SOL    HW225770   3.983   4.399   3.223  0.0228  0.9586  0.1003
 4712SOL     OW25771   1.564   2.647  17.543 -0.5692 -0.3647 -0.4578
 4712SOL    HW125772   1.645   2.596  17.544 -1.0219 -1.0730  0.5563
 4712SOL    HW225773   1.541   2.630  17.635 -1.8921 -0.7815 -0.8614
 4713SOL     OW25774   0.451   4.306   0.839 -0.0048 -0.0763 -0.5676
 4713SOL    HW125775   0.463   4.372   0.771 -1.4849  0.7717 -0.0255
 4713SOL    HW225776   0.534   4.260   0.830 -0.6580 -1.2329 -0.6699
 4714SOL     OW25777   4.178   2.434   7.447  0.1853  0.3457  0.4049
 4714SOL    HW125778   4.132   2.430   7.531  0.7558  2.6565  0.8068
 4714SOL    HW225779   4.258   2.384   7.466 -1.2405 -2.2096 -0.2755
 4715SOL     OW25780   3.584   4.192   3.207 -0.4167  0.2964  0.1516
 4715SOL    HW125781   3.548   4.271   3.247 -1.6642  0.3560 -1.1015
 4715SOL    HW225782   3.514   4.127   3.199 -1.3380  1.2765  0.3148
 4716SOL     OW25783   1.823   3.479   3.767 -1.0597 -0.1098  0.0825
 4716SOL    HW125784   1.800   3.498   3.677  3.6412  0.0517 -1.0756
 4716SOL    HW225785   1.907   3.525   3.772  0.5342 -3.0392  0.5519
 4717SOL     OW25786   0.111   2.205  11.577  0.2466  0.5819  0.0938
 4717SOL    HW125787   0.065   2.144  11.635  2.3776 -2.1112 -1.0420
 4717SOL    HW225788   0.039   2.262  11.549 -1.1563 -0.6757  1.1705
 4718SOL     OW25789   3.660   1.381   2.457  0.0397 -0.3141 -0.4146
 4718SOL    HW125790   3.666   1.464   2.409  0.7786 -0.2843 -0.2704
 4718SOL    HW225791   3.722   1.328   2.407  0.7996 -2.1157  2.3931
 4719SOL     OW25792   1.571   3.894   8.854 -0.5946 -0.9469  0.2151
 4719SOL    HW125793   1.589   3.892   8.760  1.0937 -2.2029  0.5784
 4719SOL    HW225794   1.484   3.855   8.847 -2.2436  2.5932  0.6374
 4720SOL     OW25795   1.759   3.305  16.367  0.4209  0.2438  0.5391
 4720SOL    HW125796   1.774   3.289  16.274 -0.7940 -2.0738  0.7521
 4720SOL    HW225797   1.826   3.248  16.403 -0.2781 -0.2502  1.0672
 4721SOL     OW25798   2.500   1.174   8.527  0.0266  0.1444  0.0651
 4721SOL    HW125799   2.509   1.122   8.607  1.0206  1.3502  0.7287
 4721SOL    HW225800   2.570   1.237   8.541  1.2027 -1.1651 -0.0173
 4722SOL     OW25801   2.539   3.273  16.736  0.0152 -0.1097  0.1088
 4722SOL    HW125802   2.527   3.347  16.676 -0.3170 -0.5669 -0.3828
 4722SOL    HW225803   2.589   3.217  16.678  1.2604  0.1971  0.8860
 4723SOL     OW25804   0.675   1.300   7.847  0.6100  0.4723  0.3547
 4723SOL    HW125805   0.584   1.287   7.819  0.7990 -0.5831  0.2409
 4723SOL    HW225806   0.694   1.380   7.798 -1.1844 -0.1308 -1.3311
 4724SOL     OW25807   1.067   3.091   9.810  0.7376  0.1776 -0.4319
 4724SOL    HW125808   1.081   3.000   9.782 -1.4295 -0.7275  1.3434
 4724SOL    HW225809   1.152   3.131   9.824  2.1007 -2.6554 -0.5274
 4725SOL     OW25810   1.533   4.145   9.577 -0.3378  0.5093 -0.2001
 4725SOL    HW125811   1.494   4.149   9.490 -1.7628  0.3992  0.4327
 4725SOL    HW225812   1.568   4.056   9.577  1.3329  1.1465  0.7575
 4726SOL     OW25813   3.732   1.903   7.214 -0.3158  0.2737  0.1256
 4726SOL    HW125814   3.713   1.965   7.285 -1.2741 -1.6865  1.6069
 4726SOL    HW225815   3.803   1.848   7.248  0.0228  0.7622  0.2206
 4727SOL     OW25816   0.647   3.515   2.379  0.1568 -0.2322 -0.1032
 4727SOL    HW125817   0.673   3.544   2.292 -1.0595 -0.3078 -0.4839
 4727SOL    HW225818   0.573   3.458   2.357  0.7826 -0.8706 -0.5412
 4728SOL     OW25819   2.454   3.802  11.806 -0.0109 -0.0914  0.0409
 4728SOL    HW125820   2.481   3.769  11.892  2.8929 -1.0661 -1.2767
 4728SOL    HW225821   2.414   3.882  11.841 -0.4665 -0.0360 -0.5997
 4729SOL     OW25822   2.816   2.487   3.260 -0.3397  0.0595 -0.3797
 4729SOL    HW125823   2.817   2.410   3.317 -0.4116  1.0002  0.8886
 4729SOL    HW225824   2.905   2.518   3.277 -0.7177  2.0217 -1.9662
 4730SOL     OW25825   1.946   2.423  10.739 -0.0563  0.4370  0.1220
 4730SOL    HW125826   1.885   2.444  10.810 -2.2661 -0.9618 -1.3640
 4730SOL    HW225827   2.007   2.370  10.790  0.1883  1.2366  0.6531
 4731SOL     OW25828   2.837   1.035   2.079  0.1433 -0.3810 -0.6519
 4731SOL    HW125829   2.924   0.996   2.072  0.6710  0.5308  0.9093
 4731SOL    HW225830   2.781   0.980   2.024  1.8517 -1.8486 -0.9118
 4732SOL     OW25831   1.203   1.208   8.972 -0.1815  0.0456  0.9140
 4732SOL    HW125832   1.193   1.127   8.922 -1.5199  0.3897  0.6254
 4732SOL    HW225833   1.231   1.272   8.907  0.6506 -0.6786  0.5811
 4733SOL     OW25834   4.160   2.200   8.093 -0.2432  0.3286  0.0828
 4733SOL    HW125835   4.119   2.120   8.127  0.4609  0.7758  1.9963
 4733SOL    HW225836   4.237   2.208   8.150  0.2436  1.2268 -0.7218
 4734SOL     OW25837   3.455   2.914   9.016  0.2865  0.1563 -0.3153
 4734SOL    HW125838   3.520   2.928   8.947 -1.4217  0.2080 -1.9318
 4734SOL    HW225839   3.502   2.881   9.093  1.1109  0.6392 -0.6161
 4735SOL     OW25840   2.332   3.819   5.431  0.1762 -0.2151  0.0353
 4735SOL    HW125841   2.354   3.900   5.384  0.7646 -1.5190 -1.9503
 4735SOL    HW225842   2.237   3.825   5.423  0.2544  1.3972  0.4187
 4736SOL     OW25843   2.787   2.707   6.896 -0.0154  0.0686  0.0889
 4736SOL    HW125844   2.793   2.733   6.988  1.8376 -0.5538  0.1203
 4736SOL    HW225845   2.778   2.612   6.900  0.7444 -0.0572 -1.2065
 4737SOL     OW25846   2.336   0.397   9.146  0.2059 -0.5362 -0.4055
 4737SOL    HW125847   2.349   0.333   9.076  1.9597  1.3843 -1.8256
 4737SOL    HW225848   2.386   0.363   9.220  0.7498 -0.7376 -0.8699
 4738SOL     OW25849   0.179   0.651   3.496  0.0407  0.0631  0.1317
 4738SOL    HW125850   0.127   0.718   3.450 -0.0498  0.2464  0.5047
 4738SOL    HW225851   0.254   0.709   3.510  1.8737 -1.8352 -1.7273
 4739SOL     OW25852   2.474   2.211   8.258 -0.0293 -0.2728  0.4468
 4739SOL    HW125853   2.399   2.154   8.243  0.7308 -1.0015 -0.6046
 4739SOL    HW225854   2.549   2.151   8.256  0.4380  0.3364 -0.5213
 4740SOL     OW25855   4.454   2.782   5.886  0.2554  0.0293 -0.3181
 4740SOL    HW125856   4.472   2.860   5.833  0.6953 -0.2753 -0.6149
 4740SOL    HW225857   4.538   2.740   5.903  1.2260  1.6044 -1.1695
 4741SOL     OW25858   2.732   0.545   4.275  0.2030 -0.0024 -0.2082
 4741SOL    HW125859   2.743   0.639   4.260  1.3674  0.0257  0.7987
 4741SOL    HW225860   2.816   0.503   4.292 -0.4543 -0.6972  1.4530
 4742SOL     OW25861   3.347   3.640   1.879  0.3200  0.0106 -0.3192
 4742SOL    HW125862   3.429   3.685   1.896  0.8314 -0.6622 -0.9438
 4742SOL    HW225863   3.369   3.554   1.915 -0.2717 -0.3424 -0.7872
 4743SOL     OW25864   3.668   3.833   2.822 -0.5122  0.2477  0.0504
 4743SOL    HW125865   3.690   3.919   2.859  0.6055  0.7516 -1.7997
 4743SOL    HW225866   3.735   3.819   2.756 -0.7582 -0.2108 -0.1048
 4744SOL     OW25867   0.287   1.741  16.250  0.3165  0.3030 -0.2496
 4744SOL    HW125868   0.295   1.836  16.255  0.9030  0.3237 -1.4428
 4744SOL    HW225869   0.206   1.724  16.298  1.2448 -0.3836  1.0599
 4745SOL     OW25870   4.554   0.332   4.969 -0.1855 -0.4402  0.1228
 4745SOL    HW125871   4.460   0.350   4.977 -0.4590 -2.1162  0.5596
 4745SOL    HW225872   4.563   0.237   4.962 -0.9263 -0.5034 -0.0384
 4746SOL     OW25873   4.370   1.005   5.939  0.3683  0.4894  0.3270
 4746SOL    HW125874   4.463   0.998   5.960  0.2949  0.5802  0.6922
 4746SOL    HW225875   4.334   0.954   6.012 -1.2283 -0.4980 -1.1328
 4747SOL     OW25876   0.937   3.280   2.312  0.0538  0.4127 -0.4208
 4747SOL    HW125877   0.912   3.195   2.347  1.5006  0.2110  0.1448
 4747SOL    HW225878   1.015   3.304   2.362 -0.3331  1.2513 -0.2114
 4748SOL     OW25879   3.973   0.102  13.469  0.2474  0.0827 -0.2877
 4748SOL    HW125880   3.954   0.192  13.495 -0.1783 -0.1214  0.1062
 4748SOL    HW225881   3.998   0.068  13.555  0.3268 -1.0711 -0.7639
 4749SOL     OW25882   4.701   1.473   9.404  1.0695 -0.3108  0.3881
 4749SOL    HW125883   0.040   1.531   9.388 -1.2366  2.6421  0.2123
 4749SOL    HW225884   4.633   1.503   9.344  2.4816  0.1140 -0.9861
 4750SOL     OW25885   3.382   0.852  16.694  0.2703  0.2899  0.1028
 4750SOL    HW125886   3.470   0.825  16.666 -0.2129  0.9130 -2.0351
 4750SOL    HW225887   3.373   0.938  16.654 -1.1454  0.0164 -0.1860
 4751SOL     OW25888   3.022   0.927   4.250 -0.3278 -0.3539  0.0271
 4751SOL    HW125889   3.091   0.936   4.317 -0.6874  0.6658  0.2658
 4751SOL    HW225890   3.080   0.922   4.174 -2.3542  0.1860 -1.5581
 4752SOL     OW25891   0.427   0.750   4.920  0.3701 -0.2442  0.0419
 4752SOL    HW125892   0.479   0.800   4.983  1.4575 -1.2927 -0.0325
 4752SOL    HW225893   0.492   0.683   4.899 -0.4269 -1.5085  1.6497
 4753SOL     OW25894   3.771   3.669   6.039 -0.3167 -0.2484  0.4595
 4753SOL    HW125895   3.815   3.690   6.122 -1.0377 -1.5804  1.1905
 4753SOL    HW225896   3.683   3.647   6.069 -1.3791  1.6317 -1.3129
 4754SOL     OW25897   3.058   4.378  14.422 -0.3418 -0.3156  1.1602
 4754SOL    HW125898   3.134   4.390  14.364 -2.4821  0.7013 -1.4235
 4754SOL    HW225899   3.077   4.291  14.458  0.3781 -0.8884 -0.5863
 4755SOL     OW25900   4.235   3.237   3.336 -0.0443 -0.1497  0.6285
 4755SOL    HW125901   4.267   3.204   3.419  3.0572 -0.0458 -0.5113
 4755SOL    HW225902   4.141   3.219   3.339 -0.0100 -0.5081 -0.3824
 4756SOL     OW25903   3.931   0.049   2.617 -0.3851  0.2390  0.3509
 4756SOL    HW125904   3.950   0.007   2.701  0.6024 -0.7500 -0.3713
 4756SOL    HW225905   3.838   0.029   2.621 -0.1835 -1.1149 -2.3127
 4757SOL     OW25906   1.043   2.063  13.382  0.1630  0.0951 -0.0272
 4757SOL    HW125907   1.053   2.062  13.478 -1.6656  3.1123  0.2040
 4757SOL    HW225908   1.011   1.974  13.366 -0.0949  0.3170 -0.7269
 4758SOL     OW25909   3.226   0.866   2.616  0.2835  0.4096  0.3534
 4758SOL    HW125910   3.251   0.958   2.625  1.4201  0.1217  0.1037
 4758SOL    HW225911   3.186   0.862   2.529 -0.5700 -0.0772  0.7682
 4759SOL     OW25912   1.340   3.193   9.838 -0.3431  0.1485 -0.7556
 4759SOL    HW125913   1.369   3.229   9.922 -1.8971  0.6375 -0.4220
 4759SOL    HW225914   1.357   3.268   9.780  0.7268  0.2602 -0.2887
 4760SOL     OW25915   1.013   3.870   6.069 -0.0454  0.3085 -0.2212
 4760SOL    HW125916   1.032   3.928   6.143  1.4942  0.8491 -1.0499
 4760SOL    HW225917   0.937   3.906   6.025 -0.0812  0.8214  0.2586
 4761SOL     OW25918   1.543   0.103  14.217 -0.2255 -0.2054 -0.1254
 4761SOL    HW125919   1.475   0.040  14.193 -0.9911 -0.4215  2.6385
 4761SOL    HW225920   1.574   0.057  14.295  0.9798  0.5149 -0.1892
 4762SOL     OW25921   4.437   2.208  15.203 -0.8040 -0.2147 -0.0358
 4762SOL    HW125922   4.518   2.167  15.173 -0.3958  1.1044 -0.7331
 4762SOL    HW225923   4.468   2.298  15.212 -0.7012 -0.1441 -1.0749
 4763SOL     OW25924   2.340   3.878   9.969  0.3101 -0.0664  0.5280
 4763SOL    HW125925   2.399   3.953   9.977 -0.3111  0.2654  1.9681
 4763SOL    HW225926   2.250   3.912   9.970  0.2773 -0.2370  3.0637
 4764SOL     OW25927   4.313   4.533   4.844  0.6768  0.4864 -0.0442
 4764SOL    HW125928   4.218   4.543   4.851  0.4542 -0.9561 -1.1812
 4764SOL    HW225929   4.324   4.615   4.796 -1.4948 -0.5054 -2.2424
 4765SOL     OW25930   3.145   2.598   8.280  0.2747  0.1526  0.3533
 4765SOL    HW125931   3.112   2.553   8.358 -0.7791 -0.1977 -0.2972
 4765SOL    HW225932   3.224   2.635   8.319  0.4093  1.1326 -0.8472
 4766SOL     OW25933   4.663   4.731   6.925 -0.4655 -0.1522 -0.3058
 4766SOL    HW125934   4.578   4.721   6.882  0.2387 -0.9617 -1.5344
 4766SOL    HW225935   4.643   4.706   7.015 -2.5601 -1.4661 -1.1234
 4767SOL     OW25936   4.222   3.496   1.391  0.2634  0.7330  0.1518
 4767SOL    HW125937   4.145   3.449   1.359  1.4193 -1.7295  0.9482
 4767SOL    HW225938   4.299   3.458   1.348 -1.3932 -2.0408 -0.4057
 4768SOL     OW25939   2.276   1.551   8.907 -0.0566  0.2207  0.2719
 4768SOL    HW125940   2.366   1.522   8.893  0.0244  0.0765  1.0892
 4768SOL    HW225941   2.262   1.578   8.817  2.2134  1.0120  0.1700
 4769SOL     OW25942   3.433   0.277   3.141  0.1707 -0.0085 -0.2856
 4769SOL    HW125943   3.478   0.338   3.083 -1.8697  1.4812 -0.3005
 4769SOL    HW225944   3.490   0.292   3.216  1.9633 -0.4567 -1.5675
 4770SOL     OW25945   3.139   1.383   9.582 -0.1659  0.3091 -0.4252
 4770SOL    HW125946   3.153   1.334   9.663 -0.2603  0.0899 -0.5430
 4770SOL    HW225947   3.202   1.455   9.590  0.1662 -0.1722  1.3726
 4771SOL     OW25948   2.753   3.154   6.556 -0.3715 -0.2047 -0.4371
 4771SOL    HW125949   2.673   3.105   6.577  0.4486 -1.6128 -0.5854
 4771SOL    HW225950   2.724   3.208   6.483 -0.8801  1.4319  0.9675
 4772SOL     OW25951   1.476   2.403   9.283 -0.3427  0.1159  0.3261
 4772SOL    HW125952   1.509   2.315   9.270 -2.3950 -0.5790 -0.1857
 4772SOL    HW225953   1.540   2.451   9.336 -0.7656  0.2595  0.7044
 4773SOL     OW25954   1.763   0.316  16.608 -0.2608  0.1600  0.2865
 4773SOL    HW125955   1.672   0.338  16.631  0.1721  0.4717  1.7208
 4773SOL    HW225956   1.776   0.365  16.527  1.7475 -0.1327  0.4304
 4774SOL     OW25957   0.003   4.369   3.093  0.1432  0.3713 -0.2891
 4774SOL    HW125958   0.011   4.333   3.181  1.1799  1.9314  0.2320
 4774SOL    HW225959   0.033   4.290   3.047 -0.1719 -0.8573  1.5998
 4775SOL     OW25960   1.605   1.254   7.994 -0.8366 -0.0847 -0.0034
 4775SOL    HW125961   1.565   1.211   7.919 -0.8826  2.0439 -1.1919
 4775SOL    HW225962   1.641   1.171   8.026  0.9656  0.1983 -1.2965
 4776SOL     OW25963   2.465   3.603   3.156 -0.1004 -0.6139  0.8419
 4776SOL    HW125964   2.495   3.676   3.210 -0.8624 -0.7262  1.4152
 4776SOL    HW225965   2.506   3.530   3.203 -0.4216 -0.8878  0.6946
 4777SOL     OW25966   2.707   1.013   2.734  0.0569  0.0396 -0.3311
 4777SOL    HW125967   2.778   0.993   2.795  0.4543  1.5627 -0.2793
 4777SOL    HW225968   2.643   1.020   2.804  0.8468 -1.6321  0.5315
 4778SOL     OW25969   1.191   2.731   3.170  0.1754  0.3742 -0.3949
 4778SOL    HW125970   1.200   2.818   3.209 -1.7958  1.0123 -1.3289
 4778SOL    HW225971   1.134   2.696   3.239  1.7015 -0.4678  0.4357
 4779SOL     OW25972   1.313   4.620  13.021  0.2939  0.0712 -0.1393
 4779SOL    HW125973   1.255   4.645  12.949  1.1501  1.5127 -0.3367
 4779SOL    HW225974   1.288   4.530  13.040 -0.2386 -0.1035 -1.6741
 4780SOL     OW25975   3.336   1.316   5.551  0.0804 -0.0313 -0.2782
 4780SOL    HW125976   3.423   1.355   5.553 -0.0207  0.1976 -0.3917
 4780SOL    HW225977   3.285   1.372   5.492  1.4698  0.5957 -0.8770
 4781SOL     OW25978   2.940   4.578   3.502  0.5190  0.0453 -0.2153
 4781SOL    HW125979   2.979   4.550   3.419  1.0979 -1.0900  0.4432
 4781SOL    HW225980   2.906   4.666   3.485  1.9144  0.8962  1.3298
 4782SOL     OW25981   1.020   2.464   7.198  0.2625  0.6059 -0.1707
 4782SOL    HW125982   1.084   2.398   7.225  0.4521  0.2590 -1.4544
 4782SOL    HW225983   0.954   2.449   7.266  1.4174 -0.0249  0.8203
 4783SOL     OW25984   1.284   3.083   3.759 -0.2249  0.0736 -0.0527
 4783SOL    HW125985   1.338   3.036   3.695  0.3871  0.1729  0.3933
 4783SOL    HW225986   1.289   3.020   3.831  1.1866 -0.2748 -0.4562
 4784SOL     OW25987   3.681   2.400  16.488  0.3521 -0.2353  0.3266
 4784SOL    HW125988   3.740   2.456  16.438  0.5885 -0.7919 -0.0189
 4784SOL    HW225989   3.603   2.399  16.431 -2.0339 -1.3231  3.6198
 4785SOL     OW25990   2.280   4.703   6.642  0.0503  0.4885  0.6633
 4785SOL    HW125991   2.243   4.674   6.725  3.8069 -1.8191  1.5173
 4785SOL    HW225992   2.232   4.652   6.577 -0.8029  2.8954 -0.5976
 4786SOL     OW25993   1.769   4.724  16.351  0.1801 -0.0758 -0.0048
 4786SOL    HW125994   1.782   4.699  16.442  1.3059  1.4955  0.2642
 4786SOL    HW225995   1.707   0.061  16.364  0.7832  0.8041 -2.0277
 4787SOL     OW25996   0.355   2.394  13.588 -0.1439  0.3790  0.5277
 4787SOL    HW125997   0.346   2.305  13.554  0.8609 -0.6339  2.8963
 4787SOL    HW225998   0.329   2.379  13.679 -1.0558  0.4887  0.2848
 4788SOL     OW25999   0.800   0.405  14.396  0.1362  0.3577  0.1610
 4788SOL    HW126000   0.840   0.418  14.311 -0.5560 -2.6009 -0.6489
 4788SOL    HW226001   0.804   0.309  14.403 -0.1441  0.3902  0.8129
 4789SOL     OW26002   2.906   4.031   5.792 -0.0422 -0.6073  0.0802
 4789SOL    HW126003   2.928   4.115   5.752 -1.4764  0.3240  1.2287
 4789SOL    HW226004   2.858   3.987   5.721 -0.1501  1.2923 -1.0427
 4790SOL     OW26005   4.345   4.450  17.739 -0.2719 -0.0475 -0.1281
 4790SOL    HW126006   4.328   4.475  17.649 -0.9048  0.0093  0.0117
 4790SOL    HW226007   4.369   4.535   0.032  0.4630 -0.8830  1.4201
 4791SOL     OW26008   4.677   4.642   1.048 -0.1746 -0.6111 -0.3220
 4791SOL    HW126009   4.704   4.632   0.957 -2.3681 -0.8045 -0.9536
 4791SOL    HW226010   4.714   4.729   1.063 -0.9112 -0.5085  0.9475
 4792SOL     OW26011   4.616   1.893   4.500  0.6014 -0.5692  0.3465
 4792SOL    HW126012   4.595   1.812   4.546  0.7462 -0.1800  1.1027
 4792SOL    HW226013   4.624   1.957   4.572 -0.0097  0.8120 -0.8261
 4793SOL     OW26014   4.477   4.665   3.248 -0.2446  0.0191  0.2948
 4793SOL    HW126015   4.557   4.660   3.301  0.2677  3.4389 -0.1576
 4793SOL    HW226016   4.408   4.646   3.311 -1.5953 -0.8579 -1.4429
 4794SOL     OW26017   2.256   3.933   6.759  0.2244 -0.1157  0.0745
 4794SOL    HW126018   2.303   3.934   6.842 -3.5310 -4.1924  2.2658
 4794SOL    HW226019   2.306   3.869   6.708  0.9505  0.9125 -0.4998
 4795SOL     OW26020   4.368   3.198   4.834  0.4185 -0.2642 -0.2085
 4795SOL    HW126021   4.389   3.203   4.927 -0.5984  2.1840 -0.1197
 4795SOL    HW226022   4.442   3.142   4.808  0.8563  0.4182 -0.4293
 4796SOL     OW26023   1.351   3.222   5.565  1.1490  0.2788 -0.0543
 4796SOL    HW126024   1.293   3.162   5.518 -1.4981  1.7714  1.2967
 4796SOL    HW226025   1.317   3.307   5.539 -1.4161 -2.1778 -4.6142
 4797SOL     OW26026   1.518   0.675   8.541  0.0969  0.7430 -0.2963
 4797SOL    HW126027   1.507   0.580   8.549 -0.1282  0.9140  1.5175
 4797SOL    HW226028   1.431   0.709   8.564 -0.4266 -0.9057  0.1632
 4798SOL     OW26029   2.456   0.060   3.984  0.0934 -0.1410 -0.5758
 4798SOL    HW126030   2.401   0.113   3.926 -0.8636 -1.7543 -1.1589
 4798SOL    HW226031   2.399   0.048   4.060 -0.9517 -0.3981 -1.4012
 4799SOL     OW26032   3.806   3.539   1.645  0.0477  0.1653 -0.2631
 4799SOL    HW126033   3.849   3.541   1.731 -0.4640 -0.7691  0.0200
 4799SOL    HW226034   3.791   3.632   1.632 -0.1632 -0.1112 -1.9738
 4800SOL     OW26035   3.012   4.139   9.029  0.4908  0.1513 -0.6706
 4800SOL    HW126036   3.086   4.199   9.043  2.2731 -2.0288 -0.6685
 4800SOL    HW226037   2.991   4.121   9.120 -2.0924  0.6273 -1.1934
 4801SOL     OW26038   0.975   4.413   1.735 -0.3388 -0.2131  0.5888
 4801SOL    HW126039   1.047   4.351   1.730 -1.0757 -1.2178  2.0489
 4801SOL    HW226040   0.932   4.390   1.818 -0.8198 -0.2300  0.3338
 4802SOL     OW26041   1.926   3.460   0.481  0.8748 -0.0006  0.1535
 4802SOL    HW126042   1.958   3.482   0.394  0.0071 -0.8673 -0.3769
 4802SOL    HW226043   1.986   3.392   0.511  0.3680 -0.5470 -0.0793
 4803SOL     OW26044   3.869   1.159   4.916  0.3112 -0.4885 -0.1730
 4803SOL    HW126045   3.888   1.232   4.856 -0.0041  1.4428  2.1154
 4803SOL    HW226046   3.883   1.085   4.858 -0.9482 -0.9488  0.1079
 4804SOL     OW26047   4.148   2.416   6.760 -0.2140  0.1537 -0.0252
 4804SOL    HW126048   4.164   2.483   6.827  3.3162  0.6453 -1.3675
 4804SOL    HW226049   4.058   2.398   6.787 -0.0240 -0.7965 -0.0411
 4805SOL     OW26050   3.306   2.029   6.036  0.0633 -0.1946 -0.3543
 4805SOL    HW126051   3.340   2.061   5.952 -0.0300 -1.0781 -0.7380
 4805SOL    HW226052   3.219   2.068   6.038 -0.4959 -1.3544 -1.6327
 4806SOL     OW26053   2.513   2.143   4.214  0.4325 -0.1833 -0.6456
 4806SOL    HW126054   2.560   2.106   4.288 -0.2360  0.7624  0.2504
 4806SOL    HW226055   2.585   2.184   4.166 -0.6276  1.4508 -0.8622
 4807SOL     OW26056   2.183   1.494   4.793  0.4209  0.0522 -0.3325
 4807SOL    HW126057   2.212   1.409   4.825 -0.9714  0.0910  1.0291
 4807SOL    HW226058   2.229   1.545   4.860 -0.1813  0.3490 -0.1460
 4808SOL     OW26059   0.401   3.987   4.993  0.2462  0.6323 -0.0289
 4808SOL    HW126060   0.357   4.072   4.992  1.8757  1.5250  2.8750
 4808SOL    HW226061   0.449   3.990   4.910  0.2373 -0.3537 -0.0637
 4809SOL     OW26062   1.128   4.094   8.983  0.2180  0.5232  0.1192
 4809SOL    HW126063   1.134   4.084   9.078  0.4242 -0.1246  0.0401
 4809SOL    HW226064   1.209   4.141   8.964 -1.6653  3.0119 -1.6027
 4810SOL     OW26065   1.942   2.439  16.323  0.1687  0.5109 -0.4515
 4810SOL    HW126066   1.936   2.534  16.334 -0.0787  0.2619  1.6599
 4810SOL    HW226067   1.872   2.430  16.258  0.2961  1.1626 -0.6809
 4811SOL     OW26068   1.640   3.404   8.635 -0.3018  1.0668  0.0805
 4811SOL    HW126069   1.598   3.430   8.553  2.7095 -0.3583 -1.9129
 4811SOL    HW226070   1.588   3.326   8.656  0.8938  0.7200  1.7301
 4812SOL     OW26071   2.978   2.022   2.709  0.4078  0.5520 -0.2442
 4812SOL    HW126072   2.973   1.931   2.680  1.7088  0.7325 -1.0506
 4812SOL    HW226073   2.934   2.068   2.638 -0.5497  0.3162  0.1938
 4813SOL     OW26074   3.001   4.282  12.714  0.1379  0.3887 -0.3974
 4813SOL    HW126075   3.082   4.255  12.757  0.5754  0.2034 -1.3326
 4813SOL    HW226076   2.938   4.221  12.752 -1.6640  1.6795 -1.2876
 4814SOL     OW26077   0.416   1.985   2.708 -0.2282 -0.0471 -0.0995
 4814SOL    HW126078   0.476   1.997   2.782 -1.9137  0.6340  1.1530
 4814SOL    HW226079   0.460   1.906   2.675  1.5776  1.2345 -0.7848
 4815SOL     OW26080   2.616   3.651  17.693  0.2976  0.5959 -0.6342
 4815SOL    HW126081   2.599   3.581  17.630  3.0188 -1.3110  0.7251
 4815SOL    HW226082   2.646   3.597   0.024 -0.7348  1.4324  0.3994
 4816SOL     OW26083   4.403   0.015   4.682 -0.1385 -0.4479  0.1660
 4816SOL    HW126084   4.459   0.050   4.613  0.4123  0.6036  1.1373
 4816SOL    HW226085   4.362   0.100   4.696 -0.8047 -0.4121 -2.0597
 4817SOL     OW26086   0.737   2.014  12.645  0.5639 -0.6455  0.0826
 4817SOL    HW126087   0.747   1.919  12.646 -1.6671 -0.9157 -4.3349
 4817SOL    HW226088   0.831   2.033  12.637  0.3851  1.2848  2.3525
 4818SOL     OW26089   2.574   4.348  16.372  0.4086 -0.1886 -0.1810
 4818SOL    HW126090   2.528   4.410  16.429  0.6612 -2.1798  2.2154
 4818SOL    HW226091   2.515   4.334  16.297  0.0066  1.7341 -0.2323
 4819SOL     OW26092   2.892   3.259   3.474 -0.0083  0.3656 -0.2512
 4819SOL    HW126093   2.867   3.207   3.398 -0.6112 -0.7630  0.7047
 4819SOL    HW226094   2.812   3.265   3.528 -0.1690 -0.1876 -0.4245
 4820SOL     OW26095   4.053   2.508  15.286 -0.4988  0.2946  0.9034
 4820SOL    HW126096   4.084   2.593  15.255 -0.3712 -0.3565 -0.7321
 4820SOL    HW226097   4.045   2.470  15.198  0.5742 -1.2070  1.4514
 4821SOL     OW26098   2.636   0.695   7.642 -0.2045 -0.2056  0.3230
 4821SOL    HW126099   2.591   0.618   7.607 -1.5335 -0.2838  2.1851
 4821SOL    HW226100   2.628   0.675   7.735  1.1036 -3.8203 -0.3207
 4822SOL     OW26101   3.241   2.016   6.676 -0.0585  0.7714  0.3661
 4822SOL    HW126102   3.213   2.105   6.694  0.5043  0.5151  2.5642
 4822SOL    HW226103   3.234   1.990   6.768 -2.1127  0.2495  0.0622
 4823SOL     OW26104   1.053   2.670   1.067  0.2275  0.2520  0.1523
 4823SOL    HW126105   1.140   2.637   1.044  0.9213  2.6655 -0.6589
 4823SOL    HW226106   1.004   2.631   0.995  1.1350 -2.6023  1.0622
 4824SOL     OW26107   2.922   3.674   0.810  0.5573  0.5169 -0.3630
 4824SOL    HW126108   2.889   3.764   0.805 -0.1704  0.2200 -0.8646
 4824SOL    HW226109   2.976   3.676   0.731  1.4706 -0.4352  0.2333
 4825SOL     OW26110   0.430   2.732   4.441  0.3761  0.7818  0.2645
 4825SOL    HW126111   0.488   2.662   4.411 -1.1238  0.7803 -2.6762
 4825SOL    HW226112   0.416   2.771   4.355 -0.2634 -0.3155 -0.1287
 4826SOL     OW26113   3.636   0.749   1.785  0.4787  0.1172 -0.0741
 4826SOL    HW126114   3.722   0.775   1.752 -0.2134  3.7676  0.9515
 4826SOL    HW226115   3.606   0.829   1.827  2.2338  0.6011  0.2750
 4827SOL     OW26116   1.369   4.011   8.176 -0.3848  0.0445 -0.4933
 4827SOL    HW126117   1.431   4.084   8.174  0.5032 -0.6386  1.8831
 4827SOL    HW226118   1.291   4.065   8.182 -0.2877  0.0050  1.2424
 4828SOL     OW26119   1.183   1.171   1.763  0.0170  0.1406  0.2575
 4828SOL    HW126120   1.215   1.147   1.851  2.6568 -1.7727 -1.2079
 4828SOL    HW226121   1.091   1.146   1.765  0.5579 -1.8457 -0.0072
 4829SOL     OW26122   4.075   3.593   5.718 -0.4144  0.0312 -0.0229
 4829SOL    HW126123   3.995   3.636   5.751  0.5642  2.8032 -1.2652
 4829SOL    HW226124   4.150   3.639   5.755 -1.0359  1.5809 -0.6721
 4830SOL     OW26125   2.905   1.408   7.268  0.2786 -0.4211 -0.1566
 4830SOL    HW126126   2.908   1.313   7.281 -2.5898 -0.3093  1.2330
 4830SOL    HW226127   2.990   1.427   7.308 -0.3636  0.9360  0.5623
 4831SOL     OW26128   2.254   1.709   7.715 -0.1777  0.4895  0.1687
 4831SOL    HW126129   2.297   1.683   7.796  0.2184  0.7138  0.0294
 4831SOL    HW226130   2.304   1.787   7.691 -0.7866  1.4061  1.9188
 4832SOL     OW26131   4.493   2.407   4.060 -0.5331 -0.2542  0.0935
 4832SOL    HW126132   4.399   2.408   4.044 -0.7145  0.1792  1.1821
 4832SOL    HW226133   4.503   2.315   4.083  2.2126 -0.6039 -2.4535
 4833SOL     OW26134   0.673   3.133   2.844 -0.1215 -0.3517  0.2849
 4833SOL    HW126135   0.688   3.226   2.863 -0.3398 -0.3288  0.3448
 4833SOL    HW226136   0.639   3.138   2.755 -1.6356 -1.9742  0.7760
 4834SOL     OW26137   2.381   3.849   1.290 -0.0886 -0.0240 -0.1808
 4834SOL    HW126138   2.389   3.761   1.327  0.4537  0.0629 -0.0985
 4834SOL    HW226139   2.412   3.842   1.200 -2.5868 -4.1284 -0.7432
 4835SOL     OW26140   2.420   1.225   1.548  0.4457  0.3763  0.2809
 4835SOL    HW126141   2.422   1.294   1.614 -0.8224  0.5544  0.1153
 4835SOL    HW226142   2.353   1.263   1.491 -0.1035 -3.3962 -1.6059
 4836SOL     OW26143   2.111   4.410   9.419 -0.2925  0.0142  0.3498
 4836SOL    HW126144   2.037   4.354   9.397  0.7211 -1.1326 -0.1218
 4836SOL    HW226145   2.104   4.490   9.367  1.9501  2.3422  3.5703
 4837SOL     OW26146   0.461   0.218   1.304 -0.7175  0.1436  0.3039
 4837SOL    HW126147   0.442   0.124   1.294  0.6739 -0.1537  0.4085
 4837SOL    HW226148   0.486   0.240   1.214  0.7089  0.1258  0.7019
 4838SOL     OW26149   3.531   3.827  14.493 -0.3118 -0.2497  0.5567
 4838SOL    HW126150   3.534   3.742  14.450  1.2262  1.0761 -1.9861
 4838SOL    HW226151   3.624   3.853  14.489  0.6748 -3.9654 -0.1867
 4839SOL     OW26152   3.391   1.254   0.502 -0.1515 -0.2624 -0.5138
 4839SOL    HW126153   3.311   1.300   0.477  0.7120  1.1957 -0.5288
 4839SOL    HW226154   3.421   1.226   0.416  2.8375 -1.6040  0.9715
 4840SOL     OW26155   4.415   0.771  12.879 -0.1490 -0.2906  0.0173
 4840SOL    HW126156   4.376   0.856  12.902  0.7650  0.3823 -0.9182
 4840SOL    HW226157   4.343   0.710  12.865 -0.4300 -0.1875  0.9578
 4841SOL     OW26158   3.124   3.647   8.058 -0.6435 -0.7730 -0.3907
 4841SOL    HW126159   3.157   3.731   8.090  1.8721 -2.0177  0.2741
 4841SOL    HW226160   3.040   3.675   8.021 -0.7146  1.0499  1.1221
 4842SOL     OW26161   3.102   0.297   1.560  0.1225 -0.3968  0.6153
 4842SOL    HW126162   3.146   0.289   1.476  2.0831 -1.3640  1.7358
 4842SOL    HW226163   3.152   0.365   1.605  0.5150 -0.0642 -0.3261
 4843SOL     OW26164   1.073   2.351  12.625  0.0581  0.2273 -0.0832
 4843SOL    HW126165   1.082   2.411  12.551  0.4645  1.7090  1.1833
 4843SOL    HW226166   1.157   2.344  12.670 -0.4732  0.6034  0.9633
 4844SOL     OW26167   0.690   4.566   1.995  0.2901 -0.2831 -0.8911
 4844SOL    HW126168   0.610   4.560   1.943 -1.0284 -2.7948  1.4120
 4844SOL    HW226169   0.652   4.609   2.071 -0.3659 -0.7080 -0.9748
 4845SOL     OW26170   2.678   4.417   6.373  0.0711  0.3150 -0.1585
 4845SOL    HW126171   2.603   4.381   6.421 -0.0222  0.2730 -0.3383
 4845SOL    HW226172   2.641   4.501   6.346  1.9732  1.0144 -0.5931
 4846SOL     OW26173   0.819   3.072  14.413 -0.0554 -0.2935 -0.5798
 4846SOL    HW126174   0.763   3.149  14.400  0.5106  0.0195 -1.2104
 4846SOL    HW226175   0.754   3.002  14.405  0.3145 -0.5474 -1.4299
 4847SOL     OW26176   4.096   1.328   9.130 -0.3377 -0.2974  0.6496
 4847SOL    HW126177   4.151   1.357   9.058 -1.8785  1.5476  0.1900
 4847SOL    HW226178   4.008   1.338   9.094 -0.4533 -1.0873  0.7275
 4848SOL     OW26179   3.408   2.320   4.638 -0.4691  0.1318 -0.0914
 4848SOL    HW126180   3.445   2.254   4.697 -0.8729  0.0238  0.0437
 4848SOL    HW226181   3.346   2.275   4.581  0.3724  0.3384 -1.1770
 4849SOL     OW26182   1.674   0.871   5.593  0.4268 -0.4482  0.5657
 4849SOL    HW126183   1.701   0.796   5.540 -2.5397  0.3933 -2.1156
 4849SOL    HW226184   1.582   0.885   5.573  0.6774  0.3821  0.0071
 4850SOL     OW26185   2.663   0.900   3.585  0.0784  0.2234  0.2539
 4850SOL    HW126186   2.725   0.841   3.627  0.4913 -0.1179 -0.8340
 4850SOL    HW226187   2.667   0.983   3.633  1.3004  0.3337 -0.0504
 4851SOL     OW26188   1.240   3.363   3.138  0.1633  0.4513  0.1286
 4851SOL    HW126189   1.187   3.355   3.217 -0.0936  1.1910  0.0323
 4851SOL    HW226190   1.279   3.450   3.151 -1.2046  0.9374  0.9201
 4852SOL     OW26191   4.500   0.875   0.881  0.1587 -0.3845  0.1877
 4852SOL    HW126192   4.530   0.921   0.960 -1.6997  0.5235  0.3594
 4852SOL    HW226193   4.453   0.804   0.926 -2.7713  0.6160 -1.3285
 4853SOL     OW26194   3.278   4.496   7.232  0.5714 -0.2198 -0.0561
 4853SOL    HW126195   3.243   4.412   7.204 -0.3449 -0.2228  1.1041
 4853SOL    HW226196   3.193   4.525   7.265 -0.1763 -1.3567 -0.9871
 4854SOL     OW26197   3.874   2.175  12.723  0.0195 -0.4694 -0.3378
 4854SOL    HW126198   3.924   2.177  12.642 -1.7571 -0.8846 -1.4531
 4854SOL    HW226199   3.918   2.206  12.802 -0.9820  0.0873  0.0033
 4855SOL     OW26200   1.448   0.650   5.276 -0.0904  0.1134 -0.3786
 4855SOL    HW126201   1.424   0.742   5.274 -0.6892 -0.0106  1.0098
 4855SOL    HW226202   1.420   0.624   5.188 -2.6262 -1.9907  1.0277
 4856SOL     OW26203   3.955   3.868  14.827 -0.3444  0.1707 -0.1220
 4856SOL    HW126204   4.047   3.875  14.853 -0.2258 -0.3395 -0.4097
 4856SOL    HW226205   3.934   3.956  14.794 -2.8874 -0.1242  0.7380
 4857SOL     OW26206   3.787   2.839   1.790  0.5728  0.0726 -0.0994
 4857SOL    HW126207   3.811   2.888   1.711  0.7872 -0.0126 -0.0864
 4857SOL    HW226208   3.753   2.907   1.849 -0.4938  1.2268 -2.0248
 4858SOL     OW26209   2.418   3.683   4.794  0.3321 -0.3120 -0.1454
 4858SOL    HW126210   2.477   3.670   4.869 -0.2215 -0.6303  0.2393
 4858SOL    HW226211   2.338   3.637   4.818  0.4244  0.3267  1.3945
 4859SOL     OW26212   4.363   0.453   7.299  0.0129 -0.5676 -0.4400
 4859SOL    HW126213   4.376   0.403   7.218  2.5123  1.4098 -1.2553
 4859SOL    HW226214   4.443   0.502   7.319 -0.4987  0.8209 -1.7689
 4860SOL     OW26215   1.639   0.506   9.134  0.0524  0.4611  0.3116
 4860SOL    HW126216   1.631   0.519   9.039 -0.0306  0.2866  0.2948
 4860SOL    HW226217   1.556   0.463   9.156 -0.0978  1.5695  1.9203
 4861SOL     OW26218   0.582   2.895   7.155  0.6779 -0.1812  0.0338
 4861SOL    HW126219   0.591   2.866   7.064 -3.1845 -2.4116  0.3757
 4861SOL    HW226220   0.566   2.808   7.192 -0.2811 -0.2189 -0.4672
 4862SOL     OW26221   2.755   0.866   4.244 -0.5876  0.0695 -0.0569
 4862SOL    HW126222   2.725   0.941   4.295  0.7097  1.1483 -0.9235
 4862SOL    HW226223   2.845   0.894   4.233 -1.0490  0.8777 -1.7434
 4863SOL     OW26224   3.770   4.686   4.332 -0.5387 -0.3333  0.2642
 4863SOL    HW126225   3.727   4.606   4.362  0.3089 -0.7441  0.3930
 4863SOL    HW226226   3.800   4.670   4.243  1.3030 -1.3116  1.0556
 4864SOL     OW26227   0.611   4.409   6.153  0.1308  0.3285  0.2285
 4864SOL    HW126228   0.667   4.356   6.095  2.0069  0.7500  1.6281
 4864SOL    HW226229   0.573   4.476   6.097  1.8809  0.0309 -1.3320
 4865SOL     OW26230   3.203   0.302   3.289  0.2172 -0.2132  0.5176
 4865SOL    HW126231   3.186   0.396   3.300  0.7365 -0.0070 -0.4215
 4865SOL    HW226232   3.290   0.298   3.250 -0.3057 -0.7720 -0.6194
 4866SOL     OW26233   2.906   4.477   7.511  0.2991  0.0498  0.1153
 4866SOL    HW126234   2.823   4.432   7.493 -0.1753  0.9528  0.0074
 4866SOL    HW226235   2.964   4.404   7.491  1.8390  0.7041  2.2640
 4867SOL     OW26236   1.989   0.274   7.243  0.4270 -0.0188  0.3148
 4867SOL    HW126237   1.923   0.217   7.283  1.7031 -1.8189 -0.1789
 4867SOL    HW226238   1.937   0.353   7.229 -0.6685 -0.7475  0.2281
 4868SOL     OW26239   2.173   1.859  14.766  0.7373  0.4128 -0.7916
 4868SOL    HW126240   2.251   1.901  14.728  0.4854  1.1139 -0.5268
 4868SOL    HW226241   2.197   1.847  14.858 -1.8177 -1.0242 -0.3230
 4869SOL     OW26242   2.041   2.148   8.482 -0.8337  0.5599 -0.1052
 4869SOL    HW126243   2.000   2.091   8.546  1.4987 -2.1979 -1.0892
 4869SOL    HW226244   2.067   2.211   8.550 -0.2632  0.2945 -0.0791
 4870SOL     OW26245   4.188   1.072   2.491 -0.1005  0.4299 -0.5777
 4870SOL    HW126246   4.265   1.103   2.442  0.8325  0.9956  1.2473
 4870SOL    HW226247   4.231   0.998   2.534 -1.2631  0.6853  0.9842
 4871SOL     OW26248   0.172   0.630   8.496 -0.0053 -0.0276  0.0368
 4871SOL    HW126249   0.231   0.559   8.519  0.9887  0.9321  0.4500
 4871SOL    HW226250   0.224   0.710   8.506  0.5061 -0.1875 -1.2789
 4872SOL     OW26251   1.924   3.243  14.489  0.5083 -0.0140 -0.0882
 4872SOL    HW126252   1.905   3.184  14.562 -1.6312  0.7473 -0.0546
 4872SOL    HW226253   1.996   3.297  14.521  1.6615 -1.5527 -0.0685
 4873SOL     OW26254   1.730   0.650  17.530 -0.1041 -0.0030 -0.3024
 4873SOL    HW126255   1.745   0.678  17.620 -0.8667  0.2500 -0.2557
 4873SOL    HW226256   1.818   0.619  17.508  1.1452  2.2603  1.5186
 4874SOL     OW26257   4.489   2.735   4.963  0.5915  0.0535 -0.5828
 4874SOL    HW126258   4.561   2.758   5.022  1.0062  2.1639 -1.9280
 4874SOL    HW226259   4.532   2.704   4.883 -0.3191  0.9262 -1.4106
 4875SOL     OW26260   4.037   2.301   1.105  0.0181  0.0477 -0.1628
 4875SOL    HW126261   3.992   2.218   1.121  1.1000 -0.1073  2.0705
 4875SOL    HW226262   3.980   2.344   1.042 -0.0053 -3.1424 -2.2865
 4876SOL     OW26263   4.155   4.286   0.138  0.2747 -0.1102  0.7713
 4876SOL    HW126264   4.096   4.255   0.070  0.3269 -1.5214  1.3522
 4876SOL    HW226265   4.206   4.340   0.078  0.5290 -0.5815  0.5577
 4877SOL     OW26266   4.584   1.724  11.469  0.4536 -0.4171 -0.3926
 4877SOL    HW126267   4.543   1.666  11.533  1.5839  0.7910  1.4179
 4877SOL    HW226268   4.629   1.666  11.407 -0.3141 -0.4364 -0.9215
 4878SOL     OW26269   1.742   3.119  14.930 -0.4635  0.3687 -0.2912
 4878SOL    HW126270   1.667   3.173  14.954 -0.8083  0.6962 -2.1246
 4878SOL    HW226271   1.703   3.034  14.910 -0.6379  0.6238 -1.0275
 4879SOL     OW26272   1.391   1.251   5.093 -0.1477  0.4198  0.5255
 4879SOL    HW126273   1.482   1.250   5.064 -0.2278 -3.0553  0.3645
 4879SOL    HW226274   1.366   1.158   5.099 -1.3138  0.7349  0.6276
 4880SOL     OW26275   4.363   3.905   7.354  0.0285 -0.0404  0.1746
 4880SOL    HW126276   4.335   3.902   7.446 -0.0774 -0.0672  0.1416
 4880SOL    HW226277   4.303   3.837   7.323 -0.7635  0.9742 -0.5486
 4881SOL     OW26278   3.979   0.560   4.797 -0.3225 -0.1614 -0.5220
 4881SOL    HW126279   3.954   0.490   4.736  1.0856  0.3815 -1.7139
 4881SOL    HW226280   3.996   0.502   4.872  1.5088 -0.6827 -1.3407
 4882SOL     OW26281   2.893   0.645   4.639 -0.2014  0.0976 -0.9545
 4882SOL    HW126282   2.839   0.568   4.657  0.0520  0.0438 -0.3898
 4882SOL    HW226283   2.826   0.702   4.603  0.5925  1.4692 -0.2730
 4883SOL     OW26284   1.035   0.068   1.389  0.0754 -0.0605  0.2674
 4883SOL    HW126285   0.951   0.111   1.409  1.3227  2.1160  0.8164
 4883SOL    HW226286   1.030   4.734   1.454  0.5770  0.0010  0.3695
 4884SOL     OW26287   2.700   2.171   9.507  0.1473 -0.1118  0.7000
 4884SOL    HW126288   2.781   2.193   9.552 -0.1058 -0.2714  1.2270
 4884SOL    HW226289   2.728   2.183   9.416 -1.6479  1.6101  0.3789
 4885SOL     OW26290   0.105   4.675   5.512  0.1093 -0.2615 -0.7373
 4885SOL    HW126291   0.078   4.730   5.438 -1.1435  1.3948  0.9563
 4885SOL    HW226292   0.047   4.707   5.581  1.9043  1.3360  0.0330
 4886SOL     OW26293   1.198   0.930   1.382 -0.0806 -0.4343 -0.1400
 4886SOL    HW126294   1.108   0.963   1.388  0.1891  0.5103 -1.3427
 4886SOL    HW226295   1.253   0.994   1.427 -1.4720  0.4658  0.2667
 4887SOL     OW26296   4.284   1.480   4.086  0.1744  0.0169 -0.2234
 4887SOL    HW126297   4.260   1.515   4.000 -1.1393 -0.6039 -0.1099
 4887SOL    HW226298   4.373   1.513   4.069 -0.4862  0.4579 -2.7589
 4888SOL     OW26299   0.762   2.525   7.745 -0.3004 -0.5636  0.0472
 4888SOL    HW126300   0.720   2.447   7.780 -0.5608 -1.8309 -3.1149
 4888SOL    HW226301   0.786   2.574   7.824  0.0122 -0.0829 -0.3450
 4889SOL     OW26302   0.400   0.497   6.046 -0.2444  0.5138 -0.1577
 4889SOL    HW126303   0.493   0.492   6.068 -0.1318 -0.7019 -0.9031
 4889SOL    HW226304   0.405   0.425   5.982 -0.2648  2.1925 -2.0421
 4890SOL     OW26305   3.432   0.031   3.262 -0.1119 -0.1160  0.5996
 4890SOL    HW126306   3.416   0.107   3.207  4.4334  0.4333 -0.0119
 4890SOL    HW226307   3.341   0.013   3.284  0.0133 -2.7887 -1.0959
 4891SOL     OW26308   4.455   2.098  11.406  0.1292  0.2687 -0.0076
 4891SOL    HW126309   4.524   2.063  11.463 -0.4716  1.3208  1.3401
 4891SOL    HW226310   4.382   2.075  11.463  0.3819 -0.9381 -0.1565
 4892SOL     OW26311   1.916   0.322   4.061 -0.6670 -0.3018  0.4366
 4892SOL    HW126312   1.985   0.385   4.040 -2.2186  1.2254 -0.0372
 4892SOL    HW226313   1.847   0.357   4.005 -2.0281  1.7212  3.3482
 4893SOL     OW26314   1.327   2.320   5.842 -0.0973  0.6145  0.2836
 4893SOL    HW126315   1.360   2.342   5.755 -0.9222 -1.9372 -0.6812
 4893SOL    HW226316   1.412   2.304   5.882  0.2510 -0.0290 -0.6913
 4894SOL     OW26317   1.705   4.450   1.781  0.3327  0.0335  0.0596
 4894SOL    HW126318   1.789   4.405   1.786  0.8531  0.9896  0.0398
 4894SOL    HW226319   1.655   4.420   1.856  0.9582 -2.3813 -0.4935
 4895SOL     OW26320   4.244   1.366   7.388 -0.4289  0.3438  0.2423
 4895SOL    HW126321   4.268   1.458   7.401 -0.6012  0.7419 -2.2475
 4895SOL    HW226322   4.150   1.351   7.374 -0.8880  0.8161  2.7670
 4896SOL     OW26323   3.591   3.140   7.795 -0.1397 -0.2621  0.3133
 4896SOL    HW126324   3.601   3.082   7.719  0.9703 -0.1689  0.3917
 4896SOL    HW226325   3.601   3.223   7.750  1.8023 -1.6293 -1.7292
 4897SOL     OW26326   3.475   3.761  13.478  0.3351 -0.1784  0.0022
 4897SOL    HW126327   3.511   3.805  13.401 -0.4754 -2.2190 -1.5398
 4897SOL    HW226328   3.380   3.769  13.469  0.4868 -1.3338 -2.6626
 4898SOL     OW26329   1.542   2.039   3.405  0.5532 -0.7842  0.1668
 4898SOL    HW126330   1.452   2.023   3.431  0.6514  1.3086  1.7699
 4898SOL    HW226331   1.562   1.959   3.355 -1.1927 -0.0408 -1.7320
 4899SOL     OW26332   2.656   3.322   6.821  0.4801  0.0293 -0.4555
 4899SOL    HW126333   2.657   3.321   6.917  0.8688 -1.5928 -0.4691
 4899SOL    HW226334   2.727   3.260   6.802  1.1442  0.7330 -0.2860
 4900SOL     OW26335   4.355   2.242  16.758  0.0868  0.1576 -0.5168
 4900SOL    HW126336   4.268   2.203  16.760 -0.1056  0.5232 -1.7472
 4900SOL    HW226337   4.364   2.241  16.663  1.5041 -2.2798 -0.3858
 4901SOL     OW26338   4.308   1.368   6.175 -0.3179 -0.3121  0.0450
 4901SOL    HW126339   4.219   1.396   6.197  0.0764 -0.3648  1.6760
 4901SOL    HW226340   4.362   1.429   6.225 -0.7354  0.1696 -0.0856
 4902SOL     OW26341   1.945   0.312   4.921 -0.7021  0.4370  0.2117
 4902SOL    HW126342   1.885   0.381   4.949 -0.5860  0.9702 -0.8217
 4902SOL    HW226343   2.024   0.364   4.934  0.8083 -1.1771 -2.3741
 4903SOL     OW26344   0.634   4.687   8.896 -0.2605  0.1350  0.2389
 4903SOL    HW126345   0.603   4.603   8.863 -0.0913 -0.4162  1.4992
 4903SOL    HW226346   0.554   0.000   8.915  0.0021  0.2183  1.1266
 4904SOL     OW26347   3.360   1.174  10.997  0.0162  0.0090  0.5593
 4904SOL    HW126348   3.306   1.110  10.950  2.6131 -0.7648 -1.3587
 4904SOL    HW226349   3.382   1.237  10.928  0.7568  0.9499  1.6627
 4905SOL     OW26350   3.148   0.807   3.335  0.0043 -0.3517  0.3657
 4905SOL    HW126351   3.090   0.830   3.408  0.3004  2.0948 -0.1411
 4905SOL    HW226352   3.226   0.859   3.353 -2.2230  3.2377 -0.3311
 4906SOL     OW26353   2.175   2.737   5.755  0.2116 -0.1407  0.3187
 4906SOL    HW126354   2.194   2.707   5.666  2.7341  2.4330 -0.0065
 4906SOL    HW226355   2.257   2.781   5.778  0.2323  0.9411 -1.9095
 4907SOL     OW26356   2.026   0.884   2.943  0.2545  0.6703 -0.3175
 4907SOL    HW126357   2.077   0.936   3.005  0.9044  0.4610 -0.6826
 4907SOL    HW226358   1.939   0.886   2.985 -0.0310 -0.9602 -0.8363
 4908SOL     OW26359   0.080   0.008   8.185  0.3911 -0.2202 -0.9451
 4908SOL    HW126360   4.734   4.704   8.155  0.9032 -0.7033 -1.6911
 4908SOL    HW226361   0.065   0.099   8.159  1.7635  1.1747  3.2796
 4909SOL     OW26362   1.255   0.655   4.406  0.0018 -0.8432 -0.2591
 4909SOL    HW126363   1.326   0.621   4.351 -0.0904  0.1209 -0.9750
 4909SOL    HW226364   1.181   0.602   4.376 -0.3711 -0.0884 -0.6699
 4910SOL     OW26365   2.473   1.157   6.977  0.2469  0.3908 -0.5156
 4910SOL    HW126366   2.473   1.107   7.058 -2.5909 -0.3695 -0.9939
 4910SOL    HW226367   2.388   1.199   6.991 -0.6973 -1.5636 -0.4193
 4911SOL     OW26368   3.311   0.569   3.867 -0.5759 -0.2970 -0.1979
 4911SOL    HW126369   3.292   0.632   3.937  1.8443  1.4861 -1.1215
 4911SOL    HW226370   3.235   0.520   3.837 -0.2416 -0.6013 -0.5365
 4912SOL     OW26371   2.807   0.649   2.246 -0.5842  0.5674 -0.0525
 4912SOL    HW126372   2.780   0.640   2.155 -1.0960 -0.3354  0.1907
 4912SOL    HW226373   2.901   0.666   2.247 -0.5912  0.6970 -1.3605
 4913SOL     OW26374   2.260   3.254  12.895  0.0256 -0.4843  0.0912
 4913SOL    HW126375   2.333   3.271  12.955  0.3604 -1.4611 -0.0381
 4913SOL    HW226376   2.227   3.174  12.936 -0.6172  1.2221  2.9054
 4914SOL     OW26377   4.372   0.252   0.545  0.5124 -0.1895 -0.1259
 4914SOL    HW126378   4.445   0.313   0.558  0.8631 -0.9650  1.5966
 4914SOL    HW226379   4.303   0.296   0.594  0.7336  0.1862 -0.1489
 4915SOL     OW26380   3.345   1.031  13.552  0.2126  0.6268 -0.6850
 4915SOL    HW126381   3.251   1.019  13.565 -0.0632  0.3144 -2.9355
 4915SOL    HW226382   3.380   0.943  13.539 -0.1805  0.6604 -2.0352
 4916SOL     OW26383   1.988   2.213  16.001  0.4278 -0.1402 -0.2858
 4916SOL    HW126384   2.002   2.191  15.909  1.7648 -0.9996  0.1248
 4916SOL    HW226385   1.929   2.147  16.036 -1.0691  2.0005  1.1698
 4917SOL     OW26386   1.982   3.402   5.924 -0.1272  0.5192  0.1334
 4917SOL    HW126387   1.905   3.458   5.914 -0.2163  0.6054  1.3450
 4917SOL    HW226388   2.045   3.452   5.870  1.5045  0.1555  1.7103
 4918SOL     OW26389   4.715   4.081   4.279  0.1044 -0.6037  0.0142
 4918SOL    HW126390   4.629   4.041   4.292 -1.1416  2.1799  0.3103
 4918SOL    HW226391   4.698   4.159   4.226  1.5670  1.1706  2.2145
 4919SOL     OW26392   4.237   2.115  11.696 -0.1857 -0.0634 -0.3164
 4919SOL    HW126393   4.150   2.097  11.659 -0.4107  0.8247 -0.2076
 4919SOL    HW226394   4.254   2.029  11.734  0.0883  0.9204  1.7899
 4920SOL     OW26395   3.856   2.099   1.135  0.1694 -0.6868  0.1957
 4920SOL    HW126396   3.878   2.019   1.183  2.1463  2.0245  3.8320
 4920SOL    HW226397   3.787   2.061   1.081 -0.7634 -0.3909  1.1634
 4921SOL     OW26398   0.750   0.690   8.346  0.0274  0.5715 -0.0011
 4921SOL    HW126399   0.752   0.596   8.331  0.1599  0.8992 -1.9815
 4921SOL    HW226400   0.696   0.725   8.276 -0.4013  4.2442  2.1453
 4922SOL     OW26401   2.149   4.185   9.621 -0.0104  0.1023  0.1357
 4922SOL    HW126402   2.171   4.119   9.556 -0.6553  0.8734 -0.8754
 4922SOL    HW226403   2.168   4.259   9.563 -1.0385  0.7003  0.5737
 4923SOL     OW26404   0.094   3.926   9.173  0.6182  0.4131 -0.0348
 4923SOL    HW126405   0.124   3.837   9.191  1.1509  0.4495 -0.7466
 4923SOL    HW226406   0.107   3.982   9.249 -1.1296 -0.9633  1.2912
 4924SOL     OW26407   2.389   3.672   9.658  0.0472 -0.9993 -0.7159
 4924SOL    HW126408   2.474   3.692   9.698 -0.3388 -0.5881 -0.0950
 4924SOL    HW226409   2.345   3.618   9.723 -0.5553 -0.2619 -0.5035
 4925SOL     OW26410   3.822   4.331   2.648 -0.1974  0.2588  0.0764
 4925SOL    HW126411   3.765   4.400   2.613 -0.3901 -0.7894 -1.6701
 4925SOL    HW226412   3.768   4.289   2.716  0.7783  1.6216  1.6953
 4926SOL     OW26413   3.212   3.259   7.179 -0.8582 -0.5900  0.2478
 4926SOL    HW126414   3.161   3.324   7.228 -0.5688 -0.9344  1.0078
 4926SOL    HW226415   3.155   3.237   7.105 -0.4022  0.9125 -0.5400
 4927SOL     OW26416   3.037   2.721   8.802  0.5947  0.5990 -0.2700
 4927SOL    HW126417   3.078   2.748   8.884 -0.1103 -0.0223  0.2956
 4927SOL    HW226418   3.112   2.708   8.744 -1.7148  0.3234 -3.1872
 4928SOL     OW26419   3.123   3.420   9.510  0.1280  0.2018 -0.1983
 4928SOL    HW126420   3.039   3.444   9.473 -0.5701 -2.7451 -0.5230
 4928SOL    HW226421   3.097   3.357   9.578  4.2293 -0.9137  0.3389
 4929SOL     OW26422   2.974   4.375   5.478 -0.3021 -0.2710  0.2753
 4929SOL    HW126423   3.024   4.299   5.449  0.5061 -0.4748  2.2046
 4929SOL    HW226424   2.912   4.377   5.404  0.3595  1.8652 -0.2403
 4930SOL     OW26425   1.399   0.440   6.494 -0.0631  0.5039 -0.0395
 4930SOL    HW126426   1.485   0.399   6.485 -1.0050 -1.5804  0.4225
 4930SOL    HW226427   1.426   0.516   6.546  1.0328 -0.2189  0.4660
 4931SOL     OW26428   0.533   4.032  15.306 -0.3827  0.1896 -0.0981
 4931SOL    HW126429   0.601   3.965  15.315  0.3166  0.8711 -0.3017
 4931SOL    HW226430   0.523   4.027  15.211 -2.3547 -0.2528  0.1258
 4932SOL     OW26431   0.295   1.121  14.328 -0.2710 -0.3903 -0.0924
 4932SOL    HW126432   0.286   1.163  14.242 -1.8075  0.2248  0.3661
 4932SOL    HW226433   0.320   1.192  14.387 -1.2068 -0.0403 -0.1181
 4933SOL     OW26434   0.139   0.662   5.993 -0.0174 -0.2285 -0.0268
 4933SOL    HW126435   0.115   0.572   5.973 -0.3909  0.4061 -2.4343
 4933SOL    HW226436   0.079   0.712   5.937  0.0700 -0.2963 -0.1819
 4934SOL     OW26437   4.537   0.291  17.215 -0.2153 -0.1714 -1.1467
 4934SOL    HW126438   4.585   0.217  17.253  2.2054  2.6746  1.3413
 4934SOL    HW226439   4.518   0.333  17.299 -1.5338 -0.1154 -1.4739
 4935SOL     OW26440   2.808   2.381   5.645 -0.1836 -0.0186  0.0829
 4935SOL    HW126441   2.732   2.439   5.657 -1.9872 -2.0546 -1.4054
 4935SOL    HW226442   2.869   2.443   5.684  0.5879 -1.6487  1.4570
 4936SOL     OW26443   4.611   4.277  15.901 -0.2525  0.1044  0.7496
 4936SOL    HW126444   4.560   4.314  15.829  0.7858 -1.4280 -0.7738
 4936SOL    HW226445   4.549   4.210  15.931  2.0225 -2.0090  0.7211
 4937SOL     OW26446   0.896   0.550  14.646 -0.2632 -0.0365 -0.0190
 4937SOL    HW126447   0.881   0.509  14.560  2.9983  1.2456 -1.2052
 4937SOL    HW226448   0.808   0.551  14.683  0.2803 -0.4292  1.2801
 4938SOL     OW26449   0.828   0.553  16.829 -0.7365  0.0655 -0.0196
 4938SOL    HW126450   0.770   0.500  16.774 -0.0969 -0.1066 -0.5334
 4938SOL    HW226451   0.889   0.491  16.870 -0.4614 -0.9020 -1.8870
 4939SOL     OW26452   0.188   0.021   1.243 -0.0978  0.3114  0.0509
 4939SOL    HW126453   0.149   4.671   1.226  0.5401 -0.0595  0.4804
 4939SOL    HW226454   0.272   4.731   1.279  0.2112  0.5789 -0.4800
 4940SOL     OW26455   4.248   0.990   1.000 -0.0765 -0.0478 -0.0859
 4940SOL    HW126456   4.319   0.975   0.938  0.9337  0.0018  1.0415
 4940SOL    HW226457   4.291   1.030   1.076 -1.6855  2.1982 -0.3528
 4941SOL     OW26458   0.743   1.104   7.026 -0.0905 -0.5719  0.2352
 4941SOL    HW126459   0.681   1.042   6.987 -0.6104  0.8997 -1.2705
 4941SOL    HW226460   0.733   1.163   6.951 -0.9388 -0.6027  0.3197
 4942SOL     OW26461   3.166   1.787  16.903  0.3211 -0.0184 -0.6072
 4942SOL    HW126462   3.123   1.814  16.984  0.1145 -2.6222  0.1586
 4942SOL    HW226463   3.171   1.875  16.867 -1.2972 -0.6324 -2.3284
 4943SOL     OW26464   3.933   1.556   1.583 -0.4844  0.3037  0.0800
 4943SOL    HW126465   3.857   1.569   1.526 -0.4612 -0.2728 -0.0805
 4943SOL    HW226466   3.924   1.636   1.635 -2.6226  0.6476 -0.8311
 4944SOL     OW26467   0.022   3.485   5.431  0.1986 -0.0980 -0.1365
 4944SOL    HW126468   4.700   3.457   5.502  0.8450  2.0228  1.2184
 4944SOL    HW226469   0.007   3.579   5.442 -0.3288 -0.1675 -0.2736
 4945SOL     OW26470   3.997   3.451   1.836 -0.6126  0.8144  0.3128
 4945SOL    HW126471   4.054   3.420   1.765 -1.5172  0.5683 -0.3069
 4945SOL    HW226472   4.051   3.433   1.913 -0.5745 -1.5303 -0.2743
 4946SOL     OW26473   4.719   3.088   5.754  0.0815  0.3920 -0.1781
 4946SOL    HW126474   4.678   3.091   5.841  1.1762  1.9554  0.2951
 4946SOL    HW226475   4.643   3.073   5.697 -0.4318 -1.7213  1.0661
 4947SOL     OW26476   0.756   4.288   9.157 -0.3777 -0.7306 -0.8816
 4947SOL    HW126477   0.738   4.194   9.158 -1.7753 -0.4664 -0.6608
 4947SOL    HW226478   0.687   4.314   9.096  0.3687  1.3408 -0.8663
 4948SOL     OW26479   2.789   4.136   6.033 -0.0004 -0.1915  0.8303
 4948SOL    HW126480   2.710   4.139   5.979  0.2299  1.2032  0.5795
 4948SOL    HW226481   2.848   4.129   5.957 -0.7641  0.5517  0.1736
 4949SOL     OW26482   3.146   1.007   6.363  0.0849 -0.2071  0.2899
 4949SOL    HW126483   3.140   0.982   6.271  0.2284  2.3301 -0.4135
 4949SOL    HW226484   3.116   0.925   6.401 -0.7781  1.0710  2.3901
 4950SOL     OW26485   1.277   3.178   1.814  0.3340 -0.0100  0.3953
 4950SOL    HW126486   1.199   3.201   1.865  0.2671  2.9175 -1.0436
 4950SOL    HW226487   1.295   3.255   1.759 -2.4328  1.0293  0.9524
 4951SOL     OW26488   2.116   2.886   1.428 -0.4946 -0.1111 -0.1608
 4951SOL    HW126489   2.194   2.903   1.376 -0.6305 -1.1667 -0.7030
 4951SOL    HW226490   2.108   2.972   1.470 -3.0661 -0.4662  0.0872
 4952SOL     OW26491   0.585   1.624   8.750  0.2221 -0.3176  0.0610
 4952SOL    HW126492   0.630   1.643   8.832 -3.5468  1.1029  1.7861
 4952SOL    HW226493   0.663   1.631   8.695  1.7603  0.3250  2.3092
 4953SOL     OW26494   0.121   2.001   2.722 -0.6258 -0.3859 -0.1895
 4953SOL    HW126495   0.210   1.965   2.730 -0.0404  0.2000 -3.8756
 4953SOL    HW226496   0.141   2.060   2.649  0.1600 -0.4699 -0.0468
 4954SOL     OW26497   1.857   3.461  10.522 -0.3699 -0.2419  0.0944
 4954SOL    HW126498   1.829   3.375  10.553 -0.3980 -0.2537  0.0370
 4954SOL    HW226499   1.797   3.524  10.563 -2.9363 -1.5007 -1.6714
 4955SOL     OW26500   3.731   3.873   7.361 -0.2432 -0.3901  0.3432
 4955SOL    HW126501   3.754   3.960   7.327  0.5948 -0.9409 -0.4895
 4955SOL    HW226502   3.814   3.827   7.367 -1.2032 -2.2420 -0.6823
 4956SOL     OW26503   3.354   1.052   8.695  0.0556 -0.1171  0.5208
 4956SOL    HW126504   3.450   1.048   8.699  0.0780 -0.4203 -0.2877
 4956SOL    HW226505   3.335   1.117   8.627  1.4204  1.6575  1.8290
 4957SOL     OW26506   1.162   1.160  15.978  0.1930  0.1711  0.0681
 4957SOL    HW126507   1.159   1.127  16.068 -1.7945 -0.3303 -0.1727
 4957SOL    HW226508   1.138   1.086  15.922 -0.5877  0.8247 -0.4617
 4958SOL     OW26509   0.287   1.820   0.189 -0.2160  0.0846 -0.2767
 4958SOL    HW126510   0.375   1.857   0.178  0.2676 -0.3543  2.0198
 4958SOL    HW226511   0.250   1.898   0.231  0.1801  0.8580 -1.3582
 4959SOL     OW26512   4.006   1.026   4.272 -0.0807  0.3591  0.0165
 4959SOL    HW126513   3.942   1.085   4.233  0.0765  0.0964 -0.6494
 4959SOL    HW226514   4.085   1.047   4.222  0.4311 -0.5907  0.4130
 4960SOL     OW26515   3.912   0.574   8.228  0.0764 -0.2144  0.3852
 4960SOL    HW126516   3.862   0.519   8.168 -0.0332  0.1693  0.1263
 4960SOL    HW226517   3.843   0.635   8.254 -0.4550 -0.2448 -0.9710
 4961SOL     OW26518   3.360   4.714   2.841  0.7051  0.2323  0.1947
 4961SOL    HW126519   3.327   4.735   2.929 -1.4938 -0.7635 -0.3712
 4961SOL    HW226520   3.326   0.046   2.784 -0.1423  0.0722  0.4978
 4962SOL     OW26521   1.717   2.610   7.050  0.0831  0.1311  0.0814
 4962SOL    HW126522   1.721   2.661   7.130  0.6756 -0.8928  0.7003
 4962SOL    HW226523   1.631   2.624   7.011 -1.4103 -1.7511  2.7443
 4963SOL     OW26524   2.909   2.245  12.245 -0.4954 -0.1636 -0.1664
 4963SOL    HW126525   2.887   2.158  12.212 -1.1327  0.3653 -1.1286
 4963SOL    HW226526   2.981   2.226  12.306 -0.3908  1.7444  0.3172
 4964SOL     OW26527   3.739   3.022   2.821 -0.2703  0.4288 -0.1174
 4964SOL    HW126528   3.811   3.055   2.875 -0.8279  0.2882  0.7140
 4964SOL    HW226529   3.781   2.968   2.754 -1.3159  1.3515 -1.5152
 4965SOL     OW26530   0.228   1.555   8.281 -0.4054 -0.0699  0.7649
 4965SOL    HW126531   0.287   1.528   8.211  2.9122  1.7543  2.8317
 4965SOL    HW226532   0.267   1.503   8.351  1.7319 -1.3221 -1.3549
 4966SOL     OW26533   0.628   2.555   2.919  0.4120 -0.7107 -0.0411
 4966SOL    HW126534   0.618   2.485   2.983 -0.6668 -0.8611 -0.3733
 4966SOL    HW226535   0.684   2.609   2.975  1.5464 -0.6308 -1.2517
 4967SOL     OW26536   4.678   0.364   1.107 -0.6070 -0.1724 -0.2241
 4967SOL    HW126537   0.009   0.404   1.163 -0.9107 -0.7031  0.5215
 4967SOL    HW226538   0.001   0.305   1.060  1.3994  1.0606  0.7015
 4968SOL     OW26539   3.895   1.979   2.488  0.1440 -0.1600 -0.6818
 4968SOL    HW126540   3.906   1.884   2.493 -0.6780 -0.2104  0.0467
 4968SOL    HW226541   3.982   2.000   2.453  0.8926 -0.7351  0.8736
 4969SOL     OW26542   0.128   4.161   4.732 -0.8352 -0.3699  0.0223
 4969SOL    HW126543   0.195   4.160   4.665 -1.1750 -2.5296 -0.2937
 4969SOL    HW226544   0.087   4.076   4.712  2.3033 -2.1496  1.1150
 4970SOL     OW26545   1.151   0.088   1.787 -0.1549 -0.0489  0.0071
 4970SOL    HW126546   1.095   0.147   1.839  1.7875  1.1891  0.7142
 4970SOL    HW226547   1.212   0.144   1.739  0.0801 -0.7486 -0.5089
 4971SOL     OW26548   0.698   2.030   7.281 -0.3673 -0.5400  0.9511
 4971SOL    HW126549   0.659   1.953   7.321 -1.3386 -0.5763 -0.0586
 4971SOL    HW226550   0.640   2.098   7.315 -0.3544 -0.3291  0.5526
 4972SOL     OW26551   3.278   1.614   1.661  0.1226 -0.1652  0.2780
 4972SOL    HW126552   3.257   1.628   1.569  2.2755 -0.1841 -0.2083
 4972SOL    HW226553   3.349   1.550   1.658  0.4994  0.3630 -2.2290
 4973SOL     OW26554   4.576   2.672  17.530 -0.3363  0.0407 -0.5016
 4973SOL    HW126555   4.665   2.698  17.555 -0.8743  2.0416 -0.6980
 4973SOL    HW226556   4.547   2.752  17.488  0.1092  0.5751  0.2098
 4974SOL     OW26557   0.631   3.344   7.618 -0.2459 -0.4657 -0.0062
 4974SOL    HW126558   0.711   3.326   7.569  0.5836  2.6269  0.2164
 4974SOL    HW226559   0.560   3.298   7.572 -1.5833  1.5155  0.0922
 4975SOL     OW26560   0.973   1.417   7.758 -0.3341 -0.4246  0.4127
 4975SOL    HW126561   0.979   1.323   7.742 -2.6571 -0.5203  0.0207
 4975SOL    HW226562   1.037   1.455   7.697  1.0714 -0.1555  2.0619
 4976SOL     OW26563   3.231   2.688   8.611  0.4079 -0.1781 -0.1059
 4976SOL    HW126564   3.316   2.687   8.655  1.2072  2.2953 -1.5564
 4976SOL    HW226565   3.238   2.594   8.596  1.2128 -0.2670  0.7997
 4977SOL     OW26566   1.970   4.263  11.830  0.0361  0.5721  0.1578
 4977SOL    HW126567   2.016   4.195  11.780 -2.1125 -0.5219 -0.3553
 4977SOL    HW226568   2.025   4.272  11.907  0.5291 -2.0355  0.1277
 4978SOL     OW26569   1.367   0.034   4.563  0.2337  0.2120  0.2378
 4978SOL    HW126570   1.328   0.121   4.554  1.1488  0.4567 -1.4382
 4978SOL    HW226571   1.457   0.046   4.533 -0.1130  1.2921 -0.3821
 4979SOL     OW26572   2.319   2.842   9.003 -0.1677  0.5039 -0.5908
 4979SOL    HW126573   2.321   2.918   8.945 -0.5403  0.9806  0.0208
 4979SOL    HW226574   2.224   2.832   9.009  0.0861 -1.6732 -0.0931
 4980SOL     OW26575   3.050   2.866   8.187 -0.3454  0.2007 -0.4170
 4980SOL    HW126576   3.061   2.856   8.092 -0.8004  2.1126 -0.6805
 4980SOL    HW226577   3.078   2.784   8.227 -0.9760 -0.7788 -2.0131
 4981SOL     OW26578   1.487   4.689   2.266 -0.4250  0.1350  0.1884
 4981SOL    HW126579   1.528   0.039   2.254  1.1495 -0.9683 -2.5028
 4981SOL    HW226580   1.544   4.638   2.323 -0.5602  1.2470  1.3225
 4982SOL     OW26581   0.489   2.379   2.776 -0.2284 -0.2142 -0.5443
 4982SOL    HW126582   0.565   2.359   2.722 -1.9939 -1.1294 -2.6977
 4982SOL    HW226583   0.537   2.430   2.841  0.7423 -0.0214 -1.4243
 4983SOL     OW26584   0.948   1.775   5.392  0.4635 -0.0329  0.1844
 4983SOL    HW126585   0.882   1.767   5.323  2.4370 -3.0000 -1.3691
 4983SOL    HW226586   1.011   1.830   5.347  0.6139  0.4694  1.0187
 4984SOL     OW26587   0.639   3.432   5.452 -0.1706 -0.5095 -0.2529
 4984SOL    HW126588   0.686   3.457   5.531  0.0910 -0.6809 -0.3556
 4984SOL    HW226589   0.706   3.448   5.386 -0.2214 -0.1512 -0.2181
 4985SOL     OW26590   1.987   0.809   6.077 -0.0132  0.2286 -0.2053
 4985SOL    HW126591   1.999   0.903   6.087  0.5639  0.1289  0.0785
 4985SOL    HW226592   1.977   0.811   5.982  2.3154 -0.5879 -0.4700
 4986SOL     OW26593   4.589   3.292   8.017 -0.3664 -0.7310  0.1112
 4986SOL    HW126594   4.505   3.338   8.022  0.4140  0.6461  0.6678
 4986SOL    HW226595   4.634   3.325   8.095 -1.1400 -0.8201  0.5922
 4987SOL     OW26596   1.775   3.082   5.314 -0.4546 -0.0422 -0.4177
 4987SOL    HW126597   1.739   3.001   5.351 -2.1580  1.0138  0.2765
 4987SOL    HW226598   1.754   3.072   5.222 -0.7331 -2.8475 -0.0461
 4988SOL     OW26599   2.867   3.665   8.677  0.1467 -0.0900  0.1965
 4988SOL    HW126600   2.796   3.602   8.687 -0.9886  1.1756  0.0999
 4988SOL    HW226601   2.823   3.750   8.678 -1.4389 -0.9402  2.2173
 4989SOL     OW26602   0.852   3.219   5.875  0.0408 -0.2244 -0.1573
 4989SOL    HW126603   0.768   3.231   5.832 -0.4764  2.6656  1.5916
 4989SOL    HW226604   0.850   3.130   5.911 -1.4474  0.2732  0.9951
 4990SOL     OW26605   4.303   4.454   6.783 -0.4244  0.6635  0.4452
 4990SOL    HW126606   4.258   4.458   6.867  2.6601  3.1866  1.9904
 4990SOL    HW226607   4.247   4.397   6.731 -1.0271  1.3600  0.3298
 4991SOL     OW26608   1.302   3.608   6.130  0.8300 -0.5584  0.2033
 4991SOL    HW126609   1.366   3.594   6.060  1.5286 -1.0868  0.9424
 4991SOL    HW226610   1.221   3.620   6.081  1.0274  1.0206  0.2842
 4992SOL     OW26611   2.111   4.222   3.447 -0.3193 -0.5157  0.0503
 4992SOL    HW126612   2.112   4.133   3.412 -0.7216 -0.9864  1.2216
 4992SOL    HW226613   2.086   4.278   3.374  1.8864  0.0660 -0.2681
 4993SOL     OW26614   1.973   1.885  11.459 -0.6526 -0.4085  0.4846
 4993SOL    HW126615   1.942   1.892  11.369 -1.7472  0.8060  0.9473
 4993SOL    HW226616   2.066   1.866  11.447 -0.5251 -1.2603  2.8460
 4994SOL     OW26617   2.894   2.456   3.888  0.1838 -0.3962 -0.4870
 4994SOL    HW126618   2.849   2.495   3.814 -1.1980  1.0777  1.1324
 4994SOL    HW226619   2.975   2.420   3.850  0.2590 -2.0003  1.1725
 4995SOL     OW26620   0.903   1.414  12.977 -0.4314 -0.1480  0.2075
 4995SOL    HW126621   0.967   1.356  12.936 -0.2142  0.1574  0.1139
 4995SOL    HW226622   0.944   1.498  12.957 -0.0691  0.0234  1.6725
 4996SOL     OW26623   0.467   3.441   8.427 -0.2872  0.4256  0.2121
 4996SOL    HW126624   0.510   3.378   8.485 -2.2155 -0.0175  1.1845
 4996SOL    HW226625   0.521   3.518   8.443 -1.1770  1.7074 -2.9715
 4997SOL     OW26626   2.109   3.725   9.313 -0.0652  0.2029  0.1229
 4997SOL    HW126627   2.201   3.722   9.338  0.0106 -2.1409 -0.4559
 4997SOL    HW226628   2.068   3.670   9.380 -1.6275  1.9374  0.6212
 4998SOL     OW26629   0.994   1.952  16.092 -0.0331  0.0301 -0.1180
 4998SOL    HW126630   0.999   1.870  16.140  1.4505  0.1749 -0.0072
 4998SOL    HW226631   0.999   2.012  16.166 -1.1588 -1.1019  0.8561
 4999SOL     OW26632   3.175   0.479   2.430 -0.0996  0.2940  0.0275
 4999SOL    HW126633   3.115   0.524   2.489  0.5432 -1.1222  1.7483
 4999SOL    HW226634   3.236   0.438   2.491  0.8853  1.8282  0.0901
 5000SOL     OW26635   4.628   0.620   1.489 -0.4407  0.1621  0.6235
 5000SOL    HW126636   4.702   0.594   1.543 -0.8075  0.4371  1.2674
 5000SOL    HW226637   4.590   0.685   1.549 -1.4458 -1.2155  1.4718
 5001SOL     OW26638   4.154   0.257   3.750 -0.0068  0.1390 -0.4244
 5001SOL    HW126639   4.137   0.172   3.792 -0.6769  0.9801  0.9768
 5001SOL    HW226640   4.062   0.283   3.746 -0.5443 -1.9442 -2.0512
 5002SOL     OW26641   1.330   3.173   6.891 -0.1099 -0.2779  0.8114
 5002SOL    HW126642   1.318   3.265   6.912  0.1507 -0.1904  0.5633
 5002SOL    HW226643   1.351   3.141   6.979 -0.3867 -0.0033  0.9774
 5003SOL     OW26644   3.726   2.781   9.528  0.0022 -0.1260 -0.2112
 5003SOL    HW126645   3.713   2.828   9.610  1.8548 -0.8475  0.5071
 5003SOL    HW226646   3.820   2.797   9.517  0.4994 -2.1414  0.9710
 5004SOL     OW26647   2.252   4.281  12.923  0.3598 -0.0388 -0.2635
 5004SOL    HW126648   2.237   4.290  12.828 -0.2728 -1.5396 -0.3002
 5004SOL    HW226649   2.168   4.246  12.952  1.6729 -3.6750 -0.8649
 5005SOL     OW26650   1.715   3.409   6.617 -0.2937  0.0119 -0.5033
 5005SOL    HW126651   1.710   3.438   6.708 -0.9206 -0.3227 -0.4307
 5005SOL    HW226652   1.781   3.472   6.590 -0.6729  0.8198  0.4622
 5006SOL     OW26653   1.420   1.657  14.427 -0.1207  0.9583  0.0572
 5006SOL    HW126654   1.342   1.711  14.434 -1.3989 -0.9353  0.3197
 5006SOL    HW226655   1.448   1.656  14.518 -2.7690  0.5634  0.8705
 5007SOL     OW26656   0.063   1.837   5.488  0.5060 -0.0676  0.0177
 5007SOL    HW126657   4.708   1.808   5.478 -0.0826  1.8590 -0.3291
 5007SOL    HW226658   0.106   1.756   5.462 -3.1119 -1.0497 -2.8832
 5008SOL     OW26659   3.322   4.029   7.093 -0.5961  0.4780 -0.0436
 5008SOL    HW126660   3.415   4.023   7.070 -0.4317  0.0952  0.7132
 5008SOL    HW226661   3.312   4.124   7.084 -0.8100  0.5277  0.7548
 5009SOL     OW26662   3.418   1.563   9.401 -0.1975 -0.1172 -0.1438
 5009SOL    HW126663   3.375   1.597   9.480  2.0875 -0.3226  1.1794
 5009SOL    HW226664   3.367   1.482   9.403  0.7233 -0.6871 -0.3844
 5010SOL     OW26665   0.341   3.671   6.953  0.1947 -0.2444 -0.0027
 5010SOL    HW126666   0.418   3.675   6.897 -0.0973  0.4231 -0.3571
 5010SOL    HW226667   0.360   3.583   6.985 -1.3416  0.0921  1.8270
 5011SOL     OW26668   4.127   0.875  17.418 -0.3541  0.4841 -0.6516
 5011SOL    HW126669   4.051   0.933  17.423  0.1748  1.3090 -2.0543
 5011SOL    HW226670   4.132   0.839  17.506  0.4545  1.6399 -0.2233
 5012SOL     OW26671   1.468   3.969   7.205 -0.0224 -0.0258 -0.6081
 5012SOL    HW126672   1.481   4.063   7.194 -1.2925  0.3619  1.1587
 5012SOL    HW226673   1.446   3.970   7.298  0.5397 -0.3609 -0.4692
 5013SOL     OW26674   3.305   4.520   8.638  0.4862  0.1656  0.4305
 5013SOL    HW126675   3.346   4.507   8.552 -0.9304  3.2474 -0.7290
 5013SOL    HW226676   3.287   4.614   8.642  0.3765  0.1493  0.3185
 5014SOL     OW26677   1.839   4.348  16.081  0.1269  0.4032 -0.0604
 5014SOL    HW126678   1.787   4.427  16.095 -0.2163  0.0104  0.8885
 5014SOL    HW226679   1.918   4.394  16.054  1.4491 -0.6802  2.0127
 5015SOL     OW26680   2.471   0.742   1.442  0.0844  0.5959 -0.1378
 5015SOL    HW126681   2.428   0.805   1.500 -3.3368 -0.5375 -1.4314
 5015SOL    HW226682   2.551   0.794   1.432  0.1329 -0.0248 -2.9125
 5016SOL     OW26683   0.860   4.374   1.989  0.4793  0.0513  0.4372
 5016SOL    HW126684   0.933   4.403   2.045 -2.4637  1.0040  3.7388
 5016SOL    HW226685   0.797   4.445   2.000  0.1711 -0.0897 -0.4294
 5017SOL     OW26686   1.220   3.957  16.267 -0.2268  0.5718  0.1824
 5017SOL    HW126687   1.300   3.984  16.222 -0.7099  0.9124 -0.4725
 5017SOL    HW226688   1.250   3.883  16.320 -0.3746 -0.0298 -0.5573
 5018SOL     OW26689   3.859   3.308   3.235  0.3484 -0.5196 -0.2789
 5018SOL    HW126690   3.812   3.387   3.207  1.8214  0.0463 -1.1453
 5018SOL    HW226691   3.946   3.333   3.203  0.8548  0.8691  2.1713
 5019SOL     OW26692   4.503   3.594   6.840  0.4933 -0.0389 -0.3239
 5019SOL    HW126693   4.568   3.664   6.838  0.5871 -0.1773 -1.9128
 5019SOL    HW226694   4.558   3.518   6.819  0.7733  0.4972 -1.5293
 5020SOL     OW26695   4.322   2.033  17.548  0.0232  0.0489  0.4157
 5020SOL    HW126696   4.284   1.965  17.604 -0.0454 -0.1664  0.1107
 5020SOL    HW226697   4.412   1.999  17.542 -1.3519 -3.2178 -1.4897
 5021SOL     OW26698   2.275   3.004   8.495 -0.4534 -0.0415 -0.0311
 5021SOL    HW126699   2.214   2.973   8.427 -0.8369 -0.1412  0.3578
 5021SOL    HW226700   2.337   2.931   8.488 -0.7839 -0.6181  3.0773
 5022SOL     OW26701   3.154   2.085   9.813 -0.2219  0.1082 -0.6705
 5022SOL    HW126702   3.078   2.142   9.805 -1.8549 -1.9540  0.1325
 5022SOL    HW226703   3.214   2.159   9.815 -0.5256  0.3209  0.4921
 5023SOL     OW26704   0.321   3.447  16.871  0.1150  0.5192  0.2997
 5023SOL    HW126705   0.301   3.372  16.814 -0.6715  1.6448 -0.8914
 5023SOL    HW226706   0.237   3.491  16.862 -0.3218 -0.0222  1.7224
 5024SOL     OW26707   2.344   2.340   4.906  0.2027 -0.2412  0.3043
 5024SOL    HW126708   2.408   2.336   4.977 -0.4330 -1.1762  0.8414
 5024SOL    HW226709   2.399   2.332   4.828  0.7219  1.8606  0.4611
 5025SOL     OW26710   1.769   4.722   8.364  0.6618  0.0899 -0.6664
 5025SOL    HW126711   1.761   0.073   8.404  0.7334 -0.6380  0.9409
 5025SOL    HW226712   1.863   4.711   8.375  0.5752  1.1219  1.0582
 5026SOL     OW26713   1.877   4.163   9.694 -0.2954  0.0785 -0.3878
 5026SOL    HW126714   1.828   4.235   9.653  0.2260  1.4030  1.2973
 5026SOL    HW226715   1.955   4.178   9.641 -1.5607  2.7072 -1.5168
 5027SOL     OW26716   3.681   0.362   7.146 -0.2039  0.6229  0.0297
 5027SOL    HW126717   3.609   0.306   7.176 -0.5428  1.6738  1.1848
 5027SOL    HW226718   3.651   0.371   7.056  0.0732  1.3433  0.0099
 5028SOL     OW26719   0.555   2.489   3.352 -0.0066 -0.6655 -0.1821
 5028SOL    HW126720   0.607   2.422   3.308 -0.6285 -2.7328  2.2472
 5028SOL    HW226721   0.546   2.448   3.438 -1.0560  1.9556  0.9763
 5029SOL     OW26722   1.561   2.933  17.446  0.0153 -0.1193  0.8193
 5029SOL    HW126723   1.567   2.843  17.477 -2.0241 -0.8382 -0.8376
 5029SOL    HW226724   1.472   2.934  17.411 -0.2980 -0.7254  1.6049
 5030SOL     OW26725   3.332   2.547   7.188  0.6328 -0.4246  0.8818
 5030SOL    HW126726   3.345   2.642   7.188 -1.4938 -0.1309 -0.9688
 5030SOL    HW226727   3.242   2.546   7.219 -0.0278  0.9972 -0.9308
 5031SOL     OW26728   4.682   2.498  10.240 -0.5347 -0.1107  0.5866
 5031SOL    HW126729   4.703   2.507  10.147  0.5396 -0.6139  0.7828
 5031SOL    HW226730   4.587   2.503  10.254 -0.7801 -1.4710 -0.5927
 5032SOL     OW26731   1.134   3.902  16.729 -0.0378  0.4655  0.4473
 5032SOL    HW126732   1.142   3.823  16.675  0.6786  1.4523 -0.8746
 5032SOL    HW226733   1.067   3.859  16.783 -0.8365  0.7310 -0.3351
 5033SOL     OW26734   1.132   4.183  17.296 -0.5379 -0.1954 -0.1050
 5033SOL    HW126735   1.166   4.252  17.239 -2.3081  1.2811  0.6352
 5033SOL    HW226736   1.189   4.194  17.371  2.0920  0.5961 -2.2043
 5034SOL     OW26737   0.948   2.966  13.179 -0.1652 -0.0685  0.1105
 5034SOL    HW126738   0.937   3.061  13.188 -0.5291  0.1406 -2.6161
 5034SOL    HW226739   1.029   2.956  13.228 -0.5993 -0.7649  0.6717
 5035SOL     OW26740   2.954   1.987   6.678  0.3382  0.0263 -0.7786
 5035SOL    HW126741   2.986   2.057   6.735  0.2604  1.4362 -2.4753
 5035SOL    HW226742   2.988   2.011   6.592 -0.1452 -3.7265 -1.9785
 5036SOL     OW26743   4.045   3.731   4.153 -0.0126 -0.8010 -0.2050
 5036SOL    HW126744   4.044   3.649   4.104  0.4744 -1.8130  1.4768
 5036SOL    HW226745   3.953   3.732   4.179  0.0805 -1.2620  0.1305
 5037SOL     OW26746   3.231   0.910   4.425 -0.0403  0.1508  0.1494
 5037SOL    HW126747   3.324   0.898   4.410  0.5035  1.9451  2.0531
 5037SOL    HW226748   3.234   0.970   4.500  4.3699  0.2613 -0.1293
 5038SOL     OW26749   2.884   1.208   5.122 -0.0711  0.5110 -0.3197
 5038SOL    HW126750   2.960   1.252   5.082 -0.4920  0.2115 -1.4595
 5038SOL    HW226751   2.816   1.222   5.056  0.6510  0.4412 -1.0941
 5039SOL     OW26752   4.265   2.360   8.950 -0.7973 -0.1100  0.5631
 5039SOL    HW126753   4.346   2.349   8.999 -1.5677  0.0778  1.8942
 5039SOL    HW226754   4.304   2.425   8.892  0.6648 -0.8925  0.6676
 5040SOL     OW26755   2.618   0.529   9.670 -0.1725 -0.1983 -0.3614
 5040SOL    HW126756   2.619   0.584   9.592 -0.3932  0.2927 -0.0195
 5040SOL    HW226757   2.670   0.585   9.727 -0.2871  0.3209 -0.7683
 5041SOL     OW26758   3.687   0.078  13.951  0.9848 -0.1653 -0.3618
 5041SOL    HW126759   3.771   0.120  13.967  0.7161  0.6989 -1.2022
 5041SOL    HW226760   3.668   0.042  14.038 -1.1341  1.0761 -0.2788
 5042SOL     OW26761   4.639   4.584  14.882 -0.2487  0.1810  0.5633
 5042SOL    HW126762   4.659   4.502  14.838  3.6507  0.3935  1.9330
 5042SOL    HW226763   4.710   4.586  14.946 -0.3205  3.2612  0.5591
 5043SOL     OW26764   0.473   1.149   1.654  0.0142  0.1495 -0.3677
 5043SOL    HW126765   0.443   1.082   1.593 -1.3800  1.8165 -1.5068
 5043SOL    HW226766   0.556   1.177   1.614  0.1980 -0.6137 -0.5196
 5044SOL     OW26767   0.360   1.374   1.775 -0.0671  0.0087 -0.1939
 5044SOL    HW126768   0.392   1.372   1.865  2.1512 -1.2863 -1.0179
 5044SOL    HW226769   0.369   1.281   1.755  0.2883  0.1978 -0.8905
 5045SOL     OW26770   1.888   1.216   7.633  0.1958 -0.0398  0.1476
 5045SOL    HW126771   1.890   1.156   7.707  0.9550  1.5268  1.3958
 5045SOL    HW226772   1.804   1.200   7.591 -0.4123 -0.5094  1.5637
 5046SOL     OW26773   3.160   1.595   9.892  0.0055  0.1837 -0.3183
 5046SOL    HW126774   3.142   1.686   9.917 -0.6858 -0.2846  0.8594
 5046SOL    HW226775   3.074   1.561   9.867 -1.0299  1.6720  1.2222
 5047SOL     OW26776   3.704   1.182   7.333 -0.1929 -0.7416 -0.1934
 5047SOL    HW126777   3.747   1.125   7.397  1.0190 -0.6288 -0.8885
 5047SOL    HW226778   3.733   1.265   7.369 -2.9511 -0.2770  0.9025
 5048SOL     OW26779   4.421   1.350  10.117 -0.2397 -0.4788  0.3928
 5048SOL    HW126780   4.452   1.271  10.074 -1.3119 -1.5449  1.5626
 5048SOL    HW226781   4.431   1.327  10.209  0.9445  1.8732  0.8552
 5049SOL     OW26782   0.599   1.942   3.513  0.2251  0.3036  0.0151
 5049SOL    HW126783   0.694   1.947   3.496  0.2716  2.5962  0.9221
 5049SOL    HW226784   0.594   1.872   3.578 -0.8818  3.0062  2.8131
 5050SOL     OW26785   0.308   3.236   7.294  0.0318  0.2520 -0.0951
 5050SOL    HW126786   0.328   3.152   7.253  0.1369  0.6198 -0.8028
 5050SOL    HW226787   0.221   3.215   7.327  0.0143 -0.6181 -0.7087
 5051SOL     OW26788   3.805   3.066   6.171 -0.0223 -0.1765 -0.2134
 5051SOL    HW126789   3.725   3.068   6.117 -0.2387  2.2953  0.2088
 5051SOL    HW226790   3.816   3.159   6.187  0.2984 -0.3695  0.6745
 5052SOL     OW26791   1.043   1.865  17.507 -0.1487  0.0096 -0.1305
 5052SOL    HW126792   1.060   1.774  17.482 -1.0625  0.0753 -0.9821
 5052SOL    HW226793   1.091   1.905  17.435 -1.5751  3.1648  0.7059
 5053SOL     OW26794   2.949   0.287   7.759  0.3363 -1.0542  0.2346
 5053SOL    HW126795   2.862   0.326   7.765  0.0290 -1.9164  1.3239
 5053SOL    HW226796   2.939   0.216   7.695 -2.8545  0.3032 -0.7954
 5054SOL     OW26797   4.247   4.241  14.842  0.3256 -0.1380 -0.4304
 5054SOL    HW126798   4.272   4.332  14.825 -2.0893  0.5096 -0.5283
 5054SOL    HW226799   4.152   4.246  14.829  0.2258 -2.4945 -0.5998
 5055SOL     OW26800   3.246   0.016   9.415  0.0677 -0.3237  0.1231
 5055SOL    HW126801   3.166   4.719   9.455 -0.3270  1.7072  1.0120
 5055SOL    HW226802   3.282   4.671   9.379  0.8628 -0.4038  1.1084
 5056SOL     OW26803   3.602   0.514   1.135 -0.2945 -0.1185 -0.1494
 5056SOL    HW126804   3.528   0.489   1.191  0.6606 -1.1820  0.6376
 5056SOL    HW226805   3.549   0.536   1.058 -3.2775 -0.2681  1.8518
 5057SOL     OW26806   2.397   3.565  17.008 -0.6550  0.3812  0.0739
 5057SOL    HW126807   2.399   3.506  17.083 -2.4574 -0.2797 -0.3729
 5057SOL    HW226808   2.312   3.538  16.973  1.6158 -3.4871 -2.4841
 5058SOL     OW26809   2.321   1.893   3.161 -0.2112  0.2355 -0.0605
 5058SOL    HW126810   2.378   1.926   3.231  1.2758  0.2155 -1.2702
 5058SOL    HW226811   2.283   1.822   3.213 -1.1556  1.9827  1.6489
 5059SOL     OW26812   0.176   1.056  16.915  0.7221  0.4915  0.0077
 5059SOL    HW126813   0.259   1.019  16.886  0.3841 -0.0706 -0.2446
 5059SOL    HW226814   0.197   1.145  16.943 -0.2962  0.5660  0.5442
 5060SOL     OW26815   1.145   2.795   6.574  0.1226 -0.3916 -0.5244
 5060SOL    HW126816   1.222   2.787   6.519  1.5805  0.1572  1.4322
 5060SOL    HW226817   1.157   2.886   6.603  2.6457 -0.6234 -0.8266
 5061SOL     OW26818   3.886   0.340   3.715  0.0108  0.0104  0.3321
 5061SOL    HW126819   3.810   0.319   3.660  1.2302  0.4797 -1.5205
 5061SOL    HW226820   3.860   0.282   3.786 -0.9054  1.3157  1.0496
 5062SOL     OW26821   0.780   4.396   5.876  0.4571  0.2276 -0.1291
 5062SOL    HW126822   0.747   4.310   5.849  0.5048  0.2092 -0.1300
 5062SOL    HW226823   0.855   4.359   5.924  2.9331  2.3683 -2.3185
 5063SOL     OW26824   2.879   2.272   7.043  0.1989  0.4841 -0.5914
 5063SOL    HW126825   2.966   2.239   7.067  0.5405  0.7444 -1.4786
 5063SOL    HW226826   2.850   2.203   6.983 -0.8895  0.8471 -0.4709
 5064SOL     OW26827   4.570   0.479   2.503 -0.6233 -0.5319  0.2028
 5064SOL    HW126828   4.653   0.442   2.534  0.4048  0.3793 -1.4553
 5064SOL    HW226829   4.573   0.574   2.508  1.7202 -0.6110  0.1856
 5065SOL     OW26830   3.744   1.533   4.297 -0.3327 -0.0765  0.5287
 5065SOL    HW126831   3.824   1.510   4.251 -0.3660 -2.4423  1.6403
 5065SOL    HW226832   3.702   1.590   4.233  0.3746  0.1758  0.2922
 5066SOL     OW26833   0.244   0.714   6.975 -0.8020 -0.1243 -0.0067
 5066SOL    HW126834   0.198   0.644   7.021 -0.4748  0.7851  1.7056
 5066SOL    HW226835   0.331   0.695   7.012 -0.3265 -0.0112 -1.0584
 5067SOL     OW26836   0.858   4.382   5.276 -0.4150  0.4570 -0.7770
 5067SOL    HW126837   0.826   4.466   5.243  0.5264  1.0606 -0.1660
 5067SOL    HW226838   0.947   4.386   5.242 -0.4045 -3.0200 -1.1464
 5068SOL     OW26839   1.124   1.600   4.567  0.0374  0.5887  0.2963
 5068SOL    HW126840   1.132   1.533   4.635 -0.5113  0.1859 -0.0356
 5068SOL    HW226841   1.053   1.658   4.592 -1.9502 -1.7692  0.0932
 5069SOL     OW26842   0.756   3.290   4.915 -0.2249 -0.1672  0.5479
 5069SOL    HW126843   0.804   3.349   4.973  1.4235 -0.4237 -0.5465
 5069SOL    HW226844   0.825   3.238   4.873 -1.6756 -3.0912  1.7695
 5070SOL     OW26845   0.007   4.475   4.785  0.1994 -0.3420  1.4602
 5070SOL    HW126846   4.674   4.412   4.765  0.8763  0.0441 -2.0721
 5070SOL    HW226847   4.690   4.525   4.848  1.0131  0.2250  1.6910
 5071SOL     OW26848   4.466   3.196   4.508 -0.4377  0.0720 -0.5971
 5071SOL    HW126849   4.388   3.175   4.456 -1.6539 -1.4340  1.8532
 5071SOL    HW226850   4.512   3.248   4.442  0.2390  0.7270  0.4138
 5072SOL     OW26851   2.670   4.520   3.158  0.2574  0.3248 -0.2893
 5072SOL    HW126852   2.731   4.581   3.200  0.6104 -0.5064  0.4008
 5072SOL    HW226853   2.683   4.441   3.211 -0.9534 -1.4075 -2.5909
 5073SOL     OW26854   2.663   2.653   1.638 -0.2455  0.0656 -0.5255
 5073SOL    HW126855   2.752   2.655   1.675  0.3057 -2.2422 -1.7432
 5073SOL    HW226856   2.690   2.622   1.552 -0.7330 -0.0555 -0.6324
 5074SOL     OW26857   3.457   1.922   7.618  0.0700 -0.1645 -1.0908
 5074SOL    HW126858   3.506   1.970   7.684 -2.1906  1.1749 -0.3849
 5074SOL    HW226859   3.484   1.954   7.532  0.3709 -1.5431 -1.5199
 5075SOL     OW26860   2.932   1.862   9.124 -0.2465  0.0314 -0.9206
 5075SOL    HW126861   2.921   1.789   9.185  2.8334  0.6269  0.3234
 5075SOL    HW226862   2.937   1.940   9.180 -1.5718  0.7837 -1.8507
 5076SOL     OW26863   1.857   3.473   1.210  0.2530  0.3952  0.0354
 5076SOL    HW126864   1.873   3.407   1.278  1.2245  0.0446 -0.5442
 5076SOL    HW226865   1.811   3.418   1.146  1.9132  0.2753 -1.0505
 5077SOL     OW26866   4.481   4.094  11.823 -0.0777 -0.3566 -0.1270
 5077SOL    HW126867   4.500   4.028  11.757  1.0497 -2.4961  2.3155
 5077SOL    HW226868   4.475   4.047  11.906  0.1838 -3.1359 -1.7067
 5078SOL     OW26869   1.426   0.805   1.832 -0.1231 -0.2151  0.2635
 5078SOL    HW126870   1.511   0.763   1.842  0.2342 -0.0363 -1.9857
 5078SOL    HW226871   1.429   0.880   1.891 -1.4912  0.5650 -0.6633
 5079SOL     OW26872   3.639   0.792  13.405 -0.0041 -1.1253 -0.8182
 5079SOL    HW126873   3.618   0.712  13.357 -2.7029 -0.8611 -0.1083
 5079SOL    HW226874   3.720   0.753  13.437 -0.8298 -2.1901 -0.0326
 5080SOL     OW26875   2.577   2.465  16.773 -0.3169  0.0796  0.3307
 5080SOL    HW126876   2.612   2.550  16.747 -1.0515 -0.0273 -0.9944
 5080SOL    HW226877   2.649   2.410  16.804  0.3624  0.9009  0.2049
 5081SOL     OW26878   3.691   3.592   7.600 -0.5864  0.2733  0.9106
 5081SOL    HW126879   3.747   3.515   7.610 -0.8076  0.1105  0.9150
 5081SOL    HW226880   3.680   3.601   7.505 -0.1236  0.3390  0.8640
 5082SOL     OW26881   1.947   2.137   6.223 -0.1133  0.3826  0.8671
 5082SOL    HW126882   2.002   2.135   6.301 -0.0747  0.3771  0.8395
 5082SOL    HW226883   1.935   2.231   6.209  2.3515  0.4885 -0.4645
 5083SOL     OW26884   1.655   1.126   7.542 -0.1549 -0.3013 -0.6957
 5083SOL    HW126885   1.672   1.039   7.507 -2.0894 -0.2904 -1.6745
 5083SOL    HW226886   1.615   1.156   7.461 -0.2361  0.7687 -0.2557
 5084SOL     OW26887   4.080   3.595  11.617  0.6959  0.4611  0.5396
 5084SOL    HW126888   4.052   3.533  11.684  0.6442  1.8129  1.7756
 5084SOL    HW226889   4.001   3.648  11.612 -0.2870 -1.2103 -1.8295
 5085SOL     OW26890   3.412   3.696   2.568 -0.2089 -0.3360 -0.2104
 5085SOL    HW126891   3.463   3.641   2.508  1.2332  3.0575 -2.1336
 5085SOL    HW226892   3.422   3.783   2.530 -2.6416 -0.4477 -1.0925
 5086SOL     OW26893   1.406   4.365   2.283 -0.3855 -0.1410 -0.2964
 5086SOL    HW126894   1.342   4.295   2.275 -0.9400  0.1702  1.4475
 5086SOL    HW226895   1.374   4.427   2.349 -0.2858  0.1867 -0.5515
 5087SOL     OW26896   2.240   3.635  14.424 -0.0360 -0.6629 -0.3416
 5087SOL    HW126897   2.303   3.577  14.380  1.3178 -0.1603  0.9178
 5087SOL    HW226898   2.218   3.700  14.358 -0.4973 -0.0314  0.4447
 5088SOL     OW26899   1.536   2.262   8.123 -0.0473  0.3018 -0.1792
 5088SOL    HW126900   1.565   2.299   8.039  1.9091  1.0996  0.8554
 5088SOL    HW226901   1.598   2.306   8.181  2.6778 -2.0177 -1.3441
 5089SOL     OW26902   3.538   4.434   5.898 -0.5998  0.2878  0.3709
 5089SOL    HW126903   3.520   4.398   5.811 -3.1425  0.1474  0.9703
 5089SOL    HW226904   3.506   4.370   5.961  0.2607 -0.0523  0.4595
 5090SOL     OW26905   2.627   0.914   5.889 -0.0471 -0.3170 -0.2446
 5090SOL    HW126906   2.695   0.950   5.946 -1.3248 -0.0780  1.1060
 5090SOL    HW226907   2.652   0.823   5.905 -2.1488 -0.9309 -0.4492
 5091SOL     OW26908   4.090   2.789   3.450 -0.0146  0.1438 -0.0695
 5091SOL    HW126909   4.079   2.883   3.436 -0.7500  0.0010 -0.4706
 5091SOL    HW226910   4.001   2.754   3.455 -1.2277  3.6843  2.7584
 5092SOL     OW26911   2.160   0.667   6.298 -0.0698  0.5022  0.1157
 5092SOL    HW126912   2.168   0.584   6.251  2.4253  1.3526 -0.9648
 5092SOL    HW226913   2.129   0.734   6.236 -2.7034 -0.2698  0.6222
 5093SOL     OW26914   3.154   0.065  11.640  0.4824 -0.5885  0.8097
 5093SOL    HW126915   3.078   0.033  11.592  0.0665  1.3300  0.1881
 5093SOL    HW226916   3.222   0.023  11.586 -0.6873 -1.2185 -0.1661
 5094SOL     OW26917   3.444   4.227   7.436 -0.0719  0.0026  0.2039
 5094SOL    HW126918   3.467   4.213   7.528 -2.7119 -1.4379  0.6504
 5094SOL    HW226919   3.418   4.138   7.412  2.5290 -0.9693  0.9455
 5095SOL     OW26920   1.188   2.042   4.732  0.3917  0.4879 -0.0339
 5095SOL    HW126921   1.136   1.966   4.757 -2.2284  1.9289 -1.1718
 5095SOL    HW226922   1.142   2.080   4.657  1.7963 -1.5165 -1.9216
 5096SOL     OW26923   2.906   3.662  14.722  0.0776 -1.1756  0.1889
 5096SOL    HW126924   2.865   3.657  14.636 -1.1250  0.4147  0.6915
 5096SOL    HW226925   2.855   3.735  14.757 -0.9853 -1.2538 -1.2113
 5097SOL     OW26926   0.792   4.357   3.084  0.2950  0.3469 -0.9334
 5097SOL    HW126927   0.852   4.350   3.010  0.1864 -0.6506 -0.9366
 5097SOL    HW226928   0.729   4.424   3.057 -1.1680 -0.4508  0.4752
 5098SOL     OW26929   0.131   2.410   6.215  0.0439 -0.3623  0.1035
 5098SOL    HW126930   0.188   2.465   6.268  1.6908 -0.0284 -2.0199
 5098SOL    HW226931   0.180   2.328   6.211  0.9772  0.3238 -2.4196
 5099SOL     OW26932   0.206   2.697   7.265  0.0180 -0.0829 -0.3806
 5099SOL    HW126933   0.276   2.655   7.215  1.1915 -0.0922  1.2748
 5099SOL    HW226934   0.136   2.703   7.200 -0.0296 -2.1324 -0.5003
 5100SOL     OW26935   2.552   2.333   5.915  0.0157  0.6048 -0.1514
 5100SOL    HW126936   2.506   2.318   5.833 -3.2678 -1.7972  2.1351
 5100SOL    HW226937   2.478   2.338   5.976  2.7519 -2.7919  3.4080
 5101SOL     OW26938   2.822   3.833   3.447 -0.0221  0.1438  0.0844
 5101SOL    HW126939   2.783   3.748   3.469 -0.9503  0.7957  0.9671
 5101SOL    HW226940   2.796   3.881   3.526 -1.5073  2.0189 -1.5337
 5102SOL     OW26941   4.715   4.344   8.290 -0.3300 -0.0494  0.1672
 5102SOL    HW126942   4.620   4.337   8.302 -0.2537 -1.5069 -0.0497
 5102SOL    HW226943   0.005   4.396   8.366 -1.1380  1.2299 -0.4210
 5103SOL     OW26944   0.226   1.113  17.267 -0.4745 -0.0029  0.0926
 5103SOL    HW126945   0.132   1.130  17.265 -0.4617  0.2232  1.6581
 5103SOL    HW226946   0.224   1.017  17.265  0.6918 -0.0637  2.0839
 5104SOL     OW26947   3.837   2.905   8.194 -0.3199  0.0056  0.5152
 5104SOL    HW126948   3.878   2.829   8.154 -0.7122 -0.4795  1.0392
 5104SOL    HW226949   3.820   2.961   8.118 -0.5805 -0.9197 -0.1012
 5105SOL     OW26950   3.000   3.834   2.014  0.3109 -0.1987  0.4329
 5105SOL    HW126951   2.981   3.743   1.989 -0.6636 -0.3763  1.8104
 5105SOL    HW226952   2.911   3.860   2.036  0.2593 -0.4183  0.4938
 5106SOL     OW26953   1.933   2.893   5.861  0.3909 -0.2266 -0.0987
 5106SOL    HW126954   1.958   2.985   5.854 -0.3637  0.0238  0.4430
 5106SOL    HW226955   2.018   2.850   5.868  0.3261 -0.1693  1.1915
 5107SOL     OW26956   3.345   4.144   0.846  0.0597  0.4123 -0.7987
 5107SOL    HW126957   3.392   4.228   0.856  1.4592 -0.6663  1.7672
 5107SOL    HW226958   3.273   4.172   0.790  0.2619  0.3731 -1.0783
 5108SOL     OW26959   1.763   1.800   8.131  0.5022 -0.0757  0.1760
 5108SOL    HW126960   1.711   1.742   8.076  2.2310  1.7939 -3.4091
 5108SOL    HW226961   1.703   1.875   8.131 -1.1653 -1.4016  1.4459
 5109SOL     OW26962   3.764   0.990   2.808  0.0412 -0.1027 -0.1557
 5109SOL    HW126963   3.786   1.055   2.741  1.6759 -1.8854 -1.3560
 5109SOL    HW226964   3.800   0.909   2.772 -1.6555 -0.9971  0.1550
 5110SOL     OW26965   0.099   2.046   8.325  0.0810  0.0816  0.4702
 5110SOL    HW126966   0.137   1.962   8.301  0.2163 -0.0778  1.2506
 5110SOL    HW226967   0.122   2.097   8.248  1.0748  1.5578  1.7462
 5111SOL     OW26968   1.427   4.618   3.163  0.2433 -0.0245  0.4699
 5111SOL    HW126969   1.496   4.560   3.130 -1.2785 -1.3526 -0.3626
 5111SOL    HW226970   1.351   4.588   3.114 -0.0147 -1.6519  1.8898
 5112SOL     OW26971   2.776   1.960  15.442  0.0100  0.3177  0.1690
 5112SOL    HW126972   2.764   2.034  15.501 -0.6540 -1.1046  1.8456
 5112SOL    HW226973   2.848   1.995  15.389 -1.6657  2.2199 -0.8576
 5113SOL     OW26974   3.848   2.382   7.489  0.3877 -0.2221 -0.3030
 5113SOL    HW126975   3.774   2.355   7.543  0.2815  0.0525 -0.3099
 5113SOL    HW226976   3.907   2.407   7.560  0.5219  1.3212 -0.9695
 5114SOL     OW26977   3.451   2.874   5.312  0.5250 -0.4555 -0.5242
 5114SOL    HW126978   3.486   2.808   5.253  1.6342  0.7151 -1.1773
 5114SOL    HW226979   3.463   2.961   5.274 -0.4049 -0.0208  0.1595
 5115SOL     OW26980   0.107   3.836   9.673 -0.0256 -0.0993 -0.2136
 5115SOL    HW126981   0.186   3.798   9.711  0.7829  0.1246 -1.6778
 5115SOL    HW226982   0.154   3.861   9.594  1.2314 -2.8435 -0.3450
 5116SOL     OW26983   0.512   0.468   2.985 -0.1063 -0.3151 -0.4866
 5116SOL    HW126984   0.451   0.441   3.054  1.5039  1.2332  1.5012
 5116SOL    HW226985   0.496   0.408   2.912  0.0177  1.0573 -1.6393
 5117SOL     OW26986   3.463   4.250   9.860  0.8205 -0.0147 -0.1590
 5117SOL    HW126987   3.440   4.291   9.944  2.1976  0.7212 -0.1385
 5117SOL    HW226988   3.464   4.326   9.801  2.9668 -0.4593 -0.6849
 5118SOL     OW26989   2.240   0.670   3.486 -0.7581  0.5339 -0.3000
 5118SOL    HW126990   2.300   0.721   3.540  1.0275  1.7856 -3.4384
 5118SOL    HW226991   2.226   0.598   3.547 -1.9682  1.3057  0.3464
 5119SOL     OW26992   0.016   1.862   2.089 -0.2638  0.2708 -0.5927
 5119SOL    HW126993   0.028   1.885   1.997  1.4032  1.3231 -0.1009
 5119SOL    HW226994   4.660   1.836   2.090 -0.1085 -0.2622 -0.2971
 5120SOL     OW26995   1.423   2.538   3.352 -0.4572 -0.6999 -0.2052
 5120SOL    HW126996   1.458   2.456   3.319 -1.7872 -1.7896  1.0755
 5120SOL    HW226997   1.472   2.606   3.306  1.9056 -3.0376 -1.1296
 5121SOL     OW26998   2.367   0.677   2.211 -0.0969 -0.6232  0.7514
 5121SOL    HW126999   2.354   0.605   2.149  0.9029  0.7938 -1.1090
 5121SOL    HW227000   2.349   0.648   2.300 -0.6583 -0.7356  0.6015
 5122SOL     OW27001   0.044   2.367  14.915  0.1510 -0.5073 -0.1483
 5122SOL    HW127002   0.130   2.358  14.957  1.1411 -2.1161 -2.5630
 5122SOL    HW227003   0.053   2.439  14.853  2.9511 -1.5635 -0.9899
 5123SOL     OW27004   1.607   1.463  11.958  0.2961  0.1063 -0.1765
 5123SOL    HW127005   1.609   1.534  12.022  1.2414  0.2376 -0.3397
 5123SOL    HW227006   1.672   1.501  11.899  1.0201  0.1650  0.6634
 5124SOL     OW27007   3.125   2.143   4.053 -0.0126 -0.3463 -0.7846
 5124SOL    HW127008   3.197   2.094   4.093  1.1892  0.2828 -2.1998
 5124SOL    HW227009   3.083   2.078   3.996  0.6708 -0.5615 -1.0461
 5125SOL     OW27010   1.757   0.752  13.467  0.1067 -0.3916 -0.2697
 5125SOL    HW127011   1.694   0.687  13.497  0.4049  1.0713  3.4980
 5125SOL    HW227012   1.793   0.783  13.550  0.5432  2.0102 -1.3481
 5126SOL     OW27013   1.450   3.570   3.196 -0.1213  0.8102 -0.0678
 5126SOL    HW127014   1.487   3.484   3.212 -0.2357  1.0166  1.2344
 5126SOL    HW227015   1.479   3.630   3.264 -1.2462  0.7266  0.4896
 5127SOL     OW27016   3.328   3.751  13.174  0.5412  0.6182 -0.1661
 5127SOL    HW127017   3.407   3.787  13.214 -0.6640 -1.0746  3.7308
 5127SOL    HW227018   3.307   3.831  13.125  1.7864 -0.6673 -2.7917
 5128SOL     OW27019   0.649   4.552   3.411 -0.6060 -0.2042  0.7078
 5128SOL    HW127020   0.657   4.463   3.377  0.7148  0.9379 -1.8916
 5128SOL    HW227021   0.559   4.577   3.389 -0.3396 -0.9243 -1.1239
 5129SOL     OW27022   0.113   3.631   3.029 -0.4716  0.0060 -0.3844
 5129SOL    HW127023   0.081   3.547   3.062 -0.9705 -0.4357 -1.9912
 5129SOL    HW227024   0.192   3.586   2.999  0.7547  0.6394  1.8675
 5130SOL     OW27025   3.423   3.703   4.256  0.5635 -0.2365 -0.2783
 5130SOL    HW127026   3.434   3.791   4.218 -0.8953 -0.7226 -1.7851
 5130SOL    HW227027   3.511   3.680   4.286  0.8547 -2.6114 -2.9470
 5131SOL     OW27028   0.525   3.641   6.446  0.0556 -0.5169 -0.5204
 5131SOL    HW127029   0.606   3.676   6.484  0.5987  0.6188 -2.6971
 5131SOL    HW227030   0.459   3.707   6.468  0.5352 -0.0376 -0.5020
 5132SOL     OW27031   0.826   0.304  14.000  0.3636 -0.2954 -0.1609
 5132SOL    HW127032   0.751   0.320  14.056  0.6147 -1.3491  0.4760
 5132SOL    HW227033   0.893   0.334  14.061  1.3899 -2.1451 -0.3803
 5133SOL     OW27034   0.844   3.447   7.409 -0.0916 -0.1051  0.2314
 5133SOL    HW127035   0.857   3.416   7.320 -0.5276 -1.7442  0.7513
 5133SOL    HW227036   0.820   3.540   7.406  1.3707  0.2143 -1.5715
 5134SOL     OW27037   3.616   0.829   9.887  0.4206 -0.3505 -0.0563
 5134SOL    HW127038   3.711   0.841   9.887  0.5404 -1.3036 -1.4473
 5134SOL    HW227039   3.610   0.822   9.982  0.1000 -0.7164 -0.1013
 5135SOL     OW27040   0.963   4.097   5.790  0.5174  0.3070 -0.2083
 5135SOL    HW127041   0.869   4.088   5.802  0.2841  2.5812 -0.2887
 5135SOL    HW227042   0.990   4.159   5.858  1.6038  0.8687 -1.1568
 5136SOL     OW27043   4.147   4.109   3.187  0.1945  0.1049 -0.1000
 5136SOL    HW127044   4.067   4.058   3.199  0.4725 -0.3894 -0.3406
 5136SOL    HW227045   4.111   4.191   3.222  1.4718 -0.2870  2.1236
 5137SOL     OW27046   0.981   2.135   7.272  0.3988 -0.2583  0.1323
 5137SOL    HW127047   0.924   2.171   7.204 -0.3436 -1.6636 -0.0000
 5137SOL    HW227048   0.922   2.066   7.304 -0.6842  0.9399  0.7079
 5138SOL     OW27049   1.711   0.512   4.117 -0.7228  0.8593  0.2340
 5138SOL    HW127050   1.748   0.523   4.030  0.6446  0.7245  0.7937
 5138SOL    HW227051   1.668   0.427   4.113  1.8815 -0.4091 -0.5232
 5139SOL     OW27052   2.505   2.840   2.936  0.0628  0.1373 -0.5291
 5139SOL    HW127053   2.579   2.869   2.883  1.0728  3.4833  2.7397
 5139SOL    HW227054   2.501   2.745   2.920 -1.6139 -0.2469  2.1386
 5140SOL     OW27055   4.269   3.091   2.948 -0.2804  0.4935 -0.0949
 5140SOL    HW127056   4.289   3.175   2.988 -1.6148  0.5224  0.5114
 5140SOL    HW227057   4.260   3.041   3.029  1.1839  0.6731  0.1853
 5141SOL     OW27058   3.619   0.582   4.557 -0.0525 -0.0273  0.1865
 5141SOL    HW127059   3.536   0.624   4.580  1.0816 -0.0724  4.3488
 5141SOL    HW227060   3.607   0.570   4.463 -0.0731  0.9154  0.0692
 5142SOL     OW27061   0.946   3.516   9.166  0.2075  0.0431 -1.0476
 5142SOL    HW127062   0.884   3.524   9.094 -0.5670 -4.5853 -0.8530
 5142SOL    HW227063   0.953   3.422   9.179  1.9541 -0.1773 -3.5974
 5143SOL     OW27064   3.902   3.013   3.591 -0.1135  0.3781  0.0411
 5143SOL    HW127065   3.879   2.927   3.625 -0.0830 -0.6648 -2.5252
 5143SOL    HW227066   3.948   3.056   3.663 -1.4209  0.4915  0.8101
 5144SOL     OW27067   4.234   1.610   2.406  0.0294 -0.2530 -0.1990
 5144SOL    HW127068   4.197   1.639   2.322  0.3215 -2.4157 -1.0917
 5144SOL    HW227069   4.165   1.642   2.464 -0.4108 -1.4956 -0.0397
 5145SOL     OW27070   0.514   0.680   7.025 -0.1300 -0.2665 -0.0597
 5145SOL    HW127071   0.500   0.589   7.001 -0.7563 -0.3417  0.5883
 5145SOL    HW227072   0.604   0.677   7.058  0.1743  1.5089 -0.7134
 5146SOL     OW27073   2.096   1.115   2.823  0.3151  0.0921 -0.0156
 5146SOL    HW127074   2.062   1.026   2.814 -0.1002  0.1638  0.8306
 5146SOL    HW227075   2.073   1.154   2.739 -3.6036 -0.0533  1.0135
 5147SOL     OW27076   0.177   2.867   3.498  0.4336  0.1061  0.2572
 5147SOL    HW127077   0.159   2.915   3.579 -3.2551 -2.1713  0.7632
 5147SOL    HW227078   0.224   2.935   3.449  0.7924 -1.0999 -1.0761
 5148SOL     OW27079   0.994   2.447   4.031  0.3899  0.3823  0.6039
 5148SOL    HW127080   1.018   2.387   4.102  0.3199 -2.4610 -1.7978
 5148SOL    HW227081   1.011   2.529   4.076  0.7402  1.5430 -1.6602
 5149SOL     OW27082   2.398   3.350   3.637  0.1202 -0.0514 -0.6251
 5149SOL    HW127083   2.332   3.370   3.703  2.7550  1.9519  1.4621
 5149SOL    HW227084   2.442   3.435   3.625  0.9357 -0.3652  0.1153
 5150SOL     OW27085   0.400   3.533   4.369  0.0226  0.5556  0.0428
 5150SOL    HW127086   0.466   3.505   4.306 -1.4134 -2.0610 -0.3252
 5150SOL    HW227087   0.396   3.449   4.416  4.5661  1.0859  1.3211
 5151SOL     OW27088   1.780   1.229   6.213 -0.1942  0.5899  0.8982
 5151SOL    HW127089   1.760   1.168   6.142  1.3940  1.6939 -0.5161
 5151SOL    HW227090   1.866   1.256   6.180  1.1538 -0.9777  3.1450
 5152SOL     OW27091   2.424   4.237   5.669 -0.3048 -0.2464  0.3037
 5152SOL    HW127092   2.361   4.308   5.658 -0.1331 -0.0977  0.2803
 5152SOL    HW227093   2.367   4.165   5.694  0.0938  0.5186  3.4953
 5153SOL     OW27094   1.959   2.152  15.741 -0.7639  0.5826 -0.5090
 5153SOL    HW127095   1.910   2.077  15.707  1.0772 -0.3234 -1.1940
 5153SOL    HW227096   1.898   2.224  15.722 -1.1085  0.7796  1.3362
 5154SOL     OW27097   3.380   2.263   5.418  0.2408 -0.0946 -0.4693
 5154SOL    HW127098   3.340   2.301   5.496 -0.0392 -1.2175 -0.0660
 5154SOL    HW227099   3.348   2.173   5.426  1.1463 -0.3156  0.6847
 5155SOL     OW27100   0.072   2.421  13.461  0.3857  0.3203 -0.3289
 5155SOL    HW127101   0.046   2.333  13.488  1.4312  0.2847  0.5562
 5155SOL    HW227102   0.086   2.458  13.548 -4.5590  1.3583  0.0185
 5156SOL     OW27103   0.913   2.651   5.769  0.2366  0.0988  0.3315
 5156SOL    HW127104   0.988   2.613   5.814  0.8713  0.2330 -0.6111
 5156SOL    HW227105   0.869   2.659   5.853  0.9491  0.4598  0.6671
 5157SOL     OW27106   4.133   3.916  16.048  0.5033  0.1002 -0.3893
 5157SOL    HW127107   4.131   3.877  15.961  1.6812 -2.1366  0.5844
 5157SOL    HW227108   4.069   3.986  16.044 -0.5679 -0.6698  3.4067
 5158SOL     OW27109   4.264   1.900   9.059 -0.0460 -0.7249  0.0589
 5158SOL    HW127110   4.235   1.893   9.150  1.0398  0.0474  0.4635
 5158SOL    HW227111   4.281   1.806   9.047  1.5033 -0.6850  1.8764
 5159SOL     OW27112   0.272   4.236   5.828  0.1672 -0.0822 -0.1861
 5159SOL    HW127113   0.319   4.281   5.899 -0.2316 -0.9545  0.6322
 5159SOL    HW227114   0.190   4.285   5.834 -0.1402 -0.5912 -0.3352
 5160SOL     OW27115   3.771   1.357   3.948 -0.2334 -0.2592 -0.3291
 5160SOL    HW127116   3.679   1.338   3.971 -0.0075  0.5061  1.2341
 5160SOL    HW227117   3.765   1.313   3.863  0.2957 -0.7723 -0.1035
 5161SOL     OW27118   3.536   1.272   7.872  0.3686  0.2707  0.5014
 5161SOL    HW127119   3.515   1.293   7.781  1.2715 -2.0252 -0.2342
 5161SOL    HW227120   3.462   1.219   7.904  1.0121 -1.5044 -0.9260
 5162SOL     OW27121   1.605   3.648   7.539  0.8426 -0.2076 -0.1139
 5162SOL    HW127122   1.690   3.606   7.548  0.1935 -1.2696  1.1430
 5162SOL    HW227123   1.552   3.582   7.495  0.0909  1.4792 -1.7131
 5163SOL     OW27124   2.387   0.342   4.894  0.2478 -0.1803  0.6997
 5163SOL    HW127125   2.330   0.272   4.927  0.1689 -0.0929  0.7477
 5163SOL    HW227126   2.343   0.372   4.815  1.8895 -0.3196 -0.2509
 5164SOL     OW27127   2.052   0.233   8.101 -0.3938  0.0737 -0.1037
 5164SOL    HW127128   1.972   0.237   8.047 -0.7826  2.4926  0.6727
 5164SOL    HW227129   2.046   0.311   8.156 -0.4272 -0.5401  0.7774
 5165SOL     OW27130   4.606   3.909   6.242 -0.1244 -0.1110  0.2124
 5165SOL    HW127131   4.671   3.929   6.174  0.9497 -0.0551  1.2527
 5165SOL    HW227132   4.671   3.870   6.301  1.3570  0.7085 -0.8681
 5166SOL     OW27133   2.909   3.040   3.269  0.0601 -0.4164 -0.2130
 5166SOL    HW127134   2.841   3.028   3.203 -0.8830 -1.4954  0.9438
 5166SOL    HW227135   2.973   3.096   3.225  1.2836 -0.8004  1.0613
 5167SOL     OW27136   4.013   1.927  11.701 -0.3625 -0.3928  0.3482
 5167SOL    HW127137   4.067   1.872  11.758  1.0942  2.7428  2.0598
 5167SOL    HW227138   3.977   1.884  11.624  1.2252 -0.1354 -0.5287
 5168SOL     OW27139   2.471   0.491   4.325 -0.1733  0.2749 -0.1328
 5168SOL    HW127140   2.477   0.399   4.350 -0.3249 -0.0402 -1.2256
 5168SOL    HW227141   2.562   0.513   4.310 -0.7826  3.0974  0.4312
 5169SOL     OW27142   2.612   2.527   5.737 -0.5750 -0.4659 -0.9019
 5169SOL    HW127143   2.608   2.473   5.816  2.1942  1.0592  0.3018
 5169SOL    HW227144   2.539   2.587   5.749  0.0624 -0.2179  1.6496
 5170SOL     OW27145   2.721   2.616   1.356  0.0873 -0.4219 -0.4880
 5170SOL    HW127146   2.723   2.596   1.262 -1.4764  2.3781 -1.1022
 5170SOL    HW227147   2.787   2.684   1.367  2.4080 -2.8230  0.5287
 5171SOL     OW27148   0.086   1.368  15.175 -0.3838  0.0491  0.0425
 5171SOL    HW127149   0.122   1.457  15.179  1.0710 -0.5235 -0.3177
 5171SOL    HW227150   0.046   1.364  15.261 -1.6730  0.5637 -0.5248
 5172SOL     OW27151   3.887   1.805   6.599 -0.0682 -0.0329 -0.1804
 5172SOL    HW127152   3.846   1.724   6.629  0.0532  0.1915  0.6100
 5172SOL    HW227153   3.958   1.779   6.541  0.6271 -0.5572  0.8945
 5173SOL     OW27154   4.376   2.909   1.282  0.1979  0.0311 -0.2628
 5173SOL    HW127155   4.412   2.821   1.268  2.9919  1.3779 -1.6540
 5173SOL    HW227156   4.309   2.919   1.216 -0.0404  0.5519  0.0596
 5174SOL     OW27157   2.535   3.448   7.716 -0.5994 -0.0408  0.0475
 5174SOL    HW127158   2.524   3.356   7.690 -2.9718 -0.3443  2.0643
 5174SOL    HW227159   2.484   3.483   7.643 -0.4819 -0.6401 -0.3174
 5175SOL     OW27160   3.374   1.441   8.579  0.0945 -0.8103 -0.2295
 5175SOL    HW127161   3.362   1.428   8.673 -0.3101 -0.2374 -0.1976
 5175SOL    HW227162   3.330   1.362   8.546 -0.8471  0.0096 -0.9343
 5176SOL     OW27163   4.715   3.001   6.028 -0.6325  0.1665  0.2159
 5176SOL    HW127164   0.044   3.068   6.048 -2.3015  2.2844 -1.4522
 5176SOL    HW227165   4.705   2.953   6.110  1.2392  2.2148  1.6008
 5177SOL     OW27166   2.208   2.636   6.028  0.0132  0.4154  0.6544
 5177SOL    HW127167   2.123   2.649   6.069 -0.2168 -0.8148  0.5486
 5177SOL    HW227168   2.185   2.659   5.938  0.6870 -1.9061 -0.1054
 5178SOL     OW27169   1.537   4.474   4.088 -0.1071  0.6910  0.3698
 5178SOL    HW127170   1.563   4.505   4.175  1.7140  0.0624  0.0308
 5178SOL    HW227171   1.550   4.543   4.024 -1.1229  1.6702  1.2109
 5179SOL     OW27172   4.687   0.756   4.795  0.5727 -0.1780 -0.2544
 5179SOL    HW127173   4.725   0.703   4.726 -0.7068 -0.8603 -0.4484
 5179SOL    HW227174   4.729   0.730   4.877  0.1458  0.0364  0.0324
 5180SOL     OW27175   2.915   3.621   4.106 -0.3847  0.0141 -0.1811
 5180SOL    HW127176   2.863   3.698   4.131 -3.1233 -2.2800  1.1525
 5180SOL    HW227177   2.942   3.634   4.015  0.1008  2.2985  0.2781
 5181SOL     OW27178   2.839   1.401   3.366 -0.1080 -0.1275  0.5189
 5181SOL    HW127179   2.846   1.444   3.451 -3.1564  0.6277  0.3914
 5181SOL    HW227180   2.892   1.463   3.315 -0.3230  1.0405  1.7096
 5182SOL     OW27181   1.749   0.121   5.305  0.1759  0.1619  0.9891
 5182SOL    HW127182   1.714   0.130   5.217 -0.8319 -0.0289  1.3759
 5182SOL    HW227183   1.716   0.035   5.330 -1.0039  0.4629  0.4407
 5183SOL     OW27184   3.211   3.172   9.700 -0.9722  0.4646 -0.0953
 5183SOL    HW127185   3.217   3.090   9.748  2.0901  1.3826  1.1246
 5183SOL    HW227186   3.272   3.140   9.633 -1.1767  4.5304 -2.2305
 5184SOL     OW27187   1.072   4.557   5.639  0.3329 -0.1565 -0.1918
 5184SOL    HW127188   1.000   4.495   5.632  2.2909 -2.4714  0.1688
 5184SOL    HW227189   1.044   4.616   5.709  1.8482 -0.8836  1.0377
 5185SOL     OW27190   1.471   4.235   3.937  0.4419 -0.4164 -0.6775
 5185SOL    HW127191   1.433   4.293   3.871 -0.7353 -0.1939  0.2078
 5185SOL    HW227192   1.505   4.294   4.004  0.5921 -1.5544  0.2477
 5186SOL     OW27193   1.003   0.903   7.862  0.2835 -0.6108  0.7914
 5186SOL    HW127194   0.992   0.991   7.827 -1.4995 -1.7977 -1.6229
 5186SOL    HW227195   1.077   0.926   7.919  1.0857  0.0563 -0.5189
 5187SOL     OW27196   3.105   1.013   4.877  0.1138 -0.6107 -0.0400
 5187SOL    HW127197   3.138   1.099   4.902 -0.7111 -0.1616 -0.5157
 5187SOL    HW227198   3.012   1.021   4.898  0.4709  0.2018  1.2210
 5188SOL     OW27199   4.037   3.779   8.268 -0.6620  0.3669 -0.0160
 5188SOL    HW127200   4.043   3.701   8.213 -2.0251  0.5513 -0.4299
 5188SOL    HW227201   4.130   3.793   8.287 -0.8733  1.0848  0.4829
 5189SOL     OW27202   2.581   4.551   5.539 -0.5181 -0.3981 -0.0938
 5189SOL    HW127203   2.599   4.631   5.489  0.7899 -1.8106 -1.9006
 5189SOL    HW227204   2.647   4.555   5.608 -0.3739 -1.7870 -0.1584
 5190SOL     OW27205   3.750   0.439   8.050 -0.0113  0.3114 -0.4397
 5190SOL    HW127206   3.761   0.348   8.024 -1.5340 -0.4376  1.5075
 5190SOL    HW227207   3.660   0.432   8.081 -0.4661 -0.7526 -2.0433
 5191SOL     OW27208   2.605   2.571  14.755 -0.3781  0.0630 -0.2811
 5191SOL    HW127209   2.617   2.564  14.850  0.7289 -1.5995 -0.5392
 5191SOL    HW227210   2.593   2.479  14.733  1.8960 -0.5630  1.0620
 5192SOL     OW27211   4.517   0.893  11.618  0.6734  0.0766  0.3556
 5192SOL    HW127212   4.439   0.895  11.674 -0.9483  2.7741 -2.0281
 5192SOL    HW227213   4.528   0.798  11.615 -1.4708 -0.1837  0.6641
 5193SOL     OW27214   0.016   1.814  15.401 -0.3173 -0.0511 -0.2664
 5193SOL    HW127215   4.732   1.785  15.490  0.5287  2.2547  0.6608
 5193SOL    HW227216   4.671   1.810  15.349 -0.1817 -0.3376 -0.4577
 5194SOL     OW27217   4.331   3.154  16.913  0.7386 -0.4196  0.6040
 5194SOL    HW127218   4.335   3.153  17.008  1.0015 -2.2151  0.5713
 5194SOL    HW227219   4.305   3.063  16.897 -0.3449 -0.1984  1.1337
 5195SOL     OW27220   3.061   2.988   5.954  0.0462 -0.5046  0.3322
 5195SOL    HW127221   2.975   3.009   5.917 -0.5332 -2.4140  0.5878
 5195SOL    HW227222   3.091   2.947   5.873 -0.0778 -0.2314  0.1491
 5196SOL     OW27223   1.840   2.461   2.484 -0.2993 -0.4973 -0.1622
 5196SOL    HW127224   1.802   2.477   2.571  0.7278  0.3746  0.1332
 5196SOL    HW227225   1.805   2.538   2.439  0.6771  0.4347  0.6506
 5197SOL     OW27226   3.376   1.677   7.606 -0.7742  0.1711 -0.3818
 5197SOL    HW127227   3.412   1.762   7.628 -2.3256  0.8717 -0.5831
 5197SOL    HW227228   3.340   1.696   7.519  2.8310  2.3596 -1.4098
 5198SOL     OW27229   0.303   2.375  14.549  0.1744 -0.4188 -0.7129
 5198SOL    HW127230   0.361   2.312  14.508  1.7207  1.6940 -1.7592
 5198SOL    HW227231   0.259   2.319  14.614  0.4139  0.4218  0.1792
 5199SOL     OW27232   3.657   2.895   9.763  0.0633 -0.9231 -0.4932
 5199SOL    HW127233   3.639   2.830   9.831 -0.0656  0.0431  0.3969
 5199SOL    HW227234   3.709   2.963   9.806 -0.4446  1.1427 -3.1057
 5200SOL     OW27235   3.839   1.387   9.051  0.1797  0.1065  0.1291
 5200SOL    HW127236   3.769   1.431   9.003 -1.5782 -0.5710  2.0757
 5200SOL    HW227237   3.787   1.326   9.102 -0.9771 -0.2823 -1.5139
 5201SOL     OW27238   4.026   3.572  10.951  0.5870  0.0746 -0.1071
 5201SOL    HW127239   4.094   3.563  11.018 -1.6833  3.1018  2.6527
 5201SOL    HW227240   3.958   3.507  10.968  0.7724  0.1800  1.0314
 5202SOL     OW27241   2.340   0.091   5.286  0.1400  0.3185  0.2229
 5202SOL    HW127242   2.386   0.074   5.203  1.7336  0.6891  1.0311
 5202SOL    HW227243   2.287   0.012   5.295  0.7621 -0.2179 -0.6972
 5203SOL     OW27244   1.296   1.581  14.152  0.0786  0.2923 -0.5349
 5203SOL    HW127245   1.214   1.619  14.184 -0.4916  0.8478 -2.6360
 5203SOL    HW227246   1.332   1.556  14.237 -2.0191  0.0212  0.2865
 5204SOL     OW27247   2.465   2.497   1.310 -0.1619 -0.2152  0.3107
 5204SOL    HW127248   2.436   2.498   1.401 -2.4268 -1.6620 -0.3893
 5204SOL    HW227249   2.490   2.589   1.300 -0.8188  0.0047  0.6670
 5205SOL     OW27250   3.874   3.297   4.478 -0.1569  0.5630  0.5311
 5205SOL    HW127251   3.901   3.332   4.393  0.6716 -0.3491  0.4110
 5205SOL    HW227252   3.794   3.251   4.452  0.7437  0.4840 -2.0953
 5206SOL     OW27253   3.327   0.348   1.905 -0.3757  0.1675  0.1520
 5206SOL    HW127254   3.325   0.379   1.996  2.5570  1.0579 -0.0772
 5206SOL    HW227255   3.395   0.400   1.863  0.9252 -1.1076  0.6999
 5207SOL     OW27256   2.669   1.901   7.945  0.8061 -0.0629 -0.1432
 5207SOL    HW127257   2.643   1.819   7.904  0.8156  0.7987 -1.8625
 5207SOL    HW227258   2.757   1.907   7.910  0.8489  1.9540  0.2757
 5208SOL     OW27259   4.545   2.939  10.682  0.2332 -0.3405 -0.6032
 5208SOL    HW127260   4.582   2.982  10.605  0.2831 -0.0502 -0.4187
 5208SOL    HW227261   4.460   2.907  10.653  0.1356  0.0389 -0.7356
 5209SOL     OW27262   0.749   0.536   1.574 -0.0501 -0.1388 -0.4213
 5209SOL    HW127263   0.666   0.490   1.570  0.5715 -1.1890 -1.1322
 5209SOL    HW227264   0.816   0.469   1.562 -1.6955 -1.6636 -1.0606
 5210SOL     OW27265   2.660   1.652  16.581 -0.1961 -0.1929  0.0704
 5210SOL    HW127266   2.750   1.680  16.567 -1.1251  3.0767  0.4648
 5210SOL    HW227267   2.623   1.704  16.654  1.2308  0.2295  0.4841
 5211SOL     OW27268   4.040   4.007  11.274  0.0780 -0.3341  0.6120
 5211SOL    HW127269   4.043   3.927  11.221 -0.8956 -0.1755  0.3113
 5211SOL    HW227270   3.959   3.994  11.324  0.2033 -0.4118  0.7941
 5212SOL     OW27271   0.298   1.482   5.598 -0.3813  0.6506 -0.1186
 5212SOL    HW127272   0.208   1.451   5.613 -0.4139  0.6287 -0.3618
 5212SOL    HW227273   0.279   1.544   5.528 -1.3129  0.6304  0.1120
 5213SOL     OW27274   2.127   4.087   7.282  0.1984 -0.5743 -0.4368
 5213SOL    HW127275   2.066   4.018   7.306  0.0805 -0.2487  0.2008
 5213SOL    HW227276   2.207   4.062   7.329 -1.2035 -1.1843  1.6331
 5214SOL     OW27277   3.298   3.664   3.229 -0.3116 -0.2565  0.0803
 5214SOL    HW127278   3.233   3.732   3.247  0.2647  0.2907  0.0574
 5214SOL    HW227279   3.376   3.686   3.280 -1.2013 -0.6979  1.6420
 5215SOL     OW27280   2.259   3.537   1.958 -0.3586  0.1379  0.1167
 5215SOL    HW127281   2.211   3.537   2.041  0.8207 -0.8321  0.8163
 5215SOL    HW227282   2.215   3.607   1.910  0.8081  2.2712  2.1515
 5216SOL     OW27283   3.611   0.352   3.333  0.5435  0.4991 -0.0608
 5216SOL    HW127284   3.701   0.371   3.307  1.3760 -0.8247  1.8746
 5216SOL    HW227285   3.574   0.440   3.334 -1.4387 -0.3181 -0.7887
 5217SOL     OW27286   3.341   0.923   7.593 -0.2083  0.3399  0.1219
 5217SOL    HW127287   3.422   0.876   7.613 -0.5364 -0.3850 -0.2363
 5217SOL    HW227288   3.317   0.962   7.677  0.7241  1.2856 -0.0526
 5218SOL     OW27289   3.915   3.492   4.919 -0.4846  0.1640  0.3195
 5218SOL    HW127290   3.945   3.461   4.834  0.2873 -1.3809  1.1471
 5218SOL    HW227291   3.899   3.409   4.965 -0.9719  0.7255  1.1786
 5219SOL     OW27292   0.031   1.982   6.195 -0.1490  0.0571 -0.3881
 5219SOL    HW127293   0.051   2.010   6.106  0.8665  0.4714 -0.0325
 5219SOL    HW227294   0.013   1.895   6.159 -2.7660 -0.4344  2.0797
 5220SOL     OW27295   0.142   3.305   5.749 -0.3160 -0.2481  0.1049
 5220SOL    HW127296   0.073   3.367   5.724 -0.1326 -0.0618  0.0589
 5220SOL    HW227297   0.097   3.226   5.779  0.7920 -1.0101 -0.2696
 5221SOL     OW27298   0.238   3.314  16.646  0.0342 -0.1533 -0.2625
 5221SOL    HW127299   0.177   3.352  16.583 -0.7574  2.0907  1.8289
 5221SOL    HW227300   0.238   3.223  16.618 -0.0829 -0.4193  0.5880
 5222SOL     OW27301   4.358   2.299  15.704  0.2785 -0.6782 -0.0592
 5222SOL    HW127302   4.294   2.355  15.663 -0.1895  0.2920  1.9905
 5222SOL    HW227303   4.297   2.233  15.738 -0.5229 -0.1909 -0.5560
 5223SOL     OW27304   0.561   2.840   3.792 -0.0119  0.2282  0.0592
 5223SOL    HW127305   0.586   2.771   3.854 -0.9932 -1.5588 -1.5271
 5223SOL    HW227306   0.542   2.797   3.709 -0.4206 -0.7460  0.6604
 5224SOL     OW27307   3.257   1.089   4.640  0.2106 -0.4438  0.2593
 5224SOL    HW127308   3.203   1.067   4.716 -0.4445 -2.5877 -0.8337
 5224SOL    HW227309   3.237   1.180   4.620  1.7653  0.1257  1.2857
 5225SOL     OW27310   2.092   1.680  13.041  0.0689  0.3217  0.3897
 5225SOL    HW127311   2.181   1.684  13.008  0.6213  1.7430  2.0889
 5225SOL    HW227312   2.095   1.762  13.089 -0.3971  0.0924  0.8224
 5226SOL     OW27313   4.634   3.972  15.010  0.2257 -0.5709  0.0592
 5226SOL    HW127314   4.706   4.020  15.051 -1.1474 -0.4955  2.3416
 5226SOL    HW227315   4.566   4.037  15.030 -0.3466 -0.9559 -0.6653
 5227SOL     OW27316   2.216   2.068   2.027 -0.3769 -0.3796 -0.0832
 5227SOL    HW127317   2.283   2.004   2.006  1.7873  2.2978 -1.3452
 5227SOL    HW227318   2.281   2.136   2.048 -1.3110  0.2072  0.9240
 5228SOL     OW27319   3.288   1.619   4.906 -0.3452  0.3773  0.4404
 5228SOL    HW127320   3.205   1.614   4.857 -0.5211  0.0882  0.7698
 5228SOL    HW227321   3.333   1.702   4.890  1.5864 -0.3914  1.9170
 5229SOL     OW27322   1.985   2.256   2.219 -0.0695 -0.1133  0.6289
 5229SOL    HW127323   2.046   2.318   2.258  1.0016 -0.6244 -0.2448
 5229SOL    HW227324   2.036   2.216   2.148 -0.1986 -1.7271  1.4522
 5230SOL     OW27325   4.505   4.424   1.162 -0.3546  0.1760  0.5743
 5230SOL    HW127326   4.585   4.465   1.127 -0.2152  0.7922  1.6218
 5230SOL    HW227327   4.519   4.473   1.243 -1.2002  2.4209 -0.6579
 5231SOL     OW27328   2.159   0.586   1.853  0.3150 -1.1599 -0.2987
 5231SOL    HW127329   2.218   0.550   1.919  1.2797  1.2643  0.1454
 5231SOL    HW227330   2.217   0.657   1.825 -0.6516  0.1257  0.9803
 5232SOL     OW27331   2.363   0.049  14.406  0.3246  0.4715 -0.7868
 5232SOL    HW127332   2.321   0.045  14.320 -0.2043  1.3387 -0.5677
 5232SOL    HW227333   2.361   0.144  14.414  0.3849  0.5256 -1.4394
 5233SOL     OW27334   2.319   2.812   4.125  0.4259 -0.2540  0.3316
 5233SOL    HW127335   2.361   2.730   4.151  0.7902 -0.3821 -0.6387
 5233SOL    HW227336   2.393   2.847   4.074 -1.0274  2.4179  0.0410
 5234SOL     OW27337   1.503   1.312   5.767 -0.2503  0.5512  0.3763
 5234SOL    HW127338   1.428   1.365   5.740  1.4705  2.8914  0.2411
 5234SOL    HW227339   1.548   1.311   5.683 -0.6825 -1.1457  0.1583
 5235SOL     OW27340   2.035   2.855   6.484  0.7295 -0.1324 -0.2650
 5235SOL    HW127341   1.952   2.903   6.477  1.6146  1.2462 -1.2570
 5235SOL    HW227342   2.068   2.875   6.396  0.0539  1.7786 -0.0933
 5236SOL     OW27343   4.515   2.086   2.139  0.3737 -0.1487 -0.5968
 5236SOL    HW127344   4.573   2.161   2.154  0.3595 -0.0759 -0.9025
 5236SOL    HW227345   4.468   2.119   2.063  0.1151  0.6205 -0.0999
 5237SOL     OW27346   4.337   3.110  17.169 -0.0775  0.2602 -0.6314
 5237SOL    HW127347   4.283   3.086  17.244 -1.5684  1.1929 -1.4075
 5237SOL    HW227348   4.404   3.159  17.216 -0.6899  0.2128  0.2762
 5238SOL     OW27349   2.504   0.541   8.589 -0.4502 -0.3968  0.1960
 5238SOL    HW127350   2.537   0.452   8.598 -2.3153 -0.8180  2.7932
 5238SOL    HW227351   2.410   0.530   8.575 -0.6896 -0.8064  2.1055
 5239SOL     OW27352   3.144   1.877   3.358 -0.5968  0.1277  0.3310
 5239SOL    HW127353   3.234   1.911   3.352 -1.6777  3.1402  1.2708
 5239SOL    HW227354   3.160   1.815   3.287 -0.8246  0.8427 -0.3515
 5240SOL     OW27355   1.638   2.581  10.720  0.4255 -0.0856 -0.9451
 5240SOL    HW127356   1.699   2.628  10.777  0.2358 -1.0263  0.0393
 5240SOL    HW227357   1.588   2.541  10.791  1.7005  0.6088  0.3556
 5241SOL     OW27358   4.415   3.987   1.611 -0.0691  0.6924  0.1892
 5241SOL    HW127359   4.448   4.024   1.528 -0.8043  1.7898  0.3929
 5241SOL    HW227360   4.325   3.979   1.581 -0.5535  0.8548  1.6073
 5242SOL     OW27361   3.740   1.099   9.087 -0.2647 -0.2653  0.4633
 5242SOL    HW127362   3.692   1.017   9.100  0.2126 -0.6525 -0.2197
 5242SOL    HW227363   3.773   1.098   8.997  2.2101  0.1627  1.3516
 5243SOL     OW27364   3.795   4.205   1.120 -0.2723 -0.6421  0.1922
 5243SOL    HW127365   3.705   4.180   1.101 -0.5205 -0.5103  1.2274
 5243SOL    HW227366   3.831   4.184   1.033 -0.7725 -0.8675  0.0361
 5244SOL     OW27367   3.463   2.153   5.715 -0.4783  0.5281 -0.4215
 5244SOL    HW127368   3.493   2.195   5.796  1.3972  0.8963 -1.3088
 5244SOL    HW227369   3.369   2.148   5.730 -0.8871 -0.4547 -3.2996
 5245SOL     OW27370   0.302   0.343   4.513  0.3796 -0.0936  0.0717
 5245SOL    HW127371   0.264   0.272   4.564  0.9998 -0.6380 -0.2400
 5245SOL    HW227372   0.359   0.384   4.578 -1.2838 -0.3730  1.7356
 5246SOL     OW27373   4.547   2.911   6.474  0.1178  0.0967  0.4362
 5246SOL    HW127374   4.583   2.999   6.462  0.7221 -0.0322  1.2685
 5246SOL    HW227375   4.623   2.856   6.453 -0.7964 -0.1543 -2.2135
 5247SOL     OW27376   4.649   1.503   2.630  0.2011 -0.0895 -0.0683
 5247SOL    HW127377   4.575   1.562   2.621 -0.8721 -1.6253 -1.2391
 5247SOL    HW227378   4.664   1.496   2.536  1.6456  1.0723  0.0745
 5248SOL     OW27379   2.521   3.035   3.119  0.8799  0.3157  0.5456
 5248SOL    HW127380   2.494   2.975   3.050 -2.9022  1.2608  1.1923
 5248SOL    HW227381   2.590   2.980   3.157  3.1238  3.1526  0.5513
 5249SOL     OW27382   1.687   1.552   5.127  0.1006 -0.1705 -0.0936
 5249SOL    HW127383   1.778   1.561   5.099 -0.2243 -0.4917 -1.2764
 5249SOL    HW227384   1.665   1.459   5.116  3.9019 -1.2753  1.4193
 5250SOL     OW27385   2.602   1.325   4.203 -0.3256  0.8722  0.3542
 5250SOL    HW127386   2.601   1.367   4.117 -0.7831 -1.5192 -0.7872
 5250SOL    HW227387   2.638   1.395   4.258  0.5136 -0.6236  1.7226
 5251SOL     OW27388   2.711   2.984  11.701 -0.2071  0.4336  0.7043
 5251SOL    HW127389   2.656   2.955  11.629  0.6326  2.7090 -0.8593
 5251SOL    HW227390   2.780   3.015  11.642 -0.7543 -0.1092 -0.2173
 5252SOL     OW27391   0.830   2.018  11.618  0.8619 -0.2864 -0.2976
 5252SOL    HW127392   0.866   1.966  11.690  0.5794 -1.0559 -0.7055
 5252SOL    HW227393   0.765   1.951  11.596  0.7499  0.2193 -1.4908
 5253SOL     OW27394   2.813   3.314  16.935 -0.2672  0.5032  0.2477
 5253SOL    HW127395   2.755   3.389  16.952  0.0645  0.8580 -0.1828
 5253SOL    HW227396   2.821   3.329  16.840 -0.7659 -0.3694  0.0732
 5254SOL     OW27397   1.285   2.837   3.889  0.2270 -0.5847 -0.5544
 5254SOL    HW127398   1.255   2.779   3.819  3.2622 -3.9663  0.9506
 5254SOL    HW227399   1.318   2.775   3.954 -1.8616 -0.3744  0.7283
 5255SOL     OW27400   3.064   3.981   1.728  0.4461 -0.0034 -0.3870
 5255SOL    HW127401   2.985   4.015   1.770  0.1888 -0.5199 -0.4637
 5255SOL    HW227402   3.120   3.981   1.806  0.4063 -0.2941 -0.3616
 5256SOL     OW27403   4.711   3.804  11.990 -0.4060 -0.2580  0.5636
 5256SOL    HW127404   0.020   3.748  12.053 -1.3185 -1.0107  0.5409
 5256SOL    HW227405   4.716   3.890  12.031 -0.3000 -0.8843  1.8516
 5257SOL     OW27406   0.432   2.729   6.965  0.0871 -0.7225 -0.3837
 5257SOL    HW127407   0.517   2.709   6.925  0.8754  1.1330  0.3170
 5257SOL    HW227408   0.417   2.811   6.919  1.7123 -0.4380 -0.4124
 5258SOL     OW27409   0.185   1.439   3.975  0.1950 -0.2428  0.1512
 5258SOL    HW127410   0.260   1.487   4.009  1.2682 -2.2040  0.5262
 5258SOL    HW227411   0.164   1.394   4.057  0.8582  1.7234  1.4106
 5259SOL     OW27412   0.289   2.778   2.123  0.4783  0.0881  0.2109
 5259SOL    HW127413   0.271   2.860   2.168 -1.6908 -1.2702  1.8435
 5259SOL    HW227414   0.264   2.716   2.192  1.8209 -0.9361 -0.2276
 5260SOL     OW27415   3.537   3.238   9.231  0.0815  0.3964 -0.5286
 5260SOL    HW127416   3.473   3.176   9.267 -0.5117  1.8920  0.9646
 5260SOL    HW227417   3.533   3.304   9.300 -0.6213  1.4679 -1.6055
 5261SOL     OW27418   3.502   2.277   4.238  0.0547 -0.7745  0.6758
 5261SOL    HW127419   3.529   2.366   4.215 -2.5410 -0.6644 -1.9359
 5261SOL    HW227420   3.469   2.259   4.150  1.8171  0.6144 -0.2684
 5262SOL     OW27421   4.559   1.268   4.399  0.5016  0.2485  0.3151
 5262SOL    HW127422   4.537   1.175   4.397  0.6148  0.1849  2.5224
 5262SOL    HW227423   4.535   1.284   4.307 -1.0157 -0.0484  0.6526
 5263SOL     OW27424   3.632   2.899  11.636  0.0616 -0.6218 -0.3287
 5263SOL    HW127425   3.575   2.827  11.664 -2.2694  0.8500 -1.3079
 5263SOL    HW227426   3.576   2.976  11.638  0.1538 -0.6699  3.5865
 5264SOL     OW27427   0.330   2.677  11.609 -0.0516  0.1853 -0.2215
 5264SOL    HW127428   0.358   2.744  11.672 -0.6190  0.3495 -0.1446
 5264SOL    HW227429   0.407   2.620  11.606 -0.6697 -0.5579 -1.4060
 5265SOL     OW27430   0.823   4.659   3.686  0.2059 -0.0184 -0.3637
 5265SOL    HW127431   0.838   4.574   3.728  0.9022  0.1214 -0.3326
 5265SOL    HW227432   0.727   4.661   3.684  0.1548 -2.7952 -0.7272
 5266SOL     OW27433   4.634   4.474   9.281 -0.0605 -0.2536 -0.4699
 5266SOL    HW127434   4.599   4.519   9.358  0.0567  0.5601 -0.8974
 5266SOL    HW227435   4.577   4.400   9.259  0.0816 -0.3556 -0.4951
 5267SOL     OW27436   0.400   2.758   7.992  0.6648 -0.0912  0.3201
 5267SOL    HW127437   0.393   2.765   8.087 -2.6084  0.7719  0.0147
 5267SOL    HW227438   0.312   2.791   7.977  0.6353  0.1385  1.0294
 5268SOL     OW27439   3.718   3.226   8.881  0.1417  0.1140  0.7639
 5268SOL    HW127440   3.765   3.273   8.812 -2.5618  0.4809 -0.8295
 5268SOL    HW227441   3.627   3.251   8.863  0.0654 -0.8515 -0.2131
 5269SOL     OW27442   2.961   2.259   9.727  0.1679 -0.1282 -0.6728
 5269SOL    HW127443   2.905   2.333   9.749  1.4787  0.9514 -0.9236
 5269SOL    HW227444   2.994   2.290   9.643  1.3946  2.6201  0.8451
 5270SOL     OW27445   2.388   3.807   4.100 -0.0604 -0.3747 -0.6814
 5270SOL    HW127446   2.309   3.759   4.125 -0.1368 -1.2483 -2.6257
 5270SOL    HW227447   2.456   3.740   4.107  0.6948  0.1917 -2.7603
 5271SOL     OW27448   4.332   3.084   8.334 -0.8255  0.3246 -0.1088
 5271SOL    HW127449   4.264   3.125   8.388  0.2713 -0.6623  2.0152
 5271SOL    HW227450   4.409   3.127   8.371 -0.2112  0.8447 -1.9985
 5272SOL     OW27451   2.921   2.458   5.144  0.1435  0.1553 -0.9969
 5272SOL    HW127452   2.982   2.439   5.215 -3.8433 -1.3819  1.9965
 5272SOL    HW227453   2.840   2.428   5.185  2.1378 -1.3481  1.8158
 5273SOL     OW27454   3.067   1.604   6.100  0.4964  0.2715 -0.4499
 5273SOL    HW127455   3.057   1.597   6.005 -1.8965  0.1239 -0.1765
 5273SOL    HW227456   3.157   1.635   6.087  0.6283  0.2794  0.4887
 5274SOL     OW27457   4.498   1.861   3.721  0.4465 -0.0077 -0.2730
 5274SOL    HW127458   4.522   1.928   3.658 -0.1515  0.4184 -0.0486
 5274SOL    HW227459   4.583   1.857   3.765 -0.3473 -2.9075  0.9906
 5275SOL     OW27460   2.316   2.247   9.161 -0.7522  0.2996  0.1812
 5275SOL    HW127461   2.346   2.160   9.135 -0.6149  0.6115 -0.7202
 5275SOL    HW227462   2.291   2.227   9.251 -0.2756 -1.0692 -0.0016
 5276SOL     OW27463   3.684   2.854  13.866 -0.0805  0.0713 -0.1014
 5276SOL    HW127464   3.673   2.857  13.961 -0.4748 -2.2908 -0.0905
 5276SOL    HW227465   3.596   2.822  13.846 -0.4151 -0.1033  1.6477
 5277SOL     OW27466   4.133   2.529   3.155  0.4617 -0.1103 -0.4645
 5277SOL    HW127467   4.092   2.580   3.225  0.8723  0.3077 -0.5202
 5277SOL    HW227468   4.133   2.590   3.081 -0.0037 -0.0115 -0.3782
 5278SOL     OW27469   3.187   3.802   6.978 -0.2567 -0.4689 -0.0565
 5278SOL    HW127470   3.129   3.841   6.912 -0.5160  2.1827  1.7113
 5278SOL    HW227471   3.246   3.875   6.999 -0.4169  0.7352 -3.7529
 5279SOL     OW27472   0.750   3.827   2.330  0.0760 -0.2285  0.0069
 5279SOL    HW127473   0.656   3.819   2.349  0.6973 -4.0624  1.3901
 5279SOL    HW227474   0.800   3.814   2.410 -1.0254  0.8333  0.8734
 5280SOL     OW27475   1.729   3.833   4.014 -0.1513 -0.6701 -0.2034
 5280SOL    HW127476   1.675   3.790   3.947 -0.2365 -0.4220 -0.2945
 5280SOL    HW227477   1.732   3.923   3.981 -1.1545 -0.1396  1.1865
 5281SOL     OW27478   2.551   1.339   4.517 -0.4824 -0.1468 -0.1141
 5281SOL    HW127479   2.523   1.403   4.583  2.7491 -0.9020  1.9951
 5281SOL    HW227480   2.602   1.397   4.460  1.0222  0.1240  1.5008
 5282SOL     OW27481   3.017   1.695   9.590 -0.0704  0.1449 -0.0398
 5282SOL    HW127482   2.945   1.753   9.614  1.4602  1.9748  0.1328
 5282SOL    HW227483   3.011   1.622   9.651 -1.2795 -1.9855 -2.7121
 5283SOL     OW27484   1.240   2.275   8.504 -0.5894 -0.6171  0.7778
 5283SOL    HW127485   1.168   2.326   8.540 -1.8086 -1.1685 -0.8798
 5283SOL    HW227486   1.320   2.327   8.513  0.3630 -1.8731 -0.4287
 5284SOL     OW27487   2.093   0.762   4.364 -0.4581  0.2408 -0.0805
 5284SOL    HW127488   2.079   0.669   4.352 -2.6058  0.3854  1.4682
 5284SOL    HW227489   2.166   0.757   4.426 -1.7852 -1.1864  1.3540
 5285SOL     OW27490   0.234   0.737   3.224 -0.6943  0.2116 -0.3058
 5285SOL    HW127491   0.313   0.737   3.170 -0.2284  1.6650  0.3708
 5285SOL    HW227492   0.237   0.648   3.258 -0.3256 -0.3419 -1.7621
 5286SOL     OW27493   3.699   4.361  17.213 -0.4486  0.5771  0.4277
 5286SOL    HW127494   3.715   4.375  17.120  2.4346 -1.3197  0.6485
 5286SOL    HW227495   3.673   4.449  17.241 -0.2606  0.5977  0.5394
 5287SOL     OW27496   4.350   2.814   8.341 -0.5305 -0.1454  0.0000
 5287SOL    HW127497   4.291   2.868   8.289 -0.8429 -0.2166  0.2792
 5287SOL    HW227498   4.357   2.883   8.407 -0.2757  0.8236 -1.0348
 5288SOL     OW27499   0.114   2.041   9.997  0.2204 -0.0340 -0.2025
 5288SOL    HW127500   0.074   1.956   9.981  1.7929 -1.1198  1.6633
 5288SOL    HW227501   0.191   2.033   9.941  0.3078  0.5527 -0.1656
 5289SOL     OW27502   3.971   2.067   3.579  0.0330  0.0316  0.0691
 5289SOL    HW127503   4.027   2.084   3.655  2.0502 -0.8639 -1.2185
 5289SOL    HW227504   3.892   2.059   3.631  0.8497 -0.1222  1.2732
 5290SOL     OW27505   3.215   0.733   4.720 -0.1672  0.1678  0.3904
 5290SOL    HW127506   3.275   0.807   4.715 -0.3402  0.2106 -1.1236
 5290SOL    HW227507   3.141   0.755   4.777 -0.2432 -0.0177  0.3655
 5291SOL     OW27508   0.862   0.758   6.216 -0.2590 -0.0225 -0.2592
 5291SOL    HW127509   0.906   0.830   6.170  3.4101 -0.7448  2.2009
 5291SOL    HW227510   0.860   0.693   6.145 -0.6959 -0.9181  0.5756
 5292SOL     OW27511   1.732   3.640  12.812  0.3414 -0.3515  0.3093
 5292SOL    HW127512   1.737   3.696  12.734  1.5217  2.0506  2.1091
 5292SOL    HW227513   1.646   3.669  12.842  0.1585 -1.5144  0.9013
 5293SOL     OW27514   2.247   2.435   1.810  0.4514 -0.2412 -0.2780
 5293SOL    HW127515   2.229   2.343   1.794  0.5661 -0.3619  0.3023
 5293SOL    HW227516   2.301   2.469   1.739 -0.6279 -1.4239 -1.6565
 5294SOL     OW27517   4.609   1.757  13.014 -0.5232 -0.1640 -0.0766
 5294SOL    HW127518   4.657   1.722  12.939 -0.8108 -6.0508  2.4806
 5294SOL    HW227519   4.582   1.845  12.986 -2.2619 -0.8933 -0.6981
 5295SOL     OW27520   4.312   1.170   4.566 -0.4567 -0.1285 -0.6150
 5295SOL    HW127521   4.377   1.175   4.636 -2.1364 -0.5536  0.9558
 5295SOL    HW227522   4.351   1.102   4.511  3.3201  1.2556  0.3731
 5296SOL     OW27523   4.312   3.715   4.730 -0.2196  0.2630  0.7724
 5296SOL    HW127524   4.246   3.657   4.691  0.5315 -0.3125  0.3346
 5296SOL    HW227525   4.397   3.681   4.700 -1.4353 -2.6109  0.5507
 5297SOL     OW27526   4.722   1.866   3.886 -0.6058  0.6792  0.0366
 5297SOL    HW127527   0.072   1.827   3.902 -0.7362  1.3630  2.3661
 5297SOL    HW227528   4.690   1.866   3.976 -1.2732  2.7805 -0.2065
 5298SOL     OW27529   1.232   0.536   9.018 -0.7439 -0.1926 -0.5119
 5298SOL    HW127530   1.283   0.547   9.098 -1.3347  0.6058 -0.2520
 5298SOL    HW227531   1.191   0.452   9.041 -0.1880 -0.4245 -0.3635
 5299SOL     OW27532   1.871   1.046   7.154 -0.5175  0.8710 -0.0933
 5299SOL    HW127533   1.916   1.063   7.237  1.2208 -1.9136 -0.4644
 5299SOL    HW227534   1.928   0.980   7.115 -2.2079 -0.8303  0.3325
 5300SOL     OW27535   2.614   0.801   4.621  0.1170  0.6550 -0.5652
 5300SOL    HW127536   2.561   0.821   4.544 -0.7597  0.0637 -0.1007
 5300SOL    HW227537   2.623   0.890   4.655 -1.2766 -0.1069  1.7685
 5301SOL     OW27538   2.361   3.388   0.623 -0.1007  0.4187  0.1463
 5301SOL    HW127539   2.385   3.321   0.558  1.3462 -1.0871  2.2247
 5301SOL    HW227540   2.428   3.375   0.690 -0.8713 -0.5844  0.7205
 5302SOL     OW27541   1.743   1.959  15.698  0.5020  0.8147 -0.1629
 5302SOL    HW127542   1.704   2.042  15.669 -2.5545 -0.4703  0.3727
 5302SOL    HW227543   1.663   1.912  15.717  1.2045  0.4739  1.9235
 5303SOL     OW27544   3.674   0.508   1.522 -0.4069  0.6418 -0.0193
 5303SOL    HW127545   3.759   0.486   1.483 -0.3209 -0.1830  0.6212
 5303SOL    HW227546   3.668   0.418   1.556 -1.6709  0.4640 -0.7171
 5304SOL     OW27547   1.913   2.071   8.716  0.5159  1.0243 -0.1163
 5304SOL    HW127548   1.902   2.098   8.807  1.0122  0.4357  0.1196
 5304SOL    HW227549   1.922   1.976   8.724  2.9922  0.9927 -3.2043
 5305SOL     OW27550   4.682   1.796  16.256 -0.0909 -0.2872 -0.0674
 5305SOL    HW127551   4.711   1.792  16.347  2.0774 -0.6944 -0.7764
 5305SOL    HW227552   4.627   1.718  16.263  1.1271 -1.0134  1.3797
 5306SOL     OW27553   3.674   3.660   5.527  0.4882  0.9812  0.3547
 5306SOL    HW127554   3.747   3.644   5.586 -0.7248  0.1816  1.6494
 5306SOL    HW227555   3.647   3.573   5.497 -0.3174  1.3189  0.1029
 5307SOL     OW27556   1.434   1.287   1.794  0.1681 -0.7848 -0.2876
 5307SOL    HW127557   1.425   1.319   1.884  0.6386 -0.1858 -0.4519
 5307SOL    HW227558   1.344   1.261   1.772  0.1886  0.0226 -1.3343
 5308SOL     OW27559   1.306   4.650   3.545 -0.1079 -0.5444  0.1415
 5308SOL    HW127560   1.365   4.717   3.511 -0.8918  1.2530  2.3213
 5308SOL    HW227561   1.253   4.642   3.466  1.4902 -0.9652 -0.8786
 5309SOL     OW27562   0.363   1.559   0.303  0.1348  0.5233  0.0267
 5309SOL    HW127563   0.305   1.600   0.239 -2.7106 -3.1348  0.2955
 5309SOL    HW227564   0.348   1.612   0.382  1.4638  0.0153  0.6207
 5310SOL     OW27565   4.197   2.905   3.156 -0.1350 -0.1228  0.1135
 5310SOL    HW127566   4.260   2.858   3.210  1.0098 -1.1203 -2.1225
 5310SOL    HW227567   4.165   2.972   3.217 -1.1695 -0.5231  0.0014
 5311SOL     OW27568   0.576   4.641   1.555  0.6669 -0.7095 -0.0826
 5311SOL    HW127569   0.570   4.694   1.635 -2.3535 -1.1869 -0.0011
 5311SOL    HW227570   0.567   4.556   1.600  0.0377 -0.9714 -0.7056
 5312SOL     OW27571   1.287   0.809   6.551  0.3550 -0.2080 -0.2206
 5312SOL    HW127572   1.191   0.800   6.555  0.4842 -2.2448 -1.9443
 5312SOL    HW227573   1.312   0.763   6.631 -0.0239 -0.7337 -0.4000
 5313SOL     OW27574   1.044   1.636  14.255 -0.1349 -0.0669 -0.3919
 5313SOL    HW127575   0.961   1.596  14.281 -1.6304  3.9411  1.0934
 5313SOL    HW227576   1.009   1.657  14.168  0.6813  0.5610 -0.5683
 5314SOL     OW27577   0.797   0.756   2.349  0.5513 -0.0680  0.0249
 5314SOL    HW127578   0.825   0.668   2.374  0.4901 -0.4158 -1.1126
 5314SOL    HW227579   0.873   0.810   2.371  0.0910  1.7920 -2.8905
 5315SOL     OW27580   3.854   4.325   8.294  0.0449  0.1363 -0.0321
 5315SOL    HW127581   3.947   4.345   8.287 -0.1088  0.8729  0.0513
 5315SOL    HW227582   3.820   4.378   8.366  0.4009  0.6206 -0.2168
 5316SOL     OW27583   0.909   4.224   8.339 -0.4210 -0.1072 -0.5817
 5316SOL    HW127584   0.838   4.160   8.346 -0.5143  0.0381 -0.2155
 5316SOL    HW227585   0.910   4.275   8.420  0.6003 -0.1709 -0.5470
 5317SOL     OW27586   3.582   1.613   4.573 -0.2779  0.0954 -0.1479
 5317SOL    HW127587   3.502   1.599   4.521 -0.7349 -0.2875  0.6674
 5317SOL    HW227588   3.605   1.521   4.582 -0.5760  0.1900  1.4485
 5318SOL     OW27589   0.036   2.132   7.678 -0.2863 -0.3903  0.1601
 5318SOL    HW127590   0.124   2.136   7.639  0.0521 -1.8644  0.7967
 5318SOL    HW227591   0.041   2.038   7.694  2.4896 -0.3764 -0.4904
 5319SOL     OW27592   1.907   2.459  11.008 -0.1230 -0.4648 -0.2145
 5319SOL    HW127593   1.959   2.491  11.081  0.4063 -4.0603  0.9896
 5319SOL    HW227594   1.895   2.365  11.021 -0.0663 -0.5484 -0.7377
 5320SOL     OW27595   2.464   0.017  16.745  0.2278  0.1431  0.3292
 5320SOL    HW127596   2.427   0.097  16.708  1.3332 -0.1792 -1.4773
 5320SOL    HW227597   2.383   4.706  16.763  0.8770 -0.2471  2.1835
 5321SOL     OW27598   3.009   0.368   4.426  0.0944 -0.5184 -0.3735
 5321SOL    HW127599   3.023   0.462   4.411 -1.0965  0.0453  2.0235
 5321SOL    HW227600   3.102   0.351   4.436 -0.1082 -0.6487  1.1665
 5322SOL     OW27601   0.493   1.348   5.367 -0.0469 -0.8257  0.4433
 5322SOL    HW127602   0.516   1.427   5.416  1.7680 -0.1237 -1.5084
 5322SOL    HW227603   0.449   1.394   5.294  1.4094  0.4532  0.3778
 5323SOL     OW27604   4.649   1.229  14.436 -0.3294  0.2860  0.2977
 5323SOL    HW127605   4.683   1.300  14.381 -0.5667 -0.1419 -0.4063
 5323SOL    HW227606   4.594   1.280  14.494 -0.7157 -0.8779  0.9413
 5324SOL     OW27607   3.604   2.324   3.259  0.4238  0.4855 -0.5804
 5324SOL    HW127608   3.631   2.317   3.350 -1.1567  2.6187  0.0431
 5324SOL    HW227609   3.673   2.379   3.223  0.0662  1.0430 -0.4243
 5325SOL     OW27610   0.477   3.076   6.400 -0.3670  0.7762  0.4870
 5325SOL    HW127611   0.452   3.017   6.329  0.5303  3.4736 -2.0713
 5325SOL    HW227612   0.532   3.144   6.361  0.9321 -0.8319 -0.5076
 5326SOL     OW27613   2.593   1.325  14.942 -0.4169  0.1505  0.1853
 5326SOL    HW127614   2.678   1.344  14.904 -1.2815  0.4814 -1.5996
 5326SOL    HW227615   2.610   1.253  15.002  2.2594  1.5246  1.0406
 5327SOL     OW27616   3.377   3.233   3.929  0.1520  0.8349 -1.0663
 5327SOL    HW127617   3.429   3.156   3.907 -0.8894 -1.2995  3.9495
 5327SOL    HW227618   3.368   3.272   3.842  0.8523 -1.9606 -2.3939
 5328SOL     OW27619   2.324   0.551   7.238 -0.3932 -0.7071 -0.4925
 5328SOL    HW127620   2.332   0.456   7.225 -0.5529 -0.9659  1.3289
 5328SOL    HW227621   2.410   0.575   7.273 -1.4864  3.0008 -0.3152
 5329SOL     OW27622   3.622   0.827  17.348  0.1735 -0.2990 -0.1358
 5329SOL    HW127623   3.530   0.820  17.371  0.0268 -0.7727 -0.8979
 5329SOL    HW227624   3.634   0.762  17.279  1.0772  0.0907 -0.3492
 5330SOL     OW27625   3.289   3.205   4.839 -0.3936 -0.0227 -0.0412
 5330SOL    HW127626   3.283   3.246   4.753 -2.3568  2.1090  1.1272
 5330SOL    HW227627   3.308   3.115   4.813 -0.0165 -0.7181  2.6319
 5331SOL     OW27628   2.868   1.819  14.474  0.0493  0.2955 -0.4142
 5331SOL    HW127629   2.906   1.887  14.529 -1.0933 -0.5280  1.3962
 5331SOL    HW227630   2.926   1.831  14.399  1.4818  0.5789  0.7373
 5332SOL     OW27631   4.056   3.070   5.455 -0.1621  0.0275 -0.3737
 5332SOL    HW127632   4.119   3.016   5.504  0.1727  0.6245 -0.1440
 5332SOL    HW227633   4.115   3.140   5.426 -1.5243  1.9237  1.4542
 5333SOL     OW27634   0.206   2.105   0.219 -0.0859 -0.1375 -0.5184
 5333SOL    HW127635   0.125   2.058   0.240 -0.8879  1.0428 -1.0045
 5333SOL    HW227636   0.226   2.142   0.305 -2.6213  0.0836 -0.0207
 5334SOL     OW27637   0.683   0.727   4.136  0.1868  0.1969  0.2889
 5334SOL    HW127638   0.601   0.770   4.157 -0.3024  0.3233 -1.8254
 5334SOL    HW227639   0.733   0.794   4.089 -0.4890 -0.5464 -1.5152
 5335SOL     OW27640   4.157   2.270   4.448 -0.3852 -0.4819  0.3263
 5335SOL    HW127641   4.136   2.231   4.533  0.3567 -0.1370  0.6607
 5335SOL    HW227642   4.194   2.357   4.461 -0.8529 -0.2192 -0.0768
 5336SOL     OW27643   4.169   3.160  17.385 -0.6511 -0.0057  0.2327
 5336SOL    HW127644   4.179   3.255  17.388  2.9536 -0.4464  1.2865
 5336SOL    HW227645   4.115   3.141  17.461  0.6180  0.2331  1.1908
 5337SOL     OW27646   1.338   0.832   0.196  0.7922 -0.2579 -0.6754
 5337SOL    HW127647   1.289   0.785   0.129  2.2441 -0.7772 -1.3689
 5337SOL    HW227648   1.351   0.768   0.266  0.2571  0.1245 -0.2290
 5338SOL     OW27649   3.440   3.463   8.406 -0.1403  0.0279 -0.8399
 5338SOL    HW127650   3.379   3.522   8.450  1.6232  0.2405  1.2936
 5338SOL    HW227651   3.423   3.501   8.319 -0.1204 -1.4500 -1.4924
 5339SOL     OW27652   4.098   0.075  14.833  0.1020 -0.0031 -0.0263
 5339SOL    HW127653   4.045   0.129  14.774 -0.5066 -0.8280 -0.2368
 5339SOL    HW227654   4.171   0.136  14.838 -1.5551  1.9749  0.0731
 5340SOL     OW27655   2.491   3.974   9.709  0.2741  0.0411 -0.4344
 5340SOL    HW127656   2.464   4.015   9.791  0.0698 -1.1332  0.0796
 5340SOL    HW227657   2.582   4.002   9.714 -1.0113  4.3489 -0.6071
 5341SOL     OW27658   2.932   0.960   6.938 -0.0171 -0.1727 -0.3383
 5341SOL    HW127659   2.864   1.021   6.965  0.3475 -0.2270  0.6942
 5341SOL    HW227660   3.002   0.998   6.991  0.7426 -1.7603 -0.1929
 5342SOL     OW27661   2.511   4.390   2.031  0.0407  0.1975 -0.8211
 5342SOL    HW127662   2.591   4.425   2.070  0.0373  0.1861 -0.8043
 5342SOL    HW227663   2.473   4.472   1.999  0.9517  0.5595 -0.9823
 5343SOL     OW27664   0.489   0.163   1.926 -0.2380 -0.1520 -0.1264
 5343SOL    HW127665   0.464   0.083   1.973 -2.9867  1.0263  0.3959
 5343SOL    HW227666   0.544   0.130   1.854  1.4522  0.5862  0.8326
 5344SOL     OW27667   4.711   2.928  12.613 -0.2566  0.3543 -0.4729
 5344SOL    HW127668   4.698   2.929  12.708  0.8229  0.6880 -0.3351
 5344SOL    HW227669   0.033   3.004  12.607 -0.5878  0.8279  2.3899
 5345SOL     OW27670   4.414   2.232  11.961 -0.0782  0.4037  0.2284
 5345SOL    HW127671   4.334   2.238  12.013 -1.2402  0.8955 -1.6340
 5345SOL    HW227672   4.412   2.143  11.925  0.6520  0.9056 -1.0405
 5346SOL     OW27673   1.905   2.862   6.804 -0.5539 -0.3063  0.1730
 5346SOL    HW127674   1.915   2.895   6.715  2.4033 -2.4092 -0.2437
 5346SOL    HW227675   1.971   2.914   6.850 -2.1634  0.5851  1.4794
 5347SOL     OW27676   1.472   0.594   4.243 -0.2764  1.8664 -0.0285
 5347SOL    HW127677   1.422   0.551   4.174 -0.3650  1.8649  0.0354
 5347SOL    HW227678   1.547   0.607   4.186  1.0277  0.3367  1.3371
 5348SOL     OW27679   3.767   3.776   7.794 -0.5505  0.0620 -0.0456
 5348SOL    HW127680   3.696   3.821   7.840  0.7206 -0.1017  2.0839
 5348SOL    HW227681   3.722   3.713   7.737 -0.1348  2.1602 -2.6868
 5349SOL     OW27682   2.530   2.948  10.416  0.0020  0.2808 -0.2552
 5349SOL    HW127683   2.545   2.934  10.509 -2.0956 -0.4891 -0.0505
 5349SOL    HW227684   2.445   2.990  10.429 -0.6206 -1.2882  0.7047
 5350SOL     OW27685   1.063   4.066  15.850 -0.1094  0.6244  0.2692
 5350SOL    HW127686   1.122   4.084  15.776  1.1417 -2.3613  0.5538
 5350SOL    HW227687   1.107   4.122  15.914  1.2527 -0.9675  0.7212
 5351SOL     OW27688   2.490   2.973   7.970 -0.6031  0.3660 -0.7982
 5351SOL    HW127689   2.501   3.065   7.947 -0.1618  0.2524 -1.0413
 5351SOL    HW227690   2.458   2.938   7.887  0.3914 -1.6571 -0.3365
 5352SOL     OW27691   2.068   3.557   2.878 -0.3444 -0.3619 -0.7161
 5352SOL    HW127692   2.110   3.509   2.950 -1.5527 -0.5362 -0.1310
 5352SOL    HW227693   2.083   3.646   2.909 -1.1263 -0.3254 -0.4279
 5353SOL     OW27694   0.124   2.967  15.834  0.3703  0.3506 -0.1142
 5353SOL    HW127695   0.064   2.920  15.774  0.9219  1.6774 -1.7122
 5353SOL    HW227696   0.054   3.009  15.885  1.1083 -0.1720  1.3183
 5354SOL     OW27697   1.606   4.471   4.416 -0.2350 -0.4824 -0.0783
 5354SOL    HW127698   1.661   4.547   4.397 -0.7770 -0.6432 -2.2503
 5354SOL    HW227699   1.662   4.407   4.459  0.2854  1.0007  1.4575
 5355SOL     OW27700   0.790   1.175   3.877 -0.4917  0.0088  0.3280
 5355SOL    HW127701   0.863   1.159   3.816  0.1579  2.4549  0.4586
 5355SOL    HW227702   0.784   1.094   3.928 -1.7768 -0.1394 -0.0582
 5356SOL     OW27703   3.508   1.681   3.772  0.3045  0.2227 -0.5778
 5356SOL    HW127704   3.520   1.595   3.730 -0.0523  0.6910 -1.6451
 5356SOL    HW227705   3.474   1.714   3.689 -1.2222 -3.8818 -1.6210
 5357SOL     OW27706   3.542   3.139  13.791  0.3133 -0.3110  0.2704
 5357SOL    HW127707   3.599   3.201  13.747 -0.0178  0.3432  0.7633
 5357SOL    HW227708   3.498   3.100  13.716 -0.7226 -1.7597  1.6185
 5358SOL     OW27709   1.329   4.665  10.404  0.6020  0.3929  0.3206
 5358SOL    HW127710   1.412   4.680  10.360 -0.6276  2.1808 -1.3790
 5358SOL    HW227711   1.261   4.685  10.340  0.0226 -1.9036  0.2129
 5359SOL     OW27712   2.203   3.495   4.891 -0.3400 -0.2271  0.1218
 5359SOL    HW127713   2.114   3.529   4.892  0.1284  0.9265  2.3010
 5359SOL    HW227714   2.199   3.457   4.803  3.5035 -0.3204 -0.0296
 5360SOL     OW27715   4.315   1.441  14.599  0.4453 -0.2784  0.4251
 5360SOL    HW127716   4.339   1.386  14.525 -0.7405  1.5725 -1.3366
 5360SOL    HW227717   4.403   1.459  14.630  0.9523  0.7978 -1.6311
 5361SOL     OW27718   0.862   2.102   0.380  0.1383 -0.1343 -0.5462
 5361SOL    HW127719   0.826   2.067   0.461  1.2648  1.4604  0.6368
 5361SOL    HW227720   0.796   2.168   0.357  0.4429 -0.0745 -1.2481
 5362SOL     OW27721   0.386   4.674   2.928 -0.0044  0.0544  0.0190
 5362SOL    HW127722   0.295   4.647   2.936  0.1541 -0.6342 -0.4752
 5362SOL    HW227723   0.380   0.029   2.957  1.1441 -0.7262  2.6687
 5363SOL     OW27724   2.310   2.816   1.711  0.2202 -0.7909  0.2553
 5363SOL    HW127725   2.335   2.907   1.698 -0.3177 -0.4197  1.7226
 5363SOL    HW227726   2.392   2.797   1.756  0.6850  0.6518  0.0082
 5364SOL     OW27727   1.572   0.009   9.697 -0.0525 -0.3715 -0.0172
 5364SOL    HW127728   1.580   0.063   9.776  1.2305 -1.6338  0.7210
 5364SOL    HW227729   1.483   4.710   9.691 -0.2289  0.4071 -1.9486
 5365SOL     OW27730   3.168   4.174   8.452  0.2249  0.1400 -0.3909
 5365SOL    HW127731   3.251   4.171   8.500  1.2767  2.2082 -2.0723
 5365SOL    HW227732   3.121   4.236   8.508 -0.1307 -0.2839 -0.2156
 5366SOL     OW27733   3.604   2.371   2.159  0.2325 -0.8534 -0.1851
 5366SOL    HW127734   3.674   2.419   2.115  1.1640 -1.3211  0.7895
 5366SOL    HW227735   3.633   2.388   2.249 -1.0580 -0.4103  0.1465
 5367SOL     OW27736   2.957   2.786   1.710 -0.0442  0.3898  0.3899
 5367SOL    HW127737   2.951   2.829   1.796  0.7149  0.0115  0.6305
 5367SOL    HW227738   2.985   2.862   1.660 -1.0671  0.0247 -0.7623
 5368SOL     OW27739   1.637   2.003   7.853  0.4733  0.3749  0.6009
 5368SOL    HW127740   1.717   2.018   7.903  2.4863  1.6694 -3.0157
 5368SOL    HW227741   1.577   1.975   7.923  0.0401  2.0192  0.8782
 5369SOL     OW27742   2.416   3.205   7.674 -0.1629 -0.4671 -0.0614
 5369SOL    HW127743   2.443   3.120   7.639 -2.5221 -0.9324 -0.7149
 5369SOL    HW227744   2.386   3.244   7.592  1.4072 -0.8381 -0.8249
 5370SOL     OW27745   4.376   3.242   6.487  0.0229  0.7278 -0.2965
 5370SOL    HW127746   4.380   3.184   6.411  0.6110  1.3576 -0.7339
 5370SOL    HW227747   4.280   3.250   6.488 -0.1677 -1.2445 -1.8417
 5371SOL     OW27748   2.949   1.794  12.381 -0.4686 -0.4679 -0.2991
 5371SOL    HW127749   2.950   1.871  12.324  1.2099  1.7741  2.7000
 5371SOL    HW227750   3.037   1.797  12.421  0.0021 -0.7566 -1.3191
 5372SOL     OW27751   0.501   4.162   7.947  0.2823 -0.0138  0.4427
 5372SOL    HW127752   0.474   4.105   8.019 -0.7573 -0.4002 -0.2459
 5372SOL    HW227753   0.590   4.128   7.941 -0.1026 -0.9871  0.2986
 5373SOL     OW27754   3.671   2.696   1.022  0.3764  0.0770 -0.2409
 5373SOL    HW127755   3.657   2.774   1.075  0.8819  0.0523 -0.0758
 5373SOL    HW227756   3.647   2.726   0.934  0.6111 -1.8558 -0.9667
 5374SOL     OW27757   2.824   3.722   5.074  0.8597 -0.4873  0.3406
 5374SOL    HW127758   2.766   3.796   5.093  0.2707 -0.5038 -1.3946
 5374SOL    HW227759   2.902   3.757   5.116  1.2726 -1.2951  0.2458
 5375SOL     OW27760   2.956   0.561   5.889 -0.3293  0.0819  0.0468
 5375SOL    HW127761   2.893   0.496   5.857  1.4983 -0.3901 -2.5498
 5375SOL    HW227762   2.948   0.635   5.829  0.4414  0.2070  0.0973
 5376SOL     OW27763   0.220   0.987   6.991 -0.2356  0.5412  0.2819
 5376SOL    HW127764   0.235   0.893   6.990  0.2156  0.5731  2.8041
 5376SOL    HW227765   0.151   0.986   6.925  1.2239  0.0497 -1.2394
 5377SOL     OW27766   0.217   2.414   4.586  0.8267 -0.0134 -0.3671
 5377SOL    HW127767   0.126   2.387   4.600  0.6336  0.1229 -1.3656
 5377SOL    HW227768   0.199   2.469   4.509  2.1489 -0.5045 -1.0240
 5378SOL     OW27769   3.632   3.825   8.323  0.1499  0.2295 -0.5969
 5378SOL    HW127770   3.619   3.826   8.418  2.2232  1.8942 -0.3338
 5378SOL    HW227771   3.662   3.735   8.310 -2.9299 -1.1032  1.6438
 5379SOL     OW27772   3.097   1.906   2.321 -0.1106 -0.4252  0.1654
 5379SOL    HW127773   3.076   1.818   2.349  1.0759 -1.7537 -3.0989
 5379SOL    HW227774   3.170   1.918   2.382 -0.8012  1.6996  0.5925
 5380SOL     OW27775   1.742   3.780   9.044 -0.0434  0.3100 -0.1409
 5380SOL    HW127776   1.721   3.687   9.049  0.0999  0.4231  2.3741
 5380SOL    HW227777   1.675   3.801   8.978  1.3844  1.1309 -1.3408
 5381SOL     OW27778   3.583   0.178   0.177 -0.5922  0.3589 -0.5673
 5381SOL    HW127779   3.667   0.224   0.180 -1.7538  2.5490 -1.2730
 5381SOL    HW227780   3.562   0.163   0.269 -0.3615 -0.0624 -0.5850
 5382SOL     OW27781   2.738   3.571   3.482  0.9594  0.1996 -0.1532
 5382SOL    HW127782   2.741   3.527   3.397 -0.2694  1.1827 -0.6980
 5382SOL    HW227783   2.648   3.557   3.509  0.9502 -0.8614 -0.7266
 5383SOL     OW27784   0.999   1.084  16.617  0.4948 -0.3005  0.1864
 5383SOL    HW127785   0.935   1.099  16.548  0.7506 -0.4635 -0.0883
 5383SOL    HW227786   0.955   1.082  16.702  2.1649  1.2782  1.0854
 5384SOL     OW27787   0.988   0.646   9.287 -0.6448  0.3180  0.3920
 5384SOL    HW127788   0.919   0.684   9.233 -1.8300  1.2924  2.5651
 5384SOL    HW227789   0.937   0.588   9.343 -0.2591  2.2803  2.8034
 5385SOL     OW27790   4.001   2.711   9.939  0.3484  0.1392  0.1118
 5385SOL    HW127791   4.008   2.637   9.879  0.0667  0.2241 -0.0242
 5385SOL    HW227792   3.912   2.701   9.971  1.3653 -2.5763  2.0709
 5386SOL     OW27793   2.924   1.172  15.083 -0.5793 -0.0794 -0.1317
 5386SOL    HW127794   2.832   1.165  15.108 -0.8110 -1.0849 -1.2754
 5386SOL    HW227795   2.964   1.202  15.164 -1.2066 -0.2195  0.2287
 5387SOL     OW27796   1.920   4.524   7.852 -0.5205  0.2160 -0.1674
 5387SOL    HW127797   2.013   4.502   7.859 -0.7998 -1.5437 -2.0912
 5387SOL    HW227798   1.879   4.438   7.842 -2.0919  0.8758  0.5459
 5388SOL     OW27799   4.049   1.803   2.983 -0.4555 -0.1279  0.5501
 5388SOL    HW127800   4.049   1.890   3.023  0.5743  0.9847 -1.8989
 5388SOL    HW227801   4.048   1.827   2.891 -0.6244  0.4097  0.6942
 5389SOL     OW27802   4.232   1.924   8.453 -0.0346  0.0008  0.2168
 5389SOL    HW127803   4.271   1.968   8.528  0.4436  0.4992 -0.3253
 5389SOL    HW227804   4.274   1.838   8.444  1.6297  0.9459 -0.9200
 5390SOL     OW27805   0.062   1.885   8.026 -0.2167 -0.5020  0.0020
 5390SOL    HW127806   0.121   1.908   8.098  3.6329  0.7197 -3.5396
 5390SOL    HW227807   0.028   1.973   8.008  1.5315  0.2798  0.5664
 5391SOL     OW27808   4.283   1.349   1.259 -0.5998  0.0250  0.1489
 5391SOL    HW127809   4.190   1.369   1.250 -0.8805  0.1712  3.3220
 5391SOL    HW227810   4.313   1.397   1.182  1.2079  0.9273  1.4202
 5392SOL     OW27811   3.925   3.309   2.224 -0.1973  0.0403  0.4008
 5392SOL    HW127812   3.989   3.342   2.160 -0.2483 -0.2084  0.2217
 5392SOL    HW227813   3.852   3.370   2.230 -1.2295 -0.9126 -2.4010
 5393SOL     OW27814   2.351   1.070   7.354 -0.0087 -0.3336  0.1271
 5393SOL    HW127815   2.385   1.063   7.443  0.4043  1.6018  0.1133
 5393SOL    HW227816   2.386   1.154   7.323  1.1593 -0.3650  1.3346
 5394SOL     OW27817   3.018   0.335   8.460  0.2358 -0.5099 -0.7877
 5394SOL    HW127818   2.941   0.391   8.460  1.4857  1.2531  2.0097
 5394SOL    HW227819   3.030   0.325   8.366 -0.0100 -0.0624 -0.8629
 5395SOL     OW27820   2.150   3.698   4.197  0.2362  0.0427 -0.2846
 5395SOL    HW127821   2.064   3.682   4.236  0.7330 -0.2655  0.6761
 5395SOL    HW227822   2.115   3.729   4.113 -1.1338 -1.2505 -0.2000
 5396SOL     OW27823   4.621   4.349   2.147  0.7276 -0.4606  0.2320
 5396SOL    HW127824   4.563   4.425   2.156  0.9212 -0.2780 -0.0874
 5396SOL    HW227825   4.712   4.378   2.140  1.2800 -1.8128  1.9040
 5397SOL     OW27826   2.702   1.169   4.876  0.1948 -0.2413  0.1076
 5397SOL    HW127827   2.639   1.131   4.815 -2.4457  1.0283  2.0492
 5397SOL    HW227828   2.638   1.211   4.933 -0.5973  0.5956 -1.4040
 5398SOL     OW27829   3.610   1.804  13.377 -0.2497 -0.2920 -0.0299
 5398SOL    HW127830   3.663   1.770  13.304  0.0976  0.6265 -0.2034
 5398SOL    HW227831   3.523   1.766  13.360 -1.9143  3.5390  0.0068
 5399SOL     OW27832   1.899   3.869   9.657  0.6048  0.3697  0.2484
 5399SOL    HW127833   1.994   3.857   9.656  0.6101  0.3076  1.8569
 5399SOL    HW227834   1.897   3.959   9.688 -0.4332  1.3342 -2.6080
 5400SOL     OW27835   1.971   0.746  17.023 -0.0199  0.7419  0.3239
 5400SOL    HW127836   2.033   0.679  16.996  0.5797  1.4314  0.0092
 5400SOL    HW227837   1.939   0.781  16.939 -1.4712  1.6448  1.2492
 5401SOL     OW27838   1.050   0.826  16.157 -0.0884  0.1373 -0.4492
 5401SOL    HW127839   1.106   0.794  16.086 -0.3225 -1.9836  0.3133
 5401SOL    HW227840   0.968   0.796  16.118  0.3359  0.7288 -1.7919
 5402SOL     OW27841   0.566   0.353   5.020 -0.3125 -0.2117 -0.2088
 5402SOL    HW127842   0.648   0.304   5.017 -0.4273 -0.5363  2.0246
 5402SOL    HW227843   0.527   0.310   4.944 -1.1437  1.3366 -0.6524
 5403SOL     OW27844   0.760   2.688   6.014 -0.6334 -0.2875  0.1434
 5403SOL    HW127845   0.683   2.633   5.998 -0.9677  0.4421 -0.7656
 5403SOL    HW227846   0.799   2.639   6.086 -2.0412 -0.8195  0.5489
 5404SOL     OW27847   2.013   1.838   8.252 -0.1441 -0.4082  0.2351
 5404SOL    HW127848   2.097   1.834   8.207  0.8181 -1.0887  2.0835
 5404SOL    HW227849   1.949   1.807   8.187 -1.5727 -2.0683  2.4387
 5405SOL     OW27850   3.409   1.255   3.207 -0.1348  0.2340  0.2865
 5405SOL    HW127851   3.430   1.345   3.184  1.0411  0.0124  0.4950
 5405SOL    HW227852   3.487   1.211   3.172 -0.8855  1.6418 -3.1551
 5406SOL     OW27853   2.928   3.209   8.042 -0.1924 -0.2914 -0.0429
 5406SOL    HW127854   2.872   3.275   8.002  0.0750  0.1705  0.3405
 5406SOL    HW227855   2.891   3.127   8.011  0.7539  0.0557 -2.0412
 5407SOL     OW27856   2.098   3.367  15.071  0.2386 -0.0656  0.2265
 5407SOL    HW127857   2.083   3.322  15.154 -0.2715 -1.4497 -0.6086
 5407SOL    HW227858   2.008   3.394  15.052  0.1490 -1.1862 -1.0134
 5408SOL     OW27859   0.439   1.874   8.419 -0.1016 -0.0564 -0.1078
 5408SOL    HW127860   0.503   1.866   8.348 -1.4621 -3.2676 -0.9790
 5408SOL    HW227861   0.500   1.878   8.493 -0.8660 -2.6374  0.6607
 5409SOL     OW27862   4.147   2.476   0.109 -0.1046 -0.3869  0.8031
 5409SOL    HW127863   4.102   2.554   0.143  1.1163  1.5717 -2.0946
 5409SOL    HW227864   4.231   2.510   0.078 -0.6037 -0.9407 -1.1475
 5410SOL     OW27865   4.169   4.406  11.486  0.4951 -0.4200  0.1005
 5410SOL    HW127866   4.147   4.360  11.405  0.9856  0.4762 -0.5428
 5410SOL    HW227867   4.236   4.352  11.529  0.2352  0.0871  1.1333
 5411SOL     OW27868   2.005   4.649   9.987 -0.1472 -0.3389  0.2702
 5411SOL    HW127869   2.088   4.622   9.948  0.3781  1.8442 -0.1302
 5411SOL    HW227870   1.952   4.650   9.907 -0.1542 -0.2280  0.2770
 5412SOL     OW27871   3.154   2.807   3.061  0.3312 -0.4676 -0.2446
 5412SOL    HW127872   3.206   2.790   3.139  0.0859 -0.4788 -0.0832
 5412SOL    HW227873   3.226   2.802   2.998  1.5091  1.7810  0.9461
 5413SOL     OW27874   1.272   0.535   3.081  0.4525 -0.3157 -0.1367
 5413SOL    HW127875   1.358   0.566   3.109 -0.1758  2.1571 -0.8671
 5413SOL    HW227876   1.230   0.505   3.161  0.0974  0.9781  0.1683
 5414SOL     OW27877   0.924   4.361   2.845  0.4309 -0.0398 -0.3665
 5414SOL    HW127878   0.898   4.286   2.792 -0.1747 -1.2611  1.6641
 5414SOL    HW227879   1.018   4.344   2.854  0.7044  2.0421  0.8003
 5415SOL     OW27880   4.294   0.017   5.501  0.3778 -0.0948 -0.6373
 5415SOL    HW127881   4.211   4.711   5.525  1.2135 -1.0510  0.6432
 5415SOL    HW227882   4.271   0.083   5.437  2.8582 -0.2327 -1.6692
 5416SOL     OW27883   3.284   2.811   4.023 -0.0736  0.2244  0.4946
 5416SOL    HW127884   3.222   2.738   4.033  0.9994 -0.6642  0.6897
 5416SOL    HW227885   3.237   2.892   4.002 -2.7632 -0.7761  2.7047
 5417SOL     OW27886   2.990   1.809   5.343 -0.1900  0.1200 -0.1524
 5417SOL    HW127887   3.045   1.823   5.420 -0.8545 -3.0378  0.8947
 5417SOL    HW227888   3.031   1.866   5.278  1.7233 -1.8249 -0.6447
 5418SOL     OW27889   3.361   1.355  14.420  0.1656  0.1523 -0.2058
 5418SOL    HW127890   3.367   1.399  14.505  0.3539  1.5999 -0.9687
 5418SOL    HW227891   3.320   1.422  14.365  1.3328  2.1826  1.4093
 5419SOL     OW27892   2.746   4.528   8.066  0.1758 -0.3758  0.1448
 5419SOL    HW127893   2.659   4.560   8.042 -0.2780 -1.2200  0.6517
 5419SOL    HW227894   2.804   4.600   8.043 -0.8219 -0.4117 -2.4191
 5420SOL     OW27895   1.774   4.634   9.103 -0.0281  0.1992  1.1109
 5420SOL    HW127896   1.799   4.555   9.150 -2.4011 -1.1698  0.0810
 5420SOL    HW227897   1.816   4.708   9.145 -0.3023  2.9550 -3.4456
 5421SOL     OW27898   4.114   3.167   9.714  0.2174  0.1442 -0.0911
 5421SOL    HW127899   4.087   3.105   9.782  1.8517 -2.1550 -1.5586
 5421SOL    HW227900   4.069   3.247   9.740  0.8065  0.2444  0.6315
 5422SOL     OW27901   4.316   0.937   0.633  0.1220 -0.0586 -0.3640
 5422SOL    HW127902   4.225   0.952   0.660 -0.7110 -0.8627 -2.7651
 5422SOL    HW227903   4.366   0.922   0.714  1.7002 -2.6409 -1.8356
 5423SOL     OW27904   0.549   3.182   1.537 -0.3330 -0.4485  0.0589
 5423SOL    HW127905   0.529   3.111   1.477 -0.9846  0.3575 -0.6673
 5423SOL    HW227906   0.548   3.256   1.477 -0.9971  0.2267  0.9107
 5424SOL     OW27907   4.362   0.615  13.716 -0.1923 -0.5765  0.7124
 5424SOL    HW127908   4.273   0.582  13.708  0.3715 -1.5072 -1.7677
 5424SOL    HW227909   4.405   0.534  13.689  1.9448 -0.0845  2.5598
 5425SOL     OW27910   2.169   2.232   6.774  0.2489 -0.0258 -0.0011
 5425SOL    HW127911   2.173   2.268   6.686 -0.6316 -1.0089 -0.4557
 5425SOL    HW227912   2.098   2.169   6.761 -0.6562  1.1860 -0.8883
 5426SOL     OW27913   3.638   0.268   2.080 -0.2465  0.3879  1.0182
 5426SOL    HW127914   3.726   0.239   2.103  0.0966 -0.0860 -0.9259
 5426SOL    HW227915   3.657   0.348   2.031 -0.6201  0.4689  0.9998
 5427SOL     OW27916   4.101   0.725   9.485  0.3184 -0.0849  0.1396
 5427SOL    HW127917   4.105   0.820   9.494 -0.2399 -0.0119 -0.3706
 5427SOL    HW227918   4.170   0.711   9.420  2.0108 -2.6989  2.5039
 5428SOL     OW27919   2.494   1.473   7.013  0.0344 -0.4659 -0.6135
 5428SOL    HW127920   2.582   1.508   7.002  0.6379 -0.7093  3.7236
 5428SOL    HW227921   2.505   1.388   6.970  1.6176 -0.2455 -0.6197
 5429SOL     OW27922   4.311   2.003   7.907 -0.5038  0.0189 -0.0884
 5429SOL    HW127923   4.255   2.059   7.961  0.3135  0.1496  0.6155
 5429SOL    HW227924   4.385   2.001   7.968 -0.3921 -2.7322 -0.3243
 5430SOL     OW27925   2.970   3.135  11.981  0.0312 -0.4012 -0.3582
 5430SOL    HW127926   2.953   3.043  11.963  1.3511 -0.7198  0.0174
 5430SOL    HW227927   3.059   3.124  12.016 -0.5644 -2.3082  0.5647
 5431SOL     OW27928   0.373   4.447   2.146 -0.0262 -0.2904 -0.1040
 5431SOL    HW127929   0.445   4.385   2.144  1.2375  1.0945  1.5204
 5431SOL    HW227930   0.329   4.419   2.226 -0.8378  1.1973 -0.0228
 5432SOL     OW27931   4.013   0.446   6.916  0.3178 -0.2354  0.0004
 5432SOL    HW127932   3.936   0.461   6.862  0.2150  0.6822  0.4095
 5432SOL    HW227933   4.072   0.410   6.849  0.2013 -0.8927  0.2430
 5433SOL     OW27934   3.475   0.854   7.988 -0.2481 -0.2265  0.0863
 5433SOL    HW127935   3.567   0.829   7.977  0.2421  2.0537 -0.9412
 5433SOL    HW227936   3.427   0.791   7.935  1.6351 -0.4911 -1.3318
 5434SOL     OW27937   2.592   4.569   0.836 -0.2623  1.1441  0.5821
 5434SOL    HW127938   2.627   4.646   0.793  0.3883 -0.9316 -2.5945
 5434SOL    HW227939   2.605   4.569   0.931  0.5159 -1.7481  0.4894
 5435SOL     OW27940   1.255   3.939   4.887 -0.7221 -0.1911  0.2922
 5435SOL    HW127941   1.278   3.914   4.976  1.8134 -1.4328 -0.6907
 5435SOL    HW227942   1.169   3.976   4.905 -0.9877 -1.2198  1.1550
 5436SOL     OW27943   4.689   4.660   9.056 -0.1522 -0.2177 -0.6664
 5436SOL    HW127944   0.037   4.701   9.077 -1.0573  0.9534  0.7250
 5436SOL    HW227945   4.682   4.597   9.127  0.1307  0.0004 -0.4444
 5437SOL     OW27946   3.102   0.463   5.070 -0.3236  0.3990 -0.2796
 5437SOL    HW127947   3.179   0.497   5.115  1.1731 -1.8663 -1.1468
 5437SOL    HW227948   3.060   0.548   5.054 -1.1708 -0.3886 -2.2234
 5438SOL     OW27949   1.953   0.130  15.226 -0.5419  0.3735 -0.3921
 5438SOL    HW127950   1.902   0.061  15.183 -1.4790  0.6022  0.3537
 5438SOL    HW227951   1.873   0.180  15.239 -0.6549 -0.3774  1.7139
 5439SOL     OW27952   2.716   0.262   0.341  0.4678 -0.2198 -0.5037
 5439SOL    HW127953   2.685   0.314   0.266 -0.4507 -0.2120 -0.1227
 5439SOL    HW227954   2.676   0.308   0.415 -1.0825 -1.4762 -0.5635
 5440SOL     OW27955   0.401   0.835   3.539 -0.3704 -0.0688 -0.5065
 5440SOL    HW127956   0.444   0.906   3.492 -1.5348  1.4385  0.6840
 5440SOL    HW227957   0.428   0.853   3.629  0.0464 -2.5721 -0.1225
 5441SOL     OW27958   3.077   0.276   5.890  0.3891 -0.1132 -0.1086
 5441SOL    HW127959   3.123   0.344   5.842  0.4161  0.0409  0.1408
 5441SOL    HW227960   3.042   0.214   5.825  1.2038 -2.3247  1.5382
 5442SOL     OW27961   1.177   3.348   6.213 -0.0347  0.0859 -0.2627
 5442SOL    HW127962   1.201   3.317   6.300 -1.4045 -1.3261 -0.3724
 5442SOL    HW227963   1.241   3.416   6.194  1.3556 -1.4497 -1.1194
 5443SOL     OW27964   4.534   1.561  16.608  0.0699 -0.7533 -0.0048
 5443SOL    HW127965   4.594   1.598  16.673 -0.0452 -1.8974  0.7460
 5443SOL    HW227966   4.556   1.608  16.528 -0.6608 -0.2211  0.1123
 5444SOL     OW27967   3.026   0.232  14.999  0.1748  0.3384 -0.2407
 5444SOL    HW127968   3.114   0.247  14.963  0.1289  2.4891  0.5462
 5444SOL    HW227969   3.039   0.247  15.093 -0.1263 -0.8570  0.0008
 5445SOL     OW27970   3.910   3.484   0.259  0.3869  0.5595  0.5485
 5445SOL    HW127971   3.950   3.536   0.329 -2.2846  0.9287  1.8282
 5445SOL    HW227972   3.988   3.432   0.239 -0.0266  0.2456 -0.2197
 5446SOL     OW27973   0.353   3.658   7.999  0.4464 -0.0519 -0.3967
 5446SOL    HW127974   0.401   3.730   7.958  0.5246 -0.5819 -1.2277
 5446SOL    HW227975   0.357   3.680   8.092 -3.0930 -1.5227  0.0984
 5447SOL     OW27976   1.987   2.994   6.221  0.4302  0.1139  0.0567
 5447SOL    HW127977   2.027   3.079   6.240  0.6090  0.1210 -0.3575
 5447SOL    HW227978   1.896   3.019   6.203  0.5712  1.3273  1.0765
 5448SOL     OW27979   4.379   1.393   9.452  0.2834 -0.1146  0.0547
 5448SOL    HW127980   4.291   1.362   9.431  0.0420  1.9716 -2.0267
 5448SOL    HW227981   4.365   1.438   9.535  1.0441 -1.2839  0.8261
 5449SOL     OW27982   3.961   2.231  13.825 -0.5215  0.4371 -0.5374
 5449SOL    HW127983   3.988   2.224  13.916  0.3325 -1.2030 -0.9037
 5449SOL    HW227984   3.919   2.147  13.804  1.4154 -0.7930  0.4818
 5450SOL     OW27985   4.390   2.891   4.294 -0.6643 -0.4281  0.4605
 5450SOL    HW127986   4.416   2.946   4.220  3.1213 -1.1819  1.2158
 5450SOL    HW227987   4.295   2.904   4.295 -0.3922  1.2431  3.5700
 5451SOL     OW27988   2.715   4.517   4.018 -0.0673 -0.2549 -0.3887
 5451SOL    HW127989   2.653   4.450   3.992 -0.4528 -0.3424  0.7597
 5451SOL    HW227990   2.696   4.523   4.111 -0.2854 -0.9702 -0.3866
 5452SOL     OW27991   1.593   0.061  11.960  0.3748 -0.3379 -0.0184
 5452SOL    HW127992   1.515   0.088  12.009  0.0622 -0.7400 -0.2949
 5452SOL    HW227993   1.623   4.723  12.012 -3.3509 -1.2425  0.8925
 5453SOL     OW27994   1.959   0.576  14.822 -0.3275  0.5358 -0.0516
 5453SOL    HW127995   1.897   0.528  14.768  1.6851  0.5234 -2.3545
 5453SOL    HW227996   1.967   0.519  14.898 -1.4139  1.1287  0.5185
 5454SOL     OW27997   4.645   1.067  14.941 -0.0740  0.0476  0.0836
 5454SOL    HW127998   4.685   1.143  14.899 -3.1809  1.0953 -0.9903
 5454SOL    HW227999   4.663   1.091  15.032 -1.6804  1.9731 -0.1273
 5455SOL     OW28000   1.788   4.350  10.150  0.2582 -0.0959  0.0631
 5455SOL    HW128001   1.831   4.345  10.064  0.2131  0.5301  0.0064
 5455SOL    HW228002   1.695   4.346  10.127  0.7440  0.9378 -2.1256
 5456SOL     OW28003   0.531   1.407  15.844 -0.3387 -0.6863 -0.3398
 5456SOL    HW128004   0.566   1.488  15.881  1.9717 -1.8949  0.0704
 5456SOL    HW228005   0.608   1.352  15.835  0.2871 -0.0913  1.5036
 5457SOL     OW28006   1.471   2.615   6.898  0.3242 -0.4328  0.1395
 5457SOL    HW128007   1.462   2.523   6.876  1.7767 -0.1307 -1.6490
 5457SOL    HW228008   1.527   2.649   6.828 -0.2126  1.0218  0.4227
 5458SOL     OW28009   1.000   3.819  10.158 -0.3750 -0.4692  0.3461
 5458SOL    HW128010   1.005   3.905  10.118 -1.6849 -1.1266 -1.2013
 5458SOL    HW228011   1.023   3.836  10.250 -0.8583 -1.4344  0.6474
 5459SOL     OW28012   3.342   4.733   0.185  0.2128 -0.4975 -0.4166
 5459SOL    HW128013   3.339   4.683   0.103 -0.4566 -2.0730  0.5582
 5459SOL    HW228014   3.432   0.030   0.179  0.0767  0.0174  0.3199
 5460SOL     OW28015   3.192   3.320  14.366  0.6851 -0.1482 -0.2977
 5460SOL    HW128016   3.181   3.365  14.283  1.3717 -0.2302 -0.4283
 5460SOL    HW228017   3.128   3.354  14.429  1.2164  0.7059 -0.2256
 5461SOL     OW28018   2.963   0.965   8.246 -0.2479  0.3325 -0.3223
 5461SOL    HW128019   3.021   0.893   8.272 -2.8601 -2.3976 -2.1567
 5461SOL    HW228020   2.876   0.926   8.254  0.8523 -1.6537  2.2980
 5462SOL     OW28021   3.352   4.275   4.093  0.1957  0.6902 -0.5026
 5462SOL    HW128022   3.301   4.351   4.120  1.4588  0.8405  1.5041
 5462SOL    HW228023   3.283   4.209   4.088 -0.0683  0.8050  1.6008
 5463SOL     OW28024   2.992   0.961   5.774  0.5220  0.2184  0.4234
 5463SOL    HW128025   3.023   1.051   5.779 -0.6768  0.6618 -0.1013
 5463SOL    HW228026   3.074   0.913   5.764  0.6223  1.1091 -3.1760
 5464SOL     OW28027   3.864   3.225   5.905  0.2605  0.0317 -0.2566
 5464SOL    HW128028   3.790   3.168   5.927  0.6616  0.6240  2.6580
 5464SOL    HW228029   3.873   3.195   5.814 -3.2994  0.8762 -0.9012
 5465SOL     OW28030   0.547   1.592   5.525  1.0482  0.1198  0.5994
 5465SOL    HW128031   0.511   1.630   5.605  2.3057  0.7176  0.8705
 5465SOL    HW228032   0.639   1.594   5.549  1.8017  1.2990 -2.3795
 5466SOL     OW28033   2.235   3.074   2.296 -0.4738 -0.2227  0.6375
 5466SOL    HW128034   2.156   3.068   2.350 -1.5448 -1.2161 -1.0349
 5466SOL    HW228035   2.195   3.120   2.222 -1.2033 -1.9090 -0.0164
 5467SOL     OW28036   3.228   2.761  11.862 -0.7286  0.4540 -0.6138
 5467SOL    HW128037   3.247   2.754  11.956 -1.0037 -0.2958 -0.6164
 5467SOL    HW228038   3.177   2.842  11.857 -0.5308  0.5230 -1.4580
 5468SOL     OW28039   0.277   1.853  13.649  0.1370 -0.5356 -0.6231
 5468SOL    HW128040   0.191   1.885  13.620 -0.1777  0.7671  1.8062
 5468SOL    HW228041   0.323   1.859  13.565  0.9262 -0.8331 -0.2086
 5469SOL     OW28042   2.817   3.623   1.794 -0.2772  0.1734 -0.5498
 5469SOL    HW128043   2.902   3.618   1.751  0.4321  0.6347  0.7744
 5469SOL    HW228044   2.808   3.530   1.817  0.0853  0.1035 -0.6984
 5470SOL     OW28045   3.946   1.894   1.308 -0.2455 -0.1872 -0.1805
 5470SOL    HW128046   3.981   1.812   1.274 -0.3642 -1.0620  1.8168
 5470SOL    HW228047   4.018   1.956   1.302  1.7624 -2.3856  1.4056
 5471SOL     OW28048   0.950   3.217  12.009 -0.1907 -0.2622 -0.2536
 5471SOL    HW128049   1.010   3.280  11.969 -1.6142 -0.0036 -2.0063
 5471SOL    HW228050   0.880   3.275  12.040 -0.1830 -0.4603  0.1372
 5472SOL     OW28051   4.168   2.041  11.232  0.0533 -0.4549 -0.4148
 5472SOL    HW128052   4.217   1.980  11.288 -0.4547 -0.7416 -0.2752
 5472SOL    HW228053   4.168   2.116  11.291 -1.4195 -0.5746 -0.2538
 5473SOL     OW28054   3.605   4.041   9.380 -0.3195 -0.2445  0.1349
 5473SOL    HW128055   3.586   4.112   9.442 -0.9786 -1.4991  1.3671
 5473SOL    HW228056   3.692   4.070   9.352 -0.3660 -1.6031 -1.4676
 5474SOL     OW28057   4.540   1.287   5.740  0.2137  0.1451 -0.2112
 5474SOL    HW128058   4.552   1.284   5.835  1.0674  2.8749 -0.2182
 5474SOL    HW228059   4.513   1.197   5.721  0.1408  0.2748 -0.7292
 5475SOL     OW28060   4.017   3.364   8.961  0.1233  0.1897 -1.0311
 5475SOL    HW128061   4.054   3.275   8.959 -0.2073  0.0227  0.1865
 5475SOL    HW228062   3.934   3.338   8.922 -0.9048  1.0541  0.5857
 5476SOL     OW28063   0.956   2.279  12.324 -0.0834  0.5103  0.6840
 5476SOL    HW128064   1.023   2.210  12.326  1.2398  1.8134  1.7310
 5476SOL    HW228065   0.975   2.338  12.252  1.1376 -0.8816 -0.1269
 5477SOL     OW28066   3.032   3.692   1.604  0.7401  0.1112 -0.6458
 5477SOL    HW128067   3.028   3.681   1.509 -0.0393 -0.5812 -0.5305
 5477SOL    HW228068   3.038   3.787   1.614  1.8620  0.0159 -0.3565
 5478SOL     OW28069   3.799   4.567   4.656  0.4131 -0.0568  0.3820
 5478SOL    HW128070   3.714   4.540   4.620 -1.5861  1.8238  3.6405
 5478SOL    HW228071   3.783   4.590   4.748  3.0665  3.6481 -0.0639
 5479SOL     OW28072   0.730   2.725  12.831  0.5849  0.5495  0.4880
 5479SOL    HW128073   0.741   2.699  12.922 -0.6354 -1.9888 -0.0730
 5479SOL    HW228074   0.756   2.643  12.787 -1.1544  0.1616  0.2050
 5480SOL     OW28075   4.457   3.528   5.494  0.1699 -0.1027 -0.2187
 5480SOL    HW128076   4.410   3.609   5.517  1.4051  0.3401  0.7311
 5480SOL    HW228077   4.456   3.519   5.399 -0.7108  0.7247 -0.2891
 5481SOL     OW28078   0.485   0.961   2.088 -0.6899 -0.4329  0.1059
 5481SOL    HW128079   0.558   0.909   2.122 -1.2955 -0.3136  1.5591
 5481SOL    HW228080   0.458   0.894   2.025 -2.6167  1.5906 -1.2281
 5482SOL     OW28081   4.010   0.344   7.862 -0.2195  0.3868 -0.1493
 5482SOL    HW128082   3.999   0.277   7.795 -0.6918  0.8480 -0.5312
 5482SOL    HW228083   3.998   0.298   7.946 -0.5829 -0.2659 -0.5574
 5483SOL     OW28084   4.349   1.099   1.247 -0.4503  0.0519  0.3571
 5483SOL    HW128085   4.327   1.191   1.234 -0.9092 -0.1408 -0.2263
 5483SOL    HW228086   4.435   1.113   1.286 -0.3394  1.9777 -0.5910
 5484SOL     OW28087   1.831   4.331   4.520 -0.5705 -0.4229 -0.2632
 5484SOL    HW128088   1.919   4.297   4.534 -0.3679  0.6337  1.0461
 5484SOL    HW228089   1.783   4.306   4.599  0.8233 -0.7084  0.4891
 5485SOL     OW28090   2.260   4.306   8.644 -0.4801 -0.0310 -0.0748
 5485SOL    HW128091   2.311   4.261   8.578 -0.0723 -0.0612  0.2646
 5485SOL    HW228092   2.173   4.288   8.608 -0.9412 -0.1408  1.0677
 5486SOL     OW28093   4.512   1.184  11.964 -0.6071  0.3370 -0.1587
 5486SOL    HW128094   4.507   1.178  11.869  0.0561  0.4164 -0.1981
 5486SOL    HW228095   4.554   1.103  11.993 -2.2077 -0.0735  0.9904
 5487SOL     OW28096   2.570   0.766  15.655  0.3471 -0.0457 -0.1039
 5487SOL    HW128097   2.543   0.771  15.747 -0.6919 -1.0477 -0.3642
 5487SOL    HW228098   2.613   0.851  15.654  0.7288 -0.2439 -0.4822
 5488SOL     OW28099   2.805   4.630   7.734 -0.0195  0.8133  0.1427
 5488SOL    HW128100   2.744   4.558   7.751  0.7553 -0.2778 -1.7444
 5488SOL    HW228101   2.857   4.588   7.666 -0.1563  0.2025  0.4104
 5489SOL     OW28102   2.968   4.358   6.466  0.1805 -0.6447 -0.4464
 5489SOL    HW128103   2.926   4.377   6.550 -0.0417  2.1041 -1.1585
 5489SOL    HW228104   2.893   4.355   6.407  0.3306  1.9321 -0.7926
 5490SOL     OW28105   4.339   1.456   9.731  0.0708 -0.3949  0.2156
 5490SOL    HW128106   4.268   1.402   9.766 -0.5264  0.4011  0.2347
 5490SOL    HW228107   4.345   1.514   9.807  0.1081 -3.2544  2.3917
 5491SOL     OW28108   2.511   3.702   2.875 -0.1812 -0.7985 -0.5778
 5491SOL    HW128109   2.483   3.639   2.942  0.2665  1.1611  1.4367
 5491SOL    HW228110   2.536   3.640   2.806  1.6312 -0.1457 -0.4917
 5492SOL     OW28111   0.865   2.686   7.147 -0.2406 -0.0938  0.5666
 5492SOL    HW128112   0.914   2.762   7.178  0.7762  0.2209 -1.7508
 5492SOL    HW228113   0.929   2.617   7.163 -0.8920 -0.6087  0.9285
 5493SOL     OW28114   1.651   2.238   8.851  0.0475 -0.6956 -0.4660
 5493SOL    HW128115   1.614   2.150   8.858  0.0414 -0.8232 -2.2559
 5493SOL    HW228116   1.588   2.289   8.903  0.0984 -1.3461  0.2291
 5494SOL     OW28117   1.452   1.907   7.546  0.2056 -0.1135  0.4156
 5494SOL    HW128118   1.470   1.863   7.463 -0.3540  1.1225 -0.3636
 5494SOL    HW228119   1.487   1.840   7.605  0.0450 -1.5151 -1.0785
 5495SOL     OW28120   3.623   1.893   4.278 -0.1626 -0.3893  0.2483
 5495SOL    HW128121   3.699   1.879   4.335  0.6063  3.7686  0.2491
 5495SOL    HW228122   3.671   1.899   4.196  1.7825  0.5756  1.4463
 5496SOL     OW28123   2.536   2.180   3.916 -0.0223  0.0815 -0.2774
 5496SOL    HW128124   2.466   2.246   3.918  1.1494  1.3436 -0.6502
 5496SOL    HW228125   2.490   2.097   3.927  1.1119 -0.2977  1.6005
 5497SOL     OW28126   4.098   0.029   9.739  0.4739 -0.0910 -0.2294
 5497SOL    HW128127   4.039   0.037   9.665  2.1509 -3.0761 -1.8789
 5497SOL    HW228128   4.053   4.693   9.782  0.1177  0.5769  0.5252
 5498SOL     OW28129   3.981   1.320   1.712  0.3525 -0.1100  0.0321
 5498SOL    HW128130   3.998   1.272   1.631 -0.8973 -0.9090  0.2417
 5498SOL    HW228131   3.968   1.405   1.669  0.1689 -0.7978 -1.2700
 5499SOL     OW28132   4.425   0.751   2.333 -0.4847  0.4920 -0.4496
 5499SOL    HW128133   4.420   0.819   2.267 -0.0156  0.0603 -0.9323
 5499SOL    HW228134   4.380   0.787   2.409 -0.6141  0.0717 -0.3240
 5500SOL     OW28135   4.045   1.189   8.403 -0.0898 -0.2611  0.0088
 5500SOL    HW128136   4.073   1.238   8.326  1.3124 -0.2106  0.5440
 5500SOL    HW228137   4.127   1.193   8.452 -0.0530  0.5000 -0.1169
 5501SOL     OW28138   0.295   1.856   7.227 -0.1893  0.1893  0.5138
 5501SOL    HW128139   0.348   1.830   7.302  0.4499 -2.8933 -0.9763
 5501SOL    HW228140   0.319   1.783   7.169 -1.2686  0.2593 -0.0183
 5502SOL     OW28141   4.662   2.254   8.316 -0.3385 -0.1047 -0.3847
 5502SOL    HW128142   4.728   2.186   8.329 -0.6608  0.0767  2.0640
 5502SOL    HW228143   4.710   2.326   8.276 -0.0647  0.0836  0.2823
 5503SOL     OW28144   3.564   0.199   6.097 -0.5193 -0.1912 -0.5306
 5503SOL    HW128145   3.501   0.212   6.025 -0.6188  0.9595 -0.2302
 5503SOL    HW228146   3.533   0.117   6.136 -0.9832  0.6337  0.8367
 5504SOL     OW28147   2.063   1.936  13.161  0.6565 -0.3093  0.4799
 5504SOL    HW128148   2.076   2.013  13.106 -1.5530 -1.2514 -1.3812
 5504SOL    HW228149   1.970   1.923  13.143  1.1955 -0.0381 -2.6007
 5505SOL     OW28150   2.702   3.141   4.105  0.0229  0.0221  0.4376
 5505SOL    HW128151   2.662   3.145   4.192 -0.3691  0.2285  0.2476
 5505SOL    HW228152   2.753   3.222   4.106 -1.2445  0.8138  0.7079
 5506SOL     OW28153   2.164   2.120  13.524 -0.4782  0.5030  0.1610
 5506SOL    HW128154   2.076   2.157  13.536  0.0588  0.9921  2.6741
 5506SOL    HW228155   2.203   2.204  13.546  1.0638  0.2023 -1.5045
 5507SOL     OW28156   3.251   4.119  13.328 -0.3832  0.2020 -0.7700
 5507SOL    HW128157   3.334   4.131  13.376 -0.0932  0.1594 -1.2597
 5507SOL    HW228158   3.278   4.122  13.236  0.8586 -2.2202 -0.4918
 5508SOL     OW28159   3.332   0.799   6.047 -0.8351 -0.7090  0.1139
 5508SOL    HW128160   3.413   0.821   6.001 -0.3505 -2.3243  0.2328
 5508SOL    HW228161   3.341   0.704   6.052 -1.6289 -0.9415 -2.4386
 5509SOL     OW28162   2.710   4.134   3.015 -0.1458 -0.0795 -0.1051
 5509SOL    HW128163   2.652   4.058   3.016 -0.1578 -0.0331  2.8922
 5509SOL    HW228164   2.688   4.179   3.096 -0.7447  0.8389 -0.7659
 5510SOL     OW28165   0.806   2.782   5.328 -0.3150 -0.1591  0.2436
 5510SOL    HW128166   0.761   2.732   5.260  1.3842  0.2916 -1.2183
 5510SOL    HW228167   0.789   2.712   5.391 -1.3226  0.1744  0.3335
 5511SOL     OW28168   2.045   0.088  11.580 -0.0092 -0.0725 -0.1376
 5511SOL    HW128169   2.009   0.175  11.601 -1.5177 -0.5078 -0.9427
 5511SOL    HW228170   1.964   0.047  11.549  0.0535 -0.5478  0.3212
 5512SOL     OW28171   3.052   3.346   1.673 -0.0954 -0.7565  0.0172
 5512SOL    HW128172   3.082   3.270   1.721 -2.9079 -1.1418  1.1520
 5512SOL    HW228173   3.065   3.411   1.743 -1.6362 -1.7001  1.1503
 5513SOL     OW28174   0.551   2.510   5.573 -0.3245  0.1393 -0.3205
 5513SOL    HW128175   0.545   2.423   5.532 -1.8048  0.9783 -1.8774
 5513SOL    HW228176   0.636   2.546   5.546  0.1349  0.6318  1.7455
 5514SOL     OW28177   1.735   1.170  17.675 -0.6309  0.0376  0.0201
 5514SOL    HW128178   1.785   1.131   0.004 -2.8145 -1.8427  0.4833
 5514SOL    HW228179   1.745   1.108  17.603  0.1771 -0.0070  0.1711
 5515SOL     OW28180   1.148   0.358   7.706  0.7100  0.0634  0.1612
 5515SOL    HW128181   1.177   0.384   7.618  0.4764  0.9197  0.3325
 5515SOL    HW228182   1.230   0.351   7.755  0.3035 -0.7179  0.7206
 5516SOL     OW28183   0.393   1.240   2.644 -0.1007 -0.3266 -0.3902
 5516SOL    HW128184   0.470   1.291   2.618 -0.2917 -0.2139 -0.7430
 5516SOL    HW228185   0.380   1.269   2.734  0.2710  0.8540 -0.7239
 5517SOL     OW28186   3.631   0.181   9.203 -0.3584  0.2201  0.5411
 5517SOL    HW128187   3.612   0.272   9.179 -1.7842 -0.6783 -1.7250
 5517SOL    HW228188   3.622   0.189   9.298 -0.8727 -1.3027  0.6196
 5518SOL     OW28189   2.663   0.696   9.449  0.2863 -0.0375  0.8323
 5518SOL    HW128190   2.747   0.667   9.413 -0.5736  0.8341 -1.9179
 5518SOL    HW228191   2.603   0.663   9.383 -0.5124  1.4529  0.8076
 5519SOL     OW28192   3.178   0.313   0.778  0.6227  0.1473 -0.3024
 5519SOL    HW128193   3.191   0.372   0.704 -0.9979  0.0695 -0.6461
 5519SOL    HW228194   3.190   0.381   0.845  1.0412  0.6686 -0.9022
 5520SOL     OW28195   3.263   2.974   3.650 -0.3811 -0.3057  0.5970
 5520SOL    HW128196   3.352   2.973   3.687 -0.2125 -1.0189  0.1689
 5520SOL    HW228197   3.208   2.940   3.721 -0.0696  2.4360  2.1531
 5521SOL     OW28198   1.852   4.267  12.563 -0.1143 -0.4501 -0.2358
 5521SOL    HW128199   1.922   4.278  12.627 -1.0266 -1.9598  1.0141
 5521SOL    HW228200   1.830   4.176  12.583  0.1997 -0.7324 -1.1738
 5522SOL     OW28201   1.043   4.107   4.904  0.0361  0.1651 -0.0550
 5522SOL    HW128202   0.989   4.186   4.893  0.8506  0.8168  0.5889
 5522SOL    HW228203   1.085   4.128   4.987 -0.7461  1.7653 -0.0549
 5523SOL     OW28204   3.301   4.066   5.477  0.4204  0.4921 -0.2401
 5523SOL    HW128205   3.293   4.097   5.567  0.2106  0.3194 -0.1997
 5523SOL    HW228206   3.362   3.993   5.487  0.8631  0.9574  0.4252
 5524SOL     OW28207   1.941   1.064   1.903 -0.1477  0.2474 -0.4556
 5524SOL    HW128208   2.009   1.070   1.969 -0.4245  1.3877 -0.2787
 5524SOL    HW228209   1.983   1.001   1.844  0.4459 -0.7828  1.0482
 5525SOL     OW28210   4.634   4.004   8.479 -0.0107  0.0815  0.6303
 5525SOL    HW128211   4.549   4.004   8.523  0.3943  0.4768  1.4177
 5525SOL    HW228212   4.675   4.062   8.543 -0.2948  0.6530  0.2943
 5526SOL     OW28213   2.847   3.417  15.380  0.0460  0.0027  0.3740
 5526SOL    HW128214   2.892   3.342  15.419 -2.3161 -0.7934  1.5930
 5526SOL    HW228215   2.909   3.490  15.389  0.4355 -0.1998 -0.6788
 5527SOL     OW28216   0.495   0.005   0.970  0.8258 -0.2746 -0.0554
 5527SOL    HW128217   0.455   4.655   0.978  0.8072 -0.1855  0.7743
 5527SOL    HW228218   0.585   4.721   0.943 -1.1992 -0.6959 -6.4269
 5528SOL     OW28219   0.983   2.097  12.574 -0.0092  0.0169  0.5226
 5528SOL    HW128220   1.055   2.075  12.515 -1.5946 -1.0325 -1.0295
 5528SOL    HW228221   0.993   2.191  12.589 -0.3012 -0.0082  0.8602
 5529SOL     OW28222   2.277   0.568  10.605 -0.2348  0.7617  0.1917
 5529SOL    HW128223   2.294   0.609  10.520 -0.7037 -0.3810 -0.4551
 5529SOL    HW228224   2.352   0.510  10.613  1.5448  3.2183  1.2562
 5530SOL     OW28225   1.787   2.417   5.203  0.3140  0.3352  0.0459
 5530SOL    HW128226   1.736   2.360   5.145  0.5389  0.1841 -0.0044
 5530SOL    HW228227   1.874   2.379   5.188  0.7761  1.5788 -0.3709
 5531SOL     OW28228   0.648   2.678   7.950  0.1973 -0.3520  0.5162
 5531SOL    HW128229   0.695   2.760   7.967 -0.0026  0.3864 -2.5161
 5531SOL    HW228230   0.559   2.703   7.976 -0.3081 -0.8111 -0.7494
 5532SOL     OW28231   0.275   3.534   1.947  0.7454  0.5831 -0.2154
 5532SOL    HW128232   0.199   3.538   1.889 -0.6304 -2.0065  1.3949
 5532SOL    HW228233   0.328   3.463   1.910 -1.4158  0.0392 -2.2210
 5533SOL     OW28234   0.366   0.581   0.243 -0.1085  0.2255 -0.0694
 5533SOL    HW128235   0.385   0.488   0.253 -0.7321  0.1368  0.3082
 5533SOL    HW228236   0.271   0.569   0.236  0.1249 -0.4778 -2.0396
 5534SOL     OW28237   3.002   1.904   1.531  0.2313 -0.1282  0.3660
 5534SOL    HW128238   2.990   1.983   1.478 -2.3784 -0.6507  0.2081
 5534SOL    HW228239   2.929   1.848   1.504  0.2802 -0.0987  0.1677
 5535SOL     OW28240   4.361   3.476   6.270 -0.2434  0.0667 -0.2845
 5535SOL    HW128241   4.441   3.470   6.321 -0.3044 -0.0524 -0.2018
 5535SOL    HW228242   4.371   3.551   6.211 -0.9248  0.2404 -0.1816
 5536SOL     OW28243   4.234   4.581  17.508  0.0328  0.2188  0.1035
 5536SOL    HW128244   4.275   4.649  17.560 -0.7837  0.4826  0.3939
 5536SOL    HW228245   4.244   4.615  17.419 -1.0718 -2.2653 -0.9872
 5537SOL     OW28246   0.542   2.676   7.618 -0.1937 -0.1747  0.3907
 5537SOL    HW128247   0.631   2.642   7.631 -1.5227 -2.4561  3.3719
 5537SOL    HW228248   0.553   2.764   7.654  0.7144 -0.2899  0.3930
 5538SOL     OW28249   3.879   1.077   8.849  0.1894  0.4295  0.1107
 5538SOL    HW128250   3.946   1.143   8.836  0.6667 -0.2569 -0.8878
 5538SOL    HW228251   3.888   1.024   8.770 -0.2819  1.3223 -0.5466
 5539SOL     OW28252   3.020   4.554  16.823  0.1174  0.1065 -0.3486
 5539SOL    HW128253   2.954   4.574  16.757 -2.4839 -0.5651  2.0836
 5539SOL    HW228254   2.983   4.585  16.906 -0.8802  2.2075 -1.5845
 5540SOL     OW28255   4.453   2.733   3.044  0.2825  0.1584 -0.0746
 5540SOL    HW128256   4.406   2.749   3.125  1.1219 -1.6793  0.7796
 5540SOL    HW228257   4.455   2.824   3.016 -0.3141 -0.0627 -0.8294
 5541SOL     OW28258   4.520   3.494   8.735  0.0914 -0.1230  0.0034
 5541SOL    HW128259   4.444   3.463   8.784 -1.1483  0.6857 -1.4453
 5541SOL    HW228260   4.584   3.423   8.749 -1.6508 -1.0168  3.4782
 5542SOL     OW28261   2.282   3.971   4.569  0.1462  0.1550 -0.2488
 5542SOL    HW128262   2.230   3.977   4.649  0.5403 -2.5726  0.2012
 5542SOL    HW228263   2.285   3.877   4.553 -2.2776 -0.0594  0.5460
 5543SOL     OW28264   4.588   3.828   1.722 -0.8783  0.3900  0.0089
 5543SOL    HW128265   4.562   3.744   1.683 -0.0904  0.3079 -0.3390
 5543SOL    HW228266   4.535   3.885   1.666  0.3425  0.6011 -0.9148
 5544SOL     OW28267   1.512   1.265   0.039  0.4084 -0.5652  1.2802
 5544SOL    HW128268   1.463   1.188   0.010 -0.6716 -0.0877  1.8342
 5544SOL    HW228269   1.595   1.247  17.739 -0.8410  1.9321 -2.2256
 5545SOL     OW28270   0.035   2.669  11.515 -0.0439 -0.3963 -0.3548
 5545SOL    HW128271   4.681   2.699  11.504  0.4445  0.3069 -2.3344
 5545SOL    HW228272   0.053   2.625  11.433  0.6387  0.1423 -0.4941
 5546SOL     OW28273   2.910   1.786   2.592  0.3037 -0.0904 -0.1845
 5546SOL    HW128274   2.942   1.708   2.546  3.7146 -0.0279  2.1540
 5546SOL    HW228275   2.821   1.750   2.593 -0.3525  1.6922  2.7101
 5547SOL     OW28276   4.668   3.303  17.588 -0.0167 -0.1215  0.4010
 5547SOL    HW128277   0.006   3.243  17.587 -1.0387 -1.3301 -2.8063
 5547SOL    HW228278   4.594   3.244  17.604  0.0395 -1.0329 -2.6643
 5548SOL     OW28279   4.078   1.800  14.986 -0.1808 -0.2945  0.2567
 5548SOL    HW128280   4.080   1.895  14.985  0.4592 -0.3067  0.1773
 5548SOL    HW228281   4.016   1.782  15.056  0.1355 -0.5274  0.4811
 5549SOL     OW28282   0.889   3.196   5.205  0.5687 -0.2839 -0.4143
 5549SOL    HW128283   0.822   3.262   5.189 -1.1925 -1.6140  1.3780
 5549SOL    HW228284   0.948   3.234   5.270 -0.7904 -1.5163  1.5572
 5550SOL     OW28285   2.451   1.243   6.501  0.5550 -0.2170 -0.6376
 5550SOL    HW128286   2.457   1.154   6.536  0.2257  0.0566  0.0943
 5550SOL    HW228287   2.511   1.231   6.427  0.2201 -1.3140 -0.7339
 5551SOL     OW28288   3.457   2.769  13.729 -0.2649  0.5556 -0.0648
 5551SOL    HW128289   3.414   2.724  13.656  0.4790  0.0702 -0.1963
 5551SOL    HW228290   3.430   2.861  13.720 -0.3031  0.4379 -1.1478
 5552SOL     OW28291   3.389   1.063  17.485 -0.1466 -0.2848  0.5039
 5552SOL    HW128292   3.383   0.973  17.452 -1.5919  0.0723 -0.2278
 5552SOL    HW228293   3.384   1.116  17.406 -1.1980 -0.7317  0.2713
 5553SOL     OW28294   1.359   3.672  12.825 -0.6022  0.6401 -0.4203
 5553SOL    HW128295   1.415   3.734  12.870 -0.2623 -0.2809  0.4284
 5553SOL    HW228296   1.279   3.723  12.834 -0.0328  1.7050 -1.4661
 5554SOL     OW28297   1.076   4.595   4.591  0.1439  0.2602 -0.2464
 5554SOL    HW128298   1.168   4.580   4.568 -0.4085 -1.0595 -1.6256
 5554SOL    HW228299   1.030   4.617   4.511 -0.2018 -0.2945 -0.2005
 5555SOL     OW28300   2.890   4.473   9.932 -0.0980 -0.1191 -0.1312
 5555SOL    HW128301   2.885   4.464   9.836  0.6768  2.3693 -0.3971
 5555SOL    HW228302   2.980   4.453   9.958  0.1693  2.1250  0.6082
 5556SOL     OW28303   3.283   1.218   7.299  0.2294 -0.4903  0.1764
 5556SOL    HW128304   3.237   1.204   7.381 -0.2726 -0.3484 -0.0805
 5556SOL    HW228305   3.343   1.143   7.297 -1.5312 -1.8815 -0.9909
 5557SOL     OW28306   1.549   2.575   7.479 -0.2366  0.1540  0.3240
 5557SOL    HW128307   1.508   2.531   7.404 -0.5337  0.9615  0.0185
 5557SOL    HW228308   1.539   2.669   7.464 -1.4126  0.2874  1.9922
 5558SOL     OW28309   4.339   1.136  12.538  0.8123 -0.5901  0.0907
 5558SOL    HW128310   4.420   1.090  12.515  2.9747  3.0411  0.4833
 5558SOL    HW228311   4.353   1.129  12.633  0.4903 -0.3518  0.1545
 5559SOL     OW28312   0.932   3.198   6.448  0.0741  0.0944 -0.5464
 5559SOL    HW128313   0.911   3.230   6.360  2.4034  0.7330 -0.8701
 5559SOL    HW228314   1.023   3.224   6.461  0.5491 -1.1484 -1.3765
 5560SOL     OW28315   4.732   1.099   7.978  0.5872 -0.1439  0.3920
 5560SOL    HW128316   4.688   1.095   7.893 -0.1599 -0.9082  0.8140
 5560SOL    HW228317   4.685   1.021   8.009 -0.5862  0.3698 -0.0844
 5561SOL     OW28318   2.286   3.264   7.155 -0.0391  0.2954  0.5831
 5561SOL    HW128319   2.317   3.354   7.154 -0.6461  0.5063  0.7022
 5561SOL    HW228320   2.349   3.233   7.089  0.3731  0.4739  0.8939
 5562SOL     OW28321   4.657   1.168  11.497 -0.1352  0.3553 -0.1953
 5562SOL    HW128322   0.011   1.180  11.469  0.4283 -2.4391  0.4452
 5562SOL    HW228323   4.651   1.075  11.518  0.3452  0.6343  1.1309
 5563SOL     OW28324   0.811   1.540   2.838 -0.3162  0.2804 -0.5954
 5563SOL    HW128325   0.877   1.514   2.773  0.9551 -0.4354  0.9686
 5563SOL    HW228326   0.774   1.462   2.878  1.1539 -1.4443 -2.6088
 5564SOL     OW28327   1.747   1.513   4.192 -0.0553 -0.0354 -0.4091
 5564SOL    HW128328   1.652   1.521   4.206 -0.2028 -3.3610  0.4386
 5564SOL    HW228329   1.777   1.457   4.263 -0.3857 -0.4334 -0.5784
 5565SOL     OW28330   1.699   2.378   7.943 -0.5154 -0.1167 -0.2827
 5565SOL    HW128331   1.767   2.360   7.878 -1.5926 -0.7331 -1.2537
 5565SOL    HW228332   1.741   2.459   7.971 -0.0608 -1.0884  1.8182
 5566SOL     OW28333   1.754   3.056   6.089 -0.0815  0.5350 -0.5014
 5566SOL    HW128334   1.667   3.049   6.050 -0.8624  0.5310  1.2830
 5566SOL    HW228335   1.813   3.023   6.021 -1.4651 -0.7406 -1.0602
 5567SOL     OW28336   0.590   4.462  13.889 -0.2907  0.5043  0.1753
 5567SOL    HW128337   0.654   4.414  13.836  0.7885  1.1730  0.8933
 5567SOL    HW228338   0.561   4.521  13.820  2.5323  0.9214 -0.6548
 5568SOL     OW28339   3.372   0.229   9.306  0.3945  0.3723 -0.1872
 5568SOL    HW128340   3.444   0.218   9.368 -0.6457  0.2723  1.0084
 5568SOL    HW228341   3.307   0.166   9.338  0.5006  0.6304  0.5429
 5569SOL     OW28342   3.027   4.590   4.491 -0.4982 -0.2282  0.4687
 5569SOL    HW128343   2.980   4.672   4.506  0.1251  0.2223 -0.0424
 5569SOL    HW228344   2.953   4.530   4.501 -0.1936 -0.4351  1.4656
 5570SOL     OW28345   4.317   0.839   2.575  0.3093  0.5842 -0.3734
 5570SOL    HW128346   4.370   0.878   2.644 -0.1724 -1.5536  1.2154
 5570SOL    HW228347   4.284   0.761   2.620  0.0957 -0.7135 -2.7795
 5571SOL     OW28348   2.379   3.441  14.290  0.3101 -0.0327  0.7440
 5571SOL    HW128349   2.402   3.483  14.207 -0.5744 -0.4111  0.3043
 5571SOL    HW228350   2.340   3.358  14.260 -1.3959  1.7706 -2.0403
 5572SOL     OW28351   0.724   2.085   0.770  0.5036 -0.8344  0.1183
 5572SOL    HW128352   0.802   2.032   0.784  0.3113 -1.3648 -0.8660
 5572SOL    HW228353   0.726   2.129   0.855  0.1170 -2.4738  0.9713
 5573SOL     OW28354   0.934   2.659   4.494  0.4911  0.0274 -0.2238
 5573SOL    HW128355   0.983   2.599   4.438  0.2795  0.3311 -0.7381
 5573SOL    HW228356   1.004   2.707   4.537 -1.4421  1.3102  1.4708
 5574SOL     OW28357   0.469   4.709   6.490  0.2325 -0.6178 -0.1448
 5574SOL    HW128358   0.397   4.721   6.552  0.0400 -0.2418 -0.4450
 5574SOL    HW228359   0.443   4.624   6.454 -1.2964 -0.4130  0.4876
 5575SOL     OW28360   0.061   1.288  16.115 -0.5121 -0.1555 -0.2237
 5575SOL    HW128361   4.723   1.283  16.055 -1.4763  1.1793  0.8659
 5575SOL    HW228362   0.125   1.347  16.075 -0.9115  0.7376  0.4402
 5576SOL     OW28363   0.120   0.744   9.377  0.2807 -0.7923  0.0906
 5576SOL    HW128364   0.109   0.709   9.289 -2.0451 -2.2997  0.9750
 5576SOL    HW228365   0.080   0.677   9.433 -0.4320 -0.1041  0.3911
 5577SOL     OW28366   0.620   1.529   9.361  0.0580 -0.0677 -0.1498
 5577SOL    HW128367   0.681   1.457   9.344  1.4750  0.8180  1.1190
 5577SOL    HW228368   0.565   1.473   9.415  0.4690 -2.1053 -1.8509
 5578SOL     OW28369   4.587   2.463  15.160  0.1577  0.0558  0.5192
 5578SOL    HW128370   4.671   2.419  15.147 -0.1264 -0.5265  0.6661
 5578SOL    HW228371   4.581   2.460  15.255  1.0050 -0.5032  0.5483
 5579SOL     OW28372   4.664   2.186  16.470 -0.9911  0.3741  0.3773
 5579SOL    HW128373   4.682   2.153  16.558 -0.3173  0.5437  0.3035
 5579SOL    HW228374   4.734   2.252  16.463 -1.6514  0.8222 -1.8717
 5580SOL     OW28375   0.501   1.433   5.046 -0.3950  0.6799  0.1913
 5580SOL    HW128376   0.425   1.412   5.099  0.9502 -2.1500  0.9685
 5580SOL    HW228377   0.543   1.501   5.100  0.3845  1.0956 -0.9382
 5581SOL     OW28378   0.864   0.374   7.721 -0.8269 -0.5567 -0.4041
 5581SOL    HW128379   0.867   0.279   7.732  2.6457 -0.4746 -0.7432
 5581SOL    HW228380   0.956   0.398   7.722 -0.7832 -0.7306 -0.2719
 5582SOL     OW28381   0.574   3.024   2.107  0.4716  0.5313 -0.0434
 5582SOL    HW128382   0.578   2.935   2.143 -0.2511 -0.5025 -2.4996
 5582SOL    HW228383   0.664   3.031   2.075 -0.5204 -0.8250 -3.1840
 5583SOL     OW28384   3.895   0.854   9.880 -0.2672  0.2246  0.4113
 5583SOL    HW128385   3.913   0.934   9.832 -1.5071 -0.9170 -1.9653
 5583SOL    HW228386   3.978   0.855   9.928  0.3035  0.8879 -0.5890
 5584SOL     OW28387   3.744   0.112   8.967  0.1885 -0.2640 -0.2902
 5584SOL    HW128388   3.691   0.122   9.046  1.8640 -2.4422  1.0966
 5584SOL    HW228389   3.831   0.086   8.999  0.0180  1.7008  1.8314
 5585SOL     OW28390   2.419   3.023   9.244  0.3404  0.0962 -0.6803
 5585SOL    HW128391   2.453   2.933   9.244  0.6192  0.1849  1.6873
 5585SOL    HW228392   2.433   3.054   9.155  1.6780 -0.2989 -0.6128
 5586SOL     OW28393   1.925   3.119   8.625 -0.0853  1.0562  0.2929
 5586SOL    HW128394   1.924   3.151   8.716 -1.2376 -0.4750  0.8301
 5586SOL    HW228395   2.002   3.061   8.629 -0.4674  0.5149 -0.3647
 5587SOL     OW28396   4.162   2.037   3.111  0.0070  0.9951 -0.3769
 5587SOL    HW128397   4.091   2.090   3.147  0.5434  0.0166  2.0691
 5587SOL    HW228398   4.217   2.105   3.072  0.0737  1.7598  1.0571
 5588SOL     OW28399   1.471   4.230  14.868  0.1592  0.2254 -0.2287
 5588SOL    HW128400   1.407   4.164  14.843 -1.2164  1.7566 -0.7554
 5588SOL    HW228401   1.532   4.189  14.929 -0.7330 -0.5662  0.1250
 5589SOL     OW28402   0.612   0.035  12.463  0.2170 -0.5882  0.6045
 5589SOL    HW128403   0.664   4.701  12.504  2.1318 -0.6586 -1.9149
 5589SOL    HW228404   0.676   0.103  12.485  1.5158 -1.0233 -1.8551
 5590SOL     OW28405   1.526   4.415   2.024 -0.7189  0.0990 -0.3038
 5590SOL    HW128406   1.448   4.455   1.986 -2.0237 -1.7661  0.4455
 5590SOL    HW228407   1.496   4.400   2.113  0.7961 -0.7515  0.0682
 5591SOL     OW28408   1.266   1.199   2.421  0.1368  0.4390  0.3712
 5591SOL    HW128409   1.210   1.189   2.345  0.6342  2.6225 -0.2926
 5591SOL    HW228410   1.208   1.184   2.496  0.1124 -5.8973 -0.9346
 5592SOL     OW28411   4.485   1.455   2.057  0.6979  0.4941 -0.0357
 5592SOL    HW128412   4.447   1.478   1.972  0.5221  0.6184  0.0776
 5592SOL    HW228413   4.508   1.544   2.085 -2.6787  0.9027  1.5065
 5593SOL     OW28414   4.638   2.758   5.615  0.0599  0.0341 -0.1435
 5593SOL    HW128415   4.551   2.791   5.591 -1.1648 -2.4155  0.9447
 5593SOL    HW228416   4.690   2.838   5.604  0.3883 -0.6203 -3.2680
 5594SOL     OW28417   1.880   0.556   8.727 -0.4217 -0.3527 -0.0124
 5594SOL    HW128418   1.909   0.621   8.790  0.1020 -2.1734  1.5989
 5594SOL    HW228419   1.915   0.481   8.776 -1.5201 -1.3674 -0.7756
 5595SOL     OW28420   3.890   3.538   2.803  0.1488 -0.5172  0.1681
 5595SOL    HW128421   3.813   3.503   2.847 -0.8972 -0.1894 -1.3968
 5595SOL    HW228422   3.906   3.608   2.866  1.4584 -0.8918  0.2661
 5596SOL     OW28423   3.156   2.738   6.621 -0.7425 -0.2367  0.6640
 5596SOL    HW128424   3.234   2.739   6.566 -1.6997  2.3014 -0.5987
 5596SOL    HW228425   3.098   2.804   6.585 -0.5401 -0.7872 -0.6779
 5597SOL     OW28426   0.285   0.726   1.959  0.0413  0.2187 -0.1576
 5597SOL    HW128427   0.226   0.773   1.900  0.9482  0.0847 -1.1711
 5597SOL    HW228428   0.221   0.672   2.005  0.1263 -0.0949 -0.4079
 5598SOL     OW28429   3.750   0.995   3.666  0.3329 -0.1368 -0.5434
 5598SOL    HW128430   3.672   0.947   3.637 -1.1437  0.0654  3.1972
 5598SOL    HW228431   3.811   0.938   3.618  0.5592  1.2015 -1.8525
 5599SOL     OW28432   4.538   1.913   0.088  0.0055 -0.1876 -0.1129
 5599SOL    HW128433   4.537   2.000   0.127  0.7664  0.4209 -1.4996
 5599SOL    HW228434   4.467   1.873   0.140 -0.3898 -0.1135 -0.6013
 5600SOL     OW28435   3.698   0.134   8.537  0.6952  0.2279  0.1091
 5600SOL    HW128436   3.687   0.182   8.619  0.9823  2.4132 -1.1551
 5600SOL    HW228437   3.737   0.210   8.494 -1.2665  1.2531  0.1160
 5601SOL     OW28438   2.637   4.147   5.813  0.0737 -0.2048  0.2336
 5601SOL    HW128439   2.565   4.194   5.771  0.3443  1.4789  1.6462
 5601SOL    HW228440   2.672   4.094   5.742  0.0331 -0.0410  0.0936
 5602SOL     OW28441   3.268   3.622   0.983  0.3412  0.2265 -0.0289
 5602SOL    HW128442   3.326   3.691   0.949  0.3897 -0.2106 -0.8209
 5602SOL    HW228443   3.216   3.681   1.038  1.2113 -0.8108  1.9188
 5603SOL     OW28444   2.261   2.622   5.083 -0.4543  0.3657 -0.2163
 5603SOL    HW128445   2.300   2.701   5.045  1.2531  0.0405  0.8683
 5603SOL    HW228446   2.332   2.558   5.081 -0.7919 -0.0143  0.1262
 5604SOL     OW28447   0.155   4.432  13.112  0.1238  0.2562 -0.2281
 5604SOL    HW128448   0.073   4.385  13.093 -0.3641  0.1178  2.1889
 5604SOL    HW228449   0.145   4.471  13.199 -1.2975  0.7939 -0.6221
 5605SOL     OW28450   2.456   3.389   9.559  0.1072  0.2551  0.6818
 5605SOL    HW128451   2.490   3.478   9.564  0.8694  0.0564 -0.8832
 5605SOL    HW228452   2.537   3.339   9.575  0.3927  0.9912  1.5128
 5606SOL     OW28453   3.667   0.365  14.768 -0.5251 -0.1620 -0.3868
 5606SOL    HW128454   3.654   0.453  14.732  2.6150 -0.2827 -1.8961
 5606SOL    HW228455   3.751   0.371  14.814 -0.7015 -2.0211  0.1649
 5607SOL     OW28456   0.911   0.008   1.904 -0.0828 -0.3820 -0.1826
 5607SOL    HW128457   0.892   4.662   1.948  0.4485 -0.6549 -0.4539
 5607SOL    HW228458   0.974   4.720   1.836  1.1293  1.0378  0.4273
 5608SOL     OW28459   1.908   4.384   2.556 -0.4466 -0.3915  0.2034
 5608SOL    HW128460   1.863   4.321   2.500 -0.4844  0.8709 -1.1702
 5608SOL    HW228461   1.996   4.380   2.519  0.2327 -2.6008  2.0085
 5609SOL     OW28462   2.428   1.140   5.484  0.1811 -0.0284  0.1348
 5609SOL    HW128463   2.477   1.070   5.527 -0.5188 -1.3398 -1.1865
 5609SOL    HW228464   2.381   1.183   5.555  0.2379  0.4707 -0.1228
 5610SOL     OW28465   2.364   0.785   1.792  0.8113  0.1774  0.5327
 5610SOL    HW128466   2.336   0.851   1.728 -0.5167  1.1167  2.0952
 5610SOL    HW228467   2.371   0.838   1.871  0.9113 -1.8322  1.8743
 5611SOL     OW28468   3.999   1.304   5.115  0.3707 -0.2744  0.7532
 5611SOL    HW128469   4.030   1.356   5.041  1.1628 -0.4404  0.9674
 5611SOL    HW228470   3.941   1.243   5.069 -0.2772  0.0527  1.1415
 5612SOL     OW28471   1.219   1.401   5.465 -0.3021 -0.0452 -0.5521
 5612SOL    HW128472   1.188   1.482   5.424 -0.0188  0.4780  0.2661
 5612SOL    HW228473   1.148   1.337   5.462  1.4815 -2.0569 -0.1645
 5613SOL     OW28474   4.727   2.777   6.185  0.1797 -0.1722 -0.3281
 5613SOL    HW128475   0.052   2.734   6.125  1.3322  2.2745 -0.9183
 5613SOL    HW228476   4.708   2.697   6.235 -2.1226  1.1635  0.9339
 5614SOL     OW28477   1.513   0.036   7.950 -0.5125 -0.2567 -0.0470
 5614SOL    HW128478   1.517   4.718   7.871  0.3434 -2.3462  1.4182
 5614SOL    HW228479   1.537   4.703   8.012  0.4213 -1.8252 -2.1327
 5615SOL     OW28480   1.361   0.522  11.930 -0.0277  0.4115  0.6195
 5615SOL    HW128481   1.353   0.472  11.848 -1.9426  0.8474  0.5427
 5615SOL    HW228482   1.456   0.516  11.944 -0.1345  0.2786  1.2637
 5616SOL     OW28483   2.770   2.428   9.797  0.3072 -0.5440 -0.5707
 5616SOL    HW128484   2.699   2.490   9.777 -0.5107 -0.7092  1.8538
 5616SOL    HW228485   2.807   2.456   9.881 -0.6456  0.6114 -0.5279
 5617SOL     OW28486   1.755   3.792   7.027  0.1674 -0.3061 -0.2089
 5617SOL    HW128487   1.827   3.852   7.006  1.1351 -1.8229 -1.2451
 5617SOL    HW228488   1.749   3.791   7.123  0.7425  3.3560 -0.1529
 5618SOL     OW28489   1.542   0.427  13.410 -0.3392 -0.1926  0.3268
 5618SOL    HW128490   1.509   0.515  13.394 -0.2298 -0.8182 -3.3539
 5618SOL    HW228491   1.621   0.428  13.357 -1.1873  0.4234 -0.9291
 5619SOL     OW28492   1.702   3.744   2.350 -0.1217  0.3325 -0.0531
 5619SOL    HW128493   1.701   3.835   2.319  0.8892  0.9971  1.8759
 5619SOL    HW228494   1.635   3.735   2.417 -0.7257 -1.7360 -0.9464
 5620SOL     OW28495   1.218   0.309   4.486 -0.0202 -0.0278 -0.2846
 5620SOL    HW128496   1.173   0.390   4.465  1.3786  0.8831  0.2187
 5620SOL    HW228497   1.194   0.246   4.418 -0.1643 -0.3681  0.0801
 5621SOL     OW28498   2.136   2.268   5.846 -0.2018 -0.6152 -0.2769
 5621SOL    HW128499   2.229   2.280   5.824 -0.4008  0.2168 -0.6572
 5621SOL    HW228500   2.095   2.341   5.801  1.5286  1.5102  1.5667
 5622SOL     OW28501   4.530   2.832   7.873  0.5927 -1.0872 -0.3950
 5622SOL    HW128502   4.540   2.851   7.780 -2.2526  0.9857 -0.2878
 5622SOL    HW228503   4.513   2.919   7.909 -0.4192 -0.6975 -1.8187
 5623SOL     OW28504   1.371   0.838  14.563 -0.3876 -0.2032  0.4919
 5623SOL    HW128505   1.362   0.919  14.512 -2.0358 -0.7114 -0.0037
 5623SOL    HW228506   1.323   0.875  14.637 -0.6200  1.7148 -0.6048
 5624SOL     OW28507   1.787   0.781   5.158  0.2086  0.1658  0.3512
 5624SOL    HW128508   1.797   0.738   5.243 -1.8994 -0.8655  0.0966
 5624SOL    HW228509   1.699   0.818   5.168  1.1279  1.7475  2.4545
 5625SOL     OW28510   3.365   2.225   1.908  0.0621 -0.2762 -0.5252
 5625SOL    HW128511   3.283   2.270   1.890 -0.3880 -1.5247 -1.5475
 5625SOL    HW228512   3.422   2.285   1.859 -1.2936  0.9590 -0.5883
 5626SOL     OW28513   4.069   2.432  17.332 -0.4264  0.5863 -0.0297
 5626SOL    HW128514   4.131   2.454  17.263 -1.0509  1.8859 -0.1668
 5626SOL    HW228515   4.122   2.363  17.373 -1.5947 -0.6781 -0.6354
 5627SOL     OW28516   3.523   2.481   2.713 -0.2561 -0.5263  0.0360
 5627SOL    HW128517   3.503   2.548   2.647 -1.7732 -0.8799  0.1283
 5627SOL    HW228518   3.616   2.462   2.704 -0.6374 -2.4036  0.1968
 5628SOL     OW28519   1.536   3.118  13.532  0.2413  0.1299 -0.2066
 5628SOL    HW128520   1.463   3.096  13.590 -0.1355 -0.1715 -0.8014
 5628SOL    HW228521   1.507   3.196  13.486  1.1437 -0.6282 -2.0872
 5629SOL     OW28522   1.607   3.521   3.932 -0.0200 -0.3477 -0.3976
 5629SOL    HW128523   1.661   3.506   3.854 -1.0090 -1.3127 -0.8992
 5629SOL    HW228524   1.576   3.609   3.910 -1.2021 -0.7330 -0.2684
 5630SOL     OW28525   2.012   4.193   5.071  0.2346  0.6715  0.7903
 5630SOL    HW128526   1.927   4.186   5.028  0.3308  2.9044  0.2190
 5630SOL    HW228527   1.978   4.227   5.153  0.5375 -1.4081  1.7832
 5631SOL     OW28528   4.188   1.128   5.010  0.2571 -0.1463  0.0916
 5631SOL    HW128529   4.102   1.154   5.042  0.8951 -2.6311  3.9370
 5631SOL    HW228530   4.246   1.204   5.017  1.2266 -0.8697  0.0261
 5632SOL     OW28531   3.140   4.494   5.061 -0.1215  0.8787 -0.4124
 5632SOL    HW128532   3.105   4.429   5.000 -1.5390  0.1863  1.1733
 5632SOL    HW228533   3.229   4.509   5.028 -0.5425  2.2907 -0.9093
 5633SOL     OW28534   1.453   1.368   7.553  0.5750 -1.0609 -0.4245
 5633SOL    HW128535   1.523   1.413   7.601 -0.0136 -0.7297  0.1193
 5633SOL    HW228536   1.459   1.416   7.470  0.3449  0.6354  0.5293
 5634SOL     OW28537   2.699   2.231   2.892  0.2344 -0.0061  0.2107
 5634SOL    HW128538   2.632   2.245   2.959 -1.4695  0.0026 -1.4565
 5634SOL    HW228539   2.776   2.272   2.929 -0.0167  0.2406  0.4629
 5635SOL     OW28540   3.459   0.526   8.119  0.2476 -0.2455 -0.4266
 5635SOL    HW128541   3.460   0.469   8.195 -1.9918  0.6961  0.3304
 5635SOL    HW228542   3.368   0.514   8.090 -0.2115  0.2173  0.8390
 5636SOL     OW28543   2.673   1.989   8.196  0.1216 -0.5298 -1.0368
 5636SOL    HW128544   2.698   1.902   8.227  0.0052 -0.1338  0.1736
 5636SOL    HW228545   2.662   1.973   8.102 -0.9340  1.3289 -1.2473
 5637SOL     OW28546   4.570   0.451   3.316  0.1187  0.1326  0.3467
 5637SOL    HW128547   4.523   0.531   3.295 -0.9427 -0.4548  0.4992
 5637SOL    HW228548   4.519   0.381   3.273  1.6012 -0.9646  0.3711
 5638SOL     OW28549   3.733   2.008   9.251 -0.2338 -0.9987  0.4081
 5638SOL    HW128550   3.692   2.073   9.193  1.7956  1.7996  2.1443
 5638SOL    HW228551   3.816   1.988   9.208 -1.1414 -1.7645 -1.0100
 5639SOL     OW28552   3.890   4.180  17.296  0.0982 -0.5083  0.2031
 5639SOL    HW128553   3.839   4.238  17.240 -1.5413 -0.1474  2.0716
 5639SOL    HW228554   3.972   4.178  17.247  1.0796 -0.7968  1.8494
 5640SOL     OW28555   2.552   1.671   5.814  0.4874 -0.1439  0.3141
 5640SOL    HW128556   2.504   1.592   5.840  0.3632 -0.1450  0.0775
 5640SOL    HW228557   2.518   1.730   5.882  0.1532 -0.3798  0.3556
 5641SOL     OW28558   4.648   1.930  10.254 -0.1295  0.9940  0.6556
 5641SOL    HW128559   4.694   1.868  10.198 -0.1077 -0.0484  1.8230
 5641SOL    HW228560   4.712   1.964  10.316  1.7228 -1.6346  0.1841
 5642SOL     OW28561   0.331   2.505   4.808 -0.5797 -0.0725 -0.4958
 5642SOL    HW128562   0.293   2.439   4.866 -1.6825  2.7857  2.0094
 5642SOL    HW228563   0.283   2.486   4.727 -1.9787 -0.7028  0.4797
 5643SOL     OW28564   4.715   2.161   4.364 -0.1861  0.7478  0.0147
 5643SOL    HW128565   0.073   2.150   4.349 -0.2070  0.4654  0.0873
 5643SOL    HW228566   4.712   2.200   4.452 -0.1766  1.7401 -0.4253
 5644SOL     OW28567   4.212   0.474  17.375 -0.2000  0.4864  0.5530
 5644SOL    HW128568   4.123   0.451  17.401 -0.1432  1.0816  1.2541
 5644SOL    HW228569   4.203   0.566  17.352  0.9561 -0.2094 -2.7470
 5645SOL     OW28570   3.793   1.036   5.756 -0.4380  0.0722 -0.2170
 5645SOL    HW128571   3.848   1.026   5.833 -2.5533  0.5534  1.3404
 5645SOL    HW228572   3.725   1.090   5.796 -2.3874 -1.3034 -1.5780
 5646SOL     OW28573   4.165   0.090   7.057 -0.2736  0.2769 -0.0848
 5646SOL    HW128574   4.216   0.050   7.128 -0.2130  0.6884  0.1044
 5646SOL    HW228575   4.097   0.132   7.109  2.5994  3.3530  1.2030
 5647SOL     OW28576   3.763   1.074   7.728  0.1501  0.1801  0.2745
 5647SOL    HW128577   3.714   1.135   7.783 -0.5115  0.8998 -1.1065
 5647SOL    HW228578   3.716   0.991   7.726  1.3487 -0.4961  0.1256
 5648SOL     OW28579   1.361   0.447  14.930 -0.3314 -0.1498  0.1140
 5648SOL    HW128580   1.334   0.480  14.844  1.7353 -0.2887 -0.5856
 5648SOL    HW228581   1.295   0.378  14.932  0.4034 -0.8082  1.4180
 5649SOL     OW28582   1.330   2.761   8.875 -0.1580 -0.3579  0.7279
 5649SOL    HW128583   1.247   2.757   8.829  0.1336  1.6770  0.0091
 5649SOL    HW228584   1.387   2.713   8.815  0.2620 -2.2357  2.6299
 5650SOL     OW28585   3.822   4.498   7.006 -0.3743 -0.0653  0.1934
 5650SOL    HW128586   3.781   4.577   7.041 -1.7320 -0.9018  0.4969
 5650SOL    HW228587   3.748   4.452   6.968 -0.2550 -0.5802  0.5828
 5651SOL     OW28588   1.622   3.055   4.595 -0.2913 -0.2137  0.1201
 5651SOL    HW128589   1.612   2.996   4.519  1.9630  0.0428 -0.3770
 5651SOL    HW228590   1.550   3.117   4.583  0.7000  0.9228 -0.0031
 5652SOL     OW28591   4.488   1.611   6.191  0.2302  0.3022 -0.0434
 5652SOL    HW128592   4.583   1.620   6.193  0.3189 -0.3104 -1.5285
 5652SOL    HW228593   4.469   1.623   6.098 -1.1142  0.0014  0.1903
 5653SOL     OW28594   3.314   4.506   2.545 -0.4457 -0.0337  0.1253
 5653SOL    HW128595   3.315   4.513   2.640  0.5153 -2.0095  0.2619
 5653SOL    HW228596   3.275   4.583   2.504  0.1375 -0.6635 -1.6223
 5654SOL     OW28597   1.490   0.352   5.622  0.1301 -0.2825 -0.4852
 5654SOL    HW128598   1.456   0.441   5.619 -0.8948 -0.5520  2.3388
 5654SOL    HW228599   1.421   0.312   5.675 -0.7735  0.2012 -1.3040
 5655SOL     OW28600   4.546   4.353   7.113 -0.6395  0.3864  0.1420
 5655SOL    HW128601   4.613   4.376   7.177 -1.4219  5.3451 -0.8701
 5655SOL    HW228602   4.514   4.269   7.147 -1.7483 -0.2491 -2.4671
 5656SOL     OW28603   1.942   1.640   2.531  0.0375  0.0566 -0.0922
 5656SOL    HW128604   1.920   1.662   2.441 -2.3031 -1.2045  0.1628
 5656SOL    HW228605   1.890   1.710   2.570  2.3036  1.4411  0.3983
 5657SOL     OW28606   2.126   2.414   7.119  0.0417  0.5075 -0.2637
 5657SOL    HW128607   2.053   2.453   7.167  0.4218  0.0067  0.7329
 5657SOL    HW228608   2.100   2.323   7.101 -1.5565  0.8620  0.2805
 5658SOL     OW28609   4.064   2.203  11.435  0.0820 -0.3353 -0.2116
 5658SOL    HW128610   3.988   2.147  11.423  0.1060 -0.3467 -0.3081
 5658SOL    HW228611   4.039   2.273  11.496 -2.4462 -0.5635 -0.9841
 5659SOL     OW28612   1.206   3.989  11.702  0.4095  0.1678 -0.1787
 5659SOL    HW128613   1.135   4.025  11.650 -0.8387 -3.1942 -0.8102
 5659SOL    HW228614   1.248   4.068  11.738  2.6498 -0.8138 -0.6228
 5660SOL     OW28615   4.666   4.193   2.790 -0.2267  0.0941  0.3731
 5660SOL    HW128616   4.570   4.188   2.793 -0.1931 -1.2587 -0.6858
 5660SOL    HW228617   4.687   4.279   2.755 -1.5572 -0.0734 -0.8814
 5661SOL     OW28618   4.339   1.269  15.948  0.4769 -0.2415 -0.1641
 5661SOL    HW128619   4.261   1.290  15.896  0.3994  2.4719  1.0458
 5661SOL    HW228620   4.363   1.186  15.908  0.8093 -0.1440 -0.1635
 5662SOL     OW28621   4.010   3.490   4.026  1.0361  0.0044 -0.2939
 5662SOL    HW128622   3.939   3.427   4.011  1.9044 -1.1521  0.3762
 5662SOL    HW228623   4.084   3.433   4.005 -0.1105 -1.9769  0.9403
 5663SOL     OW28624   4.580   2.467  14.644 -0.6694 -0.4065  0.3023
 5663SOL    HW128625   4.520   2.458  14.570  0.4007  0.1546 -0.6402
 5663SOL    HW228626   4.581   2.381  14.686 -3.2320 -2.6448 -4.2114
 5664SOL     OW28627   3.355   0.771   8.520 -0.1034  0.4110 -0.0703
 5664SOL    HW128628   3.401   0.831   8.462  0.0854 -0.2009 -0.5530
 5664SOL    HW228629   3.422   0.725   8.570  0.4026 -0.7734 -1.8447
 5665SOL     OW28630   3.158   2.080   3.685  0.4165  0.2159 -0.7360
 5665SOL    HW128631   3.091   2.050   3.624 -0.7048 -1.0191  1.1349
 5665SOL    HW228632   3.103   2.098   3.761 -0.7781 -0.8595 -1.3573
 5666SOL     OW28633   4.355   2.731  13.045 -0.0989  0.2768 -0.3760
 5666SOL    HW128634   4.372   2.736  13.139 -0.3795 -0.4531 -0.2862
 5666SOL    HW228635   4.261   2.718  13.034 -0.0582  0.1900 -0.6273
 5667SOL     OW28636   1.836   2.902  16.110  0.2104 -0.2075  0.3105
 5667SOL    HW128637   1.742   2.918  16.118  0.2447  0.5671 -0.8848
 5667SOL    HW228638   1.826   2.860  16.024  1.1228 -1.5983  0.8682
 5668SOL     OW28639   4.132   4.176  16.429 -0.0479 -0.0896  0.5649
 5668SOL    HW128640   4.039   4.193  16.411  0.3427  1.6931  0.2230
 5668SOL    HW228641   4.166   4.148  16.344  1.2760  0.5532  0.8934
 5669SOL     OW28642   2.123   3.997   8.840  0.7992 -0.4555 -0.6623
 5669SOL    HW128643   2.057   4.065   8.828  0.9539  0.2029  2.3029
 5669SOL    HW228644   2.208   4.040   8.849  0.0469  1.2286 -1.5068
 5670SOL     OW28645   2.215   0.401   4.650  0.1219  0.6625  0.1199
 5670SOL    HW128646   2.177   0.319   4.619  1.0046  0.0709  0.5757
 5670SOL    HW228647   2.143   0.446   4.694 -1.8173 -0.9173 -1.4570
 5671SOL     OW28648   1.149   3.128   4.095  0.6602 -0.1417 -0.1532
 5671SOL    HW128649   1.118   3.067   4.162 -0.5084  0.9311  0.2761
 5671SOL    HW228650   1.241   3.102   4.096  0.4634 -0.8130  0.2401
 5672SOL     OW28651   1.518   4.456   7.320 -0.0677 -0.2122  0.4665
 5672SOL    HW128652   1.486   4.546   7.321 -0.4221 -0.3355 -0.0875
 5672SOL    HW228653   1.613   4.471   7.323 -0.1099  0.1119  0.0400
 5673SOL     OW28654   3.597   4.603  17.246  0.1134 -0.3581  0.1099
 5673SOL    HW128655   3.551   4.652  17.178 -2.0040  0.4540  2.0925
 5673SOL    HW228656   3.606   4.660  17.322 -1.9188  2.0043 -1.4232
 5674SOL     OW28657   1.746   1.280   5.881  0.2195  0.0646 -0.3247
 5674SOL    HW128658   1.667   1.290   5.829  2.1162 -1.1207 -3.4624
 5674SOL    HW228659   1.754   1.362   5.928  1.7897  0.5742 -1.4705
 5675SOL     OW28660   0.888   2.371   0.636  0.4651  0.6148 -0.6162
 5675SOL    HW128661   0.954   2.409   0.577 -1.1848  0.9965 -2.2125
 5675SOL    HW228662   0.927   2.290   0.669  0.5946  0.6427 -0.6968
 5676SOL     OW28663   3.775   2.936   7.183  0.3086 -0.3039  0.2376
 5676SOL    HW128664   3.819   2.861   7.145 -0.4594 -1.5599  1.8198
 5676SOL    HW228665   3.795   2.914   7.274  0.2188  1.1794  0.6232
 5677SOL     OW28666   0.831   1.229   2.308 -0.2818 -0.3032 -0.6226
 5677SOL    HW128667   0.892   1.203   2.376  1.7933  0.0139 -2.3685
 5677SOL    HW228668   0.756   1.177   2.336  2.2580 -3.0413  1.0294
 5678SOL     OW28669   3.036   3.907   8.870 -0.3543  0.0386 -0.0962
 5678SOL    HW128670   2.962   3.917   8.810  0.3058  2.2374 -0.5302
 5678SOL    HW228671   3.041   3.993   8.912  2.0174 -0.1061 -0.0977
 5679SOL     OW28672   1.831   3.165   8.356  0.0468 -0.4391 -0.0069
 5679SOL    HW128673   1.846   3.255   8.327  2.0331 -1.3169 -1.6326
 5679SOL    HW228674   1.879   3.174   8.439  0.3430 -0.4857 -0.1759
 5680SOL     OW28675   0.510   0.264   1.053  0.2668  0.6402 -0.4580
 5680SOL    HW128676   0.486   0.180   1.015 -1.6722 -0.0697  2.3719
 5680SOL    HW228677   0.582   0.291   0.995  1.4337 -0.8458  0.2886
 5681SOL     OW28678   2.742   3.590   9.754  0.3943 -0.1558  0.0013
 5681SOL    HW128679   2.832   3.602   9.786 -0.2349 -0.5458  1.8985
 5681SOL    HW228680   2.695   3.592   9.838 -0.1564 -0.9066 -0.2987
 5682SOL     OW28681   1.329   0.562   5.497 -0.0110 -0.2213 -0.7189
 5682SOL    HW128682   1.247   0.553   5.447 -2.0756  1.3237  2.3982
 5682SOL    HW228683   1.400   0.581   5.436 -0.9963  0.1901 -1.7340
 5683SOL     OW28684   2.292   3.319   9.754 -0.0295  0.7013 -0.0343
 5683SOL    HW128685   2.372   3.323   9.807  0.2569  1.3936 -0.5188
 5683SOL    HW228686   2.330   3.338   9.668 -0.1831  0.3205 -0.1849
 5684SOL     OW28687   4.547   0.280  10.200  0.0119  0.2978 -0.4544
 5684SOL    HW128688   4.475   0.313  10.146 -0.2461  0.7401  0.1570
 5684SOL    HW228689   4.505   0.206  10.245 -0.2579 -0.4719 -1.9745
 5685SOL     OW28690   3.512   3.183  12.671 -0.7208  0.6471  0.1463
 5685SOL    HW128691   3.506   3.134  12.753  3.0487 -0.5403 -0.2899
 5685SOL    HW228692   3.423   3.207  12.644 -0.4042  0.2457 -1.2507
 5686SOL     OW28693   0.101   3.262   4.514 -0.0746  0.0326  0.0859
 5686SOL    HW128694   0.106   3.320   4.438 -3.7229  0.9850  0.5618
 5686SOL    HW228695   0.053   3.307   4.584 -1.2752  1.0013 -1.3532
 5687SOL     OW28696   3.803   3.479   6.863 -0.3341  0.4466 -0.6474
 5687SOL    HW128697   3.852   3.446   6.788 -0.1778 -1.0544  0.1189
 5687SOL    HW228698   3.768   3.401   6.908 -0.5073  0.9994  0.1805
 5688SOL     OW28699   0.344   4.519   8.516  0.4522  0.4320  0.0414
 5688SOL    HW128700   0.296   4.597   8.544 -1.6320 -0.2701 -1.5212
 5688SOL    HW228701   0.272   4.473   8.474  1.1423 -1.0363  0.4683
 5689SOL     OW28702   4.570   0.799  14.936 -0.0292  0.4609 -0.0236
 5689SOL    HW128703   4.645   0.773  14.882 -0.4682 -1.1289  0.1317
 5689SOL    HW228704   4.601   0.889  14.947  0.1242  0.5585 -1.2874
 5690SOL     OW28705   0.648   3.185   8.189  0.2456 -0.1493 -0.3728
 5690SOL    HW128706   0.678   3.265   8.231  1.5868 -0.3866 -0.8635
 5690SOL    HW228707   0.629   3.230   8.107  0.3656  0.0911 -0.2681
 5691SOL     OW28708   3.957   2.512  17.624 -0.3682  0.2875 -0.1629
 5691SOL    HW128709   4.027   2.510  17.690 -0.2100  0.3543 -0.3300
 5691SOL    HW228710   4.001   2.460  17.557 -0.2303  1.1150 -0.7263
 5692SOL     OW28711   2.900   0.733   7.257 -0.0152 -0.3946 -0.7057
 5692SOL    HW128712   2.975   0.774   7.213 -2.0690  1.6033 -2.3859
 5692SOL    HW228713   2.879   0.791   7.330  0.6654  0.0951 -0.8971
 5693SOL     OW28714   0.008   4.217   8.627 -0.2065 -0.4162 -0.4602
 5693SOL    HW128715   4.654   4.235   8.600  0.0180 -1.8229 -2.0954
 5693SOL    HW228716   4.727   4.210   8.721 -1.4041  2.2420 -0.5013
 5694SOL     OW28717   3.169   3.894   4.417 -0.1705 -0.5261 -0.5194
 5694SOL    HW128718   3.143   3.941   4.496  0.4287 -1.2147  0.0926
 5694SOL    HW228719   3.100   3.828   4.411 -1.5081  0.6556  2.2675
 5695SOL     OW28720   0.379   3.943  17.341  0.2743  0.2892 -0.4363
 5695SOL    HW128721   0.458   3.988  17.310  0.3300  0.7547  0.3878
 5695SOL    HW228722   0.420   3.861  17.370 -1.8231 -0.0786  1.4404
 5696SOL     OW28723   0.877   2.304  10.357  0.5396  0.0625 -0.4109
 5696SOL    HW128724   0.898   2.384  10.310  1.4001  0.0949  0.0368
 5696SOL    HW228725   0.786   2.324  10.381  1.4608  0.9295  2.4383
 5697SOL     OW28726   0.345   1.095   1.896 -0.7318  0.0046  1.2395
 5697SOL    HW128727   0.405   1.084   1.969  1.0638  1.2667 -0.0484
 5697SOL    HW228728   0.406   1.105   1.823 -2.5732  3.1731  0.1387
 5698SOL     OW28729   3.242   3.106   5.446  0.0172  0.4968 -0.4434
 5698SOL    HW128730   3.286   3.184   5.480  3.8737 -2.5196  1.4925
 5698SOL    HW228731   3.212   3.132   5.359 -1.3646  0.7999  0.1290
 5699SOL     OW28732   0.785   2.086   7.035  0.2334 -0.0734 -0.3630
 5699SOL    HW128733   0.729   2.043   6.971 -0.2601 -0.2350  0.1799
 5699SOL    HW228734   0.742   2.069   7.119 -0.6087  2.5745 -0.2479
 5700SOL     OW28735   3.462   3.941   7.433 -0.2778 -0.6162 -0.2895
 5700SOL    HW128736   3.557   3.934   7.420 -0.3790 -0.2490 -1.2346
 5700SOL    HW228737   3.450   3.851   7.463 -0.2172 -0.2856  0.7005
 5701SOL     OW28738   3.964   2.482   5.419 -0.2703  0.3508 -0.1580
 5701SOL    HW128739   4.054   2.454   5.437 -0.4333  0.9260  1.5342
 5701SOL    HW228740   3.927   2.486   5.507 -1.2560 -0.3687 -0.5426
 5702SOL     OW28741   3.508   4.345  14.415 -0.2657 -0.4395  0.2318
 5702SOL    HW128742   3.566   4.327  14.341  0.8678  1.7153  0.6125
 5702SOL    HW228743   3.478   4.258  14.442 -0.1466 -0.0538  1.5821
 5703SOL     OW28744   1.167   4.616   8.254  0.0193  0.4631  0.6265
 5703SOL    HW128745   1.182   4.590   8.163  0.9721 -1.0640  1.2203
 5703SOL    HW228746   1.097   4.681   8.249 -0.8770 -0.4449  1.2013
 5704SOL     OW28747   0.683   0.106   1.729  0.7334  0.7009 -0.7556
 5704SOL    HW128748   0.757   0.076   1.783  0.6992  1.1500 -0.4551
 5704SOL    HW228749   0.721   0.187   1.697  1.1525  0.3679 -1.1040
 5705SOL     OW28750   3.057   1.752   1.763  0.6018  0.9029 -0.3524
 5705SOL    HW128751   3.134   1.721   1.715  0.7063  0.7202 -0.0674
 5705SOL    HW228752   3.028   1.804   1.688  1.9220  0.9282 -0.8590
 5706SOL     OW28753   3.384   2.542   2.072  0.1835  0.1461  0.1289
 5706SOL    HW128754   3.429   2.467   2.110  0.0048  0.1723  0.3883
 5706SOL    HW228755   3.409   2.603   2.141 -1.1138 -0.5523  1.2310
 5707SOL     OW28756   3.190   1.077   8.958 -0.7631  0.0815 -0.5651
 5707SOL    HW128757   3.095   1.074   8.947 -0.2841 -1.9050 -4.2121
 5707SOL    HW228758   3.228   1.051   8.874  0.3149  5.2840 -1.6498
 5708SOL     OW28759   3.243   0.401   7.273  0.1133  0.7843  0.1831
 5708SOL    HW128760   3.240   0.490   7.308 -2.4724  1.2958 -1.3227
 5708SOL    HW228761   3.308   0.416   7.205  1.3055 -1.6892  0.7565
 5709SOL     OW28762   4.582   3.002   2.355 -0.0430  0.1897  0.1455
 5709SOL    HW128763   4.607   3.004   2.447  0.0824  1.2736  0.0921
 5709SOL    HW228764   4.492   2.970   2.365  0.0420  0.0398  0.4280
 5710SOL     OW28765   1.411   3.164   3.479  0.3626  0.2305 -0.6595
 5710SOL    HW128766   1.318   3.153   3.461  0.3286 -1.5570  0.6123
 5710SOL    HW228767   1.450   3.087   3.439 -2.2872 -1.7777  0.6209
 5711SOL     OW28768   1.941   2.753   2.755  0.0234 -0.2582  0.1928
 5711SOL    HW128769   1.858   2.708   2.743  1.5582 -2.4775 -2.1207
 5711SOL    HW228770   1.920   2.827   2.697  0.5558  1.5249  2.2515
 5712SOL     OW28771   0.638   3.496   8.724  0.4991 -0.2637  0.0605
 5712SOL    HW128772   0.641   3.551   8.645  1.8221 -0.4582 -0.0277
 5712SOL    HW228773   0.601   3.561   8.783  0.0685 -0.4058 -0.0580
 5713SOL     OW28774   2.908   1.515   9.105  0.5010 -0.5270  0.1835
 5713SOL    HW128775   2.940   1.570   9.176 -1.5419  0.7976  0.0788
 5713SOL    HW228776   2.919   1.427   9.140  2.3409  0.5536  2.3077
 5714SOL     OW28777   1.013   0.497   8.392  0.8661 -0.2874  0.0441
 5714SOL    HW128778   1.024   0.472   8.300 -2.5556 -1.7219  0.0485
 5714SOL    HW228779   0.918   0.505   8.394  0.9529  0.7378 -0.1073
 5715SOL     OW28780   1.071   0.669  10.222  0.1907 -0.1196  0.1024
 5715SOL    HW128781   1.048   0.721  10.299  2.6414 -1.1719  1.5414
 5715SOL    HW228782   1.163   0.648  10.239  0.2131  0.4033  0.6344
 5716SOL     OW28783   3.975   3.537   8.153  0.0816 -0.0765  0.5190
 5716SOL    HW128784   3.889   3.519   8.191  0.0739  2.1360  1.5446
 5716SOL    HW228785   4.014   3.450   8.144 -0.5164 -0.2161 -0.7780
 5717SOL     OW28786   3.828   1.652   6.305  0.2717 -0.2668  0.7990
 5717SOL    HW128787   3.922   1.668   6.296  0.4815 -0.9617  1.7636
 5717SOL    HW228788   3.799   1.669   6.215  1.7097  2.6823  0.8782
 5718SOL     OW28789   0.180   4.190  13.356  0.0117 -0.3702 -0.6106
 5718SOL    HW128790   0.220   4.276  13.369  1.5573 -1.1779 -0.0665
 5718SOL    HW228791   0.086   4.208  13.353 -0.1068 -1.1024 -1.3432
 5719SOL     OW28792   0.625   1.312   6.881 -0.2213 -0.1621 -0.7805
 5719SOL    HW128793   0.604   1.250   6.812  1.2018 -1.8944  0.3338
 5719SOL    HW228794   0.537   1.300   6.917  0.0693  0.6850  0.2331
 5720SOL     OW28795   0.993   2.465  11.129 -0.0038  0.6073  0.3920
 5720SOL    HW128796   1.034   2.383  11.102 -2.0457 -0.0964 -0.5358
 5720SOL    HW228797   1.070   2.519  11.112  0.2170 -0.3043 -1.4569
 5721SOL     OW28798   2.618   2.873  10.143 -0.0653 -0.5268  0.3525
 5721SOL    HW128799   2.528   2.857  10.114  0.0058 -2.8258  1.3781
 5721SOL    HW228800   2.595   2.904  10.230 -1.4168 -1.4553  0.3217
 5722SOL     OW28801   3.693   1.037   2.337 -0.2680  0.4511  0.0274
 5722SOL    HW128802   3.598   1.046   2.330 -0.5131 -1.5191  1.0088
 5722SOL    HW228803   3.705   0.965   2.398  1.6321  1.2764  0.6151
 5723SOL     OW28804   4.560   0.732   0.383 -0.1322 -0.5017  0.0170
 5723SOL    HW128805   4.595   0.767   0.464 -0.4455  0.0499 -0.0894
 5723SOL    HW228806   4.474   0.699   0.411  0.1451  0.9921  2.5716
 5724SOL     OW28807   3.047   4.132   5.363 -0.0201  0.0456 -0.2623
 5724SOL    HW128808   3.094   4.181   5.296  3.4008  0.9449  2.7992
 5724SOL    HW228809   3.124   4.103   5.412  0.3776  0.0901 -0.8563
 5725SOL     OW28810   2.165   1.639   6.156  0.6719 -0.1934 -0.1766
 5725SOL    HW128811   2.119   1.695   6.218  1.9374 -0.8776  1.3822
 5725SOL    HW228812   2.205   1.705   6.099 -0.5762  1.3269  0.7120
 5726SOL     OW28813   0.232   0.050  10.129 -0.1471  0.2974  0.1266
 5726SOL    HW128814   0.282   0.082  10.204  0.6418  1.7461 -0.9825
 5726SOL    HW228815   0.193   0.130  10.092 -3.1764 -0.6272  1.3741
 5727SOL     OW28816   1.950   4.048   3.037 -0.6033  0.6356  0.0872
 5727SOL    HW128817   1.911   3.992   2.969 -0.5105  0.6955 -0.0155
 5727SOL    HW228818   1.927   4.137   3.010  1.5409  1.0162 -0.4834
 5728SOL     OW28819   4.477   4.101  14.237 -0.0012  0.0021  0.9565
 5728SOL    HW128820   4.502   4.176  14.184 -1.4627 -1.7075 -2.1535
 5728SOL    HW228821   4.389   4.112  14.203  0.5373 -1.5909 -0.9384
 5729SOL     OW28822   4.011   1.842   5.659  0.4781  0.3863  0.0345
 5729SOL    HW128823   3.949   1.798   5.718  3.4279 -1.4424  1.7852
 5729SOL    HW228824   3.987   1.801   5.576 -1.1133  0.1304  0.6152
 5730SOL     OW28825   4.575   2.155   4.144 -0.0309  0.4670  0.8827
 5730SOL    HW128826   4.496   2.134   4.194 -0.0892 -0.3478  0.4423
 5730SOL    HW228827   4.631   2.165   4.221 -1.7462 -0.3643  2.2561
 5731SOL     OW28828   2.864   1.695   3.296  0.6122  0.2957  0.2647
 5731SOL    HW128829   2.773   1.698   3.325  0.3425  1.6500 -0.7184
 5731SOL    HW228830   2.862   1.700   3.201  0.2446  0.0848  0.2588
 5732SOL     OW28831   0.443   3.201   3.122  0.1810 -0.0864  0.5066
 5732SOL    HW128832   0.405   3.261   3.058  1.0479  1.4750  1.4583
 5732SOL    HW228833   0.477   3.257   3.192  0.4298  2.0523 -1.3023
 5733SOL     OW28834   4.167   1.747   6.557 -0.0376 -0.4898  0.0446
 5733SOL    HW128835   4.253   1.724   6.590  0.1016  0.8967  0.6362
 5733SOL    HW228836   4.172   1.841   6.577  0.1663 -0.4321 -0.2851
 5734SOL     OW28837   3.208   1.995   4.339  0.2141  0.2709 -0.3773
 5734SOL    HW128838   3.260   2.041   4.405 -0.3022 -0.3763  0.4956
 5734SOL    HW228839   3.263   1.967   4.266 -0.3992  0.2066 -0.8114
 5735SOL     OW28840   2.246   3.708   4.451 -0.5854  0.2141 -0.4883
 5735SOL    HW128841   2.251   3.720   4.356  2.2697  2.0779 -0.1011
 5735SOL    HW228842   2.337   3.684   4.471  0.2206  2.5329 -1.3480
 5736SOL     OW28843   2.052   4.176   4.597  0.8732  0.2129  0.3978
 5736SOL    HW128844   2.109   4.183   4.520  1.0044  0.1881  0.4930
 5736SOL    HW228845   2.018   4.088   4.577  0.0423  0.4167  0.9308
 5737SOL     OW28846   1.475   3.695   5.561 -0.6606 -0.2065  0.8157
 5737SOL    HW128847   1.422   3.670   5.636 -0.8959 -0.9240  0.4107
 5737SOL    HW228848   1.499   3.610   5.524 -1.2008 -0.3218  0.7336
 5738SOL     OW28849   3.545   3.436  16.095  0.9163 -0.1506 -0.2060
 5738SOL    HW128850   3.535   3.381  16.172 -2.9191  0.8481  0.0535
 5738SOL    HW228851   3.638   3.424  16.075  0.9914  2.4712 -1.5651
 5739SOL     OW28852   0.640   2.011   6.806  0.2443  0.0868 -0.7346
 5739SOL    HW128853   0.591   2.091   6.783  0.8741 -0.0958 -2.7192
 5739SOL    HW228854   0.571   1.947   6.788 -0.5909  0.7486  0.0988
 5740SOL     OW28855   3.107   1.406  13.094  0.1609 -0.6796  0.2929
 5740SOL    HW128856   3.048   1.338  13.061  0.9834 -0.9055 -0.7482
 5740SOL    HW228857   3.099   1.406  13.189  1.7879 -0.0192  0.4266
 5741SOL     OW28858   2.640   3.817   7.817  0.0692 -0.2741  0.7403
 5741SOL    HW128859   2.601   3.819   7.904 -1.4230  0.3014  0.0531
 5741SOL    HW228860   2.704   3.888   7.822  1.5018 -1.4811 -0.3733
 5742SOL     OW28861   1.656   1.986   2.851  0.2946  0.3955  0.4311
 5742SOL    HW128862   1.747   1.956   2.853  0.1321 -0.0327  1.5519
 5742SOL    HW228863   1.665   2.077   2.821 -0.8724  1.1172  2.1875
 5743SOL     OW28864   0.441   1.297   1.379  0.3426  0.2661 -0.1565
 5743SOL    HW128865   0.383   1.236   1.334 -0.6370  0.5989  0.6400
 5743SOL    HW228866   0.385   1.329   1.451 -0.5403 -2.3217  0.3135
 5744SOL     OW28867   1.800   3.171  13.598 -0.4129 -0.2174 -0.3838
 5744SOL    HW128868   1.708   3.143  13.591 -0.7517  0.5982  0.7828
 5744SOL    HW228869   1.815   3.206  13.510 -0.6772 -0.0303 -0.3558
 5745SOL     OW28870   4.108   1.961   2.302  0.2322 -0.4416 -0.2633
 5745SOL    HW128871   4.113   2.019   2.227 -1.4467  2.4481  1.8714
 5745SOL    HW228872   4.202   1.954   2.320  0.1402 -1.7062 -0.2469
 5746SOL     OW28873   2.663   1.155   1.672  1.0423  0.4329 -0.2408
 5746SOL    HW128874   2.683   1.198   1.755 -0.6487 -1.2528  1.0477
 5746SOL    HW228875   2.575   1.187   1.656  1.1076 -0.2938 -1.9803
 5747SOL     OW28876   3.760   0.863   8.011  0.2221  0.0233  0.0258
 5747SOL    HW128877   3.829   0.929   8.015 -2.8545  3.2640 -0.0597
 5747SOL    HW228878   3.765   0.826   8.098 -2.1218 -2.1944 -0.7919
 5748SOL     OW28879   3.907   1.031   6.842 -0.0385  0.0753 -0.0655
 5748SOL    HW128880   3.892   1.123   6.862  2.6403  0.7070 -1.0454
 5748SOL    HW228881   3.873   1.030   6.753 -2.2403 -2.9646  0.7702
 5749SOL     OW28882   2.998   1.184  11.733 -0.1081  0.6288 -0.1591
 5749SOL    HW128883   2.938   1.200  11.660  1.8706  2.3505 -1.3835
 5749SOL    HW228884   3.027   1.274  11.746  0.0185  0.4690  0.6719
 5750SOL     OW28885   4.060   1.681  10.843 -0.5289  0.0492  0.3811
 5750SOL    HW128886   4.045   1.729  10.925 -0.2070  0.9709 -0.0951
 5750SOL    HW228887   4.081   1.595  10.878  1.9383 -0.2024 -1.7177
 5751SOL     OW28888   4.017   3.949  15.648  0.0051 -0.0950  0.2730
 5751SOL    HW128889   4.041   3.938  15.556 -0.1256 -0.5744  0.2957
 5751SOL    HW228890   4.091   3.909  15.694  0.1562 -0.9098 -0.6827
 5752SOL     OW28891   0.673   2.406  10.110 -0.2690  0.7078 -0.0699
 5752SOL    HW128892   0.741   2.459  10.152 -1.3649  0.6521  1.7748
 5752SOL    HW228893   0.599   2.422  10.168  0.4571  0.9276  0.7922
 5753SOL     OW28894   1.795   3.792   3.502  0.2885 -0.2748 -0.1431
 5753SOL    HW128895   1.723   3.737   3.474  0.8720 -1.8460  1.4626
 5753SOL    HW228896   1.755   3.853   3.564  2.7348 -0.0748  1.2631
 5754SOL     OW28897   3.460   2.562   9.098  0.3688  0.1987 -0.2501
 5754SOL    HW128898   3.414   2.494   9.147 -0.9621 -0.5701 -2.5895
 5754SOL    HW228899   3.422   2.545   9.012 -1.1366  0.1430  0.4306
 5755SOL     OW28900   4.202   0.775  17.711 -0.5370 -0.3989 -0.6348
 5755SOL    HW128901   4.279   0.833  17.712 -0.0333 -1.0640 -1.0261
 5755SOL    HW228902   4.214   0.725   0.048 -1.3678  1.8208  0.8876
 5756SOL     OW28903   2.458   2.825   6.386  0.1643 -0.1576  0.2334
 5756SOL    HW128904   2.430   2.862   6.303 -0.5655  0.3300  0.6908
 5756SOL    HW228905   2.470   2.733   6.363 -0.3322  0.3339 -1.9313
 5757SOL     OW28906   3.101   2.182   7.384 -0.1984  0.0340  0.5303
 5757SOL    HW128907   3.125   2.143   7.300 -1.3521  2.8685 -1.1343
 5757SOL    HW228908   3.009   2.206   7.375 -0.5179 -1.7650 -0.9946
 5758SOL     OW28909   0.285   4.520   0.165 -0.3890  0.2155 -0.1457
 5758SOL    HW128910   0.247   4.435   0.190  0.2069 -0.0854 -0.2560
 5758SOL    HW228911   0.289   4.514   0.070 -1.3076 -3.2642  0.0489
 5759SOL     OW28912   3.841   0.276   9.827 -0.4274 -0.4806  0.3036
 5759SOL    HW128913   3.852   0.369   9.804 -0.3290 -0.5078  0.2423
 5759SOL    HW228914   3.832   0.231   9.743 -4.4089 -0.8950  0.9397
 5760SOL     OW28915   3.067   1.759  11.353  0.2107  0.1124  0.0087
 5760SOL    HW128916   3.037   1.733  11.266 -0.1208 -0.2807  0.2418
 5760SOL    HW228917   3.057   1.683  11.410  2.3242  0.0010  0.2257
 5761SOL     OW28918   2.066   1.443  12.882 -0.0716  0.0562 -0.4619
 5761SOL    HW128919   2.154   1.407  12.871  0.4186  0.8605  0.8229
 5761SOL    HW228920   2.077   1.530  12.920 -0.4947  0.1681 -0.5902
 5762SOL     OW28921   4.454   3.664   9.238 -0.2474 -0.2246  0.7670
 5762SOL    HW128922   4.436   3.590   9.180  1.6702 -1.1809  1.3871
 5762SOL    HW228923   4.456   3.621   9.323 -1.3628 -0.5612  0.6220
 5763SOL     OW28924   3.358   1.541  10.353 -0.2084 -0.3708 -0.2296
 5763SOL    HW128925   3.443   1.567  10.317 -0.4610  0.2315 -0.3938
 5763SOL    HW228926   3.392   1.489  10.425  0.7948  0.7886  0.1357
 5764SOL     OW28927   4.010   2.351   9.007  0.0677 -0.2100 -0.1057
 5764SOL    HW128928   4.001   2.256   9.005  1.5985 -0.3608 -0.2358
 5764SOL    HW228929   4.104   2.354   8.988  0.2441 -0.1494  0.7741
 5765SOL     OW28930   4.528   3.653  11.244  0.4543 -0.0252 -0.0847
 5765SOL    HW128931   4.437   3.676  11.223  0.0419 -1.7582 -0.2328
 5765SOL    HW228932   4.518   3.596  11.320 -0.3774  0.2703  0.0221
 5766SOL     OW28933   0.763   3.847   6.976  0.7214  0.0770  0.2038
 5766SOL    HW128934   0.729   3.911   6.914 -1.4388 -1.2673  0.0035
 5766SOL    HW228935   0.695   3.832   7.041  0.4438  0.5262  0.0162
 5767SOL     OW28936   1.876   2.687   8.607  0.4528 -0.3860  0.0183
 5767SOL    HW128937   1.961   2.645   8.593  0.6968 -0.0066  0.3770
 5767SOL    HW228938   1.898   2.741   8.682 -0.3210  1.0282 -0.7632
 5768SOL     OW28939   3.183   4.051   3.462  0.1546 -0.1584 -0.5652
 5768SOL    HW128940   3.110   4.073   3.519  1.1089 -0.9696  0.9746
 5768SOL    HW228941   3.202   4.127   3.407  1.0869  0.8434  1.1381
 5769SOL     OW28942   2.182   2.562  11.814  0.7868  0.0526 -0.3689
 5769SOL    HW128943   2.164   2.472  11.839  1.9619  0.0271  0.3753
 5769SOL    HW228944   2.108   2.614  11.847  0.6341 -0.4018 -0.0071
 5770SOL     OW28945   3.727   1.565   2.254 -0.4184 -0.5707  0.5888
 5770SOL    HW128946   3.777   1.509   2.194 -0.4435  0.8720 -0.7839
 5770SOL    HW228947   3.758   1.653   2.232  0.2402 -0.8328  0.4471
 5771SOL     OW28948   0.928   1.065   1.831  0.1122 -0.5468 -0.5062
 5771SOL    HW128949   0.842   1.026   1.814 -0.9376  1.4721  0.1677
 5771SOL    HW228950   0.940   1.066   1.926 -1.3121 -1.0930 -0.3147
 5772SOL     OW28951   2.778   2.680   6.621 -0.8811  0.2485 -0.3815
 5772SOL    HW128952   2.783   2.710   6.712 -2.6132 -0.2253 -0.1247
 5772SOL    HW228953   2.801   2.754   6.566  1.2705 -0.6751 -0.7523
 5773SOL     OW28954   2.025   3.973   3.592 -0.4973  0.1347 -0.5522
 5773SOL    HW128955   1.983   3.950   3.509  1.1591 -0.8021 -1.1352
 5773SOL    HW228956   1.961   4.044   3.596  0.5706  0.9880  1.2398
 5774SOL     OW28957   1.971   3.202   4.230 -0.1748 -0.1125  0.2293
 5774SOL    HW128958   2.052   3.252   4.230 -0.6016  0.5734  2.2632
 5774SOL    HW228959   1.996   3.121   4.186 -0.1797 -0.2495  0.4751
 5775SOL     OW28960   4.161   2.021  17.302  0.6615  0.3399 -0.1537
 5775SOL    HW128961   4.220   2.020  17.377 -1.3233 -2.0074  1.3588
 5775SOL    HW228962   4.234   2.001  17.243 -0.2618  2.8126 -2.1729
 5776SOL     OW28963   0.812   0.509  12.432  0.5604  0.2015  0.6949
 5776SOL    HW128964   0.808   0.459  12.514  0.5933 -1.3845 -0.2681
 5776SOL    HW228965   0.761   0.587  12.451 -0.8538 -0.6778  0.5554
 5777SOL     OW28966   1.426   0.039   1.151 -0.6462  0.4807 -0.1913
 5777SOL    HW128967   1.466   4.701   1.104  1.2722  1.8640 -0.7327
 5777SOL    HW228968   1.334   0.030   1.127 -0.9434  1.8000  0.4476
 5778SOL     OW28969   0.333   4.485   5.517  0.0474 -0.2437  0.6540
 5778SOL    HW128970   0.253   4.537   5.522  0.1783  0.0430 -0.3489
 5778SOL    HW228971   0.393   4.559   5.519  0.9969 -1.0154  0.4431
 5779SOL     OW28972   1.918   2.016   7.975 -0.3988 -0.1608  0.5594
 5779SOL    HW128973   2.006   2.053   7.988  1.0516 -2.1310 -3.7122
 5779SOL    HW228974   1.880   2.055   8.053 -0.5024  2.4001 -0.7573
 5780SOL     OW28975   2.488   4.408   1.651  0.5528  0.5064 -0.3076
 5780SOL    HW128976   2.508   4.358   1.572 -0.4456  1.5337 -1.2156
 5780SOL    HW228977   2.576   4.428   1.683  0.7896  0.8199 -1.1640
 5781SOL     OW28978   4.468   4.338   3.182  0.0303  0.7538  0.4732
 5781SOL    HW128979   4.542   4.355   3.124 -1.3561  0.4622 -1.3624
 5781SOL    HW228980   4.410   4.409   3.155  1.4995  1.7227 -0.1329
 5782SOL     OW28981   2.662   2.744  11.822 -0.3378 -0.0548  0.2677
 5782SOL    HW128982   2.682   2.774  11.910 -2.0598  0.4713  0.4822
 5782SOL    HW228983   2.678   2.827  11.778 -2.9660  0.3721  0.1022
 5783SOL     OW28984   1.011   3.621  10.833  0.6082  0.4810  0.9970
 5783SOL    HW128985   0.969   3.538  10.853  0.8617  0.2836  0.7010
 5783SOL    HW228986   1.050   3.642  10.918  1.0238 -0.3747  1.0078
 5784SOL     OW28987   3.120   0.490  17.653  0.3004  1.0793 -0.0936
 5784SOL    HW128988   3.154   0.416  17.703 -0.0818  0.1531 -1.2160
 5784SOL    HW228989   3.165   0.476  17.570  1.6847  1.5973  0.5687
 5785SOL     OW28990   0.093   1.113  15.187 -0.4407  0.7654 -0.4681
 5785SOL    HW128991   0.098   1.208  15.177  0.4805  0.7848  0.1652
 5785SOL    HW228992   0.099   1.107  15.282 -1.2672 -1.4893 -0.5552
 5786SOL     OW28993   4.588   2.408   0.349  0.0421  0.2471 -0.5222
 5786SOL    HW128994   4.634   2.490   0.332 -1.8762  1.1457 -1.3382
 5786SOL    HW228995   4.502   2.449   0.358 -0.8203 -1.9437  1.1776
 5787SOL     OW28996   3.291   0.183   9.638 -0.0755  0.6114 -0.0591
 5787SOL    HW128997   3.277   0.127   9.563  2.9097 -0.3925  0.1496
 5787SOL    HW228998   3.315   0.270   9.605  0.8206  0.6920  0.8211
 5788SOL     OW28999   4.427   0.981  14.498 -0.6293  0.3322  0.3197
 5788SOL    HW129000   4.425   1.015  14.587  2.4804  0.6993  0.2578
 5788SOL    HW229001   4.413   1.063  14.450 -0.6717 -0.2174 -0.5974
 5789SOL     OW29002   2.749   1.410  16.765 -0.0996 -0.2624 -0.6485
 5789SOL    HW129003   2.704   1.464  16.701  1.2341  0.5543 -0.8926
 5789SOL    HW229004   2.785   1.469  16.832 -3.2920 -0.8534  1.6026
 5790SOL     OW29005   0.104   4.368   8.017 -0.0083  0.3234 -0.1064
 5790SOL    HW129006   0.087   4.357   8.110  2.0400 -0.5166  0.1783
 5790SOL    HW229007   0.173   4.434   8.028 -0.1988  0.5695 -0.3678
 5791SOL     OW29008   3.442   3.917   8.654 -0.5081  0.1194  0.5642
 5791SOL    HW129009   3.446   3.844   8.716  0.7061 -1.5331 -1.4750
 5791SOL    HW229010   3.373   3.891   8.593 -1.1001 -1.8760  2.0948
 5792SOL     OW29011   2.859   0.471   7.334  0.2229  0.4552  0.0171
 5792SOL    HW129012   2.895   0.404   7.275  2.0387  2.0304 -0.6553
 5792SOL    HW229013   2.902   0.547   7.295  0.6191  0.8805  1.3118
 5793SOL     OW29014   2.376   3.341   6.088  0.0635  0.1692  0.3873
 5793SOL    HW129015   2.467   3.311   6.095  0.1647  0.2403 -0.6529
 5793SOL    HW229016   2.390   3.434   6.073 -1.0007  0.3625  0.5849
 5794SOL     OW29017   1.925   3.508   2.423 -0.3804  0.5701  0.1480
 5794SOL    HW129018   1.893   3.596   2.403  1.4566  1.2639  0.2420
 5794SOL    HW229019   1.915   3.504   2.518  0.6328  1.2551  0.2863
 5795SOL     OW29020   3.225   3.293  14.830  0.2490 -0.5289 -0.6012
 5795SOL    HW129021   3.130   3.304  14.838  0.7262  3.1827 -0.0484
 5795SOL    HW229022   3.254   3.374  14.787  3.4383 -1.7877 -0.8231
 5796SOL     OW29023   2.289   4.087   7.685  0.5187  0.2222 -0.1872
 5796SOL    HW129024   2.247   4.093   7.770 -0.0008  0.0524 -0.4335
 5796SOL    HW229025   2.336   4.005   7.704  0.1096 -0.1326 -0.7057
 5797SOL     OW29026   4.275   0.933   0.358  0.3269  0.6464 -0.1280
 5797SOL    HW129027   4.225   0.861   0.398 -1.1933  2.4673  1.2317
 5797SOL    HW229028   4.326   0.962   0.434  1.3247 -0.3182 -0.4334
 5798SOL     OW29029   0.084   4.534   1.651  0.2937  0.6236  0.4458
 5798SOL    HW129030   0.160   4.570   1.607  0.6794 -1.6835 -0.7897
 5798SOL    HW229031   0.040   4.619   1.645  2.4335  1.5869 -1.3679
 5799SOL     OW29032   2.503   0.434  15.998  0.4960  0.4425 -0.1997
 5799SOL    HW129033   2.417   0.416  16.037  0.4223 -3.0224 -1.9258
 5799SOL    HW229034   2.547   0.496  16.055  2.4558 -1.2980  0.2103
 5800SOL     OW29035   2.677   0.346   3.617 -0.3189 -0.3883  0.1045
 5800SOL    HW129036   2.665   0.413   3.549 -0.2063  0.6576  1.1004
 5800SOL    HW229037   2.642   0.269   3.574 -1.6582  0.5569 -0.5035
 5801SOL     OW29038   2.971   4.291   5.741  0.3593  0.3059 -1.0107
 5801SOL    HW129039   3.036   4.335   5.796  0.8124 -1.0560 -0.4572
 5801SOL    HW229040   2.989   4.339   5.660  0.9215  0.1167 -0.9983
 5802SOL     OW29041   1.174   2.072  12.374  0.2090 -0.0325  0.4951
 5802SOL    HW129042   1.249   2.018  12.399  0.6290  0.1952 -0.2656
 5802SOL    HW229043   1.147   2.036  12.289 -1.3586  0.0503  0.9457
 5803SOL     OW29044   1.837   3.193   6.732 -0.2115  0.6921  0.5941
 5803SOL    HW129045   1.782   3.191   6.654 -2.3257 -1.1758  2.1394
 5803SOL    HW229046   1.768   3.187   6.799 -1.8722 -1.6808 -1.3698
 5804SOL     OW29047   4.364   3.729   5.003 -0.2653  0.8787 -0.5750
 5804SOL    HW129048   4.287   3.672   5.006  0.8750 -0.6792 -0.5783
 5804SOL    HW229049   4.349   3.774   4.919  0.0646  0.6724 -0.7451
 5805SOL     OW29050   3.359   4.673   8.944  0.1055 -0.3584 -0.3515
 5805SOL    HW129051   3.379   0.011   9.002 -3.1925 -0.9129  1.4943
 5805SOL    HW229052   3.431   4.675   8.881  2.0023 -0.2664  1.8144
 5806SOL     OW29053   4.279   0.664   1.618 -0.0807 -0.2393 -0.2586
 5806SOL    HW129054   4.200   0.632   1.661 -0.2947 -0.2713 -0.6782
 5806SOL    HW229055   4.234   0.721   1.556 -0.0795 -0.0839 -0.1196
 5807SOL     OW29056   4.612   0.163  11.812 -0.4588 -0.5269 -0.2355
 5807SOL    HW129057   4.516   0.164  11.811 -0.4484  1.3755  0.4112
 5807SOL    HW229058   4.629   0.104  11.885  0.6417 -0.7275 -0.6509
 5808SOL     OW29059   3.533   2.423  12.923  0.2132 -0.4636 -0.0361
 5808SOL    HW129060   3.532   2.343  12.976 -0.5658 -1.2939 -1.3080
 5808SOL    HW229061   3.581   2.486  12.977  0.2682 -1.4153  1.0258
 5809SOL     OW29062   3.419   0.607   1.659 -0.0569 -0.0778 -0.2590
 5809SOL    HW129063   3.483   0.570   1.599  2.1291  1.0394  1.3669
 5809SOL    HW229064   3.471   0.652   1.727 -1.4532  1.0727  0.0569
 5810SOL     OW29065   4.671   4.495   8.800 -0.3399 -0.0120  0.6022
 5810SOL    HW129066   4.684   4.568   8.862  1.3372 -0.3323  0.6149
 5810SOL    HW229067   4.579   4.494   8.774 -0.2297 -0.7068  0.2455
 5811SOL     OW29068   1.679   4.565  12.084 -0.4619 -0.5963  0.0891
 5811SOL    HW129069   1.747   4.554  12.151  0.6513 -0.4865 -1.0166
 5811SOL    HW229070   1.700   4.490  12.027  1.4021  0.5167 -0.6697
 5812SOL     OW29071   2.404   2.547   1.568  0.3777 -0.4962 -0.0954
 5812SOL    HW129072   2.373   2.621   1.620  1.6450 -1.1779  1.6609
 5812SOL    HW229073   2.490   2.546   1.611 -1.2111  2.4409  3.2285
 5813SOL     OW29074   4.365   3.616   3.327  0.2615 -0.6249 -0.0551
 5813SOL    HW129075   4.384   3.703   3.362  0.3147  0.8155 -3.6785
 5813SOL    HW229076   4.302   3.604   3.398 -0.8973  3.7236 -0.3802
 5814SOL     OW29077   4.435   3.099  13.745  0.0574 -0.2474 -0.1669
 5814SOL    HW129078   4.389   3.017  13.732  1.8668 -0.9410 -2.0990
 5814SOL    HW229079   4.480   3.112  13.661  2.9852 -0.7823  1.3083
 5815SOL     OW29080   3.812   4.676   5.908  0.2528  0.5026  0.0500
 5815SOL    HW129081   3.758   4.615   5.959 -2.3335  1.8819 -1.0401
 5815SOL    HW229082   3.819   4.634   5.822 -1.3785  0.1327  0.1084
 5816SOL     OW29083   0.913   1.124   7.691 -0.1443 -0.0190  0.0854
 5816SOL    HW129084   0.945   1.087   7.609  0.5758 -2.5596  1.5198
 5816SOL    HW229085   0.822   1.151   7.677  0.0653 -0.1455 -1.4731
 5817SOL     OW29086   0.957   1.216   5.797 -0.0177 -0.0919 -0.0491
 5817SOL    HW129087   0.891   1.147   5.807 -1.0642  0.9469  0.2467
 5817SOL    HW229088   1.038   1.166   5.802  1.2376  2.0640  1.1687
 5818SOL     OW29089   3.847   2.128   3.092 -0.1621 -0.4586 -0.0752
 5818SOL    HW129090   3.769   2.166   3.135 -1.6453 -0.9864 -2.3085
 5818SOL    HW229091   3.866   2.064   3.160  0.9009  2.8433  2.7782
 5819SOL     OW29092   1.683   1.987   8.445  0.5227 -0.4278 -0.1747
 5819SOL    HW129093   1.673   2.063   8.503 -1.1599 -0.2897 -0.6314
 5819SOL    HW229094   1.743   2.023   8.380  0.7285  0.1109  0.3191
 5820SOL     OW29095   0.399   4.346   2.599  0.2532 -0.3571  0.5714
 5820SOL    HW129096   0.443   4.284   2.658  2.6293  0.5871 -0.2157
 5820SOL    HW229097   0.473   4.373   2.545 -0.2660 -1.8098 -0.8599
 5821SOL     OW29098   2.250   2.065   8.318 -0.4354 -0.0329 -0.0095
 5821SOL    HW129099   2.205   2.001   8.263 -1.2490  0.8076 -0.3187
 5821SOL    HW229100   2.182   2.102   8.374  2.1184  3.3832  0.8474
 5822SOL     OW29101   2.508   0.020   8.457  0.2605 -0.5734 -0.1774
 5822SOL    HW129102   2.568   4.711   8.397  0.5209  1.7336 -1.6589
 5822SOL    HW229103   2.448   0.059   8.394  1.0518 -1.3872 -1.4295
 5823SOL     OW29104   1.008   2.436   2.951  0.3889 -0.3710  0.4331
 5823SOL    HW129105   1.081   2.411   2.895  0.7272 -1.1865  1.2460
 5823SOL    HW229106   1.053   2.450   3.034 -0.8514  0.1278  1.0228
 5824SOL     OW29107   0.123   3.831   0.647  0.5134  0.6989  0.4050
 5824SOL    HW129108   0.188   3.763   0.630 -0.4658 -0.4160  1.1141
 5824SOL    HW229109   0.045   3.797   0.602  0.5885  0.4764  0.4395
 5825SOL     OW29110   4.538   1.549   4.076  0.0435  0.1156 -0.6529
 5825SOL    HW129111   4.591   1.536   3.997 -0.2367 -0.2791 -0.7776
 5825SOL    HW229112   4.601   1.550   4.148 -1.5741  0.6459  0.7559
 5826SOL     OW29113   0.608   4.696   0.189 -0.0561 -0.0300 -0.4211
 5826SOL    HW129114   0.563   0.038   0.156 -1.3701 -0.8117 -0.4927
 5826SOL    HW229115   0.565   4.681   0.273 -3.4331 -0.2007 -2.1665
 5827SOL     OW29116   4.105   3.407   6.198 -0.0182 -0.1398  0.1317
 5827SOL    HW129117   4.107   3.422   6.103 -1.3614  0.9031  0.2628
 5827SOL    HW229118   4.181   3.458   6.225  0.8832  0.2094 -3.0296
 5828SOL     OW29119   3.635   3.999   6.060 -0.8032 -0.0990  0.3216
 5828SOL    HW129120   3.635   3.923   6.118  2.0991 -1.5909 -1.6232
 5828SOL    HW229121   3.720   4.040   6.077 -0.6388 -1.8856  3.8962
 5829SOL     OW29122   2.096   4.530   2.049  0.2519 -0.4032 -0.1883
 5829SOL    HW129123   2.143   4.450   2.074  2.2227  0.6773 -0.4613
 5829SOL    HW229124   2.102   4.595   2.119 -1.7216 -1.2627  0.7866
 5830SOL     OW29125   4.266   2.999   2.695 -0.0651 -0.2774  0.7750
 5830SOL    HW129126   4.264   3.057   2.771 -0.8143 -1.1376  1.4125
 5830SOL    HW229127   4.355   2.965   2.703  1.7710  3.7421 -2.2358
 5831SOL     OW29128   3.337   3.531  12.980  0.5075 -0.2249 -0.5175
 5831SOL    HW129129   3.378   3.601  12.928 -0.3881  0.5783 -0.1473
 5831SOL    HW229130   3.320   3.579  13.061 -2.4184  1.0210 -1.8784
 5832SOL     OW29131   0.529   1.717   3.022  0.8020 -0.0959  0.0560
 5832SOL    HW129132   0.493   1.648   2.965 -0.8060  0.5191  0.3375
 5832SOL    HW229133   0.446   1.764   3.030 -1.1143 -3.1525 -1.6047
 5833SOL     OW29134   1.189   1.001   2.740 -0.2678 -0.1192  0.2740
 5833SOL    HW129135   1.137   0.920   2.739  0.0892 -0.3473  0.4549
 5833SOL    HW229136   1.276   0.970   2.715  0.2318  2.7916 -1.6368
 5834SOL     OW29137   2.384   3.354  17.201 -0.3849  0.5642 -0.4297
 5834SOL    HW129138   2.429   3.296  17.139 -1.1353 -1.3538  0.7982
 5834SOL    HW229139   2.445   3.342  17.274  0.4561  2.2223 -0.8721
 5835SOL     OW29140   3.984   3.101   8.615 -0.0337 -1.1395  0.4581
 5835SOL    HW129141   3.929   3.124   8.541  2.9807  3.1171 -0.4308
 5835SOL    HW229142   3.912   3.048   8.649  0.0160 -0.5806  1.4537
 5836SOL     OW29143   3.052   0.763   5.158  0.4594  0.2341  0.1397
 5836SOL    HW129144   3.012   0.754   5.071 -1.4180  0.6646  0.9703
 5836SOL    HW229145   2.979   0.796   5.210  0.3931  0.4900 -0.1166
 5837SOL     OW29146   4.129   0.360   6.678  0.0895  0.0431  0.0420
 5837SOL    HW129147   4.107   0.329   6.590 -0.2354 -0.5106  0.3203
 5837SOL    HW229148   4.223   0.366   6.665 -0.2213  0.1340 -2.2158
 5838SOL     OW29149   1.586   4.713   7.642 -0.0899 -0.1967  0.0446
 5838SOL    HW129150   1.527   4.640   7.625 -1.0620  0.1936  1.7356
 5838SOL    HW229151   1.551   0.041   7.581 -0.6964 -0.0972  0.5019
 5839SOL     OW29152   1.070   2.339  13.543  0.2151 -0.1539 -0.0897
 5839SOL    HW129153   1.088   2.430  13.517  0.9252 -0.6722 -1.3933
 5839SOL    HW229154   0.987   2.315  13.503  0.7872 -0.7791 -0.8841
 5840SOL     OW29155   0.186   0.259   8.013  0.5669  0.2247 -0.1374
 5840SOL    HW129156   0.259   0.205   7.983 -0.9893 -1.4878 -0.8032
 5840SOL    HW229157   0.160   0.295   7.928  1.7199  1.4958  0.0501
 5841SOL     OW29158   0.549   1.020   3.365  0.4191 -0.5374  0.4059
 5841SOL    HW129159   0.587   1.092   3.416  0.1413  0.3553 -0.6772
 5841SOL    HW229160   0.620   0.987   3.310  0.3313 -0.4116  0.2176
 5842SOL     OW29161   0.212   1.753   2.984  0.0910  0.0160  0.6404
 5842SOL    HW129162   0.121   1.775   3.002 -0.8364 -3.2247  0.0333
 5842SOL    HW229163   0.229   1.715   3.071 -0.3849  1.1557  1.2328
 5843SOL     OW29164   3.422   2.612   8.078  0.4723 -0.1281 -0.5232
 5843SOL    HW129165   3.337   2.633   8.038  0.5080  1.7570  0.4159
 5843SOL    HW229166   3.405   2.519   8.090  0.7885 -0.0016  0.8233
 5844SOL     OW29167   3.525   3.502   9.371  0.0705  0.5091 -0.4364
 5844SOL    HW129168   3.430   3.504   9.363  0.1022 -0.9780 -1.1896
 5844SOL    HW229169   3.548   3.588   9.405 -0.5995  0.7808 -0.6741
 5845SOL     OW29170   4.422   0.515   8.488  0.1541 -0.0727  0.0550
 5845SOL    HW129171   4.482   0.564   8.432 -0.1310 -0.3845 -0.5149
 5845SOL    HW229172   4.367   0.581   8.529  0.1565 -0.5070  0.7656
 5846SOL     OW29173   3.801   0.988   1.212 -0.0098  0.3856  0.6135
 5846SOL    HW129174   3.857   1.032   1.148 -2.4205 -2.7781 -3.7168
 5846SOL    HW229175   3.847   0.904   1.208 -1.7994 -0.6564  2.2614
 5847SOL     OW29176   1.897   2.915   0.709 -0.0649  0.0477  0.0099
 5847SOL    HW129177   1.855   2.854   0.770  0.0165 -1.8586 -1.8445
 5847SOL    HW229178   1.831   2.983   0.695 -0.0053 -0.3480 -2.1456
 5848SOL     OW29179   3.595   1.897  16.030  0.1038 -0.3125  0.3970
 5848SOL    HW129180   3.677   1.909  15.982  0.8277  0.0396  1.6862
 5848SOL    HW229181   3.618   1.937  16.115 -0.0881  0.2608  0.1833
 5849SOL     OW29182   1.747   3.972   9.431  0.2013  0.2528  0.3898
 5849SOL    HW129183   1.787   3.925   9.504  0.2177 -1.3230 -0.6464
 5849SOL    HW229184   1.809   3.958   9.360 -0.7385  2.0031 -0.7762
 5850SOL     OW29185   4.066   3.383   3.072  0.4934  0.2554 -0.5179
 5850SOL    HW129186   4.130   3.452   3.094  0.0179  0.2036  1.0069
 5850SOL    HW229187   4.078   3.387   2.977  1.8182  2.4509 -0.2749
 5851SOL     OW29188   3.441   3.446  15.329  0.1194  0.1116  0.3385
 5851SOL    HW129189   3.498   3.369  15.323 -0.5244 -0.3754  0.3791
 5851SOL    HW229190   3.468   3.494  15.407  0.9865  0.1286  0.0287
 5852SOL     OW29191   2.220   3.222   8.857  0.4203 -0.1063  0.0191
 5852SOL    HW129192   2.191   3.306   8.821  1.3310  1.2072  2.2909
 5852SOL    HW229193   2.287   3.249   8.920  0.7180  0.9487 -0.7581
 5853SOL     OW29194   4.463   2.380   4.442  0.3680 -0.1030  0.4337
 5853SOL    HW129195   4.405   2.353   4.371  0.1389 -0.6034  0.8081
 5853SOL    HW229196   4.439   2.317   4.510 -1.2005  1.4146  1.2876
 5854SOL     OW29197   3.430   0.421   3.664 -0.1986 -0.7458 -0.2244
 5854SOL    HW129198   3.398   0.445   3.751 -2.6430  0.6247 -1.5200
 5854SOL    HW229199   3.401   0.329   3.665  1.0799 -1.1740 -2.4565
 5855SOL     OW29200   4.479   0.999   4.375  0.0205  0.7848  0.2334
 5855SOL    HW129201   4.547   0.957   4.427 -1.0910 -0.8369  0.3551
 5855SOL    HW229202   4.471   0.942   4.299 -0.7308  0.0612  0.8600
 5856SOL     OW29203   3.433   1.780   3.528  0.2143  0.4453  0.1516
 5856SOL    HW129204   3.521   1.819   3.536  0.6974 -0.6321  0.0289
 5856SOL    HW229205   3.401   1.820   3.447  1.0323 -2.3358 -1.5320
 5857SOL     OW29206   3.318   2.556   2.492  0.3099 -0.3333  0.2517
 5857SOL    HW129207   3.226   2.535   2.508  0.1084 -1.1057 -1.9894
 5857SOL    HW229208   3.345   2.473   2.455 -1.3611 -0.0439 -1.6512
 5858SOL     OW29209   1.566   1.689   5.876 -0.6182 -0.5157 -0.0625
 5858SOL    HW129210   1.556   1.627   5.804 -0.1710 -1.4476  0.6771
 5858SOL    HW229211   1.661   1.693   5.884 -0.7407  0.8899  0.8164
 5859SOL     OW29212   4.438   0.180   3.705 -0.6142 -0.1710 -0.5680
 5859SOL    HW129213   4.454   0.123   3.780 -1.0569  2.1000  1.2863
 5859SOL    HW229214   4.354   0.217   3.735  1.1431  1.2971  2.5209
 5860SOL     OW29215   3.669   1.757   1.822  0.0378 -0.3715  0.2314
 5860SOL    HW129216   3.734   1.827   1.831 -1.5736  1.1351  0.2810
 5860SOL    HW229217   3.727   1.683   1.839 -0.2367 -0.3848  1.1165
 5861SOL     OW29218   3.761   0.926   4.409 -0.1233  0.2000 -0.5623
 5861SOL    HW129219   3.671   0.958   4.396 -0.6348 -0.7018  0.7799
 5861SOL    HW229220   3.817   1.004   4.405 -0.8698  0.7231 -1.0389
 5862SOL     OW29221   0.530   3.339  10.073 -0.0073  0.1541 -0.0760
 5862SOL    HW129222   0.619   3.307  10.087  0.9978  2.5522 -1.0628
 5862SOL    HW229223   0.505   3.281  10.002 -0.3445  0.8729 -0.5470
 5863SOL     OW29224   3.508   3.402  14.583 -0.3376 -0.5291 -0.7363
 5863SOL    HW129225   3.430   3.403  14.639  0.7615 -2.6128  0.8228
 5863SOL    HW229226   3.574   3.380  14.650 -0.4211  0.2807 -0.3788
 5864SOL     OW29227   0.728   1.527   3.900  0.1543 -0.1685 -0.2050
 5864SOL    HW129228   0.793   1.511   3.832  0.1427 -0.6742 -0.0904
 5864SOL    HW229229   0.770   1.491   3.978  0.5756 -0.6439 -0.6594
 5865SOL     OW29230   3.819   4.280   9.726  0.1516 -0.6209  0.5604
 5865SOL    HW129231   3.890   4.302   9.786 -0.1111  0.9012  0.3156
 5865SOL    HW229232   3.789   4.192   9.747  2.2728 -1.6849 -0.8778
 5866SOL     OW29233   2.572   2.042   8.547  0.2700 -0.0738  0.0274
 5866SOL    HW129234   2.502   1.999   8.497  0.8914 -1.7202  0.5645
 5866SOL    HW229235   2.530   2.122   8.577 -1.1738 -0.1322 -1.8500
 5867SOL     OW29236   3.135   1.044   7.108 -0.7951 -0.4038 -0.0696
 5867SOL    HW129237   3.200   1.083   7.050 -0.4605  0.1951  0.7073
 5867SOL    HW229238   3.161   1.090   7.187  1.8193 -1.2856 -0.4112
 5868SOL     OW29239   0.884   4.292  12.958  0.5606 -0.2412  0.4075
 5868SOL    HW129240   0.790   4.283  12.939  0.3357  2.5851  0.1976
 5868SOL    HW229241   0.890   4.357  13.028 -1.1367  2.0617 -1.5769
 5869SOL     OW29242   2.701   1.545   6.437 -0.3973  0.6943  0.6569
 5869SOL    HW129243   2.751   1.553   6.355  0.4242 -4.8259  0.6063
 5869SOL    HW229244   2.747   1.602   6.498  1.6515  0.3893 -0.5852
 5870SOL     OW29245   1.197   1.996   7.987 -0.3481  0.2850 -0.0666
 5870SOL    HW129246   1.151   2.080   7.988 -1.5244 -0.3526 -1.0141
 5870SOL    HW229247   1.246   2.003   7.905 -0.4720  0.0815 -0.1589
 5871SOL     OW29248   1.780   1.930   3.233 -0.2398  0.2742  0.1644
 5871SOL    HW129249   1.804   1.876   3.157 -0.1726 -0.2736  0.5727
 5871SOL    HW229250   1.704   1.883   3.267 -0.8555  0.2027 -1.3003
 5872SOL     OW29251   4.661   1.386   1.762  0.0160  0.3343  0.0604
 5872SOL    HW129252   4.720   1.361   1.833 -1.4905  0.3213  1.3139
 5872SOL    HW229253   4.634   1.302   1.725  1.8518 -0.0904 -0.3029
 5873SOL     OW29254   3.297   2.472   0.508 -0.3110 -0.0926 -1.1143
 5873SOL    HW129255   3.346   2.527   0.571 -1.6913 -0.5221  0.3289
 5873SOL    HW229256   3.316   2.519   0.427  1.2483  2.1182  0.4976
 5874SOL     OW29257   0.737   1.790   3.875 -0.2133  0.6883 -0.6951
 5874SOL    HW129258   0.716   1.702   3.908 -1.2722  1.6841  1.2241
 5874SOL    HW229259   0.701   1.782   3.786  0.4320  0.2290 -0.9238
 5875SOL     OW29260   3.263   2.839   5.500  0.1664  0.0937 -0.0645
 5875SOL    HW129261   3.351   2.821   5.466 -0.2102  0.4981 -1.2300
 5875SOL    HW229262   3.260   2.935   5.493  1.6015  0.1925  0.4987
 5876SOL     OW29263   4.499   4.344   4.646  0.2471 -0.0882 -0.4185
 5876SOL    HW129264   4.480   4.258   4.609  1.6913  1.0370 -3.8210
 5876SOL    HW229265   4.441   4.398   4.593  0.5013 -1.0479 -1.6708
 5877SOL     OW29266   1.477   0.938   2.670  0.3570  0.4702  0.7414
 5877SOL    HW129267   1.547   0.981   2.719  1.1546 -1.4856  1.3254
 5877SOL    HW229268   1.488   0.986   2.589 -0.1563  0.0758  0.4384
 5878SOL     OW29269   4.341   1.593   0.627 -0.2622  0.4558 -0.2126
 5878SOL    HW129270   4.361   1.550   0.710  0.4107 -0.5201 -0.8827
 5878SOL    HW229271   4.250   1.617   0.639 -0.1536 -0.0356  1.5551
 5879SOL     OW29272   1.445   3.944   4.053  0.1402 -0.2448 -0.4406
 5879SOL    HW129273   1.395   3.925   3.973 -0.7410  2.1500 -0.4563
 5879SOL    HW229274   1.453   4.039   4.050  3.7805 -0.5364  0.1902
 5880SOL     OW29275   2.331   0.884   8.455  0.4445 -0.5994 -0.4635
 5880SOL    HW129276   2.242   0.870   8.489 -0.1307 -0.2857 -1.8203
 5880SOL    HW229277   2.322   0.964   8.403  2.2049 -1.0431 -1.4327
 5881SOL     OW29278   0.204   3.922   9.427 -0.4777 -0.0365  0.4648
 5881SOL    HW129279   0.268   3.991   9.413 -0.0585 -0.5830 -0.2723
 5881SOL    HW229280   0.266   3.849   9.434 -1.1143 -0.6501 -0.2914
 5882SOL     OW29281   0.753   0.235   1.418 -0.8035  0.7160  0.1723
 5882SOL    HW129282   0.671   0.214   1.463 -0.1324 -1.4910  0.3718
 5882SOL    HW229283   0.817   0.226   1.488 -2.3867 -2.9872  1.1267
 5883SOL     OW29284   2.490   1.524  14.626 -0.1392 -0.2468 -0.3155
 5883SOL    HW129285   2.519   1.445  14.581  0.5382 -0.0634 -0.2069
 5883SOL    HW229286   2.576   1.559  14.649  0.2245  0.0509 -2.1550
 5884SOL     OW29287   1.935   3.063  14.734  0.1982  0.1970 -0.8912
 5884SOL    HW129288   1.882   3.081  14.811  2.3620  0.2425  0.5785
 5884SOL    HW229289   2.014   3.103  14.769 -0.4270 -0.4974  1.2824
 5885SOL     OW29290   1.359   2.426   5.209  0.0827  0.5911 -0.7388
 5885SOL    HW129291   1.391   2.410   5.120 -1.9568  1.7049 -1.6738
 5885SOL    HW229292   1.436   2.476   5.238  0.5426  0.7947 -2.2896
 5886SOL     OW29293   1.253   3.456   4.525 -1.2238  0.1765  0.4670
 5886SOL    HW129294   1.284   3.527   4.580  1.3664  1.4426 -2.6472
 5886SOL    HW229295   1.166   3.492   4.511 -1.1688  0.1085 -0.0622
 5887SOL     OW29296   1.017   2.595  10.513  0.2478  0.3330 -0.2027
 5887SOL    HW129297   0.923   2.600  10.492 -0.1805 -0.4680  1.5697
 5887SOL    HW229298   1.049   2.676  10.473 -1.4078  0.3938 -1.4035
 5888SOL     OW29299   0.228   1.296   4.513  0.6928  0.1722  0.4347
 5888SOL    HW129300   0.235   1.201   4.524 -1.7863 -0.1453 -0.6851
 5888SOL    HW229301   0.302   1.328   4.463  0.6375 -1.0289 -0.4143
 5889SOL     OW29302   1.784   4.271   7.731  0.1044  0.2204 -0.0791
 5889SOL    HW129303   1.845   4.228   7.671 -0.5859 -1.8272  0.7000
 5889SOL    HW229304   1.712   4.309   7.680 -0.9282 -0.0651  1.1637
 5890SOL     OW29305   3.544   4.649   9.221  0.5109 -0.2104  0.1441
 5890SOL    HW129306   3.583   4.603   9.147  0.5889  1.9713 -1.1690
 5890SOL    HW229307   3.541   0.007   9.200 -0.5051 -0.0992  0.7616
 5891SOL     OW29308   2.341   1.879   8.863 -0.5095  0.7249 -0.0011
 5891SOL    HW129309   2.305   1.816   8.801  1.9834  0.4513 -1.1529
 5891SOL    HW229310   2.434   1.862   8.848  0.2467  2.7780  2.2965
 5892SOL     OW29311   4.559   3.428   4.958 -0.0259  0.0978 -0.4293
 5892SOL    HW129312   4.636   3.453   5.009 -0.9466 -1.5883  1.8149
 5892SOL    HW229313   4.511   3.370   5.017  0.1255  0.1579 -0.2466
 5893SOL     OW29314   3.185   0.127   8.617 -0.2398  0.3295  0.3210
 5893SOL    HW129315   3.153   0.209   8.579  2.1740  0.2473 -1.9115
 5893SOL    HW229316   3.255   0.103   8.556  0.5478  0.9388  0.9871
 5894SOL     OW29317   0.819   3.492   6.022  0.1273 -0.3520 -0.6346
 5894SOL    HW129318   0.837   3.401   5.999 -1.2800 -0.7880  0.0025
 5894SOL    HW229319   0.730   3.501   5.989 -0.0994 -0.2435  0.0049
 5895SOL     OW29320   3.698   2.424   2.409  0.0074 -0.1158  0.5347
 5895SOL    HW129321   3.739   2.510   2.396  0.6956 -0.4470  0.5395
 5895SOL    HW229322   3.727   2.409   2.498  2.6257  0.8196 -0.1578
 5896SOL     OW29323   4.633   0.679   8.341  0.0822  0.1582  0.5927
 5896SOL    HW129324   4.623   0.667   8.247  0.1483  0.5461  0.5342
 5896SOL    HW229325   4.726   0.654   8.342 -0.3115 -1.2691  0.9127
 5897SOL     OW29326   2.198   3.655   9.881  0.1032  0.0354 -0.1125
 5897SOL    HW129327   2.122   3.651   9.939  0.0043 -1.7228 -0.3557
 5897SOL    HW229328   2.250   3.727   9.918  0.6390  0.3195 -1.4075
 5898SOL     OW29329   3.526   3.001  12.383  0.1271 -0.5068 -0.0281
 5898SOL    HW129330   3.559   3.089  12.399 -0.9753 -0.5568  2.5703
 5898SOL    HW229331   3.604   2.947  12.371 -0.5506 -1.3668 -0.6029
 5899SOL     OW29332   1.930   0.969  16.326  0.0035  0.3703 -1.0641
 5899SOL    HW129333   2.023   0.995  16.324  0.4382 -1.1540 -0.6106
 5899SOL    HW229334   1.928   0.939  16.236 -0.6491  0.1145 -0.9569
 5900SOL     OW29335   1.790   2.811  16.916  0.4677 -0.1225  0.1582
 5900SOL    HW129336   1.717   2.761  16.952 -0.4123  1.8033  1.0551
 5900SOL    HW229337   1.864   2.762  16.952 -0.3172 -0.2220  1.6083
 5901SOL     OW29338   0.365   0.152   1.604 -0.4694 -0.6079 -0.4849
 5901SOL    HW129339   0.308   0.181   1.675 -0.3407 -1.9618  0.1651
 5901SOL    HW229340   0.414   0.233   1.591 -1.3197 -0.0205 -0.0939
 5902SOL     OW29341   3.656   1.898   8.004  0.3439 -0.1237 -0.1406
 5902SOL    HW129342   3.570   1.860   8.023 -0.1942  1.8071  1.3170
 5902SOL    HW229343   3.721   1.833   8.030  1.4904  1.0935  0.0330
 5903SOL     OW29344   3.256   3.898   1.959 -0.8591  0.0051  0.1621
 5903SOL    HW129345   3.167   3.903   1.994 -1.3078  2.5098 -1.2663
 5903SOL    HW229346   3.254   3.804   1.940 -2.6143 -0.1200  0.8859
 5904SOL     OW29347   0.419   2.562   8.948 -0.3495 -0.4959 -0.2064
 5904SOL    HW129348   0.468   2.640   8.974  0.3867 -0.8160 -0.6249
 5904SOL    HW229349   0.482   2.495   8.974 -2.5388 -0.9252  3.8271
 5905SOL     OW29350   2.944   4.043   7.473  0.3650  0.0142 -0.0984
 5905SOL    HW129351   3.007   3.989   7.521 -1.0501  0.1225  1.8299
 5905SOL    HW229352   2.982   4.130   7.487 -0.7729  0.0694  2.5051
 5906SOL     OW29353   3.998   0.582   3.763 -0.0182 -0.0619 -0.2906
 5906SOL    HW129354   4.082   0.566   3.719  1.2413 -1.5586  2.6300
 5906SOL    HW229355   3.953   0.497   3.762 -2.0999  1.0269  1.3983
 5907SOL     OW29356   0.454   1.674  17.173  0.0309 -0.6311 -0.1766
 5907SOL    HW129357   0.477   1.700  17.084 -0.1707 -3.4250 -1.0445
 5907SOL    HW229358   0.361   1.700  17.175 -0.4505 -2.3335 -1.0915
 5908SOL     OW29359   0.699   0.753  11.342 -0.0893  0.2689  0.8306
 5908SOL    HW129360   0.678   0.802  11.422  0.4666  1.0841  0.4753
 5908SOL    HW229361   0.688   0.662  11.369 -0.0671 -0.1527 -0.6042
 5909SOL     OW29362   3.480   4.409   3.036 -0.1274  0.5168  0.2449
 5909SOL    HW129363   3.435   4.386   2.954 -2.1629  2.0544  0.9356
 5909SOL    HW229364   3.476   4.333   3.094  1.7488 -0.1346 -0.4798
 5910SOL     OW29365   2.395   1.850   2.026  0.7451  0.1796  0.1523
 5910SOL    HW129366   2.437   1.765   2.016  1.4899  0.5526  0.0947
 5910SOL    HW229367   2.421   1.877   2.114 -1.4070 -2.2649  1.5140
 5911SOL     OW29368   4.321   0.845   8.627 -0.0974 -0.3123  0.6542
 5911SOL    HW129369   4.303   0.907   8.697  0.8293  0.0931  0.5407
 5911SOL    HW229370   4.318   0.758   8.667 -0.6375 -0.7046 -0.2314
 5912SOL     OW29371   4.526   2.620   6.607 -0.3612  0.6335 -0.6768
 5912SOL    HW129372   4.547   2.580   6.691  2.0329  1.5907 -0.8058
 5912SOL    HW229373   4.502   2.709   6.635 -0.1751  0.9806 -1.6025
 5913SOL     OW29374   3.770   3.563  15.843 -0.6199  0.0278  0.3808
 5913SOL    HW129375   3.773   3.622  15.767 -0.8824 -1.2381 -0.6013
 5913SOL    HW229376   3.677   3.570  15.862 -1.0028  1.5637 -1.9932
 5914SOL     OW29377   1.197   2.151   2.356 -0.1886 -0.2543 -0.4119
 5914SOL    HW129378   1.246   2.208   2.415 -1.9069 -2.0057  2.7086
 5914SOL    HW229379   1.257   2.142   2.281  0.7758  0.1584  0.3063
 5915SOL     OW29380   1.101   3.949   5.246 -0.2949 -0.7291 -0.7486
 5915SOL    HW129381   1.027   3.970   5.303  1.8672 -0.0374  1.8096
 5915SOL    HW229382   1.148   3.881   5.295  1.5151  1.3054  0.3202
 5916SOL     OW29383   3.520   4.238   4.973  0.0920 -0.5302  0.4719
 5916SOL    HW129384   3.586   4.286   5.023 -0.7449  0.3589  0.7321
 5916SOL    HW229385   3.552   4.152   4.999 -2.0059 -1.4240  0.0669
 5917SOL     OW29386   1.922   3.164  16.186 -0.3551  0.8468 -0.4100
 5917SOL    HW129387   1.895   3.212  16.108  0.2525 -2.1025 -2.4355
 5917SOL    HW229388   1.892   3.075  16.166 -0.4822  0.6918  0.4488
 5918SOL     OW29389   3.625   0.389   4.721 -0.8650 -0.0519 -0.0645
 5918SOL    HW129390   3.626   0.435   4.805  0.5184  1.7245 -1.0583
 5918SOL    HW229391   3.620   0.458   4.655 -0.3116 -0.0969 -0.1485
 5919SOL     OW29392   1.405   1.899   2.689 -0.0475 -0.4861  0.1021
 5919SOL    HW129393   1.481   1.894   2.747  0.0786  0.0974 -0.0100
 5919SOL    HW229394   1.367   1.811   2.692 -3.7761  1.1201 -0.7462
 5920SOL     OW29395   0.528   3.175  15.257 -0.1071  0.0157 -0.3013
 5920SOL    HW129396   0.448   3.148  15.302 -0.4945  3.1129  0.8189
 5920SOL    HW229397   0.501   3.265  15.238  1.3461  0.3123 -0.9059
 5921SOL     OW29398   4.084   3.216  16.069 -0.2597  0.3563 -0.2595
 5921SOL    HW129399   4.164   3.268  16.074 -0.3035  0.2371  1.7269
 5921SOL    HW229400   4.095   3.175  16.155 -2.1444 -0.0307 -0.2178
 5922SOL     OW29401   3.190   0.882  11.516 -0.1052  0.3581  0.3254
 5922SOL    HW129402   3.165   0.873  11.424  0.6211 -2.3653  0.3996
 5922SOL    HW229403   3.261   0.820  11.530 -3.5972 -3.2816  2.0305
 5923SOL     OW29404   1.248   2.058   7.645 -0.0538  0.4821 -0.0843
 5923SOL    HW129405   1.288   2.145   7.634  0.6902 -0.1760 -2.6589
 5923SOL    HW229406   1.308   2.003   7.595  0.0782  1.3095 -0.8412
 5924SOL     OW29407   4.571   2.107   2.684  0.1489 -0.0867 -0.1495
 5924SOL    HW129408   4.645   2.067   2.728  0.3974 -0.8913 -1.2920
 5924SOL    HW229409   4.570   2.050   2.607  3.8760 -2.0595  1.2935
 5925SOL     OW29410   1.324   3.547   3.985  0.0521 -0.2336  0.3219
 5925SOL    HW129411   1.307   3.550   4.079 -2.0227 -1.0819 -0.0328
 5925SOL    HW229412   1.419   3.561   3.989 -0.1251  0.4545  1.9343
 5926SOL     OW29413   3.363   3.513   4.827  0.2003 -0.4212 -0.5782
 5926SOL    HW129414   3.329   3.537   4.741 -0.4060  0.4273 -0.0975
 5926SOL    HW229415   3.365   3.417   4.825  0.8537 -0.3513 -2.8579
 5927SOL     OW29416   0.688   4.110   6.594 -0.2820  0.3030 -1.0534
 5927SOL    HW129417   0.726   4.193   6.621  0.9853 -0.1215 -1.5395
 5927SOL    HW229418   0.764   4.071   6.551  2.1304  0.8018  2.6791
 5928SOL     OW29419   1.053   0.875   3.800 -0.4011  0.1685 -0.5908
 5928SOL    HW129420   1.052   0.964   3.767 -1.7723  1.3707  2.6630
 5928SOL    HW229421   0.966   0.841   3.778 -0.4657 -0.8662  1.2433
 5929SOL     OW29422   2.221   1.633  13.519  0.2079  0.5358  0.4724
 5929SOL    HW129423   2.218   1.719  13.478 -1.1547  0.1994 -0.1224
 5929SOL    HW229424   2.291   1.590  13.469 -0.0820  0.0346  0.4992
 5930SOL     OW29425   2.368   0.995   6.279 -0.1528  0.0426 -0.0980
 5930SOL    HW129426   2.342   0.992   6.371 -1.4643  1.3178 -0.4197
 5930SOL    HW229427   2.458   1.027   6.287 -1.3892  3.5650 -0.2457
 5931SOL     OW29428   4.298   2.433   3.454  0.4561  0.3506  0.2262
 5931SOL    HW129429   4.311   2.487   3.376  1.9644  0.5896  0.6459
 5931SOL    HW229430   4.386   2.396   3.462  0.4681  0.4943  0.7364
 5932SOL     OW29431   2.693   2.966   5.217 -0.0971  0.2398  0.2218
 5932SOL    HW129432   2.782   2.953   5.248 -1.3418 -0.7877  3.3598
 5932SOL    HW229433   2.688   2.938   5.126 -0.8078 -0.1608  0.3811
 5933SOL     OW29434   4.108   2.206  17.709  0.2857  0.1145  0.3411
 5933SOL    HW129435   4.168   2.238  17.642  2.1353 -0.9087  1.5030
 5933SOL    HW229436   4.180   2.198   0.030 -0.7690 -2.5155  1.1947
 5934SOL     OW29437   2.904   1.898   3.461  0.0687 -0.0680 -0.4961
 5934SOL    HW129438   2.897   1.836   3.389 -0.7264  1.2591 -1.5598
 5934SOL    HW229439   2.999   1.887   3.466 -0.2314 -2.5025 -0.2195
 5935SOL     OW29440   3.406   0.715  13.567 -0.5387 -0.5488  0.8555
 5935SOL    HW129441   3.493   0.743  13.539 -0.9912 -0.0385 -0.0323
 5935SOL    HW229442   3.422   0.641  13.625 -0.4158 -1.3057 -0.1524
 5936SOL     OW29443   4.309   1.090   7.063 -0.6283  0.3931  0.2801
 5936SOL    HW129444   4.293   1.184   7.050 -0.9763  0.0636 -1.7837
 5936SOL    HW229445   4.269   1.046   6.988 -2.7510  2.6823  0.0425
 5937SOL     OW29446   4.710   1.875   4.155  0.5809 -0.5626 -0.1110
 5937SOL    HW129447   4.714   1.970   4.168  0.2005 -0.4606 -0.7218
 5937SOL    HW229448   4.621   1.848   4.175  0.4512 -1.4849 -1.9612
 5938SOL     OW29449   2.334   3.184   0.912 -0.2670 -0.2217  1.1877
 5938SOL    HW129450   2.285   3.264   0.895 -0.4112 -0.3669  0.9159
 5938SOL    HW229451   2.348   3.138   0.829  0.4024  0.2694  1.0291
 5939SOL     OW29452   1.904   4.136   1.262  0.0210  0.7330 -0.3931
 5939SOL    HW129453   1.873   4.178   1.343 -0.6462  2.0547 -1.3322
 5939SOL    HW229454   1.930   4.218   1.220 -1.3894  2.1223  1.4307
 5940SOL     OW29455   0.451   0.405   9.081 -0.0498  0.2710 -0.0341
 5940SOL    HW129456   0.501   0.325   9.065  0.2698  0.4840 -0.0904
 5940SOL    HW229457   0.427   0.394   9.173 -0.5686  1.2856 -0.0507
 5941SOL     OW29458   3.464   3.326  14.318 -0.5267 -0.2012  0.1582
 5941SOL    HW129459   3.488   3.342  14.409 -1.3860 -1.3894  0.6071
 5941SOL    HW229460   3.370   3.308  14.320 -0.5455 -0.2541 -1.5568
 5942SOL     OW29461   1.069   2.945   2.424 -0.7795 -0.0659  0.5455
 5942SOL    HW129462   1.047   2.981   2.511  0.9427  0.7779  0.6287
 5942SOL    HW229463   0.984   2.943   2.381 -0.0189  1.6662 -1.0324
 5943SOL     OW29464   2.317   0.927   2.623 -0.1647 -0.3970 -0.4903
 5943SOL    HW129465   2.403   0.906   2.587 -0.5602  1.6512 -2.6252
 5943SOL    HW229466   2.336   0.987   2.695  1.6418 -1.0551 -0.4150
 5944SOL     OW29467   4.155   1.495  13.904 -0.1903  0.0468  0.0367
 5944SOL    HW129468   4.158   1.433  13.977 -0.0141  0.1078  0.0814
 5944SOL    HW229469   4.073   1.458  13.870  1.0226 -0.3703 -2.4155
 5945SOL     OW29470   1.830   3.638   6.239 -0.6899  0.4425  0.1607
 5945SOL    HW129471   1.761   3.688   6.283 -1.2754 -0.6446  0.4734
 5945SOL    HW229472   1.872   3.595   6.313 -0.1987  0.3888 -0.1476
 5946SOL     OW29473   4.013   0.665  13.916 -0.4618 -0.1808  0.1209
 5946SOL    HW129474   4.044   0.613  13.841 -1.2058  1.9610 -1.6744
 5946SOL    HW229475   3.977   0.595  13.971 -0.0248 -0.6193 -0.1518
 5947SOL     OW29476   2.364   3.608   7.524  0.0751 -0.4736  0.0205
 5947SOL    HW129477   2.293   3.607   7.461 -1.4651 -1.0934  1.7680
 5947SOL    HW229478   2.443   3.598   7.471 -0.3565  0.4153 -0.7913
 5948SOL     OW29479   1.419   0.094   6.960 -0.1723 -0.1763 -0.0030
 5948SOL    HW129480   1.347   0.112   7.019 -2.0990 -2.6227 -1.6216
 5948SOL    HW229481   1.408   0.168   6.901  0.6171 -0.2852 -0.2899
 5949SOL     OW29482   4.137   0.237   6.443  0.1543  0.0041  0.2227
 5949SOL    HW129483   4.232   0.231   6.454  0.0798 -0.3561  0.6876
 5949SOL    HW229484   4.124   0.151   6.402  0.8183 -0.7547  1.6134
 5950SOL     OW29485   2.412   2.072   6.200  1.0213  0.1234 -0.3150
 5950SOL    HW129486   2.396   2.149   6.253  0.0538 -3.4232  4.5334
 5950SOL    HW229487   2.343   2.013   6.231  1.9516  0.5014  2.4122
 5951SOL     OW29488   0.140   3.471   4.322 -0.2381 -0.1870  0.0841
 5951SOL    HW129489   0.149   3.483   4.227  0.2426 -2.6110 -0.1807
 5951SOL    HW229490   0.229   3.499   4.342 -0.0031 -0.2752 -0.8245
 5952SOL     OW29491   1.042   4.344   7.861  0.3458 -0.6885  0.3579
 5952SOL    HW129492   1.004   4.293   7.789 -0.6542 -0.3210  0.6180
 5952SOL    HW229493   1.063   4.425   7.815  1.0386 -0.3235  1.3170
 5953SOL     OW29494   2.532   2.995   6.578  0.3902  0.5709 -0.5680
 5953SOL    HW129495   2.499   2.935   6.512 -0.3449 -0.2116  0.5027
 5953SOL    HW229496   2.452   3.002   6.630  0.0625 -1.6651 -0.7918
 5954SOL     OW29497   1.236   3.852  13.376 -0.2921  0.2986 -0.2062
 5954SOL    HW129498   1.239   3.878  13.284  0.2958 -1.0006 -0.5518
 5954SOL    HW229499   1.145   3.824  13.386 -0.3565  0.7830  0.6670
 5955SOL     OW29500   1.841   1.886   3.893  0.3206  0.6471 -0.0911
 5955SOL    HW129501   1.913   1.848   3.843 -0.2429  1.2717 -1.3708
 5955SOL    HW229502   1.834   1.825   3.966 -1.7994 -0.0836 -0.9069
 5956SOL     OW29503   3.943   0.267   7.115 -0.2701  0.0198 -0.6285
 5956SOL    HW129504   3.971   0.329   7.049  0.8342  1.7276  1.4471
 5956SOL    HW229505   3.865   0.316   7.140 -0.6670 -0.2496 -1.3261
 5957SOL     OW29506   2.941   1.339   8.086 -0.3072  0.2412 -0.7213
 5957SOL    HW129507   3.020   1.365   8.133 -1.1793 -0.5126  1.1575
 5957SOL    HW229508   2.939   1.419   8.034 -0.1387 -0.1075 -1.2638
 5958SOL     OW29509   3.025   1.401  14.990  0.0093  0.2185  0.2970
 5958SOL    HW129510   2.982   1.326  15.031 -1.8108  0.2319 -1.6042
 5958SOL    HW229511   3.106   1.407  15.040 -0.7682 -1.5191  1.7670
 5959SOL     OW29512   1.737   1.271  16.501  0.3672 -0.3032  0.5551
 5959SOL    HW129513   1.815   1.251  16.553 -0.4180 -1.0744  1.4409
 5959SOL    HW229514   1.745   1.212  16.426  0.8607 -1.0924  1.2243
 5960SOL     OW29515   0.301   0.231   2.350 -0.2118  0.0057  0.0599
 5960SOL    HW129516   0.295   0.136   2.339  1.3883 -0.0563 -0.1963
 5960SOL    HW229517   0.394   0.246   2.364 -0.4338  1.1907  0.3009
 5961SOL     OW29518   1.509   4.665   9.029 -0.0991  0.6431  0.0865
 5961SOL    HW129519   1.603   4.660   9.047  0.0540  1.2922 -0.5495
 5961SOL    HW229520   1.472   4.718   9.099  1.3224 -0.4089  1.6314
 5962SOL     OW29521   3.803   2.607   5.167 -0.4095  0.5913  0.0608
 5962SOL    HW129522   3.889   2.577   5.138 -0.2856  1.6281 -0.6310
 5962SOL    HW229523   3.806   2.575   5.257  1.9244 -1.2650 -0.6813
 5963SOL     OW29524   0.341   1.312  14.548  0.0260  0.6705  0.5429
 5963SOL    HW129525   0.327   1.384  14.609 -2.3218 -0.8508  1.8452
 5963SOL    HW229526   0.290   1.238  14.583 -1.3090  1.1970 -0.2950
 5964SOL     OW29527   3.775   1.981   4.048  0.1380  0.3579 -0.2651
 5964SOL    HW129528   3.868   1.975   4.023 -0.9413 -0.3126 -4.0662
 5964SOL    HW229529   3.748   2.063   4.007 -4.1163 -0.5828  0.7383
 5965SOL     OW29530   4.221   0.856   4.964 -0.4047  0.0639 -0.1766
 5965SOL    HW129531   4.201   0.852   4.871  2.9484  1.1609 -0.9367
 5965SOL    HW229532   4.224   0.952   4.968 -2.6631  0.1179 -0.1532
 5966SOL     OW29533   0.293   1.484  11.673  0.3907 -0.1697  0.1946
 5966SOL    HW129534   0.210   1.479  11.721 -0.2963  2.2490 -0.7537
 5966SOL    HW229535   0.273   1.552  11.609 -3.6502  0.2686  1.8673
 5967SOL     OW29536   1.160   2.431   3.200 -0.2551  0.3568  0.6169
 5967SOL    HW129537   1.186   2.522   3.215  1.7325  0.0609 -1.0522
 5967SOL    HW229538   1.232   2.405   3.142 -0.9775 -1.7495  0.6710
 5968SOL     OW29539   4.407   1.069  14.746  0.3980 -0.3511 -0.1943
 5968SOL    HW129540   4.340   1.134  14.765  1.5648  1.3223 -1.8775
 5968SOL    HW229541   4.455   1.058  14.828  1.4776  0.4598 -0.7256
 5969SOL     OW29542   1.384   0.503  15.988  0.6963 -0.5254 -0.5684
 5969SOL    HW129543   1.480   0.509  15.985  0.7322 -0.2619  0.7799
 5969SOL    HW229544   1.379   0.415  15.951 -1.2013 -0.3280 -0.7579
 5970SOL     OW29545   1.172   3.593   4.921  0.0349  0.1425  0.1523
 5970SOL    HW129546   1.203   3.597   4.830 -0.5875 -2.1615 -0.1814
 5970SOL    HW229547   1.244   3.618   4.979  1.5350 -0.7962 -1.3067
 5971SOL     OW29548   0.891   0.446   2.105  0.3361  0.0751 -0.0552
 5971SOL    HW129549   0.807   0.420   2.068  0.5747 -0.0451 -0.5008
 5971SOL    HW229550   0.861   0.460   2.195 -0.4563  0.5579 -0.3945
 5972SOL     OW29551   4.688   1.312   6.806 -0.3185  0.2538  0.2976
 5972SOL    HW129552   4.609   1.362   6.822 -0.7254  0.0050 -0.9253
 5972SOL    HW229553   4.668   1.221   6.829 -1.7334  1.2181  2.8538
 5973SOL     OW29554   2.966   1.237  13.370 -0.8545  0.1693  0.2041
 5973SOL    HW129555   2.887   1.197  13.406 -0.6436 -0.4618 -0.0329
 5973SOL    HW229556   3.026   1.164  13.355 -1.5549 -0.7973  2.2518
 5974SOL     OW29557   1.895   3.672   4.371 -0.0141 -0.0861 -0.5756
 5974SOL    HW129558   1.849   3.629   4.299 -1.3934  0.1748  0.1587
 5974SOL    HW229559   1.823   3.672   4.433  1.3683  0.4220  1.0433
 5975SOL     OW29560   2.831   0.954   6.550  0.2815  0.4162 -0.6942
 5975SOL    HW129561   2.925   0.939   6.559  0.5267  2.0929 -0.4029
 5975SOL    HW229562   2.821   1.045   6.579  0.0597  0.6613 -1.5410
 5976SOL     OW29563   2.023   1.006   0.463 -0.2413  0.0554  0.3979
 5976SOL    HW129564   2.088   1.070   0.491 -0.6511  0.3995  0.5712
 5976SOL    HW229565   2.038   0.943   0.534 -2.4919 -0.3337  0.5367
 5977SOL     OW29566   4.412   0.541   1.355 -0.2765 -0.3671 -0.1149
 5977SOL    HW129567   4.503   0.569   1.365 -0.9512  1.0836  1.7060
 5977SOL    HW229568   4.382   0.546   1.446  2.7008  1.0594  0.7635
 5978SOL     OW29569   2.667   3.259   3.657  0.2340  0.0415  0.2932
 5978SOL    HW129570   2.671   3.191   3.725 -1.8198  1.5584  1.9162
 5978SOL    HW229571   2.572   3.267   3.649  0.3207  0.2929 -0.4602
 5979SOL     OW29572   1.247   4.149   9.429 -0.7879  0.0886  0.0380
 5979SOL    HW129573   1.290   4.064   9.427  1.2398  1.1398 -1.3411
 5979SOL    HW229574   1.185   4.137   9.356 -0.2407 -0.6274 -0.3035
 5980SOL     OW29575   3.859   4.123   9.328 -0.5076  0.0952 -0.8311
 5980SOL    HW129576   3.915   4.057   9.287  1.0802  1.6771 -1.1928
 5980SOL    HW229577   3.923   4.156   9.391 -0.9942 -1.0232  0.2587
 5981SOL     OW29578   2.476   1.208  16.006  0.8405 -1.0558  0.4626
 5981SOL    HW129579   2.383   1.184  16.000  0.2844  1.6494 -1.4342
 5981SOL    HW229580   2.523   1.124  16.008  1.4838 -0.7146 -0.2634
 5982SOL     OW29581   4.430   1.665   2.577  0.3792  0.8614  0.7306
 5982SOL    HW129582   4.372   1.638   2.506 -1.0258  1.9505  1.4463
 5982SOL    HW229583   4.369   1.714   2.632 -2.5510 -1.1401 -0.7144
 5983SOL     OW29584   1.409   2.395  14.204  0.1196 -0.5003  0.1490
 5983SOL    HW129585   1.476   2.441  14.254 -0.8396 -0.1741  1.1196
 5983SOL    HW229586   1.339   2.386  14.268 -1.5031 -0.5602 -1.6066
 5984SOL     OW29587   3.003   1.869   8.460  0.7200  0.3942  0.5592
 5984SOL    HW129588   2.936   1.901   8.520 -0.0002 -0.1728  0.0659
 5984SOL    HW229589   2.997   1.929   8.386  0.3200  2.0106  1.9217
 5985SOL     OW29590   1.103   0.600   2.315 -0.3504  0.3643  0.0005
 5985SOL    HW129591   1.039   0.533   2.339 -0.0654  0.6960  1.6847
 5985SOL    HW229592   1.125   0.581   2.223 -2.3597  0.6797 -0.5430
 5986SOL     OW29593   0.112   3.267   9.101 -0.2787 -0.3943  0.0428
 5986SOL    HW129594   0.102   3.186   9.152  1.1613 -1.3317 -1.1655
 5986SOL    HW229595   0.056   3.328   9.149  1.3589  0.4843  0.8382
 5987SOL     OW29596   2.257   1.362   9.332 -0.4542  0.1683  0.1689
 5987SOL    HW129597   2.311   1.435   9.360  1.2009 -0.3745 -1.5927
 5987SOL    HW229598   2.293   1.336   9.247  0.7632 -0.1503  0.7823
 5988SOL     OW29599   4.060   2.990   6.130 -0.1099 -0.4155  0.0469
 5988SOL    HW129600   4.061   2.900   6.162  0.3160 -0.5246 -0.2771
 5988SOL    HW229601   3.975   3.027   6.153 -1.2686 -4.2812  1.9001
 5989SOL     OW29602   3.140   4.357  17.402 -0.3297 -0.1267  0.0041
 5989SOL    HW129603   3.098   4.279  17.437 -2.0102  1.3247  1.2015
 5989SOL    HW229604   3.218   4.312  17.369 -0.1243  0.6976 -0.6448
 5990SOL     OW29605   4.694   2.671   4.765 -0.3623  0.3529 -0.2561
 5990SOL    HW129606   4.650   2.652   4.682 -0.7157  0.9783 -0.2067
 5990SOL    HW229607   0.015   2.745   4.744 -0.9014  2.2720  5.2328
 5991SOL     OW29608   2.271   0.684   1.265 -0.0552  0.3542  0.0984
 5991SOL    HW129609   2.236   0.604   1.303 -0.5229 -1.5048 -4.2671
 5991SOL    HW229610   2.353   0.693   1.315  0.2464 -1.2635 -0.1122
 5992SOL     OW29611   3.430   3.385   6.049  0.2425 -0.2795 -0.0294
 5992SOL    HW129612   3.440   3.422   5.962  2.7210  0.4791  0.5824
 5992SOL    HW229613   3.502   3.423   6.098 -0.4157  1.7178 -0.6360
 5993SOL     OW29614   3.193   2.573   9.427 -0.1272 -0.3090 -0.0902
 5993SOL    HW129615   3.163   2.604   9.342  1.2216 -0.1322 -0.4896
 5993SOL    HW229616   3.287   2.562   9.420 -0.1514 -1.9301  1.9749
 5994SOL     OW29617   2.778   0.399   1.990 -0.0900 -0.2620  0.3058
 5994SOL    HW129618   2.742   0.310   1.991 -0.2403 -0.2083 -1.0635
 5994SOL    HW229619   2.873   0.388   1.983 -0.2273 -1.2504 -0.0507
 5995SOL     OW29620   4.194   3.132   5.944 -0.3965 -0.2326 -0.5978
 5995SOL    HW129621   4.148   3.077   6.007 -0.9563 -0.0384 -0.8419
 5995SOL    HW229622   4.154   3.218   5.955  1.0384  0.5189 -1.1999
 5996SOL     OW29623   0.953   3.918   9.331 -0.2306 -0.1213 -0.1287
 5996SOL    HW129624   0.899   3.996   9.322  2.8471  1.7731 -2.2638
 5996SOL    HW229625   1.042   3.947   9.309  0.0441  0.7056  2.0016
 5997SOL     OW29626   2.072   0.225   4.495  0.1378  0.0765  0.4742
 5997SOL    HW129627   1.997   0.283   4.486  1.5548  1.6066 -1.5247
 5997SOL    HW229628   2.115   0.218   4.409 -1.2868 -1.6736 -0.1050
 5998SOL     OW29629   3.622   1.496  13.612 -0.7122 -0.2934 -0.4413
 5998SOL    HW129630   3.690   1.459  13.556 -0.9237 -1.6378  0.2072
 5998SOL    HW229631   3.555   1.431  13.592  2.1642 -2.3608 -3.4330
 5999SOL     OW29632   3.267   4.686   2.301 -0.2262 -0.1217  0.2301
 5999SOL    HW129633   3.340   0.011   2.287  1.1723 -1.8642 -0.0443
 5999SOL    HW229634   3.231   4.692   2.212 -1.3228 -0.9305  0.6197
 6000SOL     OW29635   2.008   3.414   7.047 -0.1291 -0.1172  0.2909
 6000SOL    HW129636   1.927   3.377   7.083 -1.9697  2.2183 -1.4968
 6000SOL    HW229637   2.070   3.361   7.098 -0.6847 -1.3445 -0.2965
 6001SOL     OW29638   4.040   0.088  15.227 -0.2850 -0.7151  0.0943
 6001SOL    HW129639   4.127   0.055  15.202  0.2585  1.6700 -1.1133
 6001SOL    HW229640   3.989   0.044  15.160 -2.3437  1.1498  0.4508
 6002SOL     OW29641   2.016   2.117   3.991  0.1012 -0.3718 -0.3707
 6002SOL    HW129642   1.961   2.132   4.067  0.2103  1.3132 -0.6334
 6002SOL    HW229643   1.953   2.061   3.945  1.1313 -1.2627 -0.7190
 6003SOL     OW29644   1.644   1.033  15.212 -0.3437  0.2153 -0.5884
 6003SOL    HW129645   1.570   0.981  15.243 -0.9789  2.1463  1.0974
 6003SOL    HW229646   1.711   0.969  15.187  0.4971  1.3058 -1.1231
 6004SOL     OW29647   3.509   0.390   8.368 -0.0080 -0.2890  0.4063
 6004SOL    HW129648   3.595   0.403   8.407  0.0065 -1.1681  0.6767
 6004SOL    HW229649   3.449   0.378   8.442  0.6104 -2.1024  0.6196
 6005SOL     OW29650   0.847   4.525   7.974  0.5602 -0.5473  0.2316
 6005SOL    HW129651   0.893   4.441   7.975 -1.4319 -1.6358 -0.8816
 6005SOL    HW229652   0.877   4.569   7.895  0.3223 -1.6050 -0.4496
 6006SOL     OW29653   3.063   0.427   9.159  0.3379 -0.0871 -0.1781
 6006SOL    HW129654   3.046   0.384   9.243 -0.7415  0.8458  0.0827
 6006SOL    HW229655   3.031   0.513   9.186  0.1897 -0.2422  0.1409
 6007SOL     OW29656   3.074   2.224  17.241 -0.0781 -0.3095  0.0660
 6007SOL    HW129657   3.055   2.302  17.293  0.9124 -0.6681  0.9682
 6007SOL    HW229658   3.002   2.165  17.264 -0.0176 -1.1859 -1.9392
 6008SOL     OW29659   1.786   1.028   8.558  0.2030  0.6474 -0.4508
 6008SOL    HW129660   1.860   1.061   8.508  1.2547 -2.0344 -0.6696
 6008SOL    HW229661   1.783   0.934   8.538 -1.4550 -0.1005  3.2946
 6009SOL     OW29662   2.854   3.407   9.394 -0.9407 -0.1778 -0.2480
 6009SOL    HW129663   2.820   3.404   9.305 -0.2987 -2.7215 -0.3802
 6009SOL    HW229664   2.836   3.324   9.439 -0.6235  0.1817  0.5484
 6010SOL     OW29665   4.284   2.084   1.062  0.3335 -0.0637  0.5037
 6010SOL    HW129666   4.247   2.069   1.149  0.2594  1.9351  0.8219
 6010SOL    HW229667   4.236   2.163   1.035 -0.3919 -0.7527 -0.2400
 6011SOL     OW29668   3.653   0.057   1.401 -0.6793 -0.1373 -0.2548
 6011SOL    HW129669   3.739   0.070   1.441 -1.0702 -0.9075  0.8445
 6011SOL    HW229670   3.677   0.036   1.311 -1.6109  0.1165 -0.5559
 6012SOL     OW29671   2.780   0.102   7.560  0.2635  0.1969  1.0860
 6012SOL    HW129672   2.692   0.080   7.528  0.3624 -2.5145  2.7346
 6012SOL    HW229673   2.793   0.037   7.629  0.3409  0.0278  0.9102
 6013SOL     OW29674   3.219   2.967   6.368 -0.1789  0.2633  0.7101
 6013SOL    HW129675   3.194   2.899   6.305 -0.3227  0.9887 -0.0057
 6013SOL    HW229676   3.296   2.999   6.321  0.3992 -1.8592  0.1748
 6014SOL     OW29677   3.383   1.010   6.479  0.2634 -0.1170  0.4380
 6014SOL    HW129678   3.297   0.989   6.443  0.2707 -0.2145  0.4753
 6014SOL    HW229679   3.414   1.073   6.414  0.9137 -1.3562 -0.4545
 6015SOL     OW29680   3.715   0.889  17.594 -0.3774  0.2411 -0.1696
 6015SOL    HW129681   3.649   0.953  17.622  0.3233  1.6409 -1.6923
 6015SOL    HW229682   3.683   0.862  17.508 -0.6230 -1.9220  0.6101
 6016SOL     OW29683   3.679   2.419  13.340 -0.2531 -0.2641 -0.4844
 6016SOL    HW129684   3.734   2.346  13.366 -0.7674 -0.5899 -0.3147
 6016SOL    HW229685   3.591   2.401  13.374  0.7314 -0.9325  1.7168
 6017SOL     OW29686   3.363   4.117   1.837 -0.4366 -0.5511  0.6190
 6017SOL    HW129687   3.349   4.034   1.881 -0.5251 -1.6092 -1.4105
 6017SOL    HW229688   3.458   4.126   1.844 -0.6311  0.5549  1.9013
 6018SOL     OW29689   4.412   4.669   6.462 -0.3842 -0.0080 -0.2260
 6018SOL    HW129690   4.438   0.022   6.443  1.0984 -0.5195 -0.5679
 6018SOL    HW229691   4.377   4.674   6.552 -1.2472 -2.1050 -0.4261
 6019SOL     OW29692   3.854   3.389  11.064  0.7562  0.0454  0.4072
 6019SOL    HW129693   3.787   3.347  11.117 -1.6742  0.7337 -2.1266
 6019SOL    HW229694   3.822   3.356  10.981  1.0359  1.2156 -0.1738
 6020SOL     OW29695   1.232   2.790   4.510  0.3564 -0.0145  0.4235
 6020SOL    HW129696   1.166   2.831   4.566 -1.0230 -1.6275 -0.0047
 6020SOL    HW229697   1.200   2.816   4.424 -0.4746 -0.5872  0.5523
 6021SOL     OW29698   1.158   2.934   7.877  0.0041 -0.3735 -0.2950
 6021SOL    HW129699   1.163   2.866   7.945 -0.4149  1.0370  1.1679
 6021SOL    HW229700   1.074   2.972   7.903  0.0890  0.5885 -1.4162
 6022SOL     OW29701   1.200   3.503  14.344 -0.4109 -0.0279  0.8836
 6022SOL    HW129702   1.146   3.510  14.266 -0.4123  0.2651  0.9096
 6022SOL    HW229703   1.288   3.497  14.306 -0.8017  0.5672 -0.1180
 6023SOL     OW29704   4.209   3.052  16.271 -0.0886  0.1290  0.9052
 6023SOL    HW129705   4.175   3.076  16.357 -2.4858  0.6594 -0.1851
 6023SOL    HW229706   4.304   3.061  16.278  0.1761 -1.1341 -1.0224
 6024SOL     OW29707   4.327   1.153   7.923 -0.1300 -0.6231  0.3602
 6024SOL    HW129708   4.260   1.222   7.929  1.0817  0.6953 -1.3569
 6024SOL    HW229709   4.354   1.151   8.015  0.9525  1.3848  0.0873
 6025SOL     OW29710   1.587   2.531   5.339 -0.0281 -0.3684 -0.1402
 6025SOL    HW129711   1.662   2.512   5.283 -0.8731  0.6491 -1.6110
 6025SOL    HW229712   1.620   2.543   5.428 -0.3082  1.1861 -0.2294
 6026SOL     OW29713   0.021   1.596   4.242  0.6341  0.5858 -0.3735
 6026SOL    HW129714   0.043   1.596   4.335  2.0091 -1.3637 -0.6890
 6026SOL    HW229715   0.039   1.686   4.216  0.3936  0.3962 -1.2013
 6027SOL     OW29716   0.224   1.195  13.393  0.5980  0.0402  0.0389
 6027SOL    HW129717   0.154   1.258  13.375 -0.3239 -0.2694  2.6058
 6027SOL    HW229718   0.296   1.259  13.394  0.1298  0.5925 -0.7830
 6028SOL     OW29719   4.340   0.570   6.182  0.2053  0.0395  0.1547
 6028SOL    HW129720   4.314   0.588   6.091  1.3600 -0.1461 -0.2075
 6028SOL    HW229721   4.400   0.499   6.159 -1.4097 -1.1482 -0.3745
 6029SOL     OW29722   0.748   2.541  10.491 -0.2476 -0.0038 -0.6284
 6029SOL    HW129723   0.704   2.609  10.543  0.4829  0.2081 -0.2948
 6029SOL    HW229724   0.706   2.459  10.514 -1.2743  0.7711  0.2643
 6030SOL     OW29725   0.288   1.387   5.186  0.0295  0.3854  0.3194
 6030SOL    HW129726   0.222   1.437   5.138 -0.4450  0.3644  0.9519
 6030SOL    HW229727   0.231   1.342   5.248  2.3813 -2.5006  0.3583
 6031SOL     OW29728   2.435   2.161   0.132  0.3865  0.1924 -0.4602
 6031SOL    HW129729   2.364   2.110   0.095 -1.5174  1.7605  0.9982
 6031SOL    HW229730   2.491   2.094   0.170  2.7517  1.4798 -1.6809
 6032SOL     OW29731   3.886   2.981   1.505 -0.4274 -0.6122 -0.1225
 6032SOL    HW129732   3.965   2.951   1.550  1.1531  1.7809 -1.3308
 6032SOL    HW229733   3.908   3.070   1.475  0.5144 -0.6602  0.4196
 6033SOL     OW29734   4.107   1.445   2.642 -0.1740  0.2450  0.2919
 6033SOL    HW129735   4.012   1.446   2.634 -0.1875  1.5644  0.6064
 6033SOL    HW229736   4.143   1.390   2.573  0.9842 -0.8929  1.7866
 6034SOL     OW29737   4.500   1.717  17.413 -0.2424  0.1291  0.5715
 6034SOL    HW129738   4.517   1.625  17.436 -0.7602 -0.0658  0.1927
 6034SOL    HW229739   4.498   1.699  17.319 -0.2104 -0.4023  0.6694
 6035SOL     OW29740   4.357   4.536   4.525  0.2477  0.3494  0.5518
 6035SOL    HW129741   4.333   4.597   4.455 -1.2450 -1.0951 -0.1951
 6035SOL    HW229742   4.366   4.592   4.602  2.2232 -0.2528  0.7628
 6036SOL     OW29743   3.006   3.966  17.064 -0.6912 -0.3749  0.3201
 6036SOL    HW129744   2.913   3.968  17.085 -0.9335 -0.7237 -0.7029
 6036SOL    HW229745   3.005   4.008  16.977  2.4020 -0.6560  0.1552
 6037SOL     OW29746   1.469   4.157   8.529 -0.4881 -1.3032  0.2180
 6037SOL    HW129747   1.430   4.235   8.491 -1.1895 -1.9133 -0.3153
 6037SOL    HW229748   1.517   4.195   8.602 -0.3255  1.4079 -1.3177
 6038SOL     OW29749   1.418   1.403   6.468  0.3291 -0.2636  0.1614
 6038SOL    HW129750   1.337   1.390   6.419  0.3941 -0.5220  0.1229
 6038SOL    HW229751   1.376   1.425   6.552 -0.1782  1.6022 -0.5694
 6039SOL     OW29752   3.133   0.270  10.538 -0.9684 -0.0298  0.5219
 6039SOL    HW129753   3.083   0.349  10.556  0.3961  1.0212 -0.2997
 6039SOL    HW229754   3.212   0.304  10.496  0.6236 -2.5227  1.4838
 6040SOL     OW29755   1.666   4.705   3.557 -0.0394 -0.1331 -0.0186
 6040SOL    HW129756   1.650   0.054   3.515 -0.1615 -1.2516 -2.1874
 6040SOL    HW229757   1.693   4.667   3.474 -0.5299 -2.7940  1.0401
 6041SOL     OW29758   2.912   0.134   4.277  0.4285 -0.1418 -0.7725
 6041SOL    HW129759   2.857   0.162   4.204 -0.8494  0.7641  0.5410
 6041SOL    HW229760   2.919   0.218   4.322 -0.7072  0.4818 -1.7454
 6042SOL     OW29761   0.646   0.290   7.581  0.6127 -0.5014  0.0131
 6042SOL    HW129762   0.582   0.283   7.652 -0.5457  0.1496 -0.9555
 6042SOL    HW229763   0.712   0.340   7.629  0.6166  1.5329 -2.0787
 6043SOL     OW29764   3.388   2.551  14.054 -0.3664  0.0162 -0.2449
 6043SOL    HW129765   3.349   2.543  13.967  0.5026 -2.1169 -0.4450
 6043SOL    HW229766   3.341   2.482  14.100  0.3344 -0.0342  0.3891
 6044SOL     OW29767   3.301   3.770  14.293  0.1203  0.0693 -0.3356
 6044SOL    HW129768   3.331   3.852  14.255  0.0350  0.7965  1.1858
 6044SOL    HW229769   3.378   3.721  14.323 -0.4379  0.3854  1.6381
 6045SOL     OW29770   0.071   0.748   3.953 -0.0111  0.0096  0.0169
 6045SOL    HW129771   0.015   0.703   3.889  0.2941 -2.3338  1.3972
 6045SOL    HW229772   0.036   0.721   4.038 -0.5649 -0.8477 -0.4887
 6046SOL     OW29773   4.586   3.761   7.297 -0.1053 -0.6370  0.4239
 6046SOL    HW129774   4.500   3.799   7.314 -0.1075 -0.8212  0.8138
 6046SOL    HW229775   4.592   3.689   7.359  1.4320  1.0794  2.2545
 6047SOL     OW29776   0.090   3.710  11.770 -0.0920 -0.5911  0.2216
 6047SOL    HW129777   0.073   3.736  11.860  1.4227 -1.0868  0.6497
 6047SOL    HW229778   0.181   3.737  11.759 -0.0094 -0.6470  0.7605
 6048SOL     OW29779   4.420   4.465   6.293 -0.1429  0.5348  0.3842
 6048SOL    HW129780   4.420   4.496   6.203  0.8599 -2.0041 -0.4997
 6048SOL    HW229781   4.403   4.547   6.339  0.0205  0.2213  1.0050
 6049SOL     OW29782   3.835   2.641  15.073 -0.5965  0.0526  0.1884
 6049SOL    HW129783   3.804   2.711  15.016 -0.8498  0.9455  1.4372
 6049SOL    HW229784   3.926   2.666  15.089 -0.5901 -0.9998  1.7561
 6050SOL     OW29785   2.890   3.443   5.289  0.5916  0.4230  1.0847
 6050SOL    HW129786   2.946   3.518   5.268 -0.5039  0.5248 -1.5260
 6050SOL    HW229787   2.828   3.490   5.345  0.4028  1.4109  0.0512
 6051SOL     OW29788   0.812   1.291   3.001 -0.1855  0.2123  0.7810
 6051SOL    HW129789   0.785   1.214   2.951 -2.4248 -0.1595  2.5750
 6051SOL    HW229790   0.806   1.258   3.090 -2.0389 -1.2434  0.1204
 6052SOL     OW29791   0.848   3.819  13.638  0.3861 -0.2185  0.9475
 6052SOL    HW129792   0.786   3.830  13.709  1.3966  1.1443  1.6159
 6052SOL    HW229793   0.843   3.725  13.622 -1.6598  0.3519 -1.6844
 6053SOL     OW29794   1.437   3.140   2.689 -0.4630  0.5544 -0.5930
 6053SOL    HW129795   1.383   3.215   2.713  0.3315 -0.0644  3.0889
 6053SOL    HW229796   1.416   3.076   2.757 -0.4449  0.0813 -1.0333
 6054SOL     OW29797   4.671   1.507   1.505 -0.1890 -0.4986 -0.4379
 6054SOL    HW129798   4.578   1.484   1.506 -0.2798 -0.1295 -0.2867
 6054SOL    HW229799   4.691   1.477   1.593  1.2022  3.4293  0.5917
 6055SOL     OW29800   4.430   2.950   8.593  0.4286 -0.0589 -0.4990
 6055SOL    HW129801   4.494   2.971   8.661  1.3894 -1.0826 -1.0938
 6055SOL    HW229802   4.350   2.988   8.630  0.3608 -0.5550 -0.1273
 6056SOL     OW29803   4.161   2.251  14.596  0.1240 -0.7798  0.2090
 6056SOL    HW129804   4.241   2.296  14.569 -1.8297  2.8111  0.3615
 6056SOL    HW229805   4.174   2.255  14.691  0.5330  1.4833  0.0563
 6057SOL     OW29806   1.650   1.003   2.196 -0.0037  0.6634  0.0339
 6057SOL    HW129807   1.697   0.959   2.125 -2.5722 -0.1222 -1.1604
 6057SOL    HW229808   1.665   1.095   2.179  2.5366  0.1561 -0.5115
 6058SOL     OW29809   4.436   1.192   0.633  0.5519 -0.0632 -0.1472
 6058SOL    HW129810   4.497   1.220   0.565  0.1381 -0.3880 -0.6476
 6058SOL    HW229811   4.410   1.103   0.612  1.5176 -0.3806 -0.0035
 6059SOL     OW29812   3.712   4.343   6.280  0.6234  0.0734  0.3338
 6059SOL    HW129813   3.791   4.363   6.330 -0.1283  3.1411  0.2978
 6059SOL    HW229814   3.736   4.337   6.187 -0.8353  1.0244 -0.0997
 6060SOL     OW29815   2.852   2.563   7.300 -0.6959  0.5144 -0.3688
 6060SOL    HW129816   2.858   2.467   7.305  0.3092  0.6975  2.1390
 6060SOL    HW229817   2.919   2.581   7.234  0.1407 -2.0298 -0.2289
 6061SOL     OW29818   1.376   4.077   4.587  0.2575 -0.1500  0.0970
 6061SOL    HW129819   1.313   4.070   4.658 -0.2103  0.3328 -0.2625
 6061SOL    HW229820   1.325   4.085   4.506 -2.7010 -2.6780  1.7246
 6062SOL     OW29821   3.329   0.208   8.042 -0.2051 -0.3813  0.7204
 6062SOL    HW129822   3.364   0.270   7.978  2.3967 -0.5430  1.9880
 6062SOL    HW229823   3.407   0.162   8.071 -1.0234 -1.8379  0.6208
 6063SOL     OW29824   4.394   1.222   7.586 -0.9303 -0.4940  0.3185
 6063SOL    HW129825   4.327   1.267   7.637 -0.0148 -0.2830  1.3398
 6063SOL    HW229826   4.366   1.239   7.496 -0.7823 -0.5575  0.2609
 6064SOL     OW29827   1.243   1.000   7.339  0.2580  0.0828 -0.1654
 6064SOL    HW129828   1.241   1.033   7.250 -0.1744 -1.3434 -0.6798
 6064SOL    HW229829   1.164   1.033   7.383  0.3320  1.1774 -0.8463
 6065SOL     OW29830   3.222   1.224   8.509 -0.0740 -0.0897  0.2542
 6065SOL    HW129831   3.136   1.182   8.504 -1.3640  2.3319  2.1339
 6065SOL    HW229832   3.243   1.216   8.416  2.0842 -1.3741  0.8439
 6066SOL     OW29833   2.710   2.783  12.085 -0.2303 -0.4395 -0.1554
 6066SOL    HW129834   2.727   2.745  12.171 -1.2363 -0.6662 -0.0542
 6066SOL    HW229835   2.738   2.873  12.096  1.4633 -0.9463 -0.3680
 6067SOL     OW29836   4.094   2.431  15.004  0.8960 -0.4090  0.1494
 6067SOL    HW129837   4.132   2.436  14.917  0.0730 -0.0955 -0.1886
 6067SOL    HW229838   4.069   2.338  15.008 -0.1952 -0.0654  1.4650
 6068SOL     OW29839   4.134   1.306  14.096  0.1707 -0.2933 -0.1605
 6068SOL    HW129840   4.089   1.242  14.150  1.0328 -1.2412 -0.5715
 6068SOL    HW229841   4.223   1.272  14.083  0.4566 -0.0409  1.0644
 6069SOL     OW29842   1.902   4.337  10.600  0.1173 -0.2160  0.6568
 6069SOL    HW129843   1.981   4.380  10.634  1.0774 -0.5198 -1.1660
 6069SOL    HW229844   1.876   4.397  10.531  1.0231 -0.1762  0.3461
 6070SOL     OW29845   0.708   0.645   3.504 -0.1920  0.2485  0.5629
 6070SOL    HW129846   0.655   0.619   3.579 -0.8809 -1.4212 -0.5085
 6070SOL    HW229847   0.659   0.598   3.437 -1.1684  0.2643  1.2677
 6071SOL     OW29848   0.011   3.384   2.735  0.0615 -0.6183  0.2454
 6071SOL    HW129849   0.016   3.479   2.749 -0.2007 -0.4607 -0.7740
 6071SOL    HW229850   4.675   3.362   2.794  0.9133 -2.8747  0.4448
 6072SOL     OW29851   1.868   0.240   9.422  0.1971  0.5972 -0.1028
 6072SOL    HW129852   1.901   0.330   9.426  0.3197  0.5458  0.0492
 6072SOL    HW229853   1.868   0.210   9.513 -1.1228 -0.8053 -0.5600
 6073SOL     OW29854   3.888   1.980   6.043 -0.2646  0.0256 -0.0358
 6073SOL    HW129855   3.854   2.032   6.115 -3.4506 -1.4024 -0.4933
 6073SOL    HW229856   3.976   1.959   6.074 -0.0720  1.1110  0.1293
 6074SOL     OW29857   1.765   3.785   5.507  0.5777  0.0486 -0.1310
 6074SOL    HW129858   1.765   3.706   5.561  0.3673  0.7940  0.9579
 6074SOL    HW229859   1.680   3.775   5.465  0.5610  1.9479 -0.5513
 6075SOL     OW29860   3.378   3.995  14.180  0.5499  0.3115  0.1640
 6075SOL    HW129861   3.344   4.056  14.114  1.0452  1.4639  0.9770
 6075SOL    HW229862   3.443   3.952  14.124 -0.3079 -2.0220  0.9754
 6076SOL     OW29863   4.209   1.118   2.792 -0.2045  0.1669 -0.0089
 6076SOL    HW129864   4.253   1.038   2.765 -0.4818 -0.2260  0.7051
 6076SOL    HW229865   4.273   1.188   2.778  0.1737 -0.4187 -1.2273
 6077SOL     OW29866   4.029   4.711   4.487 -0.2916  0.7605 -0.1890
 6077SOL    HW129867   3.952   4.695   4.432 -1.2728 -0.0560  1.4488
 6077SOL    HW229868   3.998   4.661   4.562 -0.8994 -0.1025 -1.0024
 6078SOL     OW29869   1.623   3.782   2.830 -0.1981 -0.0683  0.2218
 6078SOL    HW129870   1.711   3.820   2.823 -1.4731  2.2042 -3.4464
 6078SOL    HW229871   1.646   3.696   2.797  0.8961 -0.0126  0.8101
 6079SOL     OW29872   3.669   4.119   1.850 -0.4047 -0.0001 -0.2589
 6079SOL    HW129873   3.716   4.053   1.799  0.5140 -0.0899  0.7021
 6079SOL    HW229874   3.747   4.156   1.893  0.7712 -1.4830 -1.1275
 6080SOL     OW29875   1.955   3.001   9.248  0.2868 -0.3559  0.1899
 6080SOL    HW129876   1.877   3.017   9.300  0.6426 -0.7885  0.8501
 6080SOL    HW229877   1.986   3.092   9.251  0.4721 -0.4226  0.2759
 6081SOL     OW29878   2.382   2.778  14.249  0.0487 -0.9284 -0.4966
 6081SOL    HW129879   2.376   2.693  14.294 -0.7551 -1.2842 -1.2730
 6081SOL    HW229880   2.470   2.810  14.266 -0.1698 -0.9579  0.7179
 6082SOL     OW29881   0.438   4.000   6.009 -0.5230 -0.5010 -0.8323
 6082SOL    HW129882   0.381   3.965   5.941 -1.7117  0.7422 -0.4728
 6082SOL    HW229883   0.403   4.085   6.036 -1.9793 -0.8289 -1.6704
 6083SOL     OW29884   3.461   1.340   6.547 -0.3716  0.8248  0.0600
 6083SOL    HW129885   3.388   1.335   6.486 -0.7587 -2.1338  0.7606
 6083SOL    HW229886   3.517   1.265   6.526 -2.5437 -0.6602 -0.4594
 6084SOL     OW29887   3.035   1.541  11.503  0.1133  0.2731  0.4153
 6084SOL    HW129888   3.041   1.448  11.482  1.4342  0.3640  0.3917
 6084SOL    HW229889   2.968   1.543  11.571 -0.7548  0.6691 -0.4511
 6085SOL     OW29890   1.337   2.527   7.754  0.4514 -0.4333  0.1365
 6085SOL    HW129891   1.363   2.619   7.764  0.2798 -0.3846  0.1290
 6085SOL    HW229892   1.264   2.528   7.816 -0.0333  1.9920 -0.4740
 6086SOL     OW29893   2.648   3.022   7.686 -0.0865 -0.7598  0.3627
 6086SOL    HW129894   2.699   2.941   7.692  1.0715  0.0956  2.3186
 6086SOL    HW229895   2.638   3.014   7.592 -0.4768 -2.2425  0.5318
 6087SOL     OW29896   3.249   1.891   9.651 -0.0166 -0.1833 -0.3887
 6087SOL    HW129897   3.192   1.955   9.694 -1.1865 -1.1589 -0.4767
 6087SOL    HW229898   3.328   1.903   9.703 -0.5362 -0.6349  0.5315
 6088SOL     OW29899   4.229   0.961   8.348  0.3257  0.6899 -0.1377
 6088SOL    HW129900   4.214   0.868   8.333 -0.8897  0.6956  0.9644
 6088SOL    HW229901   4.266   0.966   8.436 -0.8898  0.0916  0.4015
 6089SOL     OW29902   3.403   3.710   7.572  0.0249  0.1307  0.3821
 6089SOL    HW129903   3.474   3.647   7.564  1.8272  2.0678  1.3751
 6089SOL    HW229904   3.342   3.666   7.512 -0.3890  2.0157 -0.5826
 6090SOL     OW29905   3.039   4.379   8.600 -0.3901  0.3279  0.0136
 6090SOL    HW129906   3.093   4.431   8.540 -0.1584  1.5174  1.2577
 6090SOL    HW229907   3.064   4.409   8.687  0.5904  0.3115 -0.2617
 6091SOL     OW29908   1.220   4.249  12.472  0.6424  0.9096  0.0554
 6091SOL    HW129909   1.244   4.228  12.382 -1.3183 -1.9973  0.2192
 6091SOL    HW229910   1.279   4.190  12.520 -1.2222 -1.5057 -0.6591
 6092SOL     OW29911   3.001   4.490   1.925 -0.1475 -0.8781 -0.0605
 6092SOL    HW129912   3.044   4.406   1.917  0.7204 -0.5711  1.3100
 6092SOL    HW229913   3.043   4.538   1.854 -1.8765 -2.7313 -2.3123
 6093SOL     OW29914   0.808   1.496   4.163  0.5289 -0.4463 -0.1102
 6093SOL    HW129915   0.843   1.442   4.233 -0.6801  0.2652  1.0438
 6093SOL    HW229916   0.747   1.552   4.212  0.4773  0.3512 -1.0968
 6094SOL     OW29917   3.762   0.244   4.002 -0.0029  0.6634  0.4525
 6094SOL    HW129918   3.732   0.154   3.988  0.8687  0.6072 -1.0382
 6094SOL    HW229919   3.722   0.247   4.089 -1.9412 -0.6175 -0.3928
 6095SOL     OW29920   4.511   1.303   5.389  0.0070 -0.6215  0.2366
 6095SOL    HW129921   4.423   1.338   5.375  0.5172  1.1627  1.4234
 6095SOL    HW229922   4.567   1.380   5.401 -0.2103 -0.3793 -0.2989
 6096SOL     OW29923   3.789   2.170   2.020 -0.1056  0.0878  0.2512
 6096SOL    HW129924   3.749   2.102   2.074  0.5767 -0.5175 -0.0129
 6096SOL    HW229925   3.719   2.234   2.036 -0.3748 -1.3184  4.8320
 6097SOL     OW29926   3.646   1.342   4.669  0.3707 -0.0758 -0.3695
 6097SOL    HW129927   3.628   1.249   4.656  1.5121 -0.2597 -0.7190
 6097SOL    HW229928   3.586   1.361   4.740  0.4923 -0.4419 -0.1711
 6098SOL     OW29929   3.487   3.640   2.831  0.1704 -0.4330  1.0486
 6098SOL    HW129930   3.463   3.653   2.739 -0.8916  0.4028  1.4456
 6098SOL    HW229931   3.561   3.700   2.826  0.3547 -0.7531 -0.1490
 6099SOL     OW29932   0.456   3.594   2.606 -0.3084 -0.4291 -0.2086
 6099SOL    HW129933   0.509   3.540   2.548  1.7426 -0.3557  1.5775
 6099SOL    HW229934   0.371   3.549   2.613 -0.0106 -1.0011 -0.2735
 6100SOL     OW29935   4.288   2.726   7.685 -0.7124  0.1654 -0.1997
 6100SOL    HW129936   4.331   2.647   7.717 -0.7158  0.2025 -0.1029
 6100SOL    HW229937   4.282   2.768   7.771 -0.2055  1.3364 -0.7310
 6101SOL     OW29938   3.873   4.408   4.888 -1.0180  0.1388  0.3558
 6101SOL    HW129939   3.850   4.347   4.818 -1.1910  1.2479 -0.5536
 6101SOL    HW229940   3.966   4.385   4.890 -0.9273  0.3703 -1.2670
 6102SOL     OW29941   4.504   3.032   3.142  0.4160  0.8911 -0.4014
 6102SOL    HW129942   4.504   3.107   3.201  1.5612  1.1190 -0.6767
 6102SOL    HW229943   4.570   2.980   3.187  1.5618 -0.3942 -3.5325
 6103SOL     OW29944   0.559   1.074  11.745  0.3031  0.2334 -0.2664
 6103SOL    HW129945   0.566   1.060  11.839 -0.6875  1.1560 -0.0625
 6103SOL    HW229946   0.473   1.116  11.742  0.6326  0.8490 -0.9978
 6104SOL     OW29947   4.100   1.041  13.507  0.2189 -0.2042 -0.6580
 6104SOL    HW129948   4.106   0.958  13.556  1.3988  1.3110  1.7498
 6104SOL    HW229949   4.025   1.013  13.454  1.8222 -1.1616 -2.3872
 6105SOL     OW29950   4.403   1.881   1.888 -0.0274 -0.2972  0.0752
 6105SOL    HW129951   4.406   1.809   1.951 -0.1493  0.2621  0.7225
 6105SOL    HW229952   4.332   1.863   1.827 -0.7666 -0.7932  1.0959
 6106SOL     OW29953   1.742   4.673   7.258 -0.0599 -0.3573 -0.0216
 6106SOL    HW129954   1.821   4.702   7.211 -0.4351  1.3462  0.4214
 6106SOL    HW229955   1.772   4.585   7.282 -0.5373 -0.4206  0.3360
 6107SOL     OW29956   2.598   3.231  14.193 -0.0011  0.3342  0.1632
 6107SOL    HW129957   2.668   3.184  14.238  1.4571 -0.0754 -2.5309
 6107SOL    HW229958   2.585   3.319  14.228  1.2783  0.0780  1.2486
 6108SOL     OW29959   1.325   1.051   6.282 -0.2679 -0.0449 -0.2037
 6108SOL    HW129960   1.351   1.120   6.221 -2.2043  0.6478 -0.2476
 6108SOL    HW229961   1.230   1.062   6.280 -0.5391 -1.8481  3.2373
 6109SOL     OW29962   3.510   4.450   3.918 -0.1034  0.1160 -0.2936
 6109SOL    HW129963   3.447   4.479   3.984  2.4027 -1.4389  2.7980
 6109SOL    HW229964   3.457   4.387   3.871  2.6510 -1.0862 -1.7820
 6110SOL     OW29965   1.765   1.678   6.527  0.4775  0.7010 -0.2746
 6110SOL    HW129966   1.836   1.741   6.520  1.5218 -0.4960 -0.4865
 6110SOL    HW229967   1.729   1.703   6.612  0.6737  1.4207 -0.4069
 6111SOL     OW29968   4.088   0.489   9.624  0.1637  0.1045 -0.7332
 6111SOL    HW129969   4.060   0.433   9.553 -1.2364  0.0214 -0.1119
 6111SOL    HW229970   4.116   0.562   9.569 -0.0573 -0.0899 -1.0988
 6112SOL     OW29971   4.730   4.538  16.557  0.1769 -0.0434 -0.3847
 6112SOL    HW129972   4.665   4.527  16.489 -0.2642 -0.2493  0.0737
 6112SOL    HW229973   4.724   4.633  16.569 -0.4031  0.0070 -1.1519
 6113SOL     OW29974   3.180   1.775  11.831 -0.1062 -0.4840 -0.0518
 6113SOL    HW129975   3.248   1.840  11.848 -0.8451 -0.2102  1.8362
 6113SOL    HW229976   3.171   1.778  11.736  1.9787  0.2687 -0.2407
 6114SOL     OW29977   2.697   0.370   7.790 -0.0501 -0.1123  0.2193
 6114SOL    HW129978   2.697   0.462   7.819  1.3359  0.4264 -1.5113
 6114SOL    HW229979   2.628   0.335   7.847  0.3663 -0.8430  0.2759
 6115SOL     OW29980   0.795   2.710  13.119  0.1959 -0.1750 -0.3786
 6115SOL    HW129981   0.832   2.639  13.172 -1.3417 -0.5251  0.2526
 6115SOL    HW229982   0.827   2.787  13.166  0.3330 -0.6467  0.2969
 6116SOL     OW29983   0.825   1.022   9.819  0.0361 -0.6647 -0.5823
 6116SOL    HW129984   0.745   1.043   9.868 -0.0028  1.7754 -1.6952
 6116SOL    HW229985   0.866   0.960   9.879 -0.0267 -0.2544 -0.1097
 6117SOL     OW29986   1.524   3.393   9.173 -0.7753  0.2297 -0.4454
 6117SOL    HW129987   1.470   3.469   9.190 -1.3973 -0.2330 -0.3665
 6117SOL    HW229988   1.525   3.387   9.077  1.9428  1.0510 -0.4720
 6118SOL     OW29989   4.451   4.204   5.562  0.4286 -0.0197  0.3478
 6118SOL    HW129990   4.544   4.224   5.569  0.5661  0.2360 -2.4077
 6118SOL    HW229991   4.450   4.108   5.571  0.9644 -0.0218  0.3643
 6119SOL     OW29992   3.244   3.917   5.833 -0.4845  0.3946 -0.0642
 6119SOL    HW129993   3.326   3.883   5.797 -1.2893 -0.5545 -0.9892
 6119SOL    HW229994   3.181   3.846   5.819 -2.2815  2.1916 -1.1334
 6120SOL     OW29995   2.774   0.358   5.876 -0.3081  0.4274 -0.4253
 6120SOL    HW129996   2.843   0.300   5.846 -1.1017 -1.4846  1.4892
 6120SOL    HW229997   2.705   0.310   5.922  0.9837 -2.7759 -1.8913
 6121SOL     OW29998   3.287   0.790   8.803 -0.0181 -0.2836 -0.1277
 6121SOL    HW129999   3.241   0.746   8.732 -1.3635  0.0930  0.5080
 6121SOL    HW230000   3.294   0.880   8.769 -1.1518 -0.6457 -1.3054
 6122SOL     OW30001   1.731   4.696   0.784  0.4381  0.2492 -0.1456
 6122SOL    HW130002   1.708   4.675   0.874  1.1306  0.5179  0.0927
 6122SOL    HW230003   1.826   4.697   0.793  0.4863 -1.3463 -0.4649
 6123SOL     OW30004   4.134   0.046   8.697 -0.0755  0.1633 -0.1022
 6123SOL    HW130005   4.045   0.016   8.714  0.2467 -0.2608  0.8594
 6123SOL    HW230006   4.131   0.051   8.602 -1.1343  1.5913  0.0133
 6124SOL     OW30007   1.608   1.038   5.928 -0.4786 -0.3886 -0.0580
 6124SOL    HW130008   1.623   0.962   5.871 -0.4578  0.3261 -1.0058
 6124SOL    HW230009   1.681   1.095   5.905  0.9389 -2.6139 -1.0453
 6125SOL     OW30010   2.237   0.518   8.626  0.6193  0.6359 -0.4524
 6125SOL    HW130011   2.185   0.536   8.549 -2.0229  0.3308  1.2636
 6125SOL    HW230012   2.214   0.426   8.636 -0.0210  0.7381 -0.9918
 6126SOL     OW30013   3.086   2.538   2.052  0.7455 -0.0772  0.2375
 6126SOL    HW130014   3.171   2.525   2.095 -0.9616 -3.4002  2.6232
 6126SOL    HW230015   3.041   2.456   2.073 -2.9200  2.0551  0.7017
 6127SOL     OW30016   2.092   3.176   2.068 -0.3058 -0.0596 -0.0161
 6127SOL    HW130017   2.044   3.201   1.990 -0.5563 -2.0756 -0.5178
 6127SOL    HW230018   2.039   3.219   2.135  1.1411 -0.4974  1.4175
 6128SOL     OW30019   1.783   3.276   7.132  0.2058  0.2848  0.4092
 6128SOL    HW130020   1.729   3.284   7.211  0.1909  0.5395  0.3701
 6128SOL    HW230021   1.800   3.182   7.125  1.6674  0.5798  0.0317
 6129SOL     OW30022   2.744   2.442   6.887 -0.2676  0.3995  0.2664
 6129SOL    HW130023   2.723   2.377   6.820  1.0108  0.3852 -0.1321
 6129SOL    HW230024   2.808   2.393   6.938  1.0231 -0.2336 -1.9325
 6130SOL     OW30025   0.357   2.914   3.016 -0.2007  0.0922 -0.6263
 6130SOL    HW130026   0.415   2.856   3.065 -0.8463 -1.7578 -2.0629
 6130SOL    HW230027   0.402   2.999   3.020  2.9209 -1.5922  0.4393
 6131SOL     OW30028   4.582   2.410  10.574 -0.2472 -0.0831 -0.3392
 6131SOL    HW130029   4.644   2.433  10.643  0.5111 -0.5271 -0.8773
 6131SOL    HW230030   4.542   2.495  10.557 -3.4516 -1.2253  1.3520
 6132SOL     OW30031   0.388   4.330  13.211  0.3522  0.4062  0.8709
 6132SOL    HW130032   0.345   4.245  13.198 -2.0717  1.7153  0.3090
 6132SOL    HW230033   0.320   4.388  13.179 -2.0284 -2.6254  0.4077
 6133SOL     OW30034   3.475   0.451   0.122 -0.0435  0.3898  0.1686
 6133SOL    HW130035   3.542   0.509   0.087  0.0113 -0.4730 -1.1474
 6133SOL    HW230036   3.528   0.373   0.138 -0.8581 -0.3763 -0.8330
 6134SOL     OW30037   1.568   4.278   7.552 -0.6203  0.2540  0.2319
 6134SOL    HW130038   1.577   4.185   7.531 -0.6405  0.4901 -0.8255
 6134SOL    HW230039   1.546   4.319   7.468  3.7296  1.9737 -0.0532
 6135SOL     OW30040   1.007   0.249   2.957 -0.3198 -0.2266  0.2226
 6135SOL    HW130041   0.930   0.235   2.902  0.3604  0.4027 -0.8834
 6135SOL    HW230042   0.980   0.318   3.017  1.0608  0.7793 -0.3200
 6136SOL     OW30043   4.381   1.947  15.678  0.5497  0.0604 -0.8945
 6136SOL    HW130044   4.367   1.966  15.585 -1.0023 -1.4893 -0.9696
 6136SOL    HW230045   4.315   1.998  15.725  0.1117  0.0450 -1.4960
 6137SOL     OW30046   2.680   3.540  17.038 -0.2386 -0.3497  0.3689
 6137SOL    HW130047   2.595   3.531  16.995 -1.2920 -0.1540  2.4437
 6137SOL    HW230048   2.662   3.620  17.087  3.9334  1.1919 -0.5602
 6138SOL     OW30049   2.178   0.280   6.394  0.7978 -0.0770  0.2719
 6138SOL    HW130050   2.190   0.321   6.308 -0.4018  2.6067  1.3636
 6138SOL    HW230051   2.101   0.225   6.377 -1.2011  2.0174  2.4270
 6139SOL     OW30052   1.234   3.965   9.193  0.3746 -0.2382 -0.3061
 6139SOL    HW130053   1.326   3.952   9.169  0.3520 -2.4543  0.7539
 6139SOL    HW230054   1.205   3.874   9.185 -0.1000 -0.2662  1.6502
 6140SOL     OW30055   3.377   1.908   3.874 -0.0568  0.8065 -0.0779
 6140SOL    HW130056   3.384   1.961   3.794 -1.3265  0.4405 -0.4295
 6140SOL    HW230057   3.436   1.835   3.863  1.8717  2.1341  1.4091
 6141SOL     OW30058   0.486   0.716  14.908  0.1100  0.1178 -0.0640
 6141SOL    HW130059   0.518   0.720  14.998  2.6335  0.1439 -0.9460
 6141SOL    HW230060   0.411   0.774  14.919 -0.0998 -0.0609 -0.5167
 6142SOL     OW30061   3.269   2.340   9.824  0.0201 -0.4258  0.2117
 6142SOL    HW130062   3.312   2.332   9.909  0.7404 -0.9282 -0.1967
 6142SOL    HW230063   3.235   2.429   9.829 -1.2746 -1.0969  3.2484
 6143SOL     OW30064   2.596   2.081  11.048  0.1275 -0.3038 -0.0401
 6143SOL    HW130065   2.689   2.086  11.029 -0.3533  1.4979 -2.0051
 6143SOL    HW230066   2.588   1.986  11.059  0.1336 -0.3356 -0.3060
 6144SOL     OW30067   0.810   1.820   6.306  0.2100 -0.1380 -0.1070
 6144SOL    HW130068   0.765   1.739   6.331 -0.7462 -0.0857 -1.6776
 6144SOL    HW230069   0.839   1.855   6.390 -0.6804 -0.0317  0.1562
 6145SOL     OW30070   2.814   3.951   8.701  0.0675 -0.0256  0.1217
 6145SOL    HW130071   2.730   3.963   8.747  0.0532  1.4455 -0.2820
 6145SOL    HW230072   2.819   4.031   8.649  0.2047 -1.0080 -1.3789
 6146SOL     OW30073   3.805   2.049   0.278  0.1835  0.2328 -0.1684
 6146SOL    HW130074   3.820   2.131   0.230  0.3595 -0.5907 -1.5169
 6146SOL    HW230075   3.881   1.994   0.263 -0.5975 -0.5688 -1.2268
 6147SOL     OW30076   4.305   0.548   2.047 -0.1789  0.4078 -0.1430
 6147SOL    HW130077   4.326   0.640   2.033  0.6735  0.2438  0.0630
 6147SOL    HW230078   4.367   0.527   2.117 -0.5039  0.9988  0.3204
 6148SOL     OW30079   1.191   4.076   5.628 -0.3131  0.3171  0.5084
 6148SOL    HW130080   1.104   4.113   5.644  0.2939  1.3106  1.5222
 6148SOL    HW230081   1.211   4.019   5.702 -0.1756  1.0268  1.0174
 6149SOL     OW30082   2.141   2.155   4.892  0.1235 -0.6848 -0.2004
 6149SOL    HW130083   2.147   2.118   4.980  1.2248 -3.7009 -1.5502
 6149SOL    HW230084   2.211   2.220   4.893 -0.5029 -0.0273  0.3564
 6150SOL     OW30085   2.879   0.414  15.937  0.3428 -0.1167 -0.0469
 6150SOL    HW130086   2.960   0.457  15.909  0.1882 -0.2190 -0.6469
 6150SOL    HW230087   2.843   0.488  15.986 -0.8101  0.2706 -1.5012
 6151SOL     OW30088   0.211   0.482   6.480 -0.0337 -0.1652  0.4954
 6151SOL    HW130089   0.255   0.564   6.460 -0.9885  0.5905  1.5099
 6151SOL    HW230090   0.165   0.509   6.559 -0.2309  2.7302 -0.6316
 6152SOL     OW30091   3.759   1.455   5.985  0.1125 -0.1664  0.1522
 6152SOL    HW130092   3.697   1.454   6.059 -0.4581  1.0833 -0.3147
 6152SOL    HW230093   3.786   1.547   5.987 -2.0403  0.4495  1.2817
 6153SOL     OW30094   2.975   4.505  13.012 -0.8284  0.2622 -0.1211
 6153SOL    HW130095   3.029   4.477  13.085  0.2222  1.9068 -0.2702
 6153SOL    HW230096   2.891   4.466  13.039 -0.3841  0.7982  1.9619
 6154SOL     OW30097   1.539   0.400   0.778  0.3397  0.6353 -0.1976
 6154SOL    HW130098   1.513   0.355   0.858  0.4584  1.3039  0.2164
 6154SOL    HW230099   1.529   0.489   0.811  0.6927 -0.0089  1.6403
 6155SOL     OW30100   2.489   0.450   6.962  0.3873  0.1469 -0.6875
 6155SOL    HW130101   2.442   0.514   6.908 -2.3810 -1.3264  0.0095
 6155SOL    HW230102   2.580   0.459   6.935  0.4687  1.5505  0.0616
 6156SOL     OW30103   4.164   0.479   5.697  0.6661 -0.7941  0.3191
 6156SOL    HW130104   4.079   0.499   5.736 -0.8730 -0.8869 -2.9763
 6156SOL    HW230105   4.147   0.508   5.608  1.3544  0.5220  0.6237
 6157SOL     OW30106   0.416   4.526  13.399 -0.3330  0.6050  0.2799
 6157SOL    HW130107   0.456   4.448  13.359  1.6384  0.6330  2.2179
 6157SOL    HW230108   0.326   4.495  13.390 -0.5503  1.0592  0.9465
 6158SOL     OW30109   3.080   1.070  14.327  0.0322  0.1709  0.0410
 6158SOL    HW130110   3.078   1.048  14.420  0.5149  0.6740  0.1732
 6158SOL    HW230111   3.116   0.984  14.301 -2.2859 -0.4791 -0.9921
 6159SOL     OW30112   0.212   1.923  11.449 -0.7357  0.3965 -0.5100
 6159SOL    HW130113   0.141   1.922  11.385 -0.8590  0.9443 -0.3738
 6159SOL    HW230114   0.247   2.011  11.443  0.4332 -0.0168  0.1401
 6160SOL     OW30115   4.108   4.247   3.553 -0.6736  0.0777  0.5176
 6160SOL    HW130116   4.052   4.259   3.476  0.4910  2.1461 -0.0237
 6160SOL    HW230117   4.060   4.297   3.618  0.8280 -0.7791  2.2731
 6161SOL     OW30118   0.615   1.797   8.208 -0.6276 -0.2403  0.7546
 6161SOL    HW130119   0.668   1.733   8.256  0.3063 -0.2348 -0.2734
 6161SOL    HW230120   0.590   1.742   8.133 -0.3486 -0.5866  0.9132
 6162SOL     OW30121   0.475   1.407   2.057  0.5087  0.2122  0.0543
 6162SOL    HW130122   0.560   1.364   2.065  0.1902 -0.5962 -0.9754
 6162SOL    HW230123   0.440   1.391   2.145 -1.3501 -1.5222 -0.9836
 6163SOL     OW30124   0.146   0.349   3.778  0.1007  0.5654  0.1310
 6163SOL    HW130125   0.056   0.322   3.796  0.2401  0.5553  0.8266
 6163SOL    HW230126   0.191   0.308   3.852 -0.8197  0.5255  0.6753
 6164SOL     OW30127   3.900   0.733   2.795  0.2488 -0.5221  0.7817
 6164SOL    HW130128   3.918   0.733   2.889  2.0790  0.7588  0.4345
 6164SOL    HW230129   3.873   0.642   2.786 -1.3938  0.2793 -2.1173
 6165SOL     OW30130   4.328   3.452   1.973 -0.1796  0.1213 -0.1684
 6165SOL    HW130131   4.387   3.416   2.040 -0.1723 -0.3859 -0.4487
 6165SOL    HW230132   4.355   3.543   1.978  0.8742 -0.3164  2.4914
 6166SOL     OW30133   0.134   3.722  17.081  0.3919  0.0944  0.0694
 6166SOL    HW130134   0.072   3.689  17.016  1.7137  1.2607 -1.7972
 6166SOL    HW230135   0.188   3.645  17.099  2.0931  1.1788 -0.3747
 6167SOL     OW30136   0.857   2.271  13.365  0.3679 -0.1854 -0.8347
 6167SOL    HW130137   0.761   2.276  13.363  0.4206  0.3898 -1.7133
 6167SOL    HW230138   0.881   2.179  13.359  0.5116 -0.0592 -2.0100
 6168SOL     OW30139   4.553   3.480  17.185  0.4597 -0.5410 -0.8416
 6168SOL    HW130140   4.584   3.494  17.096  1.8005  2.0731  0.0120
 6168SOL    HW230141   4.621   3.510  17.245  0.2015  2.0325 -1.8004
 6169SOL     OW30142   1.150   1.832   7.166 -0.1834  0.1713  0.2090
 6169SOL    HW130143   1.126   1.871   7.250 -1.6236  0.1297 -0.1840
 6169SOL    HW230144   1.232   1.784   7.179  0.8353  1.7327 -0.4358
 6170SOL     OW30145   1.122   0.644   9.689  0.0162 -0.3688  0.6119
 6170SOL    HW130146   1.120   0.550   9.674 -4.1797 -0.2065  0.1519
 6170SOL    HW230147   1.034   0.677   9.669 -0.0098 -1.0337 -0.3231
 6171SOL     OW30148   0.039   0.611   2.835  0.7581 -0.0582  0.3147
 6171SOL    HW130149   0.052   0.599   2.741 -2.3954  0.4365 -0.1744
 6171SOL    HW230150   4.692   0.658   2.830 -0.0373 -1.5827 -0.7663
 6172SOL     OW30151   0.563   1.102  12.824 -0.1085 -0.4820  0.2604
 6172SOL    HW130152   0.530   1.121  12.912 -0.8671  2.2105 -0.6121
 6172SOL    HW230153   0.650   1.066  12.844 -0.2497 -0.5310  0.7755
 6173SOL     OW30154   2.924   4.535   2.338  0.6359  0.1083  0.0946
 6173SOL    HW130155   2.967   4.619   2.355  0.4055 -0.0444  1.4470
 6173SOL    HW230156   2.997   4.475   2.324  1.4937  0.9405  1.0370
 6174SOL     OW30157   0.273   1.261   4.881 -0.0608  0.1765 -0.2690
 6174SOL    HW130158   0.213   1.189   4.865  0.3215 -0.2669  0.2782
 6174SOL    HW230159   0.318   1.226   4.959  1.0875 -1.3866 -1.6263
 6175SOL     OW30160   0.023   4.060  14.206 -0.0876 -0.3476 -0.3706
 6175SOL    HW130161   4.670   4.057  14.241  0.3048 -2.2667  0.4492
 6175SOL    HW230162   0.067   4.128  14.256 -1.9634 -0.6411  1.6792
 6176SOL     OW30163   1.298   2.116   9.226  0.4070 -0.6482  0.0758
 6176SOL    HW130164   1.388   2.085   9.239  0.0273 -1.8853 -0.2961
 6176SOL    HW230165   1.286   2.149   9.315 -1.1195 -0.0199 -0.3699
 6177SOL     OW30166   0.083   2.277   3.150 -0.7088 -0.2333  0.1682
 6177SOL    HW130167   0.094   2.272   3.055 -2.6660  1.2852 -0.1349
 6177SOL    HW230168   0.074   2.184   3.169  0.3241 -0.6607 -1.5336
 6178SOL     OW30169   4.501   1.478   6.605  0.3903  0.0010  0.5158
 6178SOL    HW130170   4.481   1.541   6.673 -1.1589  2.1116 -1.9033
 6178SOL    HW230171   4.434   1.410   6.610  1.1365 -0.8090 -0.3289
 6179SOL     OW30172   2.983   1.599   4.380 -0.3512 -0.0241  0.1206
 6179SOL    HW130173   3.026   1.600   4.294  2.7297 -2.0403  1.6420
 6179SOL    HW230174   3.023   1.675   4.423 -0.7620  0.0181  0.4186
 6180SOL     OW30175   2.844   1.229   8.706 -0.2660 -0.0394  0.2332
 6180SOL    HW130176   2.766   1.179   8.680  0.6167 -0.6555 -1.2029
 6180SOL    HW230177   2.908   1.186   8.650  1.0617  2.5866 -0.2443
 6181SOL     OW30178   2.512   3.844   1.936  0.0435  0.1998 -0.0883
 6181SOL    HW130179   2.518   3.749   1.951 -0.9420  0.0894 -0.3980
 6181SOL    HW230180   2.505   3.849   1.841 -3.4901  1.9583  0.2797
 6182SOL     OW30181   1.230   4.467   6.452 -0.1301 -0.2208 -0.1136
 6182SOL    HW130182   1.311   4.421   6.471 -0.5595 -0.6080  0.7451
 6182SOL    HW230183   1.207   4.515   6.531  0.6843 -0.3531  0.1959
 6183SOL     OW30184   1.875   0.218   2.818  0.7419  0.1091 -0.2856
 6183SOL    HW130185   1.891   0.150   2.883 -1.8276  1.0187  1.3209
 6183SOL    HW230186   1.838   0.287   2.874  0.0146 -0.9701  0.5509
 6184SOL     OW30187   4.526   1.470  17.474  0.1470 -0.5589 -0.0669
 6184SOL    HW130188   4.493   1.400  17.530  3.2389 -3.1136 -1.4452
 6184SOL    HW230189   4.601   1.425  17.435 -0.0537  1.0215 -2.2611
 6185SOL     OW30190   1.167   2.562   7.490 -0.0049  0.1446 -0.6648
 6185SOL    HW130191   1.176   2.471   7.517  1.5820 -0.0781 -1.9400
 6185SOL    HW230192   1.072   2.576   7.485 -0.0309  0.2533  0.1876
 6186SOL     OW30193   0.316   2.242   0.423  0.3160 -0.0218 -0.4126
 6186SOL    HW130194   0.289   2.287   0.503  0.2570 -1.3252  0.3035
 6186SOL    HW230195   0.402   2.213   0.457 -1.1100 -3.3234  0.4102
 6187SOL     OW30196   3.179   2.102   0.233 -0.1657 -0.0553 -0.4339
 6187SOL    HW130197   3.160   2.146   0.150 -2.1153  1.1080  0.6302
 6187SOL    HW230198   3.147   2.165   0.297  1.7391 -0.0667  0.5524
 6188SOL     OW30199   1.082   2.846  10.372 -0.0342  0.2880  0.8223
 6188SOL    HW130200   1.038   2.927  10.344 -1.0906 -0.6192 -0.1737
 6188SOL    HW230201   1.147   2.883  10.432  0.0777  0.0678  0.8355
 6189SOL     OW30202   1.143   2.938   9.016  0.2124 -0.0112  0.3746
 6189SOL    HW130203   1.231   2.900   9.006  0.8711  1.9590 -1.3442
 6189SOL    HW230204   1.119   2.969   8.929 -2.4012  0.3008  1.2077
 6190SOL     OW30205   0.928   4.058  15.190 -0.4870  0.2027 -0.3270
 6190SOL    HW130206   1.015   4.078  15.226  0.7392 -1.7704 -2.1642
 6190SOL    HW230207   0.945   4.046  15.096 -1.8377  0.7767 -0.6345
 6191SOL     OW30208   1.687   3.901  17.705  0.5035  0.1257  0.5491
 6191SOL    HW130209   1.595   3.875  17.717  1.3880 -2.2911  2.0968
 6191SOL    HW230210   1.725   3.882   0.049  1.3738  2.9122  0.7660
 6192SOL     OW30211   3.807   2.976   5.258 -0.0021  0.5193  0.7765
 6192SOL    HW130212   3.884   2.947   5.306  0.9433  3.5990  1.1035
 6192SOL    HW230213   3.818   2.936   5.172 -1.8953 -0.7070  1.0945
 6193SOL     OW30214   2.937   3.676  13.084  0.0013 -0.0885  0.2357
 6193SOL    HW130215   2.973   3.591  13.061 -1.5239 -0.8540  0.7043
 6193SOL    HW230216   2.973   3.679  13.172 -0.3337 -0.0357  0.3702
 6194SOL     OW30217   2.080   2.970  13.497  0.6021  0.1971  0.0454
 6194SOL    HW130218   2.086   2.882  13.461 -1.6068  0.3250 -0.6501
 6194SOL    HW230219   2.171   2.985  13.522  0.6062  0.2397  0.0048
 6195SOL     OW30220   0.006   2.656  14.772 -0.1726  0.0128  0.3729
 6195SOL    HW130221   0.060   2.684  14.699 -1.6468  0.1963 -0.6426
 6195SOL    HW230222   4.681   2.598  14.726 -0.7575  0.0990  1.0457
 6196SOL     OW30223   0.420   4.404  14.278 -0.4802  0.1394  0.6365
 6196SOL    HW130224   0.424   4.314  14.310  0.7230  0.8562  2.5272
 6196SOL    HW230225   0.495   4.444  14.321  1.4173 -2.8252  0.1293
 6197SOL     OW30226   4.549   4.550   4.989  0.0294  0.2581  0.3173
 6197SOL    HW130227   4.461   4.524   4.963  1.5655 -1.0368 -3.6363
 6197SOL    HW230228   4.573   4.497   5.065  0.0063  1.0062  0.8434
 6198SOL     OW30229   0.604   4.455   7.394 -0.4103  0.2988  0.3274
 6198SOL    HW130230   0.542   4.510   7.443 -1.3672 -0.3525 -0.1463
 6198SOL    HW230231   0.537   4.419   7.336  0.7841  1.0962 -1.5252
 6199SOL     OW30232   1.172   0.962   4.192 -0.3583  0.4277  0.3351
 6199SOL    HW130233   1.212   0.966   4.279  0.4755 -3.2376  0.1541
 6199SOL    HW230234   1.109   0.891   4.201  1.2848 -1.1846 -0.8171
 6200SOL     OW30235   2.780   2.235  13.981 -0.0869 -0.2921  0.3823
 6200SOL    HW130236   2.780   2.226  13.886  0.4072  3.3861  0.0413
 6200SOL    HW230237   2.785   2.330  13.989  0.3580 -0.4029  1.4371
 6201SOL     OW30238   1.578   1.738   8.489  0.1405 -0.2482 -0.1176
 6201SOL    HW130239   1.621   1.823   8.501 -0.3272  0.1378 -1.1838
 6201SOL    HW230240   1.496   1.750   8.539  1.7259 -0.1834  2.4621
 6202SOL     OW30241   0.624   2.605   7.294 -0.4476  0.3285  0.0011
 6202SOL    HW130242   0.673   2.616   7.213 -1.3880  2.2110 -0.3054
 6202SOL    HW230243   0.685   2.627   7.364 -0.4504  2.0958 -0.5668
 6203SOL     OW30244   0.938   4.319   7.181 -0.4100  0.1887  0.3755
 6203SOL    HW130245   0.998   4.251   7.152  2.6597  1.9642  2.5823
 6203SOL    HW230246   0.900   4.284   7.262 -1.3067 -1.2558 -0.6838
 6204SOL     OW30247   3.581   2.737   9.977  0.1155  0.0878  0.2368
 6204SOL    HW130248   3.668   2.699   9.991  0.4781 -0.2794 -2.9348
 6204SOL    HW230249   3.523   2.679  10.026 -0.5525  0.7669  0.2508
 6205SOL     OW30250   2.562   3.567   8.489  0.1124 -0.7985 -0.4103
 6205SOL    HW130251   2.580   3.551   8.582 -1.3671 -0.6320 -0.0977
 6205SOL    HW230252   2.524   3.655   8.498 -2.9160 -2.0210 -1.4652
 6206SOL     OW30253   4.230   2.596   4.470  0.2145  0.3885  0.3649
 6206SOL    HW130254   4.289   2.596   4.394  0.3740 -0.7422  0.4900
 6206SOL    HW230255   4.277   2.655   4.529  2.9444 -1.8271  0.4294
 6207SOL     OW30256   3.705   0.636   5.217 -0.1835  0.3109  0.2464
 6207SOL    HW130257   3.748   0.667   5.297 -1.6562 -0.0590  1.1694
 6207SOL    HW230258   3.612   0.653   5.233  0.0960  1.2640  0.8882
 6208SOL     OW30259   4.045   3.394   4.293  0.0200 -0.4386  0.1800
 6208SOL    HW130260   4.029   3.419   4.202  1.5468  0.1043  0.0456
 6208SOL    HW230261   4.106   3.463   4.322  0.2291 -0.9494  0.9388
 6209SOL     OW30262   4.374   4.168   7.225  0.4425 -0.2458  0.1703
 6209SOL    HW130263   4.408   4.085   7.261 -1.0618 -0.3957  1.2586
 6209SOL    HW230264   4.332   4.202   7.304  0.8846  1.3371 -0.2770
 6210SOL     OW30265   3.431   1.334   3.494 -0.1662  0.1191 -0.1589
 6210SOL    HW130266   3.364   1.401   3.504  2.8062  3.3040 -1.5728
 6210SOL    HW230267   3.437   1.317   3.400  0.4684 -2.0177  0.2558
 6211SOL     OW30268   1.206   1.083   8.226  0.3382  0.3563 -0.0251
 6211SOL    HW130269   1.239   1.020   8.290  1.4077  3.0109  1.9987
 6211SOL    HW230270   1.174   1.031   8.152  2.3826  0.3145 -0.8697
 6212SOL     OW30271   2.501   4.296   6.779 -0.2132  0.4492  0.0381
 6212SOL    HW130272   2.559   4.223   6.798  1.1608  2.2978  2.7747
 6212SOL    HW230273   2.458   4.305   6.864 -3.5430  0.6378 -1.6290
 6213SOL     OW30274   2.832   4.005   7.828 -0.0732 -0.1982 -0.3329
 6213SOL    HW130275   2.826   4.099   7.845 -1.1163 -0.2272 -0.5783
 6213SOL    HW230276   2.922   3.992   7.798  0.2097 -0.3013  0.5679
 6214SOL     OW30277   4.298   0.199   7.584  0.0647  0.1687  0.2755
 6214SOL    HW130278   4.367   0.133   7.576 -1.6188 -1.4738 -0.6781
 6214SOL    HW230279   4.229   0.174   7.522 -0.8104  1.1394  0.8462
 6215SOL     OW30280   4.288   3.404   4.628  0.2141  0.4797  0.0184
 6215SOL    HW130281   4.263   3.319   4.662  0.8793  0.1744 -0.2506
 6215SOL    HW230282   4.372   3.413   4.674  0.0920 -1.1228  0.5298
 6216SOL     OW30283   3.395   0.300   2.501  0.0183 -0.0348 -0.9027
 6216SOL    HW130284   3.405   0.262   2.414  0.2208  3.3302 -2.3809
 6216SOL    HW230285   3.345   0.240   2.556  1.0416  0.0045  0.0492
 6217SOL     OW30286   1.606   2.490   2.952 -0.2226 -0.3472  0.3614
 6217SOL    HW130287   1.542   2.436   2.998 -1.7980 -1.2369 -2.9199
 6217SOL    HW230288   1.570   2.574   2.982 -0.9917 -0.2915 -0.7517
 6218SOL     OW30289   2.448   4.207   1.819  0.1043 -0.3323  0.4616
 6218SOL    HW130290   2.451   4.256   1.901 -0.3506  1.7051 -0.7568
 6218SOL    HW230291   2.482   4.276   1.763  0.0696 -2.4148 -2.1360
 6219SOL     OW30292   1.973   2.904  14.194 -0.6124 -0.9424 -0.2946
 6219SOL    HW130293   1.916   2.900  14.117 -1.3153  0.3933  0.1456
 6219SOL    HW230294   1.973   2.811  14.217 -1.3586 -1.3633 -2.0329
 6220SOL     OW30295   1.726   2.359   2.174  0.6154 -0.0864 -0.0353
 6220SOL    HW130296   1.809   2.342   2.220  0.3028 -0.5758  0.3487
 6220SOL    HW230297   1.765   2.342   2.088 -2.3939  0.4539 -1.4905
 6221SOL     OW30298   1.115   4.722  12.809 -0.1861  0.6385  0.4401
 6221SOL    HW130299   1.153   4.662  12.745  2.1862 -0.0377  2.4816
 6221SOL    HW230300   1.123   0.069  12.763 -0.8726  0.2346 -0.4152
 6222SOL     OW30301   0.018   3.373   7.755 -0.1884 -0.8292 -0.8609
 6222SOL    HW130302   0.103   3.369   7.710 -0.7449 -1.0051 -1.9081
 6222SOL    HW230303   0.015   3.298   7.814 -0.2735 -1.1078 -1.2159
 6223SOL     OW30304   0.345   4.056   3.479 -0.2170  0.4798  0.6480
 6223SOL    HW130305   0.252   4.058   3.454 -0.3939  0.1164  1.2976
 6223SOL    HW230306   0.368   4.149   3.488 -0.2697  0.4208  1.3461
 6224SOL     OW30307   4.367   2.229   3.755  0.1498 -0.2902 -0.0098
 6224SOL    HW130308   4.308   2.249   3.828  0.2820 -0.8222  0.2424
 6224SOL    HW230309   4.320   2.156   3.714 -0.0659  0.7903 -1.7045
 6225SOL     OW30310   2.867   0.607   0.059 -0.0911  0.3520  0.4181
 6225SOL    HW130311   2.940   0.587   0.000 -2.4343 -0.1045 -2.3464
 6225SOL    HW230312   2.865   0.539   0.126 -0.5370  0.9930  1.0542
 6226SOL     OW30313   3.275   1.749   8.767 -0.0673 -0.2593 -0.2598
 6226SOL    HW130314   3.311   1.701   8.842 -1.1650 -0.4858  0.1233
 6226SOL    HW230315   3.209   1.798   8.817  1.4247 -0.8289  2.2408
 6227SOL     OW30316   1.411   3.737   0.232 -0.5307 -0.0765  0.4880
 6227SOL    HW130317   1.354   3.787   0.290  0.4799  1.5089  0.1160
 6227SOL    HW230318   1.486   3.730   0.291 -1.0872 -0.1784  1.1753
 6228SOL     OW30319   4.049   1.763   4.305 -0.1812  0.6308  0.2273
 6228SOL    HW130320   4.135   1.775   4.345 -0.1377  0.4530  0.1854
 6228SOL    HW230321   4.010   1.836   4.353 -0.0288  2.0085 -1.7702
 6229SOL     OW30322   4.070   4.032  11.576  0.3532  0.9187  0.1006
 6229SOL    HW130323   4.082   4.052  11.484  0.1712 -1.3518 -0.4205
 6229SOL    HW230324   4.137   3.965  11.593 -0.2917  0.0528 -0.7357
 6230SOL     OW30325   2.552   1.119   2.385  0.2045  0.0068 -0.2812
 6230SOL    HW130326   2.623   1.070   2.426  0.9249  1.2765 -0.0368
 6230SOL    HW230327   2.549   1.061   2.308  0.8074 -1.3084  0.6840
 6231SOL     OW30328   2.798   4.119  14.524 -0.6271  0.0902  0.0739
 6231SOL    HW130329   2.746   4.076  14.455 -0.4481 -0.7417  0.4558
 6231SOL    HW230330   2.780   4.207  14.490 -3.3799  0.0986  1.5621
 6232SOL     OW30331   2.589   4.334   4.436 -0.2667  0.0096  0.3602
 6232SOL    HW130332   2.513   4.350   4.378  0.0979  2.5556  0.5851
 6232SOL    HW230333   2.577   4.252   4.483  1.3855 -0.6457 -0.3712
 6233SOL     OW30334   2.818   4.399  16.474  0.1750 -0.1808 -0.2294
 6233SOL    HW130335   2.732   4.383  16.433 -0.3651  3.2071 -0.3994
 6233SOL    HW230336   2.855   4.426  16.390 -3.8779  1.1788 -1.5886
 6234SOL     OW30337   2.095   1.476   1.687 -0.2008  0.1104  0.0264
 6234SOL    HW130338   2.167   1.426   1.725 -0.5157  1.8331  2.8490
 6234SOL    HW230339   2.131   1.555   1.647  0.2610 -0.5612 -0.9038
 6235SOL     OW30340   4.318   3.759   5.589 -0.1909 -0.1343  0.3686
 6235SOL    HW130341   4.247   3.819   5.612 -1.6939 -1.5987 -0.4056
 6235SOL    HW230342   4.318   3.710   5.671  1.3689  1.2737  1.1990
 6236SOL     OW30343   4.615   4.015   5.276  0.3988 -0.3831  0.1048
 6236SOL    HW130344   4.625   4.085   5.211  3.3316 -1.6516 -0.8301
 6236SOL    HW230345   4.543   3.954   5.262  0.2194 -0.0468 -0.4762
 6237SOL     OW30346   0.167   3.513   4.056 -0.1629  0.2532 -0.1906
 6237SOL    HW130347   0.261   3.519   4.038 -0.0557  1.7458  0.7995
 6237SOL    HW230348   0.117   3.535   3.978  0.4915  1.0299 -0.3954
 6238SOL     OW30349   3.368   0.872   1.583  0.2379 -0.7279  0.3794
 6238SOL    HW130350   3.435   0.910   1.526  0.9887  0.3774  2.0093
 6238SOL    HW230351   3.318   0.811   1.529 -1.6452  1.0221  0.1417
 6239SOL     OW30352   3.404   2.337   3.951  0.0123 -0.7368  0.1821
 6239SOL    HW130353   3.318   2.378   3.964  0.5057 -0.8034  3.6175
 6239SOL    HW230354   3.412   2.361   3.859  1.3118  1.7761  0.9376
 6240SOL     OW30355   1.343   1.500   6.077  0.2024  0.8070 -0.7124
 6240SOL    HW130356   1.358   1.591   6.051  2.8200 -0.2533 -2.7901
 6240SOL    HW230357   1.344   1.462   5.990  1.6428 -0.3294 -0.2111
 6241SOL     OW30358   4.660   3.165   3.394 -0.0634  0.2433  0.6278
 6241SOL    HW130359   4.659   3.113   3.475 -0.1906 -0.3756  0.2307
 6241SOL    HW230360   4.615   3.247   3.411 -2.0214 -0.7011 -0.0013
 6242SOL     OW30361   4.432   3.076   5.848  0.1217  0.1492 -0.3435
 6242SOL    HW130362   4.480   3.112   5.921  0.9472 -0.2146 -0.7120
 6242SOL    HW230363   4.346   3.102   5.882  0.3922  0.5360  0.0337
 6243SOL     OW30364   4.329   2.155   4.254  0.2124 -0.5596  0.0463
 6243SOL    HW130365   4.258   2.186   4.309 -0.8197  0.7240 -2.0300
 6243SOL    HW230366   4.314   2.060   4.257 -0.1305 -0.4757  1.2076
 6244SOL     OW30367   0.194   2.410   7.178 -0.0131  0.0549  0.1149
 6244SOL    HW130368   0.148   2.485   7.216  0.2369  0.7010 -0.8295
 6244SOL    HW230369   0.276   2.410   7.228  0.9379  0.9432 -1.4304
 6245SOL     OW30370   4.112   3.100   6.917  0.0222 -0.3147  0.0341
 6245SOL    HW130371   4.136   3.192   6.904 -0.0372 -0.4098 -0.7411
 6245SOL    HW230372   4.171   3.061   6.852 -0.3310 -2.5035  1.0123
 6246SOL     OW30373   3.884   2.959   4.915  0.4000  0.5435  0.6990
 6246SOL    HW130374   3.875   2.872   4.876 -0.4224  1.0928 -0.3520
 6246SOL    HW230375   3.978   2.975   4.919  1.1675 -3.2315 -2.1893
 6247SOL     OW30376   0.225   1.012   4.251 -0.2467 -0.3063  0.1420
 6247SOL    HW130377   0.162   1.078   4.223  0.5196  0.3024 -0.1685
 6247SOL    HW230378   0.212   1.006   4.346  1.5489 -0.7151  0.3811
 6248SOL     OW30379   0.880   0.630   8.893 -0.0093  0.5622  0.2638
 6248SOL    HW130380   0.841   0.683   8.823 -0.0207  0.2559  0.0397
 6248SOL    HW230381   0.852   0.676   8.972 -0.1942  0.1559  0.4360
 6249SOL     OW30382   0.580   3.456  16.775 -0.0682  0.4683  0.6039
 6249SOL    HW130383   0.595   3.516  16.702 -2.8392 -1.1614 -1.2621
 6249SOL    HW230384   0.492   3.488  16.795 -0.3884  0.2379 -0.4507
 6250SOL     OW30385   0.048   3.516  11.366 -0.3342 -0.1966  0.2363
 6250SOL    HW130386   0.143   3.526  11.360 -0.1785 -1.3639  0.8731
 6250SOL    HW230387   0.012   3.589  11.315  0.9076  1.3702  1.6232
 6251SOL     OW30388   3.680   4.320   8.752 -0.0558  0.0871  0.1563
 6251SOL    HW130389   3.721   4.238   8.778 -0.7407 -0.0264  0.8605
 6251SOL    HW230390   3.589   4.299   8.734 -0.2448 -1.1093  2.4873
 6252SOL     OW30391   3.821   2.305   6.640 -0.5842 -0.0543  0.1088
 6252SOL    HW130392   3.732   2.337   6.624 -1.0537 -1.1790  0.4120
 6252SOL    HW230393   3.863   2.387   6.617 -1.5395  0.7369  1.2184
 6253SOL     OW30394   1.440   4.183   2.866  0.2377  0.4934 -0.0952
 6253SOL    HW130395   1.403   4.217   2.785 -1.3508 -0.0645  0.4066
 6253SOL    HW230396   1.357   4.151   2.902  1.4812  0.1906  2.5357
 6254SOL     OW30397   4.454   2.634   8.040 -0.7839 -0.9975  0.4443
 6254SOL    HW130398   4.472   2.688   8.117  1.5843  0.7008 -1.3177
 6254SOL    HW230399   4.468   2.694   7.967  0.6105 -1.4199  0.3621
 6255SOL     OW30400   2.687   2.899   4.809  0.0088  0.3287 -0.1239
 6255SOL    HW130401   2.642   2.963   4.863 -1.6359 -0.7925 -0.1612
 6255SOL    HW230402   2.776   2.922   4.835 -0.2471 -0.3623  1.3428
 6256SOL     OW30403   3.457   0.279   1.534 -0.2698 -0.0028 -0.3219
 6256SOL    HW130404   3.505   0.212   1.485 -0.0476  0.6463 -1.0005
 6256SOL    HW230405   3.481   0.257   1.624 -1.8851 -0.7916 -0.0937
 6257SOL     OW30406   3.296   3.165   7.662 -0.4759  0.3518 -1.0196
 6257SOL    HW130407   3.361   3.235   7.656  0.6508 -0.3639  2.9314
 6257SOL    HW230408   3.266   3.164   7.753 -0.8744  0.7350 -1.1498
 6258SOL     OW30409   0.696   0.533  10.118 -0.4923  0.2599 -0.3966
 6258SOL    HW130410   0.721   0.613  10.164  0.7629  0.4176 -1.3476
 6258SOL    HW230411   0.735   0.552  10.032  0.1164  1.6888  0.2028
 6259SOL     OW30412   1.665   2.694   6.561 -0.1876  0.3688 -0.2322
 6259SOL    HW130413   1.619   2.613   6.540  0.3800  0.3067 -1.2651
 6259SOL    HW230414   1.755   2.675   6.533  0.9718  2.0083  2.3746
 6260SOL     OW30415   3.266   2.930   6.995  0.2472 -0.3494  0.5560
 6260SOL    HW130416   3.358   2.910   7.012  1.0429  1.3438 -1.7060
 6260SOL    HW230417   3.286   3.010   6.947 -0.4826 -1.0842 -0.9630
 6261SOL     OW30418   2.678   2.748  15.541 -0.3695  0.1782  0.1743
 6261SOL    HW130419   2.686   2.726  15.448  0.5499 -0.0702  0.3076
 6261SOL    HW230420   2.595   2.708  15.567  0.4177 -1.2814  0.4511
 6262SOL     OW30421   2.710   0.147   7.193  0.4091 -0.6997  0.3365
 6262SOL    HW130422   2.768   0.218   7.165 -0.3946 -1.3181 -2.9614
 6262SOL    HW230423   2.647   0.202   7.239 -0.9650 -1.9670 -0.0655
 6263SOL     OW30424   2.777   2.724  15.848  0.7192  0.0342 -0.4703
 6263SOL    HW130425   2.755   2.749  15.758  1.2354  1.2351 -0.2631
 6263SOL    HW230426   2.762   2.630  15.855  1.4878 -0.0166  0.4614
 6264SOL     OW30427   0.150   2.846   8.006  0.3358  0.5100  0.0837
 6264SOL    HW130428   0.104   2.813   7.929  0.7123  2.9094 -1.1722
 6264SOL    HW230429   0.081   2.845   8.072 -1.2357  0.5083 -1.5720
 6265SOL     OW30430   0.613   1.474  12.910  0.7050 -0.1980 -0.1074
 6265SOL    HW130431   0.594   1.383  12.931 -1.7697  0.3412 -0.0367
 6265SOL    HW230432   0.707   1.458  12.900  0.9101  0.8920  0.0630
 6266SOL     OW30433   4.590   4.586   1.380  0.0830 -0.4030  0.3005
 6266SOL    HW130434   4.675   4.566   1.340 -0.3830  1.7239 -1.8003
 6266SOL    HW230435   4.617   4.637   1.456  1.5490 -0.0684 -0.4404
 6267SOL     OW30436   3.931   1.238  17.389  0.1890  0.7718  0.8270
 6267SOL    HW130437   3.906   1.146  17.381  1.4422  0.4011  1.1750
 6267SOL    HW230438   4.019   1.222  17.423 -0.0025 -1.1576  0.3903
 6268SOL     OW30439   2.209   3.312   2.545  0.0096 -0.1059  0.3769
 6268SOL    HW130440   2.123   3.278   2.521 -0.3496  2.6068 -2.2046
 6268SOL    HW230441   2.210   3.280   2.635  0.2650 -1.3771 -0.0759
 6269SOL     OW30442   4.543   1.054  11.095  0.2350 -0.0491 -0.0871
 6269SOL    HW130443   4.495   1.125  11.053 -0.2033 -0.1650  0.2160
 6269SOL    HW230444   4.488   1.016  11.163  0.6386  2.3883  1.6006
 6270SOL     OW30445   2.114   4.042   2.170 -0.9209  0.0002  0.6881
 6270SOL    HW130446   2.170   4.021   2.096 -0.7555 -2.9257  1.6367
 6270SOL    HW230447   2.029   4.024   2.130 -0.5554  0.3668 -0.2499
 6271SOL     OW30448   3.108   0.647   4.451 -0.2567 -0.1650  0.0818
 6271SOL    HW130449   3.151   0.732   4.449 -0.4033 -0.1000 -0.2260
 6271SOL    HW230450   3.044   0.657   4.522  1.0331  4.7939  0.4906
 6272SOL     OW30451   2.164   3.546   5.424 -0.1247 -0.5480  0.3670
 6272SOL    HW130452   2.226   3.612   5.455 -0.3851 -0.6834  1.1719
 6272SOL    HW230453   2.212   3.467   5.448  0.2067 -0.3974  0.1963
 6273SOL     OW30454   2.714   4.201   2.073 -0.0891 -0.0819 -0.4151
 6273SOL    HW130455   2.642   4.257   2.043 -1.0047 -0.5924  0.8307
 6273SOL    HW230456   2.732   4.153   1.993  1.0145 -0.6950  0.1994
 6274SOL     OW30457   0.306   4.540   5.015 -0.0015  0.2779 -0.2120
 6274SOL    HW130458   0.308   4.610   5.081 -1.3014  0.5962 -0.5127
 6274SOL    HW230459   0.386   4.498   5.048  1.1276  0.2850 -2.9390
 6275SOL     OW30460   1.869   3.379   4.635  0.2144 -0.1482  0.6263
 6275SOL    HW130461   1.817   3.450   4.596  2.8622  0.4383 -1.7759
 6275SOL    HW230462   1.956   3.402   4.604 -0.1014  1.9033  1.2595
 6276SOL     OW30463   1.679   0.975   1.874 -0.1148 -0.3355  0.3091
 6276SOL    HW130464   1.712   0.998   1.787 -0.7264 -3.6503 -0.8304
 6276SOL    HW230465   1.745   1.013   1.932  0.6937 -1.3386  0.0464
 6277SOL     OW30466   3.523   4.727   4.928  0.3767 -0.0152  0.0220
 6277SOL    HW130467   3.611   4.698   4.906 -0.4877 -2.6067  0.0439
 6277SOL    HW230468   3.479   4.646   4.952  0.8646 -0.9361 -2.1408
 6278SOL     OW30469   0.281   0.062   0.210  0.0994  0.1660 -0.7156
 6278SOL    HW130470   0.288   0.072   0.115  2.3247 -1.1811 -0.6871
 6278SOL    HW230471   0.279   4.702   0.206 -1.1046  0.1646 -0.2001
 6279SOL     OW30472   0.471   4.254   5.652 -0.1610 -0.5405 -0.4363
 6279SOL    HW130473   0.443   4.342   5.628  2.5210 -0.0372 -1.7384
 6279SOL    HW230474   0.393   4.219   5.695 -0.6411  0.4449 -0.5068
 6280SOL     OW30475   1.949   3.857   3.291  0.2276 -0.0559  0.3382
 6280SOL    HW130476   1.896   3.849   3.370 -0.5031 -2.7341 -0.4152
 6280SOL    HW230477   1.883   3.839   3.225  2.2550 -0.4784 -1.5843
 6281SOL     OW30478   3.884   2.861   4.277 -0.3959 -0.4235  0.8731
 6281SOL    HW130479   3.789   2.853   4.287 -0.5008 -0.0396  0.2165
 6281SOL    HW230480   3.905   2.882   4.368 -0.2251 -0.0948  0.7589
 6282SOL     OW30481   4.483   0.274   0.006  0.2901  0.2561  0.2208
 6282SOL    HW130482   4.516   0.359  17.719 -0.5440 -0.2360 -2.1344
 6282SOL    HW230483   4.441   0.297   0.089 -2.0315  2.0627 -1.4448
 6283SOL     OW30484   1.613   4.028  14.972  0.0941 -0.2877 -0.5571
 6283SOL    HW130485   1.550   3.960  14.997  2.3218 -2.3617 -0.6373
 6283SOL    HW230486   1.681   4.008  15.035 -2.4022 -2.7589  1.3565
 6284SOL     OW30487   3.567   4.141   3.949  0.2087 -0.0830 -0.1164
 6284SOL    HW130488   3.537   4.207   4.011 -0.1150 -0.7810  0.4703
 6284SOL    HW230489   3.531   4.172   3.866 -0.6524 -0.4760  0.1187
 6285SOL     OW30490   1.051   1.195   2.604  0.0890 -0.3807  0.3502
 6285SOL    HW130491   1.085   1.113   2.640  1.0209 -0.2615 -0.2629
 6285SOL    HW230492   0.957   1.194   2.623 -0.5051 -0.2163 -2.5942
 6286SOL     OW30493   1.706   0.383   5.421 -0.4126  0.2030 -0.2494
 6286SOL    HW130494   1.630   0.363   5.477 -0.5824  2.5468  0.3600
 6286SOL    HW230495   1.728   0.294   5.397 -2.1745 -0.2631 -0.1492
 6287SOL     OW30496   4.434   1.500  14.095  0.2370  0.5012  0.5302
 6287SOL    HW130497   4.387   1.523  14.175 -0.8088 -0.9559  0.3466
 6287SOL    HW230498   4.409   1.408  14.089 -1.5990  1.0868 -0.8759
 6288SOL     OW30499   0.354   3.970   7.018 -0.3234  0.1668 -0.5676
 6288SOL    HW130500   0.433   4.008   6.980  1.1186 -1.5082  0.7327
 6288SOL    HW230501   0.384   3.881   7.038  1.6368  0.6941 -1.1610
 6289SOL     OW30502   2.166   1.565   5.844  0.5765  0.0854 -0.2747
 6289SOL    HW130503   2.090   1.588   5.791  1.8414  0.0893 -2.0820
 6289SOL    HW230504   2.185   1.655   5.869 -0.1865  0.3056 -0.5199
 6290SOL     OW30505   1.425   2.616   8.126 -0.0497  0.0095  0.0679
 6290SOL    HW130506   1.355   2.679   8.147 -0.6193  0.0101 -1.8954
 6290SOL    HW230507   1.482   2.675   8.078  1.1701 -1.8557 -0.7427
 6291SOL     OW30508   3.127   4.275   7.500  0.8585  0.3279 -0.2778
 6291SOL    HW130509   3.219   4.264   7.476  0.1278 -0.6655 -2.6415
 6291SOL    HW230510   3.139   4.298   7.592  2.7658  0.4179 -0.5467
 6292SOL     OW30511   3.245   1.448   7.183  0.3067 -0.1088 -0.1165
 6292SOL    HW130512   3.201   1.406   7.109 -0.2140 -0.7057  0.5265
 6292SOL    HW230513   3.294   1.371   7.212  1.1624 -0.0123 -1.3202
 6293SOL     OW30514   3.223   3.778  16.222  0.0944  0.1108 -0.5691
 6293SOL    HW130515   3.185   3.857  16.260  0.3229 -0.6650  1.2649
 6293SOL    HW230516   3.149   3.718  16.233 -0.1645  0.4264 -0.6041
 6294SOL     OW30517   0.073   3.028  16.536  0.2498  0.6028  0.2008
 6294SOL    HW130518   0.083   3.104  16.477 -0.1363  1.9278  1.8577
 6294SOL    HW230519   0.164   2.998  16.540 -0.1031 -0.5605 -0.4703
 6295SOL     OW30520   4.439   1.225   0.914  0.5089  0.2824  0.0125
 6295SOL    HW130521   4.425   1.227   0.819  0.9228 -0.2743 -0.0647
 6295SOL    HW230522   4.389   1.298   0.950  0.4330  0.2417 -0.0081
 6296SOL     OW30523   4.080   4.563   4.208  0.9011  0.6833 -0.2174
 6296SOL    HW130524   4.016   4.535   4.273  1.7605 -1.2001 -0.1794
 6296SOL    HW230525   4.058   4.497   4.142 -0.1025 -0.6642  1.4608
 6297SOL     OW30526   3.532   1.361   1.998  0.1707 -0.9204  0.2519
 6297SOL    HW130527   3.480   1.308   1.937 -0.2678  0.1946 -0.3548
 6297SOL    HW230528   3.613   1.353   1.949  0.3547 -4.1383  1.1191
 6298SOL     OW30529   4.600   1.967   5.927 -0.0989 -0.3639  0.1447
 6298SOL    HW130530   4.680   2.019   5.935  1.1245 -1.9101 -1.8432
 6298SOL    HW230531   4.564   2.001   5.845  0.7316  0.4408  0.1099
 6299SOL     OW30532   2.024   0.788   0.636 -0.1936 -0.1813 -0.5782
 6299SOL    HW130533   2.065   0.708   0.670  0.3710 -0.1377 -1.1439
 6299SOL    HW230534   1.967   0.809   0.710  1.1475 -0.0636  0.4200
 6300SOL     OW30535   3.111   3.645   8.769  0.2149  0.5461  0.1141
 6300SOL    HW130536   3.020   3.642   8.737  0.6067 -1.1605 -0.8286
 6300SOL    HW230537   3.129   3.730   8.807 -0.9738  1.3494 -1.1103
 6301SOL     OW30538   0.216   4.005   8.384 -0.6769 -0.2123  0.2001
 6301SOL    HW130539   0.159   3.934   8.415  0.5690 -0.9090  0.8933
 6301SOL    HW230540   0.163   4.044   8.314  2.1074  1.4707 -0.9646
 6302SOL     OW30541   2.791   1.310   7.782  0.2892 -0.2821  0.0186
 6302SOL    HW130542   2.860   1.376   7.783  0.1707 -0.1567 -0.2003
 6302SOL    HW230543   2.827   1.231   7.741  1.3591  0.1731  0.0928
 6303SOL     OW30544   1.889   4.720   9.726 -0.1598 -0.3022 -0.3572
 6303SOL    HW130545   1.806   0.031   9.717 -0.7076 -1.2732 -0.3940
 6303SOL    HW230546   1.947   0.054   9.696 -2.4301  1.2754 -1.1386
 6304SOL     OW30547   1.370   3.710   5.084 -0.5858 -0.1253  0.0885
 6304SOL    HW130548   1.459   3.699   5.051 -1.3745  2.0750 -2.7995
 6304SOL    HW230549   1.386   3.788   5.137 -2.2303  0.3638 -0.1422
 6305SOL     OW30550   0.349   3.702   8.285 -0.6647  0.0701  0.0403
 6305SOL    HW130551   0.269   3.681   8.332  0.1246  0.2539  1.4793
 6305SOL    HW230552   0.404   3.634   8.323 -0.7884  0.8091  1.5249
 6306SOL     OW30553   2.856   1.180   2.340  0.3267  0.3147  0.1957
 6306SOL    HW130554   2.831   1.233   2.265 -4.0171 -1.4355  0.4251
 6306SOL    HW230555   2.812   1.096   2.327 -0.6079  0.3388  3.1200
 6307SOL     OW30556   1.119   4.059   7.480 -0.1994 -0.4349 -0.1634
 6307SOL    HW130557   1.124   4.154   7.481 -1.0515 -0.3943  0.8607
 6307SOL    HW230558   1.088   4.037   7.393 -2.2642  0.9966  0.2095
 6308SOL     OW30559   2.312   3.451   8.496  0.0478 -0.1788  0.2644
 6308SOL    HW130560   2.272   3.482   8.577 -0.2808 -0.4103  0.1927
 6308SOL    HW230561   2.382   3.516   8.489 -0.9203  0.5267 -2.8217
 6309SOL     OW30562   4.158   1.597   1.908  0.3311  0.5106 -0.5730
 6309SOL    HW130563   4.120   1.665   1.852 -0.5360 -0.2456 -0.8972
 6309SOL    HW230564   4.239   1.567   1.867  0.6806  2.5061 -1.3430
 6310SOL     OW30565   4.151   0.453   7.472  0.2922 -0.4186  0.6234
 6310SOL    HW130566   4.184   0.468   7.560  2.4068 -0.2824 -0.1844
 6310SOL    HW230567   4.229   0.461   7.417  0.8109  2.6397  1.8197
 6311SOL     OW30568   4.552   3.671   8.108  0.5610  0.0422 -0.0229
 6311SOL    HW130569   4.639   3.666   8.068  0.5920  2.3415 -0.2157
 6311SOL    HW230570   4.550   3.762   8.138 -1.1003 -0.2323  0.7211
 6312SOL     OW30571   2.086   3.961   2.684  0.3449  0.3928 -0.1241
 6312SOL    HW130572   2.105   3.982   2.592  0.9212  0.6067  0.0435
 6312SOL    HW230573   2.161   3.902   2.690  0.2209  0.0668 -1.5929
 6313SOL     OW30574   2.559   0.471   3.388 -0.4724  0.3026 -0.4900
 6313SOL    HW130575   2.468   0.456   3.416  0.0365 -1.1390  0.3553
 6313SOL    HW230576   2.542   0.490   3.295  1.7552 -1.6821 -1.2693
 6314SOL     OW30577   4.236   1.379   7.022  0.4905  0.1845  0.0485
 6314SOL    HW130578   4.167   1.360   6.958  0.8924  1.4517 -0.7666
 6314SOL    HW230579   4.186   1.430   7.086  0.3514  3.5407 -2.7531
 6315SOL     OW30580   2.643   1.418   5.419  0.0529 -0.3936  0.0698
 6315SOL    HW130581   2.602   1.468   5.489  0.8985  1.3958 -0.7131
 6315SOL    HW230582   2.717   1.470   5.387 -0.5196  1.2805  1.4745
 6316SOL     OW30583   2.344   2.633   6.660  0.6966  0.1927 -0.2605
 6316SOL    HW130584   2.341   2.616   6.754 -0.0766  0.2177 -0.2787
 6316SOL    HW230585   2.437   2.619   6.641  0.5618  2.6005 -2.7472
 6317SOL     OW30586   2.440   3.331   2.898  0.0450 -0.0222  0.2205
 6317SOL    HW130587   2.489   3.393   2.844  1.5123 -1.2781  0.0861
 6317SOL    HW230588   2.461   3.254   2.845 -1.0872 -0.6335  0.6571
 6318SOL     OW30589   3.703   1.456   2.941  0.4642 -0.4814  0.3706
 6318SOL    HW130590   3.786   1.501   2.921 -0.4355  1.5491  1.2070
 6318SOL    HW230591   3.716   1.382   2.881  0.4534 -0.0112 -0.2178
 6319SOL     OW30592   4.001   4.015   7.866 -0.4304 -0.5844  0.1112
 6319SOL    HW130593   3.998   4.062   7.783 -3.1510 -1.1398 -0.1098
 6319SOL    HW230594   3.954   3.935   7.843 -2.6328  0.5934  0.4941
 6320SOL     OW30595   2.945   0.839  13.636  0.2044  0.6298 -0.3679
 6320SOL    HW130596   3.003   0.867  13.708  0.8602 -0.4479 -0.4749
 6320SOL    HW230597   2.886   0.786  13.689 -1.2715  3.5056  0.8358
 6321SOL     OW30598   1.123   3.202   5.379 -0.6078  0.1383 -0.1830
 6321SOL    HW130599   1.093   3.111   5.387  1.0616 -0.3612  0.4535
 6321SOL    HW230600   1.181   3.191   5.304 -0.4153  1.3897 -0.2124
 6322SOL     OW30601   4.091   2.435  10.469  0.1583 -0.0560  0.2303
 6322SOL    HW130602   4.029   2.483  10.414  0.6605  1.7780  1.2689
 6322SOL    HW230603   4.147   2.399  10.400 -0.4703  0.1620 -0.3921
 6323SOL     OW30604   3.043   0.279   2.267 -1.3184  0.7134  0.0140
 6323SOL    HW130605   3.000   0.354   2.226  0.9781  1.4699 -0.9789
 6323SOL    HW230606   3.106   0.326   2.321  0.1665  0.2568 -1.3492
 6324SOL     OW30607   2.662   0.778  17.189 -0.3615  0.1223  0.5925
 6324SOL    HW130608   2.625   0.694  17.217  0.9682 -0.9752 -0.9071
 6324SOL    HW230609   2.727   0.791  17.258 -1.9819  1.0568  1.9197
 6325SOL     OW30610   0.108   4.156  16.860  0.0362  0.0314  0.2663
 6325SOL    HW130611   0.159   4.176  16.781 -0.7332  1.3305  0.1104
 6325SOL    HW230612   0.025   4.196  16.838  0.3572  0.1579 -0.7043
 6326SOL     OW30613   2.269   3.870  14.306  0.7516  0.3629  0.4674
 6326SOL    HW130614   2.332   3.879  14.234 -1.0666 -0.5492 -1.2433
 6326SOL    HW230615   2.210   3.942  14.283 -0.6881 -0.0817  2.8088
 6327SOL     OW30616   2.857   2.201   8.815  0.3208 -0.2631 -0.0169
 6327SOL    HW130617   2.843   2.253   8.736  3.0203 -0.5411 -0.6498
 6327SOL    HW230618   2.951   2.185   8.817  0.3550 -0.0270  0.2016
 6328SOL     OW30619   1.021   3.128   7.025  0.6857 -0.2007 -0.1270
 6328SOL    HW130620   1.094   3.131   7.086 -1.0027  0.7409  1.8593
 6328SOL    HW230621   0.967   3.204   7.047 -0.7768 -0.6628 -2.0921
 6329SOL     OW30622   1.500   0.195   7.494 -0.0478  0.0771  0.1230
 6329SOL    HW130623   1.528   0.211   7.404  2.7923 -0.2016  0.9530
 6329SOL    HW230624   1.432   0.261   7.500  0.0216 -0.0255  2.1401
 6330SOL     OW30625   3.714   3.036  16.804 -0.5561  0.2375 -0.3842
 6330SOL    HW130626   3.786   2.993  16.850  0.5206  2.2060 -0.2667
 6330SOL    HW230627   3.643   3.008  16.861  0.1609  0.2890  0.5346
 6331SOL     OW30628   4.397   3.857   5.327  0.2737 -0.0483  0.0907
 6331SOL    HW130629   4.372   3.830   5.415  0.5414  0.8827  0.4525
 6331SOL    HW230630   4.400   3.772   5.283  3.1377 -0.4350  1.0843
 6332SOL     OW30631   1.392   1.894   6.899  0.5563 -0.0816  0.2684
 6332SOL    HW130632   1.475   1.939   6.910 -0.8034  3.4586 -4.0544
 6332SOL    HW230633   1.329   1.959   6.929  0.8693  0.2070  0.2967
 6333SOL     OW30634   2.092   3.236   3.179 -0.6785  0.1023  0.1580
 6333SOL    HW130635   2.170   3.198   3.218 -0.1989 -0.3963 -1.2935
 6333SOL    HW230636   2.126   3.302   3.118  1.9290 -0.1323  1.3583
 6334SOL     OW30637   1.817   3.948  10.499  0.4335  0.8103  0.9061
 6334SOL    HW130638   1.830   3.981  10.410 -0.7242  2.3889  1.3120
 6334SOL    HW230639   1.909   3.930  10.520  1.3493  2.0227 -2.0697
 6335SOL     OW30640   2.290   2.643  11.569  0.0531 -0.6635 -0.2337
 6335SOL    HW130641   2.272   2.587  11.645 -0.3474 -1.7287 -1.1122
 6335SOL    HW230642   2.220   2.709  11.564 -0.8928 -1.4903  1.9473
 6336SOL     OW30643   3.889   2.171   9.810  0.6420  0.2644  0.0521
 6336SOL    HW130644   3.797   2.168   9.784  0.8237 -1.4808 -0.4005
 6336SOL    HW230645   3.931   2.218   9.739 -1.2764  3.3640  0.9884
 6337SOL     OW30646   2.133   3.201  11.904 -0.3739 -0.1806 -0.2589
 6337SOL    HW130647   2.131   3.112  11.939 -0.3371  0.4093  1.2077
 6337SOL    HW230648   2.227   3.218  11.898 -0.5499  1.5224  2.0273
 6338SOL     OW30649   2.108   1.972   9.107 -0.8842  0.2082 -0.3294
 6338SOL    HW130650   2.151   1.949   9.189 -0.2072  0.0715 -0.7188
 6338SOL    HW230651   2.178   1.968   9.042 -0.8748  1.0037 -0.3723
 6339SOL     OW30652   0.046   0.069   5.292 -1.2977 -0.4505  0.1432
 6339SOL    HW130653   4.690   0.056   5.270 -0.4443  0.0926 -3.7055
 6339SOL    HW230654   0.053   0.159   5.260  0.3394 -0.8230 -0.5151
 6340SOL     OW30655   2.709   3.352  11.531 -0.4304 -0.2714  0.1041
 6340SOL    HW130656   2.752   3.362  11.616 -0.3282 -1.0083  0.1434
 6340SOL    HW230657   2.773   3.380  11.466 -2.4297  0.8664 -1.3696
 6341SOL     OW30658   1.894   0.618  16.237 -0.0459  0.7752  0.5468
 6341SOL    HW130659   1.828   0.551  16.255  1.1504 -0.8351 -1.0048
 6341SOL    HW230660   1.973   0.566  16.251 -0.9838 -0.9630 -0.6056
 6342SOL     OW30661   3.029   3.720   3.879 -0.0334 -0.3869  0.0120
 6342SOL    HW130662   3.117   3.713   3.843  0.2901  0.4263  0.6221
 6342SOL    HW230663   2.986   3.662   3.816  0.9338 -2.8183  1.6186
 6343SOL     OW30664   2.886   4.626   6.094  0.4680  0.4463 -0.6218
 6343SOL    HW130665   2.953   4.691   6.074  0.4032  0.7235  0.0640
 6343SOL    HW230666   2.927   4.566   6.157 -0.6872  1.0574  0.7259
 6344SOL     OW30667   0.710   1.724   5.707  0.3117  0.0557 -0.0648
 6344SOL    HW130668   0.717   1.706   5.801  0.4818  1.6522  0.2412
 6344SOL    HW230669   0.751   1.646   5.672  1.6895  1.0697 -0.7316
 6345SOL     OW30670   3.542   0.497   2.367  0.0028 -0.1353 -0.5063
 6345SOL    HW130671   3.482   0.433   2.405 -1.0226  0.8837 -0.4337
 6345SOL    HW230672   3.526   0.576   2.418  1.0449  0.6558 -1.3989
 6346SOL     OW30673   1.447   1.665   8.257  0.0747  0.5602 -0.0415
 6346SOL    HW130674   1.483   1.578   8.238 -1.3721 -0.3866  1.4851
 6346SOL    HW230675   1.512   1.700   8.318  1.3558 -2.4332  0.3229
 6347SOL     OW30676   4.393   1.768   6.712 -0.4686  0.5501 -0.3551
 6347SOL    HW130677   4.479   1.792   6.679  0.3139 -1.8196 -0.0639
 6347SOL    HW230678   4.351   1.848   6.745 -0.7422 -0.1019  0.8828
 6348SOL     OW30679   1.994   3.566   5.204 -0.0842  0.1671  0.0071
 6348SOL    HW130680   1.937   3.493   5.229  2.1882 -1.8508 -0.7116
 6348SOL    HW230681   2.058   3.562   5.274  1.1921  2.5444 -1.0098
 6349SOL     OW30682   0.199   1.618  11.054 -0.3946  0.2283 -0.0966
 6349SOL    HW130683   0.248   1.700  11.057 -2.0772  1.2786 -1.2332
 6349SOL    HW230684   0.267   1.559  11.085 -1.5307 -0.0024  1.9608
 6350SOL     OW30685   1.824   0.439   8.155 -0.2305  0.0468 -0.2025
 6350SOL    HW130686   1.781   0.481   8.230  1.1368 -0.0437  0.6205
 6350SOL    HW230687   1.763   0.365   8.150 -1.3340  0.7159  3.0612
 6351SOL     OW30688   3.236   4.018  15.851 -0.4935  0.2916  0.5197
 6351SOL    HW130689   3.193   4.058  15.927 -1.5810  0.0081  0.0508
 6351SOL    HW230690   3.171   3.983  15.790  0.0315 -0.5627  0.4416
 6352SOL     OW30691   4.381   0.749  11.980 -0.0587 -0.4200 -0.1893
 6352SOL    HW130692   4.416   0.669  11.942 -1.9243 -1.2157 -0.2086
 6352SOL    HW230693   4.316   0.712  12.040 -0.6650  4.2352  2.0331
 6353SOL     OW30694   4.612   2.622  15.794 -0.1746 -0.6091  0.6351
 6353SOL    HW130695   4.646   2.550  15.741 -2.8831 -1.2015 -0.2632
 6353SOL    HW230696   4.661   2.697  15.759 -1.6441  0.2482  0.4184
 6354SOL     OW30697   3.029   0.913   6.098  0.3108 -0.8849 -0.5893
 6354SOL    HW130698   3.062   0.827   6.070  0.5151 -0.6950 -0.9354
 6354SOL    HW230699   3.100   0.969   6.067 -1.3993  1.0459 -1.0439
 6355SOL     OW30700   2.824   0.335   6.421 -0.0621  0.8114  0.1461
 6355SOL    HW130701   2.799   0.428   6.418 -0.2264  0.7424 -0.5519
 6355SOL    HW230702   2.742   0.287   6.430  0.2797 -0.1093 -1.8951
 6356SOL     OW30703   2.303   3.316   5.530 -0.4849 -0.6543  0.7195
 6356SOL    HW130704   2.393   3.284   5.535  0.0037  0.6168 -0.0182
 6356SOL    HW230705   2.247   3.239   5.523 -1.5018  0.0959  0.4899
 6357SOL     OW30706   3.309   3.722   3.867  0.4596  0.3062 -0.4893
 6357SOL    HW130707   3.370   3.761   3.930  1.2849 -2.3918  0.4216
 6357SOL    HW230708   3.374   3.654   3.848 -1.0222 -1.5830  1.0784
 6358SOL     OW30709   0.380   1.341   3.574 -0.0848  0.2776  0.2022
 6358SOL    HW130710   0.406   1.399   3.645  0.9334 -0.9652  0.8475
 6358SOL    HW230711   0.458   1.287   3.562 -0.6722 -0.7541  1.0054
 6359SOL     OW30712   4.107   2.553  10.147  0.5732  0.0009 -0.3235
 6359SOL    HW130713   4.080   2.622  10.087 -0.1278  0.2718  0.3040
 6359SOL    HW230714   4.060   2.475  10.118  2.7559 -1.4576  0.0126
 6360SOL     OW30715   1.858   1.012   5.397 -0.5341 -0.0677  0.0211
 6360SOL    HW130716   1.936   0.957   5.405 -0.8509 -0.4563  0.4230
 6360SOL    HW230717   1.793   0.962   5.446 -0.6295  1.2430  1.2617
 6361SOL     OW30718   3.582   4.396   4.594  0.0288  0.2969  0.0212
 6361SOL    HW130719   3.504   4.381   4.647  0.6200 -2.6915  0.0117
 6361SOL    HW230720   3.549   4.376   4.507 -1.6316 -0.5656  0.8528
 6362SOL     OW30721   0.088   0.433   3.268  0.6511  0.2661  0.2164
 6362SOL    HW130722   0.101   0.402   3.358  2.2826 -0.1167 -0.1430
 6362SOL    HW230723   4.734   0.463   3.279  0.4650 -1.0437  2.1435
 6363SOL     OW30724   0.340   4.159  15.788 -0.2964  0.4606 -0.1683
 6363SOL    HW130725   0.309   4.071  15.808  0.6106  1.0718  3.9550
 6363SOL    HW230726   0.377   4.140  15.701 -1.3344 -0.6530 -0.3613
 6364SOL     OW30727   4.675   2.873   8.178  0.0265 -0.7056 -0.1736
 6364SOL    HW130728   4.673   2.909   8.267  0.8123 -1.5016  0.1716
 6364SOL    HW230729   4.601   2.916   8.135 -0.0754 -1.8169 -1.0918
 6365SOL     OW30730   3.760   2.523   9.467  0.1300 -0.0090  0.2447
 6365SOL    HW130731   3.799   2.542   9.381  0.6820  2.7406  1.0817
 6365SOL    HW230732   3.748   2.613   9.499 -1.8943 -0.4812  0.7597
 6366SOL     OW30733   3.158   0.032  17.056 -0.1060 -0.5265 -0.0553
 6366SOL    HW130734   3.144   0.101  16.991  3.6476 -1.9723 -2.4059
 6366SOL    HW230735   3.071   0.003  17.086  1.5771 -1.3141  4.1531
 6367SOL     OW30736   1.285   1.355   2.797  0.0574  0.3924 -0.0197
 6367SOL    HW130737   1.368   1.347   2.845 -1.0205 -0.2777  1.7115
 6367SOL    HW230738   1.302   1.290   2.729  0.5503 -0.1793  0.6546
 6368SOL     OW30739   0.833   3.861   2.081 -0.1350  0.3809 -0.1770
 6368SOL    HW130740   0.826   3.852   2.176  1.4071 -0.1617 -0.1180
 6368SOL    HW230741   0.861   3.772   2.061 -0.8026  0.3496 -0.9965
 6369SOL     OW30742   3.102   3.544   7.599  0.1467  0.8841 -0.5517
 6369SOL    HW130743   3.169   3.541   7.530 -0.1222  2.7809 -0.8907
 6369SOL    HW230744   3.082   3.637   7.601  1.9147  1.2420 -0.0996
 6370SOL     OW30745   3.772   1.343   6.913  0.5588 -0.5844 -0.2724
 6370SOL    HW130746   3.858   1.379   6.935 -0.2806  1.0571  0.2667
 6370SOL    HW230747   3.750   1.317   7.002  1.8367  0.0292  0.2258
 6371SOL     OW30748   0.861   0.309  16.612  0.1312 -0.5881 -0.2496
 6371SOL    HW130749   0.867   0.397  16.574  3.4873 -1.0908 -0.8515
 6371SOL    HW230750   0.784   0.313  16.668  0.1645 -1.7582 -0.1150
 6372SOL     OW30751   0.763   4.594  17.721 -0.2034  0.5118 -0.6335
 6372SOL    HW130752   0.704   4.628   0.045  0.0892  0.4321 -0.3386
 6372SOL    HW230753   0.707   4.562  17.650 -1.6471  2.6384 -0.4594
 6373SOL     OW30754   1.644   4.561   2.455  0.2655  0.0912  0.5256
 6373SOL    HW130755   1.637   4.474   2.494 -1.6333  0.1678  0.3847
 6373SOL    HW230756   1.690   4.616   2.519  1.8858 -0.8148  0.1219
 6374SOL     OW30757   4.045   0.702  14.353  0.0236  0.0746 -0.2926
 6374SOL    HW130758   4.111   0.738  14.412  2.1392 -1.1759 -1.9083
 6374SOL    HW230759   3.964   0.736  14.391  0.3632  0.5027  0.0482
 6375SOL     OW30760   3.358   3.887  14.705 -0.1410 -0.6872 -0.6552
 6375SOL    HW130761   3.425   3.906  14.771 -1.0898 -2.9932  0.9442
 6375SOL    HW230762   3.410   3.849  14.634  3.5642  0.5979  1.3547
 6376SOL     OW30763   1.852   1.398   1.558  0.6268  0.0500  0.2770
 6376SOL    HW130764   1.938   1.403   1.600  0.6391  1.1896  0.1141
 6376SOL    HW230765   1.812   1.343   1.626  1.0324 -0.2426  0.2808
 6377SOL     OW30766   3.850   2.084   6.285  0.5935 -0.3724 -0.5928
 6377SOL    HW130767   3.911   2.090   6.358 -0.4746  0.5090  0.2173
 6377SOL    HW230768   3.776   2.040   6.328  0.7522 -0.4296 -0.3822
 6378SOL     OW30769   3.491   1.185   0.241 -0.0551 -0.3329 -0.2821
 6378SOL    HW130770   3.434   1.140   0.179 -2.5533  1.0332  1.0518
 6378SOL    HW230771   3.581   1.164   0.215  0.4661 -0.2197  1.4006
 6379SOL     OW30772   0.053   4.299  14.889  0.5831  0.1290 -0.0597
 6379SOL    HW130773   4.705   4.273  14.851  0.4345 -0.3126  0.5626
 6379SOL    HW230774   0.080   4.224  14.942 -0.5242  0.6412  1.2468
 6380SOL     OW30775   1.807   2.324   7.592  0.5908  0.1197 -0.2150
 6380SOL    HW130776   1.736   2.286   7.541  1.4540 -0.0282 -1.3116
 6380SOL    HW230777   1.750   2.385   7.639 -0.0907 -0.7721  0.1008
 6381SOL     OW30778   0.720   2.389   6.044 -0.1225  0.0393  0.1823
 6381SOL    HW130779   0.670   2.420   6.119 -2.3385 -3.4900  0.1686
 6381SOL    HW230780   0.803   2.361   6.084 -0.0733  0.5423  0.4298
 6382SOL     OW30781   2.056   3.265  10.836 -0.8929  0.2521 -0.0612
 6382SOL    HW130782   2.088   3.327  10.770  3.9649 -1.7662  0.4022
 6382SOL    HW230783   2.004   3.206  10.782  0.4168 -1.3884  0.4687
 6383SOL     OW30784   3.463   0.489  11.376 -0.2098  0.6342 -0.2468
 6383SOL    HW130785   3.483   0.529  11.291 -2.6120  1.6510 -0.3209
 6383SOL    HW230786   3.556   0.473  11.394 -0.4747  0.5743  1.0254
 6384SOL     OW30787   4.302   1.145  11.533 -0.4699  0.5516  0.5422
 6384SOL    HW130788   4.312   1.080  11.602 -0.3483  0.2380  0.2269
 6384SOL    HW230789   4.206   1.144  11.521 -0.5167  0.9443  0.8951
 6385SOL     OW30790   0.002   3.445   5.157  0.3836 -0.1643  0.3389
 6385SOL    HW130791   4.732   3.423   5.249 -0.7501 -0.2275  0.2502
 6385SOL    HW230792   0.022   3.537   5.172 -0.2250 -0.0296  0.2993
 6386SOL     OW30793   1.821   1.607   3.654  0.2264  0.0734  0.2933
 6386SOL    HW130794   1.835   1.547   3.727  1.4250 -1.2183 -0.9929
 6386SOL    HW230795   1.726   1.613   3.648  0.3088  0.0249 -1.0995
 6387SOL     OW30796   4.177   0.348   3.454 -0.3962 -0.1298  0.1168
 6387SOL    HW130797   4.152   0.287   3.524 -0.3852 -0.2411  0.0231
 6387SOL    HW230798   4.192   0.428   3.506 -2.0961 -0.8238  1.6964
 6388SOL     OW30799   3.191   4.134  14.560  0.2702  0.8505  0.2153
 6388SOL    HW130800   3.223   4.215  14.599  3.1810 -0.1036 -0.1630
 6388SOL    HW230801   3.250   4.069  14.599 -2.5854 -1.5816  0.4512
 6389SOL     OW30802   2.183   0.174   2.058  0.4554 -0.5954  0.4565
 6389SOL    HW130803   2.160   0.223   1.980 -1.2725 -2.9811 -0.5104
 6389SOL    HW230804   2.227   0.249   2.099 -0.1114 -0.3621  0.6263
 6390SOL     OW30805   2.814   0.013   4.684  0.1213  0.0524 -0.2971
 6390SOL    HW130806   2.868   0.088   4.660  1.3339 -0.6918  0.1114
 6390SOL    HW230807   2.819   0.024   4.779  0.7203 -0.0051 -0.3212
 6391SOL     OW30808   0.748   4.226  14.618 -0.6712  0.2884 -0.2202
 6391SOL    HW130809   0.690   4.155  14.646  2.0271 -1.2634  1.4245
 6391SOL    HW230810   0.833   4.181  14.612  1.0576  3.4034  0.7763
 6392SOL     OW30811   4.602   1.339  17.198 -0.0807 -0.8584 -0.7119
 6392SOL    HW130812   4.511   1.314  17.179 -0.2694  0.6506 -1.8514
 6392SOL    HW230813   4.635   1.252  17.218  1.7258  0.3722  1.6007
 6393SOL     OW30814   0.177   3.983  16.244  0.1437 -0.4894  0.6658
 6393SOL    HW130815   0.196   3.956  16.334  0.9349 -0.3392  0.5394
 6393SOL    HW230816   0.213   4.072  16.243  0.2937 -0.5628 -1.0937
 6394SOL     OW30817   3.852   1.950   7.670  0.1789 -0.3490  0.7197
 6394SOL    HW130818   3.905   1.999   7.733  1.7754 -0.1622 -0.7787
 6394SOL    HW230819   3.765   1.981   7.698 -0.0769 -1.1480  0.8022
 6395SOL     OW30820   1.014   4.533   1.271 -0.1712 -0.7611  0.5103
 6395SOL    HW130821   0.973   4.576   1.346 -1.0604 -2.5070  1.0386
 6395SOL    HW230822   1.098   4.513   1.312  0.4890  0.4116 -0.2939
 6396SOL     OW30823   4.215   1.824   1.699  0.9615  0.3399 -0.0592
 6396SOL    HW130824   4.121   1.841   1.698  0.5447 -2.0015  0.3530
 6396SOL    HW230825   4.219   1.770   1.621 -2.4987 -1.8443  1.2920
 6397SOL     OW30826   0.984   4.684   7.230  0.0710 -0.0128 -0.3535
 6397SOL    HW130827   0.950   4.639   7.307 -1.1611 -1.4323 -1.7402
 6397SOL    HW230828   0.900   4.690   7.186 -0.2942  1.9919  0.5902
 6398SOL     OW30829   0.443   0.513   0.623 -0.7640  0.9171 -0.3762
 6398SOL    HW130830   0.364   0.549   0.664 -0.4772 -0.1198  1.0900
 6398SOL    HW230831   0.465   0.589   0.568 -0.8488 -0.5639 -2.4314
 6399SOL     OW30832   3.880   4.474   1.218  0.0371 -0.2359  0.5184
 6399SOL    HW130833   3.820   4.446   1.287 -0.7925 -0.4257 -0.2830
 6399SOL    HW230834   3.855   4.415   1.147  0.8800  0.0341  0.0057
 6400SOL     OW30835   2.717   0.841   6.338  0.0296  0.2050  0.0484
 6400SOL    HW130836   2.778   0.881   6.400  0.4486  0.4364 -0.5205
 6400SOL    HW230837   2.634   0.856   6.383  0.0435  1.2847 -0.3048
 6401SOL     OW30838   4.542   1.195   6.458 -0.4246 -0.2498  0.6433
 6401SOL    HW130839   4.472   1.175   6.395 -0.4386 -2.8412  1.4770
 6401SOL    HW230840   4.485   1.243   6.519  1.1552  1.3105  0.8862
 6402SOL     OW30841   1.986   1.234  12.321 -0.3145 -0.4082  0.2334
 6402SOL    HW130842   1.934   1.284  12.384 -0.0046  0.4922 -0.2358
 6402SOL    HW230843   1.970   1.149  12.362  2.6363 -0.7712  0.6055
 6403SOL     OW30844   0.664   0.798   1.505  0.0868  0.1326  0.1733
 6403SOL    HW130845   0.744   0.846   1.482 -1.1162  1.1194 -1.9530
 6403SOL    HW230846   0.686   0.705   1.510  0.8420  0.2294 -1.5140
 6404SOL     OW30847   2.223   1.879  13.399 -0.0747  0.1860  0.0911
 6404SOL    HW130848   2.189   1.943  13.460 -0.4531  0.6747 -0.6377
 6404SOL    HW230849   2.175   1.889  13.317 -1.8079  3.4146  1.5371
 6405SOL     OW30850   3.826   2.035   0.769  0.6392 -0.4239  0.2727
 6405SOL    HW130851   3.879   2.114   0.756  0.6042 -0.5691 -0.7901
 6405SOL    HW230852   3.734   2.052   0.748  0.7297 -0.1791  0.0784
 6406SOL     OW30853   0.238   4.228   6.961 -0.4796  0.2256 -0.6162
 6406SOL    HW130854   0.263   4.147   7.006 -1.6023 -0.1073 -0.5785
 6406SOL    HW230855   0.189   4.282   7.022  0.3247  1.1010 -0.7583
 6407SOL     OW30856   3.395   0.056   8.481 -0.6249  0.5244 -0.1291
 6407SOL    HW130857   3.402   0.059   8.385 -0.0341 -2.2982 -0.1524
 6407SOL    HW230858   3.488   0.056   8.501  0.1948 -1.1651 -3.9129
 6408SOL     OW30859   3.921   2.492   8.707 -0.1861  0.2266 -0.0468
 6408SOL    HW130860   3.884   2.566   8.658 -2.0090 -0.9808 -0.5297
 6408SOL    HW230861   3.937   2.516   8.798  1.9789 -2.0337  0.1495
 6409SOL     OW30862   0.306   0.622   3.852  0.2778  0.3404  0.7393
 6409SOL    HW130863   0.226   0.668   3.875 -1.4742 -1.4540 -1.7737
 6409SOL    HW230864   0.262   0.539   3.836 -0.4787  0.7536  0.6892
 6410SOL     OW30865   4.413   4.144   2.776  0.0779 -0.4869 -0.3088
 6410SOL    HW130866   4.450   4.106   2.855 -1.4141 -0.7121  0.2739
 6410SOL    HW230867   4.436   4.081   2.707 -0.1390 -0.4219 -0.4398
 6411SOL     OW30868   1.182   1.905  14.415  0.0075 -0.5608 -0.1886
 6411SOL    HW130869   1.154   1.950  14.495  0.3583 -2.0572  0.7910
 6411SOL    HW230870   1.096   1.867  14.395  0.7868 -2.3279 -0.2283
 6412SOL     OW30871   2.561   4.701  15.315  0.6608  0.2701 -0.4000
 6412SOL    HW130872   2.508   0.038  15.346 -1.6920 -0.9796 -1.5399
 6412SOL    HW230873   2.640   4.722  15.364 -0.3485  2.0353  0.4567
 6413SOL     OW30874   4.705   0.997   7.343 -0.1083  0.2167  0.1775
 6413SOL    HW130875   4.615   0.973   7.320  0.5830 -0.5420 -1.7662
 6413SOL    HW230876   4.712   1.063   7.274 -1.1456  0.1641  0.0094
 6414SOL     OW30877   1.849   0.497   7.170 -0.3043 -0.6446  0.0783
 6414SOL    HW130878   1.805   0.519   7.252 -0.9608 -2.2167  0.1313
 6414SOL    HW230879   1.909   0.572   7.164  0.8292 -1.5315  0.5482
 6415SOL     OW30880   1.880   0.792  15.432  0.1280 -0.3009  0.1829
 6415SOL    HW130881   1.875   0.870  15.487  1.2462 -0.0588 -0.0626
 6415SOL    HW230882   1.805   0.736  15.452  0.4105 -0.7715 -0.0653
 6416SOL     OW30883   1.275   2.834  16.134 -0.3922 -0.6504 -0.3253
 6416SOL    HW130884   1.190   2.817  16.095 -0.3144  0.6287 -1.0634
 6416SOL    HW230885   1.270   2.918  16.180 -0.2267 -1.4830  1.1961
 6417SOL     OW30886   1.680   4.594  11.657 -0.0534  0.1381 -0.4079
 6417SOL    HW130887   1.753   4.569  11.715  1.7865  0.5737 -2.5253
 6417SOL    HW230888   1.730   4.637  11.587 -0.0272 -0.2148 -0.6061
 6418SOL     OW30889   1.443   0.194   4.985 -0.2367 -0.4944  0.4417
 6418SOL    HW130890   1.508   0.248   5.030  0.4775 -0.3941 -0.7080
 6418SOL    HW230891   1.364   0.215   5.034  0.5025 -3.6305  2.9912
 6419SOL     OW30892   1.423   1.954  10.981  0.2532  0.6319 -0.5449
 6419SOL    HW130893   1.489   1.909  11.033 -2.8608 -2.0084  1.1100
 6419SOL    HW230894   1.416   2.041  11.021  0.8300 -0.1467  1.2426
 6420SOL     OW30895   1.404   4.536  12.160 -0.1081 -0.0973 -0.7327
 6420SOL    HW130896   1.368   4.535  12.071 -0.1790  3.3533 -0.7133
 6420SOL    HW230897   1.497   4.546  12.142  0.5551 -0.0187  2.6670
 6421SOL     OW30898   2.094   0.438   6.890  0.4133  0.8234  0.1220
 6421SOL    HW130899   2.038   0.515   6.889 -1.8092 -0.7812 -0.9282
 6421SOL    HW230900   2.127   0.464   6.976 -1.3755  0.7696  0.8200
 6422SOL     OW30901   4.273   3.610   3.866 -0.4403 -0.1930 -0.5848
 6422SOL    HW130902   4.192   3.639   3.823  1.0608  0.9428 -2.6097
 6422SOL    HW230903   4.238   3.547   3.929  1.2469 -0.6975 -0.1710
 6423SOL     OW30904   4.562   2.619  16.636 -0.0514  0.1705  0.3095
 6423SOL    HW130905   4.572   2.706  16.674 -1.2664  0.3157  0.3062
 6423SOL    HW230906   4.541   2.575  16.718 -0.1319 -1.2274 -0.4624
 6424SOL     OW30907   3.257   3.398   3.339 -0.0493  0.3601  0.0512
 6424SOL    HW130908   3.264   3.488   3.309 -1.9794  0.6116  0.3496
 6424SOL    HW230909   3.282   3.349   3.261 -1.5397 -0.5339  0.1113
 6425SOL     OW30910   1.970   0.993  12.497  0.3392  0.0755 -0.1348
 6425SOL    HW130911   2.015   0.911  12.476  1.1637 -0.2025  2.7258
 6425SOL    HW230912   1.886   0.959  12.529 -1.0735  2.2855 -1.4627
 6426SOL     OW30913   0.939   2.425  12.982 -0.2598 -0.1639 -0.1305
 6426SOL    HW130914   0.879   2.374  12.929  0.4998 -0.4497 -0.7226
 6426SOL    HW230915   0.965   2.501  12.929  0.8456 -1.3101 -1.2313
 6427SOL     OW30916   0.663   0.577  14.749  0.4455  0.7218  0.1104
 6427SOL    HW130917   0.613   0.634  14.808 -0.5335 -0.4827  0.4445
 6427SOL    HW230918   0.591   0.550  14.693 -0.0628  2.4944 -0.0909
 6428SOL     OW30919   4.332   3.234  11.416 -0.1456  0.4262  0.6221
 6428SOL    HW130920   4.426   3.235  11.398  0.0552 -2.3353  1.4848
 6428SOL    HW230921   4.307   3.319  11.381  3.5484  1.7199  1.1284
 6429SOL     OW30922   0.546   3.389   1.136 -0.5037  0.5312 -0.3637
 6429SOL    HW130923   0.559   3.392   1.231  0.0532 -3.2024 -0.2969
 6429SOL    HW230924   0.493   3.309   1.144  0.9037 -0.2823  0.8803
 6430SOL     OW30925   4.522   0.112  14.166  0.8408  0.2347  0.1288
 6430SOL    HW130926   4.580   0.187  14.180 -0.4642  1.4069 -0.6822
 6430SOL    HW230927   4.489   0.136  14.079 -0.3649 -1.6430  0.0566
 6431SOL     OW30928   2.619   3.028   7.103 -0.4732 -0.5870 -0.4364
 6431SOL    HW130929   2.613   2.960   7.170  1.1409 -0.0454  0.2679
 6431SOL    HW230930   2.653   2.974   7.032  0.4827  0.3564 -0.7021
 6432SOL     OW30931   1.071   1.370   3.048  0.3014 -0.2592  0.8230
 6432SOL    HW130932   0.980   1.370   3.019  1.0338  0.1409 -1.4321
 6432SOL    HW230933   1.109   1.323   2.974  0.5051  1.7913 -0.3569
 6433SOL     OW30934   2.698   2.246   6.147 -0.1102 -0.3518  0.1304
 6433SOL    HW130935   2.643   2.288   6.080 -0.4582 -1.7339 -0.4474
 6433SOL    HW230936   2.657   2.166   6.179 -1.5420 -0.5045 -2.0699
 6434SOL     OW30937   2.348   0.971   3.867 -0.3348  0.3319  0.0117
 6434SOL    HW130938   2.366   1.049   3.815  0.6838  0.0521 -0.0449
 6434SOL    HW230939   2.359   1.004   3.957  1.5603 -1.9950  0.6491
 6435SOL     OW30940   0.061   4.422  14.091  0.2683 -0.1333 -0.2188
 6435SOL    HW130941   0.127   4.372  14.043  0.7771  0.2132  0.1158
 6435SOL    HW230942   4.730   4.358  14.114 -0.7887  1.4474  1.1561
 6436SOL     OW30943   3.632   3.396  17.110  0.1018 -0.6001  0.2306
 6436SOL    HW130944   3.693   3.467  17.127 -0.1257 -1.2185  3.7451
 6436SOL    HW230945   3.629   3.403  17.015 -1.2444  0.1691  0.3306
 6437SOL     OW30946   4.712   0.406  11.739 -0.3106  0.0619 -0.1588
 6437SOL    HW130947   4.695   0.320  11.778 -0.2528 -1.0504 -2.5821
 6437SOL    HW230948   0.071   0.404  11.731 -0.3460  1.1790 -0.8126
 6438SOL     OW30949   1.291   3.584   6.414  0.1695 -0.0197  0.0812
 6438SOL    HW130950   1.333   3.634   6.483  0.1583  2.3025 -1.5854
 6438SOL    HW230951   1.353   3.597   6.342  1.6119  2.5552  1.8118
 6439SOL     OW30952   0.553   0.257   7.181  0.0096 -0.3087 -0.4592
 6439SOL    HW130953   0.468   0.234   7.218 -0.0938 -2.1420 -1.8117
 6439SOL    HW230954   0.522   0.329   7.125 -2.0115  0.9798  2.3456
 6440SOL     OW30955   1.843   2.030   5.384  0.3977  0.0658  0.1513
 6440SOL    HW130956   1.766   1.977   5.363  1.4104 -0.7659 -1.4423
 6440SOL    HW230957   1.806   2.118   5.376  2.4434  1.0144  1.0973
 6441SOL     OW30958   2.714   1.567   1.654 -0.0498  0.5377  0.1794
 6441SOL    HW130959   2.768   1.594   1.579 -1.7308 -0.3124 -1.3488
 6441SOL    HW230960   2.634   1.561   1.602 -2.2577 -0.3923  3.7164
 6442SOL     OW30961   0.635   3.885   2.865  0.0879 -0.1010 -0.4418
 6442SOL    HW130962   0.705   3.945   2.891 -1.4993  0.3793  2.6461
 6442SOL    HW230963   0.570   3.896   2.935  1.2440 -0.0463  0.6150
 6443SOL     OW30964   1.616   3.509   3.525 -0.1909 -0.3106  0.4332
 6443SOL    HW130965   1.621   3.455   3.446  1.4295 -1.1815  1.1357
 6443SOL    HW230966   1.551   3.468   3.582  0.1385 -1.8565 -0.3149
 6444SOL     OW30967   0.049   1.482   9.066 -0.7471  0.4495  0.7300
 6444SOL    HW130968   4.726   1.431   9.120 -1.3610  2.1525  1.6655
 6444SOL    HW230969   0.020   1.571   9.087  1.9031  1.2611  0.9920
 6445SOL     OW30970   0.684   1.484   3.439  0.2294  0.2615  0.0761
 6445SOL    HW130971   0.685   1.392   3.468  1.1352 -0.1116 -1.1131
 6445SOL    HW230972   0.698   1.473   3.345 -0.9502  3.2229 -0.4258
 6446SOL     OW30973   3.951   2.936   4.550 -0.2929 -0.1433 -0.4328
 6446SOL    HW130974   3.942   2.876   4.624  1.4156  0.1229 -0.0172
 6446SOL    HW230975   4.002   3.007   4.588 -1.9323  0.5403  0.4643
 6447SOL     OW30976   0.460   3.457   6.729 -0.0899  0.0803  0.0601
 6447SOL    HW130977   0.516   3.439   6.653  1.0589 -2.2465  1.4624
 6447SOL    HW230978   0.439   3.550   6.720 -0.3251  0.1022  0.8211
 6448SOL     OW30979   3.866   2.676   6.282  0.3555  0.0545 -0.0430
 6448SOL    HW130980   3.957   2.658   6.303  0.8765  0.6951 -1.7141
 6448SOL    HW230981   3.849   2.746   6.345 -1.0314  0.9245 -1.3828
 6449SOL     OW30982   4.699   2.134   7.993 -0.3447  0.1365  0.7817
 6449SOL    HW130983   4.661   2.150   7.907 -1.2244  1.1298  1.3411
 6449SOL    HW230984   4.702   2.226   8.021  1.2861  0.5046 -0.6246
 6450SOL     OW30985   2.612   0.616   7.916 -0.6070  0.0758  0.1149
 6450SOL    HW130986   2.580   0.590   8.002  0.9686 -1.1643  0.3288
 6450SOL    HW230987   2.648   0.702   7.938 -0.3105  0.0508 -0.2666
 6451SOL     OW30988   2.951   3.836   8.316 -0.1416  0.3236  0.4982
 6451SOL    HW130989   2.871   3.887   8.333  0.8308  1.4056  1.7895
 6451SOL    HW230990   2.920   3.749   8.339  2.0129 -0.8288 -1.0528
 6452SOL     OW30991   1.325   3.884  13.626  0.2186  0.4058 -0.3975
 6452SOL    HW130992   1.339   3.867  13.533  1.2209  0.5305 -0.2638
 6452SOL    HW230993   1.236   3.919  13.617  0.5961  1.6744  0.7939
 6453SOL     OW30994   0.718   4.275  15.261 -0.6803 -0.1702  0.2514
 6453SOL    HW130995   0.719   4.227  15.344 -0.7748  0.5052  0.6437
 6453SOL    HW230996   0.753   4.216  15.194 -2.4702 -2.1452  1.0270
 6454SOL     OW30997   2.733   1.383   0.471  0.1675 -0.2072  0.0831
 6454SOL    HW130998   2.801   1.450   0.469  0.5941 -0.6231  0.5623
 6454SOL    HW230999   2.714   1.374   0.377  0.7760  1.3051 -0.1729
 6455SOL     OW31000   2.469   0.315   8.400 -0.5018 -0.6394 -0.4722
 6455SOL    HW131001   2.518   0.251   8.347 -0.8152 -1.5672  0.3663
 6455SOL    HW231002   2.414   0.339   8.326 -1.0527  3.2222  1.2174
 6456SOL     OW31003   4.694   4.305   6.624  0.4058 -0.4260  0.0202
 6456SOL    HW131004   4.732   4.363   6.557  0.4355  0.6408  0.9525
 6456SOL    HW231005   4.672   4.361   6.699  2.1447  0.4268 -0.1000
 6457SOL     OW31006   1.608   4.396   3.109 -0.2294 -0.5321 -0.2939
 6457SOL    HW131007   1.671   4.331   3.077  2.0201  2.2549 -1.5539
 6457SOL    HW231008   1.534   4.364   3.058  1.1616 -1.0743 -1.9441
 6458SOL     OW31009   3.762   1.817  11.325  0.1583 -0.0428  0.1511
 6458SOL    HW131010   3.783   1.907  11.301 -0.5256 -0.1436 -0.8261
 6458SOL    HW231011   3.821   1.809  11.399  1.4545  1.6175 -0.7151
 6459SOL     OW31012   0.802   1.830  12.127 -0.1462  0.3499 -0.3777
 6459SOL    HW131013   0.800   1.734  12.128  1.4696  0.3229  1.0221
 6459SOL    HW231014   0.778   1.849  12.217  2.5015  0.1881  0.3836
 6460SOL     OW31015   0.292   3.266  13.989 -0.2503 -0.0132 -0.0515
 6460SOL    HW131016   0.217   3.298  14.040  1.4480 -0.3009  2.6152
 6460SOL    HW231017   0.255   3.247  13.903  0.3855 -0.2554 -0.2723
 6461SOL     OW31018   4.251   3.997   6.729  0.5194  0.5574  0.1454
 6461SOL    HW131019   4.341   4.023   6.710  0.2846  1.3121  0.0300
 6461SOL    HW231020   4.235   4.029   6.817  1.9731  1.1439  0.1921
 6462SOL     OW31021   3.372   1.435  13.101 -0.2310 -0.1571  0.0731
 6462SOL    HW131022   3.400   1.349  13.133  0.0512 -0.3356 -0.6512
 6462SOL    HW231023   3.279   1.416  13.089  0.0475 -1.8382  0.6817
 6463SOL     OW31024   1.699   0.135   6.196 -0.1171 -0.0493 -0.4952
 6463SOL    HW131025   1.646   0.056   6.185  0.1216 -0.4451  1.3361
 6463SOL    HW231026   1.670   0.170   6.111 -1.2631 -1.7146 -0.7963
 6464SOL     OW31027   3.781   0.608   5.499 -0.6622  0.5412  0.2407
 6464SOL    HW131028   3.765   0.691   5.543 -3.1096  1.6718 -2.7977
 6464SOL    HW231029   3.697   0.562   5.508  0.1183 -1.0974 -0.8064
 6465SOL     OW31030   1.433   3.087   4.132  0.2180  0.0133  0.0817
 6465SOL    HW131031   1.490   3.118   4.203  0.0431 -1.2852  0.7919
 6465SOL    HW231032   1.459   3.148   4.063  1.2707 -0.4221  0.0935
 6466SOL     OW31033   1.459   3.799  14.216  0.5832  0.3616  0.2334
 6466SOL    HW131034   1.420   3.833  14.135  1.9414  0.8921 -0.2054
 6466SOL    HW231035   1.448   3.879  14.268 -1.4542 -0.2332  0.6790
 6467SOL     OW31036   3.510   1.013   0.006  0.2557  0.3359 -0.4949
 6467SOL    HW131037   3.514   1.086  17.688  2.2793  0.1384 -0.5983
 6467SOL    HW231038   3.417   0.989   0.008  0.8849 -2.0888 -0.3428
 6468SOL     OW31039   2.527   3.575   1.988  0.4111 -0.0452  0.4207
 6468SOL    HW131040   2.574   3.499   1.953  2.4712  2.9295 -3.3456
 6468SOL    HW231041   2.440   3.538   2.002  0.7561 -1.3999 -1.0504
 6469SOL     OW31042   0.078   4.100   8.173 -0.2201  0.0454 -0.4435
 6469SOL    HW131043   0.054   4.096   8.080  0.4374 -1.4897 -0.5523
 6469SOL    HW231044   0.039   4.183   8.201  1.3568  0.8231 -0.5796
 6470SOL     OW31045   0.272   3.359   7.685  0.0111  0.2331 -0.1077
 6470SOL    HW131046   0.306   3.361   7.775  0.7591  0.1802 -0.3895
 6470SOL    HW231047   0.313   3.282   7.647  0.5181  0.2178  0.4758
 6471SOL     OW31048   3.373   0.001  13.411  0.0410 -0.2531  0.0349
 6471SOL    HW131049   3.348   0.078  13.462  0.9447  0.5357 -0.7236
 6471SOL    HW231050   3.396   4.670  13.475  0.0809  1.4832  1.8597
 6472SOL     OW31051   0.457   4.008   6.634  0.2531  0.0590 -0.5791
 6472SOL    HW131052   0.551   4.027   6.638  0.7545 -2.0886 -1.9010
 6472SOL    HW231053   0.428   4.080   6.690  0.4667 -0.1719 -0.1654
 6473SOL     OW31054   0.789   0.475   4.216  0.3063 -0.0499 -0.6368
 6473SOL    HW131055   0.747   0.556   4.187 -0.0290  0.2692  0.7320
 6473SOL    HW231056   0.865   0.470   4.159  1.2132 -1.1900  0.6560
 6474SOL     OW31057   2.309   2.787  10.177  0.4293  0.3468 -1.0469
 6474SOL    HW131058   2.271   2.725  10.240  0.1502  0.0345 -1.5204
 6474SOL    HW231059   2.238   2.850  10.165  1.4113  1.7243  0.4332
 6475SOL     OW31060   0.256   1.486  14.346  0.5319 -0.0521 -0.7263
 6475SOL    HW131061   0.289   1.430  14.416 -0.4988  2.7969  2.0724
 6475SOL    HW231062   0.193   1.545  14.388  1.4340  0.3002  0.1409
 6476SOL     OW31063   3.192   3.727  12.775  0.7381  0.1258  0.2641
 6476SOL    HW131064   3.170   3.770  12.692  0.6846  0.4377  0.4403
 6476SOL    HW231065   3.146   3.783  12.838 -3.1831 -1.8981 -0.7486
 6477SOL     OW31066   2.737   2.410   1.989  0.1655 -0.1786 -0.6614
 6477SOL    HW131067   2.803   2.351   2.026  0.0329 -0.7028 -1.2638
 6477SOL    HW231068   2.782   2.433   1.907  1.9633 -0.7217  0.1803
 6478SOL     OW31069   1.770   4.688   4.343  0.2124 -0.0666  0.0383
 6478SOL    HW131070   1.767   4.714   4.250  1.9712  0.3403  0.0856
 6478SOL    HW231071   1.717   0.025   4.375  1.0973  0.2294  0.8298
 6479SOL     OW31072   3.786   4.684   5.202 -0.0284  0.7966  0.2531
 6479SOL    HW131073   3.696   4.675   5.231  0.3449  0.1792  1.2123
 6479SOL    HW231074   3.820   4.672   5.290 -0.3101 -0.7161  0.1509
 6480SOL     OW31075   0.576   3.641   5.813  0.0912  0.6682  0.3983
 6480SOL    HW131076   0.656   3.596   5.786  0.2578  1.7915 -0.9585
 6480SOL    HW231077   0.504   3.589   5.779  0.4578 -1.2520  2.5730
 6481SOL     OW31078   4.402   4.460   5.615 -0.0374  0.6080  0.2235
 6481SOL    HW131079   4.324   4.422   5.655 -0.8531  0.3955 -1.5602
 6481SOL    HW231080   4.453   4.381   5.597  2.0773  2.0799 -0.1709
 6482SOL     OW31081   3.847   3.874   7.044  0.1711 -0.4116 -0.3385
 6482SOL    HW131082   3.816   3.938   6.980 -1.1735 -0.0086  0.6977
 6482SOL    HW231083   3.939   3.895   7.053  0.8534 -2.3294 -2.6702
 6483SOL     OW31084   3.072   2.680   5.002  0.1075  0.1706 -0.0917
 6483SOL    HW131085   3.020   2.616   5.051 -0.1989  1.3842  1.1487
 6483SOL    HW231086   3.160   2.647   5.015  0.7720  2.2453  0.6623
 6484SOL     OW31087   0.381   1.144   2.961  0.5415 -0.8484 -0.0825
 6484SOL    HW131088   0.319   1.202   2.916  3.4046  2.9745  0.9121
 6484SOL    HW231089   0.353   1.055   2.938  0.8357 -1.3557  1.5397
 6485SOL     OW31090   0.875   3.629  12.783  0.1462 -0.0105  0.1168
 6485SOL    HW131091   0.804   3.643  12.845 -0.0981 -1.9645  0.2995
 6485SOL    HW231092   0.826   3.583  12.715  0.9404 -0.0152 -0.4507
 6486SOL     OW31093   3.528   0.932   6.697 -0.2159 -0.2676  0.3598
 6486SOL    HW131094   3.524   0.838   6.712  2.0704 -0.2394  1.1592
 6486SOL    HW231095   3.501   0.946   6.607 -0.7094 -1.6429  0.2928
 6487SOL     OW31096   0.027   2.142  15.775 -0.4956 -0.3758 -0.1094
 6487SOL    HW131097   4.704   2.067  15.772  0.7585 -1.3334 -0.5883
 6487SOL    HW231098   0.110   2.115  15.813 -0.5466 -1.3163 -0.6679
 6488SOL     OW31099   2.999   1.947   0.857 -0.3936  0.6294  0.1751
 6488SOL    HW131100   3.037   1.956   0.770  1.2935 -0.5189  0.7839
 6488SOL    HW231101   2.981   2.040   0.868  0.7573  0.7174  1.4171
 6489SOL     OW31102   0.466   0.826  10.055  0.2221  0.1532 -0.2120
 6489SOL    HW131103   0.543   0.862  10.099  0.8166 -0.6452 -0.6080
 6489SOL    HW231104   0.391   0.877  10.086  1.7552  1.2553  1.7183
 6490SOL     OW31105   0.587   0.685   8.926 -0.4539  0.4665 -0.0240
 6490SOL    HW131106   0.630   0.771   8.929  0.4289  0.0255  0.0002
 6490SOL    HW231107   0.499   0.707   8.896 -0.1988 -0.3802 -1.3945
 6491SOL     OW31108   0.763   2.318  12.510 -0.1665 -0.1152 -0.2111
 6491SOL    HW131109   0.738   2.394  12.457  0.7415 -0.2171 -0.7753
 6491SOL    HW231110   0.826   2.276  12.452 -0.1953 -3.1530  1.9899
 6492SOL     OW31111   2.402   0.162   6.796 -0.1332  0.4240 -0.1998
 6492SOL    HW131112   2.394   0.253   6.767 -1.3905  0.7786  1.2390
 6492SOL    HW231113   2.357   0.105   6.733 -1.0376  0.2271  0.6194
 6493SOL     OW31114   2.023   1.107   6.093  0.6076  0.3527 -0.5709
 6493SOL    HW131115   2.104   1.136   6.135 -0.0367 -1.6142  2.0145
 6493SOL    HW231116   2.041   1.166   6.019 -0.2420  0.3353 -0.7855
 6494SOL     OW31117   3.311   2.954  11.437  0.7150  1.0334  0.0379
 6494SOL    HW131118   3.377   3.013  11.473 -0.8448  1.6749  1.8242
 6494SOL    HW231119   3.231   2.991  11.474 -0.9248  0.3133 -2.7911
 6495SOL     OW31120   3.420   4.513   9.413 -0.2020  0.1255  0.0471
 6495SOL    HW131121   3.477   4.574   9.366 -1.7919  0.8793 -0.9187
 6495SOL    HW231122   3.422   4.438   9.353 -0.3772  0.9277 -0.9774
 6496SOL     OW31123   2.999   3.325  10.014 -0.1867 -0.4619 -0.0918
 6496SOL    HW131124   2.976   3.232  10.019 -2.0378  0.0098  0.0712
 6496SOL    HW231125   3.075   3.329  10.072 -1.4756 -1.1352  1.6449
 6497SOL     OW31126   3.511   4.130  13.395 -0.6530  0.3850 -0.3631
 6497SOL    HW131127   3.541   4.218  13.369  0.9701 -0.6852 -2.0832
 6497SOL    HW231128   3.598   4.091  13.403 -0.6452  0.3139 -0.7947
 6498SOL     OW31129   0.426   1.927   1.059 -1.0039  0.1419  0.1410
 6498SOL    HW131130   0.346   1.876   1.074 -0.0626 -0.6908  2.4093
 6498SOL    HW231131   0.398   2.007   1.015 -0.4983 -0.3364 -1.0667
 6499SOL     OW31132   2.033   3.142   5.810  0.0729  0.2205  0.3569
 6499SOL    HW131133   2.017   3.235   5.828  0.5755  0.5676 -1.0240
 6499SOL    HW231134   2.038   3.140   5.715  2.9380  1.2929  0.4829
 6500SOL     OW31135   3.045   3.421   2.087  0.4028  0.1238  0.0892
 6500SOL    HW131136   3.018   3.496   2.141 -1.8385 -0.2861 -0.4724
 6500SOL    HW231137   3.108   3.469   2.033  0.0981 -0.0142 -0.3817
 6501SOL     OW31138   4.184   4.456   5.860 -0.1342 -0.2191 -0.6712
 6501SOL    HW131139   4.254   4.485   5.919 -1.7484  0.7990  0.7310
 6501SOL    HW231140   4.168   4.367   5.893 -0.1606  0.2210  0.5022
 6502SOL     OW31141   1.098   3.798  10.639 -0.0418 -0.2851  0.2378
 6502SOL    HW131142   1.080   3.732  10.705 -3.3494  0.1784 -0.1580
 6502SOL    HW231143   1.167   3.849  10.680  1.6314 -1.4427 -1.1747
 6503SOL     OW31144   1.618   3.860   8.584  0.0263  0.2072  0.5416
 6503SOL    HW131145   1.639   3.939   8.533  0.9451  0.6095  1.5348
 6503SOL    HW231146   1.576   3.811   8.513  0.8226  1.7706 -1.0118
 6504SOL     OW31147   4.414   0.371  11.426 -0.5112  0.1159  0.5283
 6504SOL    HW131148   4.364   0.311  11.371 -1.7346  2.4533 -0.9450
 6504SOL    HW231149   4.419   0.327  11.510  2.8823 -0.1582  0.1940
 6505SOL     OW31150   0.247   4.572   0.508  0.0008 -0.4630  0.6175
 6505SOL    HW131151   0.167   4.567   0.456  0.6595  2.5007 -0.6546
 6505SOL    HW231152   0.278   4.662   0.501  0.7516 -0.7539  0.1828
 6506SOL     OW31153   4.112   0.639   1.021  0.5522 -0.0189  0.3914
 6506SOL    HW131154   4.077   0.695   0.953 -1.5555 -0.0336  1.4731
 6506SOL    HW231155   4.117   0.555   0.974  2.1094  0.1599  0.2232
 6507SOL     OW31156   0.351   3.487   3.838 -0.3206 -0.3292  0.6889
 6507SOL    HW131157   0.433   3.442   3.822  0.0874  1.6123 -2.6808
 6507SOL    HW231158   0.283   3.428   3.806 -0.0748 -1.0875  1.5553
 6508SOL     OW31159   0.275   1.996   3.833  0.1432  0.8119 -0.4659
 6508SOL    HW131160   0.223   1.983   3.754 -2.5294 -1.0829  1.6037
 6508SOL    HW231161   0.313   2.079   3.804  2.3824  0.4814  1.4773
 6509SOL     OW31162   2.718   2.112   5.820  0.2770 -0.3975 -0.0030
 6509SOL    HW131163   2.630   2.082   5.795 -1.1333  2.1065  1.9418
 6509SOL    HW231164   2.713   2.204   5.845  0.3749 -0.5774  0.6883
 6510SOL     OW31165   3.408   4.162   8.581  0.2601 -0.1915 -0.6624
 6510SOL    HW131166   3.403   4.070   8.604  1.9442 -0.5030 -1.6086
 6510SOL    HW231167   3.466   4.162   8.505 -1.1541  3.6048 -1.7332
 6511SOL     OW31168   4.027   3.553   5.447 -0.3185  0.0160  0.5640
 6511SOL    HW131169   3.996   3.637   5.416  0.5563 -0.3651 -1.3342
 6511SOL    HW231170   4.083   3.577   5.521 -1.1743  0.8446  0.9340
 6512SOL     OW31171   3.075   2.722   5.307 -0.6106  0.4789 -0.3110
 6512SOL    HW131172   3.106   2.746   5.394 -2.0672  0.1760  0.2892
 6512SOL    HW231173   3.148   2.756   5.255 -0.4131  0.1834 -0.2282
 6513SOL     OW31174   3.694   1.603   7.563  0.1272 -0.4848  0.0599
 6513SOL    HW131175   3.726   1.693   7.557 -2.0577  0.1803 -1.7956
 6513SOL    HW231176   3.615   1.603   7.508 -2.1267 -2.4111  3.2948
 6514SOL     OW31177   0.277   2.224   7.566  0.4296  0.1117  0.1868
 6514SOL    HW131178   0.352   2.172   7.595  0.0226  0.2697  1.5392
 6514SOL    HW231179   0.323   2.282   7.506 -1.1921  0.5582 -0.6360
 6515SOL     OW31180   0.060   4.074   3.880 -0.0157 -0.2491 -0.4066
 6515SOL    HW131181   4.717   4.065   3.828  0.5197 -0.5507 -1.1649
 6515SOL    HW231182   0.070   4.168   3.896  0.3069 -0.8626  3.1010
 6516SOL     OW31183   3.347   1.320  16.125 -0.2442  0.0332  0.2529
 6516SOL    HW131184   3.385   1.390  16.179  0.3241 -0.3801  0.3840
 6516SOL    HW231185   3.308   1.371  16.054 -2.1066  0.3673  1.5069
 6517SOL     OW31186   3.060   2.296   3.374 -0.3485  0.0142  0.2765
 6517SOL    HW131187   3.053   2.250   3.291  1.0919  0.3540 -0.0345
 6517SOL    HW231188   3.082   2.383   3.341 -1.6789 -0.6119 -2.2156
 6518SOL     OW31189   1.413   1.936   5.858 -0.1121  0.3280  0.0849
 6518SOL    HW131190   1.409   1.913   5.951 -2.0698  1.7142  0.3336
 6518SOL    HW231191   1.459   1.856   5.830 -1.6336 -0.3637 -0.4308
 6519SOL     OW31192   1.227   3.649   7.826  0.0846  0.6205  0.0879
 6519SOL    HW131193   1.292   3.696   7.774  1.1491  1.4060  2.1702
 6519SOL    HW231194   1.253   3.559   7.807 -0.2693  0.2103  1.6165
 6520SOL     OW31195   1.794   2.961   6.478  0.3698  0.1921 -0.0890
 6520SOL    HW131196   1.709   2.936   6.444  0.4233  1.0906 -0.8776
 6520SOL    HW231197   1.806   3.054   6.459  1.4320 -0.2770 -1.6747
 6521SOL     OW31198   4.164   1.668   1.479 -0.0187  0.4722  0.1733
 6521SOL    HW131199   4.072   1.644   1.494  0.0200  1.0996  1.4119
 6521SOL    HW231200   4.161   1.697   1.388 -2.0141  3.9708  1.3349
 6522SOL     OW31201   0.850   2.099   5.434 -0.4794  0.1015 -0.0883
 6522SOL    HW131202   0.855   2.189   5.400 -0.5938 -0.4438 -1.5351
 6522SOL    HW231203   0.930   2.060   5.399  1.1080  1.6475  1.8188
 6523SOL     OW31204   2.874   1.573   7.963  0.3502  0.0825  0.0496
 6523SOL    HW131205   2.813   1.615   7.903  0.2623  0.8567  0.6869
 6523SOL    HW231206   2.941   1.555   7.897  2.2788  3.4423  1.1321
 6524SOL     OW31207   3.171   4.264   9.725  0.0211 -0.2422 -0.1368
 6524SOL    HW131208   3.241   4.323   9.695  0.3185  0.5502  2.0943
 6524SOL    HW231209   3.143   4.312   9.803  0.5031 -0.3362  0.0932
 6525SOL     OW31210   2.105   0.517   4.307 -0.0474  0.5702  0.2057
 6525SOL    HW131211   2.136   0.428   4.325  1.3027  1.0350  0.1802
 6525SOL    HW231212   2.012   0.498   4.296 -0.1654  0.5785  1.2484
 6526SOL     OW31213   0.077   3.818  12.391 -0.5362 -0.3422  0.1849
 6526SOL    HW131214   0.118   3.753  12.333 -0.4900 -0.6737  0.5819
 6526SOL    HW231215   0.040   3.880  12.329 -0.4397 -0.8838 -0.4182
 6527SOL     OW31216   4.087   1.239   2.200  0.2761  0.5574 -0.3066
 6527SOL    HW131217   4.139   1.178   2.148  1.4331  0.4727  0.9556
 6527SOL    HW231218   4.154   1.300   2.230 -1.3103  1.9697  0.4153
 6528SOL     OW31219   4.288   0.548   2.363 -0.0675 -0.3556 -0.2328
 6528SOL    HW131220   4.360   0.551   2.426  1.6410 -0.6503 -2.1974
 6528SOL    HW231221   4.303   0.633   2.322  2.1997  0.5673  2.4852
 6529SOL     OW31222   4.228   2.168   6.405 -0.1508  0.4463  0.5151
 6529SOL    HW131223   4.200   2.259   6.418 -2.1755 -0.0993 -0.0524
 6529SOL    HW231224   4.153   2.125   6.447 -1.5068  2.0576 -0.2292
 6530SOL     OW31225   4.312   0.401   7.036  0.1379 -0.4031 -0.0818
 6530SOL    HW131226   4.233   0.434   6.993 -0.7691 -1.5215  0.7451
 6530SOL    HW231227   4.290   0.308   7.040  0.0106 -0.3563  0.3660
 6531SOL     OW31228   0.589   2.248   5.514  0.1999 -0.2266 -0.3454
 6531SOL    HW131229   0.645   2.202   5.577 -1.1749 -4.0746 -1.8879
 6531SOL    HW231230   0.641   2.244   5.434  0.6809 -0.0330 -0.0428
 6532SOL     OW31231   3.995   4.137   3.862  0.2848 -0.9435  0.2090
 6532SOL    HW131232   3.954   4.052   3.851 -1.1913 -0.0803 -1.0066
 6532SOL    HW231233   3.934   4.186   3.807 -0.0722 -0.2961  1.1640
 6533SOL     OW31234   0.159   3.012   2.250 -0.5333 -0.5804 -0.2719
 6533SOL    HW131235   0.099   3.072   2.294  0.0179 -0.5352  0.4353
 6533SOL    HW231236   0.243   3.043   2.283  0.4425 -1.5221 -1.8911
 6534SOL     OW31237   3.325   1.945   2.470  0.5984  0.1642 -0.3062
 6534SOL    HW131238   3.382   1.956   2.394  0.6790 -1.3208 -0.4517
 6534SOL    HW231239   3.384   1.901   2.531 -0.9305 -0.2600  0.8727
 6535SOL     OW31240   2.261   3.921   0.667  0.2980  0.2539  0.2282
 6535SOL    HW131241   2.169   3.948   0.665  1.1718  3.2562  2.1386
 6535SOL    HW231242   2.272   3.826   0.676 -1.6993 -0.0901 -0.8901
 6536SOL     OW31243   2.848   1.477  12.110  0.2639  0.1384  0.4821
 6536SOL    HW131244   2.943   1.471  12.101  0.2636 -0.0178  0.5829
 6536SOL    HW231245   2.833   1.472  12.015  0.8327 -0.8437  0.4440
 6537SOL     OW31246   3.244   2.168   1.539  0.6158 -0.0491  0.1053
 6537SOL    HW131247   3.201   2.181   1.624  0.6566 -2.0183  0.4163
 6537SOL    HW231248   3.166   2.151   1.486 -0.0225 -1.0533  1.3697
 6538SOL     OW31249   4.351   0.281   8.352 -0.0613 -0.2679 -0.6400
 6538SOL    HW131250   4.315   0.309   8.268 -0.3878  0.5489 -0.2251
 6538SOL    HW231251   4.387   0.363   8.387  1.4430 -0.9815 -0.4898
 6539SOL     OW31252   3.846   0.235   9.560  0.3707 -0.8407 -0.3419
 6539SOL    HW131253   3.796   0.165   9.518 -1.3399  0.0011  0.2708
 6539SOL    HW231254   3.929   0.230   9.513 -0.2174  3.7326 -1.8519
 6540SOL     OW31255   2.434   0.496  15.732 -0.8314 -0.2669  0.4808
 6540SOL    HW131256   2.451   0.501  15.826  0.4006  1.7169  0.1502
 6540SOL    HW231257   2.494   0.561  15.695 -0.4586 -1.3986 -0.9033
 6541SOL     OW31258   4.160   0.170   3.167 -0.2759 -0.6855 -0.5963
 6541SOL    HW131259   4.175   0.234   3.097 -1.0244 -1.7658 -1.7508
 6541SOL    HW231260   4.176   0.225   3.244  0.1954 -1.4222 -0.1730
 6542SOL     OW31261   4.691   2.456   7.778 -0.3012  0.7811  0.1406
 6542SOL    HW131262   4.733   2.382   7.735 -0.5415  0.3488  0.6609
 6542SOL    HW231263   4.707   2.427   7.868  0.5534 -0.9359 -0.5736
 6543SOL     OW31264   1.088   0.595   5.690  0.1493  0.0921  0.3331
 6543SOL    HW131265   1.182   0.595   5.677  0.0246  0.5801 -0.5887
 6543SOL    HW231266   1.068   0.514   5.644 -0.1954 -0.2636  1.1066
 6544SOL     OW31267   4.647   0.911  11.922  0.2051  0.0172 -0.3921
 6544SOL    HW131268   4.592   0.833  11.934  1.5697 -0.7578  0.9594
 6544SOL    HW231269   4.681   0.910  11.833 -0.0144  2.0050 -0.5016
 6545SOL     OW31270   1.269   4.109  12.813  0.0546 -0.4418  0.0528
 6545SOL    HW131271   1.300   4.069  12.732  0.9649 -0.9112  0.6362
 6545SOL    HW231272   1.177   4.083  12.812 -0.3689  1.0246  0.7219
 6546SOL     OW31273   1.832   1.343   8.242 -0.1277  0.3706  0.0699
 6546SOL    HW131274   1.852   1.260   8.199 -0.6490  0.9615 -1.3297
 6546SOL    HW231275   1.869   1.402   8.176 -1.1998  1.9237  0.8432
 6547SOL     OW31276   1.037   1.324   6.940 -0.0634 -0.5589 -0.4777
 6547SOL    HW131277   1.117   1.360   6.978 -0.4761  0.3120 -0.4280
 6547SOL    HW231278   0.992   1.404   6.913 -0.7363 -0.6265  0.4255
 6548SOL     OW31279   4.134   4.274  11.237 -0.0297  0.2458 -0.1677
 6548SOL    HW131280   4.086   4.290  11.156  0.0428 -1.3718 -0.5297
 6548SOL    HW231281   4.112   4.182  11.251 -0.9712  0.4764 -0.1382
 6549SOL     OW31282   1.655   3.939   8.147 -0.2391  0.0426  0.0034
 6549SOL    HW131283   1.577   3.922   8.094  0.4032 -0.2407 -0.8565
 6549SOL    HW231284   1.710   3.963   8.073 -1.0147 -1.4845 -1.0758
 6550SOL     OW31285   2.855   1.146  11.318 -0.1132  0.1517 -0.0074
 6550SOL    HW131286   2.800   1.148  11.396 -1.8817 -0.2669 -1.2384
 6550SOL    HW231287   2.925   1.205  11.348  0.9507 -0.7428 -0.7367
 6551SOL     OW31288   3.946   4.694   5.446 -0.3049 -1.0840  0.1405
 6551SOL    HW131289   3.961   0.053   5.441 -0.0973 -1.0550  1.4499
 6551SOL    HW231290   3.999   4.660   5.518  1.8179  1.7722 -0.0503
 6552SOL     OW31291   1.228   2.079  17.402  0.4025 -0.0398 -0.3704
 6552SOL    HW131292   1.320   2.094  17.420 -0.7374  1.4592  4.2168
 6552SOL    HW231293   1.228   2.116  17.314 -0.5458 -1.4891 -0.9750
 6553SOL     OW31294   1.717   2.870   3.353  0.0580 -0.2754 -0.8190
 6553SOL    HW131295   1.809   2.896   3.342 -0.7475  2.8181 -0.3065
 6553SOL    HW231296   1.729   2.778   3.375  3.8584 -0.5172 -3.7970
 6554SOL     OW31297   0.640   1.033   7.923 -0.0354 -0.0346  0.4840
 6554SOL    HW131298   0.645   1.114   7.873  1.4276  1.3243  2.8554
 6554SOL    HW231299   0.674   1.049   8.011 -3.0789  1.1411  1.4704
 6555SOL     OW31300   0.183   3.629   2.700  0.1342 -0.0647 -0.1132
 6555SOL    HW131301   0.242   3.666   2.634 -0.6404 -0.2252 -0.8921
 6555SOL    HW231302   0.191   3.699   2.764  0.8961 -0.2528  0.0003
 6556SOL     OW31303   3.170   3.645   5.214  0.2628 -0.2537  0.2338
 6556SOL    HW131304   3.145   3.738   5.211 -1.7251 -0.8869 -3.4847
 6556SOL    HW231305   3.260   3.652   5.245  0.9543  0.9999 -2.0346
 6557SOL     OW31306   2.735   0.233  11.426 -0.1302  0.3621 -0.1038
 6557SOL    HW131307   2.804   0.245  11.360  1.5557 -0.4113  1.5179
 6557SOL    HW231308   2.737   0.323  11.459  1.3920  1.1350 -2.3056
 6558SOL     OW31309   2.065   1.433  11.917  0.0260 -0.1607  0.1816
 6558SOL    HW131310   2.072   1.516  11.870 -0.6204 -0.0080  0.3490
 6558SOL    HW231311   2.000   1.448  11.986  0.1019  1.3583 -0.0783
 6559SOL     OW31312   1.653   1.165   0.312 -0.0840 -0.2540  0.2950
 6559SOL    HW131313   1.607   1.094   0.265 -1.5725  0.7239  0.2700
 6559SOL    HW231314   1.596   1.242   0.314  0.4993  0.1998 -0.8123
 6560SOL     OW31315   2.224   3.033   4.846  0.2828 -0.0582  0.6033
 6560SOL    HW131316   2.129   3.027   4.840  0.1884 -0.1388  2.1507
 6560SOL    HW231317   2.243   2.945   4.814  2.2286  0.9589 -1.0916
 6561SOL     OW31318   0.457   4.306   7.227  0.4438  0.3985  0.5516
 6561SOL    HW131319   0.379   4.250   7.232  0.6687 -0.2628 -3.2734
 6561SOL    HW231320   0.421   4.387   7.191 -2.2144 -0.4689  1.2612
 6562SOL     OW31321   0.675   2.781   3.526  0.1990 -0.1989 -0.2448
 6562SOL    HW131322   0.615   2.707   3.517  2.6397 -2.1095 -0.9227
 6562SOL    HW231323   0.664   2.824   3.441  1.4463 -1.3058 -0.9903
 6563SOL     OW31324   3.346   1.602  16.861  0.2583  0.3882  0.1646
 6563SOL    HW131325   3.290   1.677  16.883 -2.2216 -0.9155 -1.7417
 6563SOL    HW231326   3.283   1.531  16.844  1.0382 -0.7589  2.0642
 6564SOL     OW31327   4.085   4.123   5.450  0.4154 -0.7997  0.5482
 6564SOL    HW131328   4.050   4.184   5.514  1.4021  1.8602 -1.4363
 6564SOL    HW231329   4.142   4.183   5.402  0.5782 -1.7829 -0.5082
 6565SOL     OW31330   0.562   2.473   4.685  0.3392  0.2598 -0.6571
 6565SOL    HW131331   0.501   2.475   4.759 -0.0093  1.0206 -0.9662
 6565SOL    HW231332   0.515   2.424   4.618 -0.2028 -0.5764  0.3261
 6566SOL     OW31333   4.296   3.821  11.967  0.2389  0.3910  0.4160
 6566SOL    HW131334   4.230   3.878  12.007 -0.8711 -0.7476  0.1798
 6566SOL    HW231335   4.255   3.738  11.989 -1.6820  1.1043 -0.5316
 6567SOL     OW31336   1.746   0.594   1.002  0.6372  0.1293  0.5028
 6567SOL    HW131337   1.668   0.630   0.960  1.7743  1.9699 -0.0548
 6567SOL    HW231338   1.816   0.651   0.972  0.1585  0.8688  0.7874
 6568SOL     OW31339   1.483   2.406   8.538  0.0507 -0.5678 -1.0940
 6568SOL    HW131340   1.513   2.452   8.460 -1.5996  0.7715 -0.9331
 6568SOL    HW231341   1.539   2.330   8.522  0.2509 -0.5558 -0.4557
 6569SOL     OW31342   2.204   0.935   4.716 -0.4181 -0.4229  0.1321
 6569SOL    HW131343   2.208   0.859   4.774  0.2654 -0.9963 -0.6722
 6569SOL    HW231344   2.267   0.916   4.647 -0.7102 -1.6145  0.1886
 6570SOL     OW31345   1.774   3.613   6.837  0.3424 -0.4663  0.3130
 6570SOL    HW131346   1.772   3.686   6.899 -2.6116 -2.1219  2.2050
 6570SOL    HW231347   1.715   3.558   6.889 -0.7855  1.4853  1.0803
 6571SOL     OW31348   2.134   3.557  16.911  0.5960 -0.2601 -0.5513
 6571SOL    HW131349   2.079   3.530  16.837  0.0219 -0.7287  0.0596
 6571SOL    HW231350   2.087   3.537  16.991 -0.6431  2.6811 -0.5406
 6572SOL     OW31351   3.869   3.937  16.538  1.0550  0.3793  0.4748
 6572SOL    HW131352   3.905   3.854  16.567 -3.8372 -1.8933 -0.0475
 6572SOL    HW231353   3.898   3.930  16.447 -3.6443  1.4872 -1.1105
 6573SOL     OW31354   3.194   0.075   7.850  0.1931  0.7001  0.2637
 6573SOL    HW131355   3.158   0.160   7.824  0.7357  0.7316 -0.3893
 6573SOL    HW231356   3.270   0.100   7.903  1.6770 -0.6295 -1.2298
 6574SOL     OW31357   0.470   1.156   5.565  0.2265 -0.0516 -0.5413
 6574SOL    HW131358   0.467   1.226   5.500 -0.7825 -0.3981 -0.8636
 6574SOL    HW231359   0.426   1.086   5.518 -2.2888  2.4185 -1.9036
 6575SOL     OW31360   2.611   3.763   4.454 -0.0408 -0.2237 -0.5093
 6575SOL    HW131361   2.595   3.854   4.431  2.8790  1.1816  3.1914
 6575SOL    HW231362   2.683   3.774   4.516  0.1518  1.5246 -1.0466
 6576SOL     OW31363   2.073   3.808   3.971 -0.1700 -0.0842 -0.3099
 6576SOL    HW131364   2.080   3.903   3.960  1.2804 -0.1044  0.3960
 6576SOL    HW231365   2.082   3.776   3.881  0.5828 -0.1858 -0.1956
 6577SOL     OW31366   0.631   1.814   7.448 -0.0785 -0.2219 -0.0358
 6577SOL    HW131367   0.554   1.813   7.505 -0.9083 -0.0513 -1.1516
 6577SOL    HW231368   0.634   1.722   7.419 -0.6481  0.0978 -1.1239
 6578SOL     OW31369   1.923   0.940   4.218 -0.0185  0.3375 -0.4833
 6578SOL    HW131370   1.982   0.943   4.143  1.2692 -2.1838  0.3939
 6578SOL    HW231371   1.983   0.919   4.290 -0.5900  0.0637 -0.0829
 6579SOL     OW31372   1.115   3.204   4.458  0.1250  0.6941  0.0306
 6579SOL    HW131373   1.203   3.190   4.494  1.0055  0.3909 -2.2218
 6579SOL    HW231374   1.138   3.230   4.369 -0.7415 -1.7570 -0.9062
 6580SOL     OW31375   1.242   2.358   4.458 -0.2981 -0.2690  0.4060
 6580SOL    HW131376   1.294   2.277   4.465  1.9334  1.0981 -0.6398
 6580SOL    HW231377   1.308   2.424   4.477 -1.6740  1.5678 -1.2451
 6581SOL     OW31378   1.760   0.510  13.284 -0.5103 -0.0930 -0.0201
 6581SOL    HW131379   1.804   0.545  13.361 -0.1205  0.2211 -0.3844
 6581SOL    HW231380   1.768   0.580  13.219 -1.6714 -0.9849 -1.1183
 6582SOL     OW31381   0.880   2.542   8.031 -0.1054  0.0317 -0.3919
 6582SOL    HW131382   0.897   2.578   8.118  2.5697 -0.8274 -0.5441
 6582SOL    HW231383   0.785   2.536   8.034 -0.1007  0.0775 -0.1481
 6583SOL     OW31384   4.397   4.111  15.981  0.2527 -0.4512  0.1974
 6583SOL    HW131385   4.322   4.152  15.939  1.3798 -0.2594 -1.6384
 6583SOL    HW231386   4.357   4.092  16.065  2.3887  1.1074  1.5676
 6584SOL     OW31387   2.765   4.144   4.658 -0.4358 -0.3892  0.0026
 6584SOL    HW131388   2.812   4.128   4.740 -0.6503 -0.4951  0.1046
 6584SOL    HW231389   2.682   4.100   4.676  1.2831 -3.5520  0.2279
 6585SOL     OW31390   0.288   2.167  11.388 -0.2966  0.0418  0.0079
 6585SOL    HW131391   0.247   2.242  11.343 -0.7756  1.2892  2.5402
 6585SOL    HW231392   0.238   2.179  11.469  0.9536  0.8846  0.6570
 6586SOL     OW31393   1.720   0.557   4.633 -0.3447  0.1843 -0.2557
 6586SOL    HW131394   1.689   0.593   4.715  1.5500  1.1126  0.0664
 6586SOL    HW231395   1.778   0.624   4.596 -3.0519  1.1039 -2.8829
 6587SOL     OW31396   1.119   2.040   4.235 -0.2386  0.2743  0.3288
 6587SOL    HW131397   1.105   1.958   4.283 -0.4791  0.4806  0.6122
 6587SOL    HW231398   1.211   2.035   4.212 -0.5080  1.1268 -0.9305
 6588SOL     OW31399   2.837   2.881   6.454  0.1153 -0.4536  0.4464
 6588SOL    HW131400   2.842   2.964   6.500  1.4084 -0.8860  1.0770
 6588SOL    HW231401   2.760   2.911   6.405  1.3029 -1.3284 -1.9567
 6589SOL     OW31402   3.762   3.896  16.026  0.1998  0.3851 -0.4986
 6589SOL    HW131403   3.780   3.947  15.947 -1.3985  2.8653  0.7183
 6589SOL    HW231404   3.683   3.939  16.059  0.7668 -0.0319  1.3808
 6590SOL     OW31405   2.966   4.709   8.562  0.0698 -0.1614  0.0974
 6590SOL    HW131406   2.948   4.676   8.650  0.0013 -1.2770 -0.3292
 6590SOL    HW231407   3.044   0.025   8.578 -1.1697  1.5747  0.5049
 6591SOL     OW31408   3.028   1.644   9.306  0.2609 -0.4193 -0.1148
 6591SOL    HW131409   2.991   1.644   9.395 -1.1457  1.6784 -0.7113
 6591SOL    HW231410   3.096   1.708   9.324  0.6940 -1.0648  0.5500
 6592SOL     OW31411   3.994   0.302   8.206 -0.0462 -0.4632 -0.1070
 6592SOL    HW131412   3.998   0.241   8.280  1.3666 -2.2426 -1.6516
 6592SOL    HW231413   3.963   0.385   8.243 -0.7551 -1.0183  0.5400
 6593SOL     OW31414   4.316   2.177  14.316 -0.4316  0.5109  0.3386
 6593SOL    HW131415   4.301   2.221  14.233 -0.5216 -0.9064 -0.3995
 6593SOL    HW231416   4.256   2.103  14.302 -1.3297  1.4052 -0.5299
 6594SOL     OW31417   1.213   2.748  11.406  0.2016 -0.4552 -0.2930
 6594SOL    HW131418   1.165   2.752  11.489  0.4548 -2.2419 -0.0630
 6594SOL    HW231419   1.303   2.754  11.437 -0.7001  0.6669  2.1478
 6595SOL     OW31420   3.997   4.287   2.293  0.5894 -0.0788 -0.1074
 6595SOL    HW131421   4.023   4.202   2.329 -2.0972 -0.6067  0.5720
 6595SOL    HW231422   4.053   4.343   2.348  0.2021 -2.0007  2.2399
 6596SOL     OW31423   0.283   1.727   4.725 -0.1567 -0.6078  0.1240
 6596SOL    HW131424   0.195   1.728   4.764  0.5525  1.2705  1.6782
 6596SOL    HW231425   0.315   1.640   4.752 -0.3377 -0.8250 -0.3731
 6597SOL     OW31426   4.501   4.332   5.204 -0.5857  0.7531  0.2605
 6597SOL    HW131427   4.526   4.404   5.262 -0.9335  1.5490 -0.5886
 6597SOL    HW231428   4.586   4.290   5.191 -0.6502  1.3489 -2.0208
 6598SOL     OW31429   3.910   1.038   3.887  0.3570 -0.3316 -0.2869
 6598SOL    HW131430   3.981   0.984   3.854  1.3987  0.7687  0.1847
 6598SOL    HW231431   3.843   1.016   3.822 -1.0856  2.0832  0.3679
 6599SOL     OW31432   0.870   3.595   2.504 -0.5991  0.0078 -0.7067
 6599SOL    HW131433   0.798   3.547   2.463 -1.2905  0.0283  0.4791
 6599SOL    HW231434   0.823   3.663   2.553  0.1221 -0.3868  0.5355
 6600SOL     OW31435   3.538   2.813   7.101  0.3851  0.2470 -0.1754
 6600SOL    HW131436   3.573   2.727   7.076 -0.8816 -0.1990 -0.4086
 6600SOL    HW231437   3.611   2.863   7.137  0.5362 -0.0207 -0.1161
 6601SOL     OW31438   4.522   4.294  12.554  0.1978  0.1425 -0.3034
 6601SOL    HW131439   4.442   4.283  12.502 -1.7143 -0.5292  2.7776
 6601SOL    HW231440   4.504   4.385  12.578 -1.1311  0.0202 -0.7910
 6602SOL     OW31441   2.352   3.872   6.118  0.1620  0.1395 -0.1723
 6602SOL    HW131442   2.285   3.903   6.179  3.0097  1.4212  2.2867
 6602SOL    HW231443   2.374   3.945   6.061  0.9591  2.2610  2.8489
 6603SOL     OW31444   3.723   4.365   1.416 -0.3731  0.2968  0.1045
 6603SOL    HW131445   3.707   4.410   1.499 -1.2870  0.5163 -0.1934
 6603SOL    HW231446   3.708   4.271   1.426  0.4980  0.0769 -0.7010
 6604SOL     OW31447   2.067   0.977   2.121  0.3199  0.0466  0.2270
 6604SOL    HW131448   2.015   0.901   2.097  0.3474  0.0156  0.2646
 6604SOL    HW231449   2.116   0.951   2.199 -0.0301  0.9856  0.7689
 6605SOL     OW31450   1.749   0.852  17.163 -0.0926 -0.1185 -0.3969
 6605SOL    HW131451   1.821   0.810  17.118  0.1912 -1.6156  1.4479
 6605SOL    HW231452   1.688   0.781  17.185  0.2025 -0.4669 -0.7130
 6606SOL     OW31453   2.150   0.792  10.683 -0.0166  0.6535  0.2145
 6606SOL    HW131454   2.221   0.745  10.640 -1.9386 -1.7914 -0.2956
 6606SOL    HW231455   2.143   0.870  10.628  3.3079  0.2529 -0.7567
 6607SOL     OW31456   2.957   3.557   1.096  0.2576 -0.4666 -0.2899
 6607SOL    HW131457   2.918   3.575   1.011  1.5476  1.0203 -0.5491
 6607SOL    HW231458   3.025   3.624   1.104  0.2551 -0.4364 -0.5420
 6608SOL     OW31459   4.001   2.754   9.495  0.4468  0.3661 -0.1255
 6608SOL    HW131460   4.087   2.713   9.497 -0.2625 -1.2398 -2.0420
 6608SOL    HW231461   4.022   2.827   9.437  0.1115 -0.1313 -0.8716
 6609SOL     OW31462   2.476   3.192  17.010  0.3659 -0.2471 -0.3341
 6609SOL    HW131463   2.490   3.238  16.927 -2.3145  1.7829  0.3434
 6609SOL    HW231464   2.409   3.133  16.976  0.8017 -1.7656  1.4190
 6610SOL     OW31465   0.079   0.411  16.062  0.1441  0.0942  0.4623
 6610SOL    HW131466   0.152   0.393  16.122 -0.5733 -3.2343  0.3413
 6610SOL    HW231467   0.113   0.482  16.007 -2.9541  2.4303  1.5542
 6611SOL     OW31468   4.582   1.410   7.600 -0.2323  0.5262  0.6923
 6611SOL    HW131469   4.536   1.333   7.633  1.1117  0.4864  2.5098
 6611SOL    HW231470   4.513   1.448   7.547  0.8581  2.3238  0.5634
 6612SOL     OW31471   4.525   0.036  10.333 -0.4269  0.3988 -0.2071
 6612SOL    HW131472   4.600   4.732  10.289 -0.5121  0.0127  0.0024
 6612SOL    HW231473   4.582   0.089  10.389 -1.8595  1.1469  0.5385
 6613SOL     OW31474   4.090   1.513   0.877  0.1452  0.6366  0.5361
 6613SOL    HW131475   4.081   1.583   0.812 -0.4419  0.8866  0.8915
 6613SOL    HW231476   4.018   1.454   0.855  1.2206  0.2113 -1.8647
 6614SOL     OW31477   2.307   3.816   2.698 -0.2770 -0.3130 -0.0099
 6614SOL    HW131478   2.269   3.740   2.653  1.4763 -0.4141 -1.3350
 6614SOL    HW231479   2.381   3.773   2.740 -0.8792  0.3138  1.6910
 6615SOL     OW31480   3.287   0.086  10.418 -0.1234 -0.3366 -0.3657
 6615SOL    HW131481   3.208   0.129  10.452 -0.7009 -1.8706  0.2441
 6615SOL    HW231482   3.356   0.152  10.426  1.6449 -2.1232 -0.8189
 6616SOL     OW31483   1.516   3.994   9.185 -0.2295  0.1617  0.0017
 6616SOL    HW131484   1.549   3.906   9.206 -0.9295 -0.0573  0.1716
 6616SOL    HW231485   1.584   4.003   9.118 -1.8539  0.3369 -1.5990
 6617SOL     OW31486   1.742   1.504   6.088  0.1263 -0.6001  0.0286
 6617SOL    HW131487   1.817   1.487   6.146  0.8503  0.3181 -0.6297
 6617SOL    HW231488   1.673   1.462   6.139 -1.4919 -0.3250 -1.9223
 6618SOL     OW31489   3.960   2.883   5.814 -0.0471  0.4097 -0.0685
 6618SOL    HW131490   3.888   2.916   5.867 -1.6034 -1.0969 -1.2738
 6618SOL    HW231491   3.979   2.793   5.844  3.6717  0.0804 -3.4145
 6619SOL     OW31492   3.410   4.285  14.062 -0.4106  0.4890 -0.0556
 6619SOL    HW131493   3.438   4.265  13.973 -1.6867  1.3129 -0.6389
 6619SOL    HW231494   3.492   4.294  14.109  1.1727 -0.7715 -2.5927
 6620SOL     OW31495   0.220   1.758  11.960 -0.9809  0.1704  0.5162
 6620SOL    HW131496   0.146   1.805  11.921 -0.9867  0.2204  0.5879
 6620SOL    HW231497   0.182   1.671  11.968 -0.1479 -0.1260  1.2095
 6621SOL     OW31498   2.933   3.882   7.253 -0.3748 -0.6513  0.1257
 6621SOL    HW131499   2.902   3.940   7.184 -1.3233 -1.5237 -0.1997
 6621SOL    HW231500   2.979   3.934   7.319 -0.3830 -1.5920  0.8778
 6622SOL     OW31501   2.446   0.227   4.425  0.0559 -0.1796 -0.3687
 6622SOL    HW131502   2.479   0.141   4.452  1.8832  0.9971  1.1754
 6622SOL    HW231503   2.455   0.277   4.506 -1.3908  1.8830 -1.4575
 6623SOL     OW31504   1.185   3.285   8.845  0.4301  0.2572  0.0593
 6623SOL    HW131505   1.271   3.278   8.886 -0.4367 -0.2074  1.7686
 6623SOL    HW231506   1.178   3.375   8.813 -0.0988  0.5701  1.0718
 6624SOL     OW31507   0.969   1.599   6.800 -0.3981  0.0003 -0.0152
 6624SOL    HW131508   0.881   1.592   6.764 -1.4008 -0.3648  2.5114
 6624SOL    HW231509   0.941   1.638   6.883  2.2340  0.7455  0.5282
 6625SOL     OW31510   2.284   3.033  10.460  0.0732 -0.3344  0.3299
 6625SOL    HW131511   2.222   2.968  10.427  0.5202  0.0435 -1.2863
 6625SOL    HW231512   2.252   3.117  10.427 -0.5197  0.4240  2.8562
 6626SOL     OW31513   1.734   0.414   7.827  0.4962 -0.5280  0.0647
 6626SOL    HW131514   1.827   0.435   7.838  0.1059  1.7398 -0.9131
 6626SOL    HW231515   1.718   0.359   7.904 -4.0050  0.4299 -0.2213
 6627SOL     OW31516   1.793   2.435  10.295 -0.0705  0.0261  0.1426
 6627SOL    HW131517   1.728   2.382  10.340 -1.8407 -0.7527 -3.3261
 6627SOL    HW231518   1.733   2.463  10.225  0.4044  0.4480 -0.0946
 6628SOL     OW31519   2.931   1.089   1.676 -0.1512  0.6894  0.3174
 6628SOL    HW131520   2.835   1.090   1.677 -0.1851 -1.5156  0.3054
 6628SOL    HW231521   2.945   1.183   1.677 -1.2727  0.8271  2.5289
 6629SOL     OW31522   4.718   0.132   7.359 -0.1435 -0.7835  0.0802
 6629SOL    HW131523   0.036   0.157   7.434 -1.5180  0.7637  0.5390
 6629SOL    HW231524   4.634   0.160   7.393 -0.1825 -1.0690  0.2210
 6630SOL     OW31525   2.713   4.103   6.558  0.0076 -0.4913 -0.5208
 6630SOL    HW131526   2.679   4.190   6.578 -1.9781 -1.7718  1.6217
 6630SOL    HW231527   2.744   4.114   6.468  0.4021  0.1954 -0.3003
 6631SOL     OW31528   2.080   3.262   7.637  0.3124  0.2526  0.0144
 6631SOL    HW131529   2.105   3.194   7.700  2.9699  1.7955  0.6185
 6631SOL    HW231530   2.108   3.228   7.551  0.7015  1.2442 -0.2492
 6632SOL     OW31531   1.012   3.584   5.200  0.3986  0.3927 -0.3100
 6632SOL    HW131532   1.098   3.542   5.199  0.7852  1.1781  1.7871
 6632SOL    HW231533   1.024   3.629   5.283 -2.2604  0.8011 -0.1512
 6633SOL     OW31534   0.701   2.043   7.881  0.2140  0.0145 -0.3364
 6633SOL    HW131535   0.766   2.066   7.948  2.1037 -2.2099 -1.4134
 6633SOL    HW231536   0.726   1.957   7.846  1.2693  0.1311  0.1350
 6634SOL     OW31537   1.529   0.303   1.484  0.5209 -0.0098  0.8013
 6634SOL    HW131538   1.608   0.297   1.539  1.5705  0.7340 -0.6149
 6634SOL    HW231539   1.563   0.341   1.402  0.5198 -2.0551 -0.1539
 6635SOL     OW31540   0.331   4.399  10.942  0.4464  0.1181 -0.3938
 6635SOL    HW131541   0.239   4.417  10.958  0.3808  0.6053 -1.2776
 6635SOL    HW231542   0.341   4.450  10.861 -0.9635  1.0705  0.0448
 6636SOL     OW31543   0.858   2.459  12.724  0.1449  0.0320  0.0387
 6636SOL    HW131544   0.800   2.436  12.651  0.5543  0.6063 -0.4648
 6636SOL    HW231545   0.939   2.416  12.694  1.0363  0.2612  2.0870
 6637SOL     OW31546   0.774   1.551   6.443 -0.1870  0.6389 -0.0764
 6637SOL    HW131547   0.783   1.461   6.476  0.6848  0.9826  0.6125
 6637SOL    HW231548   0.863   1.579   6.464 -0.0793  0.8909 -0.8990
 6638SOL     OW31549   4.281   2.460  15.456 -0.3020  0.0997  0.4750
 6638SOL    HW131550   4.231   2.389  15.415 -1.9473  0.5688  1.6557
 6638SOL    HW231551   4.227   2.538  15.444  0.0077  0.2600  0.1563
 6639SOL     OW31552   1.099   0.517   8.784 -0.1710  0.0764  0.1396
 6639SOL    HW131553   1.014   0.560   8.790  0.7215  2.2124 -2.6356
 6639SOL    HW231554   1.139   0.541   8.868  0.7377  1.2709 -0.6336
 6640SOL     OW31555   2.131   3.227  14.797  0.0569 -0.3091  0.2541
 6640SOL    HW131556   2.164   3.291  14.734 -0.8405 -0.5535 -0.4757
 6640SOL    HW231557   2.084   3.283  14.858  2.2299  2.4219 -0.6176
 6641SOL     OW31558   3.370   4.258   3.747 -0.2577  0.2249 -0.4868
 6641SOL    HW131559   3.308   4.186   3.760 -1.4893  0.8413 -2.9254
 6641SOL    HW231560   3.306   4.321   3.716  0.9637  0.5875 -2.3091
 6642SOL     OW31561   0.254   1.655  11.468 -0.2449 -0.1957  0.2656
 6642SOL    HW131562   0.241   1.749  11.478  0.1475 -0.0849 -0.2264
 6642SOL    HW231563   0.170   1.636  11.425  0.6344  0.6159 -1.8047
 6643SOL     OW31564   2.050   0.097   5.070 -0.1176  0.0167 -0.0126
 6643SOL    HW131565   2.073   0.150   5.147  1.2710 -0.4288 -0.1286
 6643SOL    HW231566   1.994   0.153   5.016 -0.9427 -0.8225 -0.0282
 6644SOL     OW31567   2.632   3.785  13.656  0.5311  0.2417  0.3375
 6644SOL    HW131568   2.713   3.786  13.605  1.7536 -0.2118  2.2570
 6644SOL    HW231569   2.587   3.706  13.624 -0.1642  0.8206 -0.1119
 6645SOL     OW31570   2.323   0.951   1.567  0.0760  0.2585  0.5102
 6645SOL    HW131571   2.329   1.044   1.591  2.5630  0.9223 -2.6996
 6645SOL    HW231572   2.330   0.964   1.472 -0.1377  1.0253  0.6016
 6646SOL     OW31573   0.225   2.140   6.369 -0.0628 -0.2427  0.4343
 6646SOL    HW131574   0.152   2.096   6.327  1.3264 -0.9192 -1.2898
 6646SOL    HW231575   0.284   2.156   6.295  0.3057  1.7990  1.1644
 6647SOL     OW31576   1.160   1.259  13.971  0.3678  0.2942 -0.6156
 6647SOL    HW131577   1.251   1.267  13.941  1.4291  1.5820  3.0276
 6647SOL    HW231578   1.161   1.256  14.066  1.2458 -1.8252 -0.6907
 6648SOL     OW31579   2.400   0.957  10.753 -0.1290  0.6201  0.3064
 6648SOL    HW131580   2.468   0.965  10.820  0.0020 -0.0819  0.2542
 6648SOL    HW231581   2.366   1.046  10.760 -0.0654  0.5630  1.3781
 6649SOL     OW31582   1.051   2.194  11.031 -0.0343  0.6292 -0.2094
 6649SOL    HW131583   1.080   2.116  10.984  0.6680  0.6555  0.1764
 6649SOL    HW231584   0.955   2.193  11.038 -0.1123 -0.6099 -1.4045
 6650SOL     OW31585   3.871   3.979  11.750 -0.4391 -0.4571  0.4167
 6650SOL    HW131586   3.936   4.012  11.688  0.1674 -0.9010  0.8122
 6650SOL    HW231587   3.795   4.036  11.738 -0.6520 -0.3942  2.1469
 6651SOL     OW31588   0.071   0.673   2.282 -0.0914  0.2072 -0.5895
 6651SOL    HW131589   0.161   0.704   2.276 -0.1227  0.4133 -0.0392
 6651SOL    HW231590   0.069   0.597   2.224 -1.0670 -1.0687  1.1156
 6652SOL     OW31591   4.370   4.718  17.701 -0.3110 -0.1359  0.3839
 6652SOL    HW131592   4.440   0.035  17.662 -3.0377  2.1174 -1.4958
 6652SOL    HW231593   4.332   0.035   0.028  0.6873 -1.6814  2.0874
 6653SOL     OW31594   4.015   2.983  11.787 -0.4870 -1.4312  0.2328
 6653SOL    HW131595   4.043   2.911  11.730  1.6243 -0.9231  0.6547
 6653SOL    HW231596   4.049   3.051  11.729  1.3220 -1.8524  0.8077
 6654SOL     OW31597   2.727   4.140   5.276  0.5420  0.0534 -0.2622
 6654SOL    HW131598   2.798   4.203   5.262  1.5547 -1.6567 -2.7546
 6654SOL    HW231599   2.667   4.206   5.311  0.4482 -0.2663  0.1812
 6655SOL     OW31600   2.889   3.810  13.525 -0.4037 -0.3335  0.3843
 6655SOL    HW131601   2.980   3.785  13.510 -0.6582 -1.6431  1.0140
 6655SOL    HW231602   2.868   3.847  13.439 -0.7752 -0.9787  0.1962
 6656SOL     OW31603   2.892   1.931  11.485 -0.3600 -0.0662  0.4824
 6656SOL    HW131604   2.958   1.866  11.461  0.2803  1.0483 -0.7608
 6656SOL    HW231605   2.839   1.883  11.548  0.3006 -0.9285  0.3738
 6657SOL     OW31606   3.179   2.023   7.624 -0.1178  0.1106 -0.4944
 6657SOL    HW131607   3.121   2.078   7.572 -1.7347 -2.4567 -1.3622
 6657SOL    HW231608   3.247   1.992   7.564  0.8963  1.1970  0.0822
 6658SOL     OW31609   1.896   1.655  17.189 -0.1032 -0.2169 -0.2469
 6658SOL    HW131610   1.962   1.649  17.258 -0.0108  1.7895 -0.1800
 6658SOL    HW231611   1.955   1.678  17.117 -0.5121  0.9517 -0.2026
 6659SOL     OW31612   0.688   1.568   6.715  0.0279  0.0250 -0.0007
 6659SOL    HW131613   0.664   1.476   6.723 -0.9595  0.1994 -0.8787
 6659SOL    HW231614   0.656   1.577   6.625 -1.0006 -0.9128  0.2756
 6660SOL     OW31615   0.476   1.609   9.145 -0.3169  0.0274 -0.4821
 6660SOL    HW131616   0.516   1.576   9.226 -0.0509  1.1288 -0.1639
 6660SOL    HW231617   0.440   1.528   9.110 -1.7795  0.2814  0.4418
 6661SOL     OW31618   3.815   2.389   4.619  0.0412  0.3971  0.0070
 6661SOL    HW131619   3.798   2.357   4.531  1.6719 -1.6629  0.4511
 6661SOL    HW231620   3.906   2.360   4.625  0.9747  3.6122  1.6005
 6662SOL     OW31621   3.032   1.312  15.298 -0.1178  0.5982 -0.4037
 6662SOL    HW131622   3.107   1.361  15.266  1.1578 -0.0475  1.5805
 6662SOL    HW231623   3.045   1.314  15.393  0.7801  2.0116 -0.5738
 6663SOL     OW31624   1.218   4.621   9.285  0.1314  0.0521 -0.0898
 6663SOL    HW131625   1.191   4.580   9.203  0.2348  0.9909 -0.5885
 6663SOL    HW231626   1.264   4.550   9.330  1.4066  1.2634  0.5192
 6664SOL     OW31627   3.105   0.019  10.628 -0.5838 -0.1377 -0.5486
 6664SOL    HW131628   3.200   0.021  10.643 -1.0909 -1.2441  2.8343
 6664SOL    HW231629   3.091   0.109  10.601  0.9854  0.4021  0.4109
 6665SOL     OW31630   2.924   4.095   4.301 -0.7845 -0.1075  0.2572
 6665SOL    HW131631   2.889   4.155   4.235 -0.0077 -1.1655 -1.1192
 6665SOL    HW231632   2.921   4.154   4.377  0.4515 -0.4024  0.5293
 6666SOL     OW31633   0.099   3.149   2.034 -0.1781 -0.0211 -0.2501
 6666SOL    HW131634   0.118   3.101   2.115  0.2049  1.6322  0.6456
 6666SOL    HW231635   0.189   3.167   2.008  0.0521  1.6658  1.7217
 6667SOL     OW31636   2.626   4.000  12.186  0.0800 -0.0371  0.0798
 6667SOL    HW131637   2.611   4.075  12.243 -0.7797  0.0558 -0.2655
 6667SOL    HW231638   2.677   4.029  12.110  0.3107 -1.7145 -0.3914
 6668SOL     OW31639   1.276   0.923   8.437  0.1668 -0.7474 -0.2461
 6668SOL    HW131640   1.304   0.931   8.528  1.5253  0.6136 -0.7957
 6668SOL    HW231641   1.193   0.876   8.447  0.2602 -1.4303 -2.5424
 6669SOL     OW31642   0.005   3.870   4.694  0.2862 -0.1038 -0.3134
 6669SOL    HW131643   4.650   3.884   4.719  0.1523  0.4003 -1.0869
 6669SOL    HW231644   4.726   3.835   4.606 -1.8647 -0.5355  0.2308
 6670SOL     OW31645   1.796   3.541   3.121  0.3269 -0.3700 -0.3052
 6670SOL    HW131646   1.783   3.635   3.116 -3.1752 -0.8720 -1.1993
 6670SOL    HW231647   1.875   3.528   3.173 -0.1007 -0.6287  0.2829
 6671SOL     OW31648   1.203   0.089   6.607  0.2763  1.3255 -0.4190
 6671SOL    HW131649   1.188   0.003   6.646  0.9765  0.4836 -2.0099
 6671SOL    HW231650   1.143   0.085   6.533  2.0198  1.2068 -1.8551
 6672SOL     OW31651   1.443   1.977   3.875  0.0851 -0.1111 -0.0274
 6672SOL    HW131652   1.384   2.053   3.872  0.7149  0.4163  1.0545
 6672SOL    HW231653   1.513   2.019   3.825 -1.1373  0.9432 -0.8887
 6673SOL     OW31654   3.767   2.444   4.081  0.2502  0.4033 -0.2193
 6673SOL    HW131655   3.718   2.463   4.161 -0.2614 -0.0021 -0.4391
 6673SOL    HW231656   3.783   2.533   4.051 -2.5697  1.0985  0.4157
 6674SOL     OW31657   3.204   1.491  15.219  0.5197  0.2869 -0.3810
 6674SOL    HW131658   3.237   1.560  15.276 -0.5572  1.4810 -1.2028
 6674SOL    HW231659   3.167   1.551  15.154 -0.7850 -0.4477 -0.3021
 6675SOL     OW31660   2.386   0.271   2.919  0.4408 -0.0436 -0.7636
 6675SOL    HW131661   2.387   0.176   2.927  3.8419  0.1980  1.8985
 6675SOL    HW231662   2.428   0.285   2.834  1.2088 -0.1115 -0.3901
 6676SOL     OW31663   1.293   1.559  10.601  0.0829  0.2089 -0.4002
 6676SOL    HW131664   1.365   1.604  10.557 -0.8916  1.8525 -0.3301
 6676SOL    HW231665   1.271   1.628  10.665 -1.2043 -1.5894  1.0887
 6677SOL     OW31666   0.861   1.216   3.267 -0.0408 -0.3643  0.4703
 6677SOL    HW131667   0.901   1.140   3.308  2.0159  0.4768  0.0530
 6677SOL    HW231668   0.946   1.261   3.261 -0.7468  0.8791 -0.2961
 6678SOL     OW31669   3.764   0.998   2.059 -0.4936  0.2607 -0.1535
 6678SOL    HW131670   3.794   1.078   2.016  0.8372 -1.2039 -1.9845
 6678SOL    HW231671   3.783   1.014   2.151 -0.7160 -1.2611  0.1560
 6679SOL     OW31672   3.816   3.474  12.150 -0.7834  0.2101 -0.7596
 6679SOL    HW131673   3.844   3.423  12.226 -0.1609  1.4948 -0.1271
 6679SOL    HW231674   3.759   3.413  12.103  0.3673  0.2617 -2.2280
 6680SOL     OW31675   1.683   1.029   8.158 -0.6442 -0.4291 -0.0077
 6680SOL    HW131676   1.760   0.972   8.158 -0.4557 -0.1631 -1.0877
 6680SOL    HW231677   1.610   0.973   8.185 -1.6595 -0.0470 -2.0337
 6681SOL     OW31678   4.202   2.015   7.000 -1.0129 -0.5534  0.6811
 6681SOL    HW131679   4.157   2.056   7.075 -1.9021 -1.1907  0.5031
 6681SOL    HW231680   4.289   2.053   7.013 -0.9969 -0.5918  0.6854
 6682SOL     OW31681   4.058   1.529   9.827  0.1475  0.0981 -0.6355
 6682SOL    HW131682   4.052   1.581   9.907  0.5667 -1.9442  0.7160
 6682SOL    HW231683   4.116   1.459   9.855 -1.5367 -1.7395 -1.7359
 6683SOL     OW31684   3.853   1.411   2.627  0.0619  0.0871  0.3087
 6683SOL    HW131685   3.889   1.324   2.647 -1.2857 -0.8255 -1.2702
 6683SOL    HW231686   3.768   1.398   2.585  0.1852  0.0786  0.0604
 6684SOL     OW31687   1.631   2.162  16.059  0.0866 -0.6110 -0.7115
 6684SOL    HW131688   1.669   2.227  16.118 -0.7387  1.8726 -2.9285
 6684SOL    HW231689   1.706   2.102  16.065  2.2992  2.2070 -0.0643
 6685SOL     OW31690   3.134   1.843   9.966 -0.3732 -0.1794  0.3155
 6685SOL    HW131691   3.142   1.922   9.912  0.8134  0.0679  0.8423
 6685SOL    HW231692   3.121   1.883  10.052 -0.4909  0.0211  0.2052
 6686SOL     OW31693   3.111   1.979  14.307 -0.1295  0.0559  0.2605
 6686SOL    HW131694   3.042   2.015  14.252  0.2115 -2.7170 -1.9644
 6686SOL    HW231695   3.183   1.967  14.246  0.5512  0.1589  1.0377
 6687SOL     OW31696   0.389   2.920   8.688  0.5684  0.0634  0.1304
 6687SOL    HW131697   0.398   2.825   8.683  1.1064  0.1719 -1.0749
 6687SOL    HW231698   0.335   2.956   8.618 -0.2294 -0.2181  0.6023
 6688SOL     OW31699   2.776   2.085   6.873 -0.2375 -0.5401  0.1725
 6688SOL    HW131700   2.723   2.135   6.811 -0.0777 -1.8096 -0.9793
 6688SOL    HW231701   2.822   2.033   6.807 -0.3350  1.1751 -1.2388
 6689SOL     OW31702   0.844   2.009  17.370 -0.0450  0.5389 -0.2047
 6689SOL    HW131703   0.837   1.926  17.324  2.1432  1.1378 -1.6245
 6689SOL    HW231704   0.880   1.984  17.455 -1.0462 -0.5423 -0.1003
 6690SOL     OW31705   0.507   4.267  17.635  0.1346  0.1664 -0.7064
 6690SOL    HW131706   0.514   4.282  17.730 -1.7740  1.5564 -0.7881
 6690SOL    HW231707   0.529   4.174  17.638  0.9437  0.3881  0.6141
 6691SOL     OW31708   2.389   0.435  15.304 -0.0685  0.4614 -0.1592
 6691SOL    HW131709   2.351   0.521  15.322 -1.6050 -0.2127 -0.2354
 6691SOL    HW231710   2.472   0.459  15.262 -0.3336  2.9787  0.7169
 6692SOL     OW31711   0.384   2.870   5.411  0.3522 -0.4712 -0.4856
 6692SOL    HW131712   0.406   2.925   5.336 -0.8199 -0.0717 -0.5266
 6692SOL    HW231713   0.305   2.825   5.382 -0.8298  1.6879 -0.6352
 6693SOL     OW31714   2.340   2.390   6.065 -0.0034  0.3473 -1.1365
 6693SOL    HW131715   2.261   2.336   6.060  0.8694 -1.1590  1.4342
 6693SOL    HW231716   2.314   2.473   6.103 -0.0461 -0.0174 -0.3675
 6694SOL     OW31717   3.017   3.363   4.356  0.3863  0.0679 -0.6349
 6694SOL    HW131718   3.101   3.360   4.401  1.5906 -0.1362 -2.9316
 6694SOL    HW231719   3.031   3.436   4.296 -2.5992 -0.3935 -1.8938
 6695SOL     OW31720   0.918   2.181   2.737  0.2451 -0.1720  0.3086
 6695SOL    HW131721   1.009   2.161   2.758 -0.2026 -0.8288  1.5869
 6695SOL    HW231722   0.943   2.214   2.650  0.2053  2.5402  1.3226
 6696SOL     OW31723   4.549   3.418   7.616  0.4607  0.1534 -0.3589
 6696SOL    HW131724   4.486   3.347   7.631  1.8703 -0.7869  1.0957
 6696SOL    HW231725   4.625   3.402   7.672  2.1012 -0.6756 -2.8009
 6697SOL     OW31726   3.690   3.176   2.379 -0.3217 -0.2522  0.1684
 6697SOL    HW131727   3.733   3.231   2.445 -2.1620  1.8810 -0.4064
 6697SOL    HW231728   3.759   3.111   2.366 -1.2784 -0.8971 -1.6167
 6698SOL     OW31729   1.070   3.221   8.108 -0.2229  0.9299 -0.1109
 6698SOL    HW131730   1.033   3.216   8.020 -2.0596  1.7110  0.6125
 6698SOL    HW231731   1.047   3.311   8.131 -0.8392  0.3661  1.4969
 6699SOL     OW31732   3.813   3.929   1.423  0.5365 -0.0261 -0.3971
 6699SOL    HW131733   3.851   3.852   1.381  0.7529  1.5289 -3.0471
 6699SOL    HW231734   3.828   3.994   1.355 -0.7520 -0.9315 -1.5365
 6700SOL     OW31735   0.186   2.148  17.684 -0.0664 -0.2537 -0.6001
 6700SOL    HW131736   0.178   2.137   0.036 -1.6948  1.3331 -0.5532
 6700SOL    HW231737   0.113   2.207  17.664  0.8227  1.3465  0.8277
 6701SOL     OW31738   4.348   2.573   4.236 -0.2033  0.0529  0.2309
 6701SOL    HW131739   4.313   2.641   4.177 -1.0654 -0.2846  0.3596
 6701SOL    HW231740   4.424   2.547   4.184  0.2321 -1.0149  1.4128
 6702SOL     OW31741   2.876   0.091   2.189  0.2372  0.1843 -0.2058
 6702SOL    HW131742   2.941   0.044   2.136  0.6212 -0.2001  0.5983
 6702SOL    HW231743   2.925   0.167   2.220 -0.3771  0.7218 -0.5783
 6703SOL     OW31744   4.538   0.406   7.961 -0.0761  0.1339  0.0968
 6703SOL    HW131745   4.594   0.415   8.038 -1.8759 -0.2178  1.4485
 6703SOL    HW231746   4.583   0.459   7.896 -0.7155  0.7423  0.1387
 6704SOL     OW31747   0.523   0.516   4.056  0.2156 -0.4596  0.0752
 6704SOL    HW131748   0.451   0.512   4.118 -1.4340  1.1736 -1.7487
 6704SOL    HW231749   0.579   0.586   4.090  0.0402  0.8560 -2.3557
 6705SOL     OW31750   2.018   3.282   9.364 -0.2695  0.0613  0.0282
 6705SOL    HW131751   1.982   3.309   9.448 -1.0976  0.0211 -0.3192
 6705SOL    HW231752   2.112   3.283   9.385 -0.8969  0.8730  2.8770
 6706SOL     OW31753   1.962   4.523  10.913  0.5155 -0.2632  0.1896
 6706SOL    HW131754   2.015   4.469  10.853 -1.0258 -1.4529 -0.0848
 6706SOL    HW231755   2.022   4.533  10.987  1.0312 -1.4298 -0.0573
 6707SOL     OW31756   4.407   2.911   1.566 -0.5520  0.2097  0.3567
 6707SOL    HW131757   4.323   2.956   1.556 -0.0125  1.0656 -0.2547
 6707SOL    HW231758   4.395   2.849   1.494  1.6795  0.8420 -0.5550
 6708SOL     OW31759   1.636   0.218  11.368  0.4739 -0.4908  0.4528
 6708SOL    HW131760   1.653   0.304  11.330 -0.8476 -0.1215  0.6820
 6708SOL    HW231761   1.611   0.227  11.460  0.2357 -0.1450  0.3558
 6709SOL     OW31762   4.308   0.957   3.468 -0.2297  0.2990 -0.4583
 6709SOL    HW131763   4.298   1.039   3.420  4.0647 -0.2970 -2.3840
 6709SOL    HW231764   4.378   0.978   3.530 -2.3146  0.2404  1.9243
 6710SOL     OW31765   1.838   0.109  12.793 -0.6233  0.3183 -0.2506
 6710SOL    HW131766   1.933   0.115  12.806 -0.6886 -0.3435  0.5223
 6710SOL    HW231767   1.797   0.192  12.817 -0.8585  0.2410 -0.3873
 6711SOL     OW31768   4.685   3.967   2.244  0.1634  0.2274  0.3515
 6711SOL    HW131769   4.643   3.883   2.228 -3.7001  2.0973  0.7662
 6711SOL    HW231770   4.672   4.017   2.164 -0.5116 -1.3314 -0.5144
 6712SOL     OW31771   1.643   3.380   2.187  0.3157 -0.5993  0.1173
 6712SOL    HW131772   1.601   3.401   2.270  2.0163  1.3370  0.4759
 6712SOL    HW231773   1.649   3.284   2.188  0.7577 -0.5869 -1.4245
 6713SOL     OW31774   1.078   4.531  13.418 -0.2286 -0.4055  0.3161
 6713SOL    HW131775   1.136   4.504  13.490 -0.8289 -0.0347  0.9384
 6713SOL    HW231776   1.125   4.601  13.374  0.7551 -0.2509  1.6114
 6714SOL     OW31777   2.423   2.848   5.315  0.2690 -0.2034 -0.1299
 6714SOL    HW131778   2.483   2.873   5.244  0.1224  0.8721  0.1207
 6714SOL    HW231779   2.337   2.880   5.290  0.0166 -1.9231 -1.4200
 6715SOL     OW31780   3.599   3.281   6.567  0.5218  0.3880 -0.7166
 6715SOL    HW131781   3.627   3.371   6.553  2.5440  0.0032  0.8943
 6715SOL    HW231782   3.505   3.284   6.549  1.0162  1.3521 -3.1107
 6716SOL     OW31783   1.303   3.039   4.741 -0.5647  0.2686  0.1045
 6716SOL    HW131784   1.345   3.103   4.684 -1.5057  1.2181  0.4786
 6716SOL    HW231785   1.242   3.087   4.796  1.7922  1.2760  1.8287
 6717SOL     OW31786   2.366   0.974   8.851  0.1861  0.3183  0.8313
 6717SOL    HW131787   2.308   0.995   8.924  0.1267  0.0305  0.8673
 6717SOL    HW231788   2.328   0.888   8.833 -0.0173  1.0160 -2.1538
 6718SOL     OW31789   1.645   3.318  15.232  0.4232  0.4660  0.1051
 6718SOL    HW131790   1.588   3.340  15.305  1.8681  0.2332  1.3108
 6718SOL    HW231791   1.578   3.307  15.165 -0.2134 -0.3222  0.8701
 6719SOL     OW31792   3.633   2.270   7.966 -0.1822  0.2294 -0.4740
 6719SOL    HW131793   3.562   2.325   7.999 -0.3932 -1.4691  1.9175
 6719SOL    HW231794   3.700   2.280   8.034 -0.3710  1.1426 -0.4210
 6720SOL     OW31795   3.233   1.127   9.212 -0.1455  0.2778  0.0785
 6720SOL    HW131796   3.239   1.047   9.265  0.1559 -0.3622 -0.9285
 6720SOL    HW231797   3.236   1.095   9.122 -0.1283  1.3141 -0.2919
 6721SOL     OW31798   0.604   0.826   6.610 -0.6858 -0.3300 -0.4238
 6721SOL    HW131799   0.614   0.836   6.516  0.9606 -0.1419 -0.2258
 6721SOL    HW231800   0.661   0.752   6.629 -1.4020 -0.6320  0.5689
 6722SOL     OW31801   4.477   1.141   9.961 -0.3657  0.5687 -0.2931
 6722SOL    HW131802   4.475   1.053   9.998 -0.8938  0.6430 -0.1455
 6722SOL    HW231803   4.555   1.135   9.906 -0.0101 -1.2911  0.4272
 6723SOL     OW31804   2.980   3.291   9.727 -0.3211  0.8647 -0.1165
 6723SOL    HW131805   3.050   3.227   9.730 -0.0532  1.1257 -0.8726
 6723SOL    HW231806   3.009   3.338   9.805  1.1371 -1.0185  0.4552
 6724SOL     OW31807   3.982   2.482   2.883  0.3347 -0.8358 -0.6111
 6724SOL    HW131808   4.031   2.563   2.882 -1.9279  0.5323 -0.5355
 6724SOL    HW231809   4.034   2.427   2.942  0.9868  1.3460  0.8450
 6725SOL     OW31810   1.960   0.273   3.252  0.1797 -0.4300 -0.6869
 6725SOL    HW131811   1.942   0.334   3.181 -1.8503 -1.5093 -1.0896
 6725SOL    HW231812   1.927   0.329   3.322  1.6399 -1.0073  0.4616
 6726SOL     OW31813   3.407   3.531   8.734  0.5175 -0.1842 -0.1339
 6726SOL    HW131814   3.386   3.461   8.796 -0.5661  2.1347  2.1301
 6726SOL    HW231815   3.328   3.530   8.680  0.6403 -3.5155 -0.2685
 6727SOL     OW31816   2.771   2.794   9.226 -0.0179 -0.7840  0.2408
 6727SOL    HW131817   2.692   2.748   9.198  0.4727 -1.0166 -0.7754
 6727SOL    HW231818   2.741   2.813   9.315  2.1761 -1.0898  1.0424
 6728SOL     OW31819   4.652   0.769   6.974  0.1950 -0.1067  1.1671
 6728SOL    HW131820   4.653   0.779   7.069 -0.4509  1.9539  0.9523
 6728SOL    HW231821   4.734   0.719   6.969 -0.0982 -0.1022 -3.5656
 6729SOL     OW31822   3.271   2.215  14.354  0.3830  0.6331 -0.0804
 6729SOL    HW131823   3.351   2.176  14.390  0.3404  0.4002 -0.2385
 6729SOL    HW231824   3.203   2.150  14.373  0.9910 -0.7737 -2.6879
 6730SOL     OW31825   2.243   1.845   1.139 -0.2461  0.6545 -0.0660
 6730SOL    HW131826   2.165   1.790   1.138  1.9043 -2.4480  0.6259
 6730SOL    HW231827   2.215   1.919   1.192 -3.3211 -0.2925 -0.3959
 6731SOL     OW31828   2.072   2.314   2.559 -0.0230 -0.3776  0.0756
 6731SOL    HW131829   2.112   2.310   2.473  1.4056  2.0522  0.6403
 6731SOL    HW231830   1.986   2.354   2.543  0.7638  1.8965  1.6318
 6732SOL     OW31831   2.720   4.468   5.762 -0.3755  0.4118 -0.1723
 6732SOL    HW131832   2.675   4.404   5.816  2.5873 -2.0801 -0.6733
 6732SOL    HW231833   2.792   4.417   5.725 -0.1345  1.8265 -1.6797
 6733SOL     OW31834   0.947   4.686   3.081  0.0981  0.0143  0.5058
 6733SOL    HW131835   0.918   4.638   3.159  1.8929 -0.8673  0.6455
 6733SOL    HW231836   0.896   0.031   3.078 -0.7248 -0.6446 -3.1490
 6734SOL     OW31837   3.641   3.952   2.527 -0.2363 -0.6394 -0.0515
 6734SOL    HW131838   3.625   4.014   2.597 -0.3695 -2.2606  1.3558
 6734SOL    HW231839   3.555   3.967   2.488 -0.3458 -0.8720  0.1004
 6735SOL     OW31840   3.046   2.654   7.144  0.4481  0.0850  0.2910
 6735SOL    HW131841   3.079   2.645   7.054 -2.3885 -3.3405 -0.3937
 6735SOL    HW231842   3.035   2.750   7.142  0.9365  0.1626  1.5165
 6736SOL     OW31843   2.393   1.536   5.993  0.3137  0.3163  0.5174
 6736SOL    HW131844   2.313   1.574   6.029  1.0618  1.6836  0.7408
 6736SOL    HW231845   2.341   1.476   5.940 -0.3186  0.2953  1.1723
 6737SOL     OW31846   4.181   2.167   5.166 -0.4963 -0.4549 -0.7011
 6737SOL    HW131847   4.087   2.183   5.163 -0.2876  0.6865 -1.2654
 6737SOL    HW231848   4.198   2.257   5.195 -0.6457 -0.7209  0.2023
 6738SOL     OW31849   2.308   3.993   5.760 -0.5608  0.1042  0.2392
 6738SOL    HW131850   2.255   3.921   5.794 -1.0819 -1.1566 -3.1852
 6738SOL    HW231851   2.370   3.941   5.709  1.6633  1.5808  1.4388
 6739SOL     OW31852   0.031   1.868   4.990 -0.7304  0.6880  0.3245
 6739SOL    HW131853   0.009   1.791   4.938 -0.5026  1.7330 -1.3279
 6739SOL    HW231854   4.728   1.841   5.073 -1.3361  0.7654  0.0681
 6740SOL     OW31855   3.029   4.020   6.816 -0.1347  0.6647 -0.4666
 6740SOL    HW131856   3.084   4.086   6.774  0.1547  0.7387  0.0362
 6740SOL    HW231857   2.991   3.963   6.749 -3.0077  1.3226  0.6028
 6741SOL     OW31858   0.661   2.588   4.378  0.0057 -0.2148 -0.0356
 6741SOL    HW131859   0.752   2.569   4.401 -0.3980  1.1415  2.5678
 6741SOL    HW231860   0.672   2.627   4.291  0.2698 -1.9350 -0.7780
 6742SOL     OW31861   2.937   0.656   4.915 -0.0687 -0.9124 -0.2195
 6742SOL    HW131862   2.880   0.608   4.856 -0.4385 -1.0667  0.2590
 6742SOL    HW231863   2.897   0.743   4.922  0.2826 -0.7176 -0.5980
 6743SOL     OW31864   2.222   2.039  17.192  0.0421 -0.1086  0.2477
 6743SOL    HW131865   2.220   2.092  17.112  0.8001 -1.2810 -0.5488
 6743SOL    HW231866   2.148   2.077  17.238 -1.8540 -1.7834 -1.3970
 6744SOL     OW31867   1.528   4.653   6.088 -0.2815  0.3135  0.4225
 6744SOL    HW131868   1.559   4.600   6.162 -0.8884 -0.7577 -0.0908
 6744SOL    HW231869   1.475   4.589   6.041  2.5376 -0.6887 -1.4003
 6745SOL     OW31870   1.601   4.551   0.593  0.0092  0.3825 -0.0613
 6745SOL    HW131871   1.640   4.610   0.657  0.0576  0.3540 -0.0646
 6745SOL    HW231872   1.660   4.480   0.566  0.8274  1.4744 -1.1159
 6746SOL     OW31873   2.534   3.175   2.699  0.4907  0.6651 -1.0186
 6746SOL    HW131874   2.491   3.093   2.674  0.4414  0.3042  0.2822
 6746SOL    HW231875   2.624   3.146   2.718  0.3102  0.2863 -0.7470
 6747SOL     OW31876   4.651   2.128   3.880 -0.4507 -0.0300 -0.5700
 6747SOL    HW131877   4.691   2.041   3.878 -0.8162 -0.1930 -0.7792
 6747SOL    HW231878   4.609   2.124   3.966 -1.1774  0.4733 -0.9061
 6748SOL     OW31879   4.231   0.271   4.945 -0.6189 -0.3507 -0.2937
 6748SOL    HW131880   4.218   0.251   4.852  3.2834  1.0115 -1.1380
 6748SOL    HW231881   4.146   0.308   4.967 -0.5210  0.2123 -0.8395
 6749SOL     OW31882   2.541   2.163   4.572  0.5266  0.2243  0.0610
 6749SOL    HW131883   2.615   2.116   4.533  0.6725  0.4257  0.0990
 6749SOL    HW231884   2.569   2.254   4.574 -3.1070  1.3561 -1.0664
 6750SOL     OW31885   3.006   2.644  15.451 -0.5599 -0.0930 -0.0783
 6750SOL    HW131886   2.925   2.612  15.412 -1.1318  1.2052  0.0404
 6750SOL    HW231887   3.001   2.610  15.540  0.5467  0.4576  0.2027
 6751SOL     OW31888   3.506   4.550   6.426  0.5093  0.3627  0.0276
 6751SOL    HW131889   3.570   4.537   6.357  1.7189 -2.1099  1.6286
 6751SOL    HW231890   3.563   4.535   6.502  0.0075  2.2764  0.8036
 6752SOL     OW31891   4.028   3.785   6.769 -0.1450  0.4800  0.0685
 6752SOL    HW131892   4.101   3.828   6.726  1.4482 -1.4570  0.8153
 6752SOL    HW231893   4.047   3.696   6.739  1.2313  0.9253 -0.3790
 6753SOL     OW31894   2.247   3.517   3.996 -0.4428  0.0849  0.1554
 6753SOL    HW131895   2.204   3.488   3.916 -0.6793  3.3481 -0.9267
 6753SOL    HW231896   2.183   3.496   4.064 -1.7488  2.1866 -0.4060
 6754SOL     OW31897   4.551   1.676   5.589  0.0425  0.5584  0.0602
 6754SOL    HW131898   4.576   1.670   5.682  1.4196  0.0746 -0.3410
 6754SOL    HW231899   4.477   1.737   5.587 -0.0405  0.2863 -4.9028
 6755SOL     OW31900   2.916   4.633  17.081  0.1695  0.2977 -0.5573
 6755SOL    HW131901   2.836   4.607  17.127 -0.4106  0.8048 -1.2933
 6755SOL    HW231902   2.965   4.561  17.121 -0.3054  0.8857  1.1130
 6756SOL     OW31903   1.580   1.038   9.495  0.0287  0.7913  0.2450
 6756SOL    HW131904   1.645   1.019   9.427 -2.5556 -0.0603 -1.9887
 6756SOL    HW231905   1.506   0.982   9.469  0.2064  0.8502 -0.3809
 6757SOL     OW31906   1.751   0.439   2.398 -0.1079 -0.8365  1.0645
 6757SOL    HW131907   1.707   0.501   2.456  0.7756  0.3628  0.4475
 6757SOL    HW231908   1.824   0.416   2.456 -0.1344  0.3428  1.5583
 6758SOL     OW31909   2.238   2.208  11.762  0.0247 -0.1309 -0.0375
 6758SOL    HW131910   2.255   2.228  11.670  0.9186 -1.4274 -0.1560
 6758SOL    HW231911   2.327   2.189  11.790 -0.2458  0.0662  0.9524
 6759SOL     OW31912   4.439   4.013   4.256 -0.1362  0.7930 -0.2513
 6759SOL    HW131913   4.434   4.063   4.175  0.0491 -0.1799 -0.8592
 6759SOL    HW231914   4.429   3.922   4.229  0.1411  0.2340  1.5464
 6760SOL     OW31915   0.925   4.084   3.708 -0.0531 -0.0663 -0.4086
 6760SOL    HW131916   1.014   4.105   3.681  0.2358  1.5570  1.8379
 6760SOL    HW231917   0.911   4.005   3.655  2.6592 -1.8857  1.5946
 6761SOL     OW31918   3.653   4.261   5.487 -0.4033  0.5061  0.1548
 6761SOL    HW131919   3.580   4.245   5.427 -2.0906 -2.0094  2.8496
 6761SOL    HW231920   3.703   4.325   5.437 -0.0381 -2.0273 -2.7111
 6762SOL     OW31921   2.337   3.842  13.180  0.2258 -0.0119 -0.1661
 6762SOL    HW131922   2.255   3.824  13.225  1.0293 -1.3247  0.7952
 6762SOL    HW231923   2.372   3.753  13.170  0.2882  0.1014 -0.9886
 6763SOL     OW31924   2.239   3.910   7.058  0.4640  0.0544 -0.3451
 6763SOL    HW131925   2.199   3.945   7.138  1.0722 -1.0840  0.4562
 6763SOL    HW231926   2.188   3.831   7.041 -1.1355  0.7938  1.0116
 6764SOL     OW31927   3.272   4.506   6.221  0.4659  0.4354 -0.2927
 6764SOL    HW131928   3.276   4.493   6.316  1.2377 -1.6011 -0.6173
 6764SOL    HW231929   3.340   4.449   6.187  1.8017  2.0165 -0.3015
 6765SOL     OW31930   3.759   3.482   2.083  0.1893  0.4908 -0.0496
 6765SOL    HW131931   3.845   3.524   2.074  0.4123  0.4288  1.8913
 6765SOL    HW231932   3.702   3.558   2.071 -0.2548  0.2102  0.3190
 6766SOL     OW31933   4.224   2.773   3.756 -0.1136 -0.7771  0.1858
 6766SOL    HW131934   4.214   2.805   3.666 -0.0187  3.0441  1.5206
 6766SOL    HW231935   4.210   2.679   3.745 -1.6525 -0.5159 -0.1121
 6767SOL     OW31936   3.206   2.049  14.004 -0.6696  0.1163  0.1863
 6767SOL    HW131937   3.218   2.142  14.024 -2.6421  0.3368  0.3190
 6767SOL    HW231938   3.172   2.055  13.914 -0.1525  3.3063  0.1820
 6768SOL     OW31939   0.103   2.082   5.950 -0.1875  0.2595  0.3970
 6768SOL    HW131940   0.121   2.031   5.872  3.0571  0.8113  0.8053
 6768SOL    HW231941   0.166   2.153   5.941  0.4882 -0.1266  1.9611
 6769SOL     OW31942   1.242   1.195   4.583 -0.0981  0.6792  0.0799
 6769SOL    HW131943   1.199   1.116   4.547 -3.4571  2.8822 -0.7330
 6769SOL    HW231944   1.333   1.166   4.595 -0.2907  0.5430  1.1632
 6770SOL     OW31945   0.307   3.112   5.698 -0.0007  0.5615  0.2543
 6770SOL    HW131946   0.386   3.125   5.645 -0.6232  1.4221 -0.4504
 6770SOL    HW231947   0.262   3.196   5.695 -0.8515  0.1485  1.4439
 6771SOL     OW31948   1.269   0.794   2.412  0.0246  0.0152 -0.0119
 6771SOL    HW131949   1.328   0.719   2.402  0.2397  0.3036 -0.8566
 6771SOL    HW231950   1.199   0.755   2.361 -1.4472  2.0055  0.5002
 6772SOL     OW31951   4.519   3.992   2.562  0.3260  0.2837  0.0336
 6772SOL    HW131952   4.586   3.925   2.578 -0.4128 -0.5788 -0.4487
 6772SOL    HW231953   4.567   4.060   2.514 -0.1253 -0.6536 -1.7547
 6773SOL     OW31954   0.844   1.116  17.683 -0.1617  0.0177 -0.1352
 6773SOL    HW131955   0.826   1.180   0.009 -2.3063  0.8942 -1.5125
 6773SOL    HW231956   0.768   1.124  17.625  0.2003 -1.2550 -0.7861
 6774SOL     OW31957   2.486   1.116   3.093  0.0277  0.4371 -0.4539
 6774SOL    HW131958   2.564   1.067   3.065  0.7298  2.2706 -1.6916
 6774SOL    HW231959   2.521   1.204   3.106 -0.3815  0.4145  0.7489
 6775SOL     OW31960   4.032   1.431   1.290  0.3629  0.2788 -0.0130
 6775SOL    HW131961   3.940   1.408   1.277  0.0627  0.6960  1.3354
 6775SOL    HW231962   4.041   1.522   1.261 -1.4369 -0.0087 -1.4827
 6776SOL     OW31963   4.265   3.399  16.194  0.0102  0.0419 -0.0919
 6776SOL    HW131964   4.358   3.390  16.174  0.1677  1.5946 -0.0590
 6776SOL    HW231965   4.242   3.486  16.163 -2.3591 -0.5591 -0.0006
 6777SOL     OW31966   2.154   2.078   7.229 -0.5286 -0.1703 -0.2325
 6777SOL    HW131967   2.106   2.112   7.304 -2.2139  1.6424 -2.1439
 6777SOL    HW231968   2.119   1.989   7.217 -0.1958 -0.7224  2.6952
 6778SOL     OW31969   0.991   1.821   4.813 -0.0061  0.2572  0.3353
 6778SOL    HW131970   0.952   1.764   4.879  1.7425 -1.6525 -0.3071
 6778SOL    HW231971   0.928   1.893   4.811 -0.3362 -0.0290  0.4207
 6779SOL     OW31972   0.165   0.075   9.066  0.6239 -0.5836 -0.3193
 6779SOL    HW131973   0.252   0.080   9.025  0.2669  0.8322 -0.8897
 6779SOL    HW231974   0.133   0.165   9.066  0.4443 -0.6329 -2.5031
 6780SOL     OW31975   1.327   3.899   7.416  0.0789 -0.0500  0.6382
 6780SOL    HW131976   1.248   3.953   7.428  0.4504  1.2122 -2.5709
 6780SOL    HW231977   1.290   3.824   7.370  1.9602 -0.0799 -0.8104
 6781SOL     OW31978   3.796   2.098   8.732 -1.0693  0.5236  0.9494
 6781SOL    HW131979   3.889   2.084   8.712 -1.2754  2.5729 -1.4019
 6781SOL    HW231980   3.756   2.101   8.645 -3.3296  1.6775  2.0284
 6782SOL     OW31981   1.944   3.572  14.742  0.2370  0.1368  0.4463
 6782SOL    HW131982   1.917   3.621  14.820 -1.9594 -0.2962 -0.0618
 6782SOL    HW231983   1.863   3.525  14.726  0.0131  0.0045  1.9140
 6783SOL     OW31984   3.419   2.335   2.401  0.0292  0.3660 -0.3810
 6783SOL    HW131985   3.510   2.314   2.421 -0.1498  0.7653  0.8614
 6783SOL    HW231986   3.412   2.303   2.311 -1.9371  1.2715 -0.5674
 6784SOL     OW31987   2.713   3.056   3.835  0.6041 -0.2306 -0.2392
 6784SOL    HW131988   2.621   3.041   3.813  0.8222 -1.4234 -0.3462
 6784SOL    HW231989   2.707   3.093   3.923  3.9320 -1.0263  0.3235
 6785SOL     OW31990   2.429   2.552   3.801 -0.0693 -0.2833 -0.3563
 6785SOL    HW131991   2.442   2.605   3.880  0.6581 -0.4123 -0.3917
 6785SOL    HW231992   2.387   2.606   3.734 -0.3252  1.2659  1.0393
 6786SOL     OW31993   3.472   1.001   2.817  0.0618 -0.3105  0.2371
 6786SOL    HW131994   3.525   1.011   2.739  0.2926  1.3381  0.6043
 6786SOL    HW231995   3.529   1.023   2.891  1.8348 -0.7905 -1.0134
 6787SOL     OW31996   1.754   1.172   6.802  0.2436  0.1243  0.2204
 6787SOL    HW131997   1.672   1.141   6.763  0.6083  2.4404 -2.3814
 6787SOL    HW231998   1.733   1.265   6.807  0.2778  0.2183 -1.5558
 6788SOL     OW31999   1.577   2.209  13.214 -0.3720 -0.6296  0.1498
 6788SOL    HW132000   1.601   2.123  13.249 -0.4131  1.5923  5.6733
 6788SOL    HW232001   1.606   2.263  13.288 -3.0696 -1.7793  2.0192
 6789SOL     OW32002   3.184   2.747   4.773 -0.2584 -0.0006  0.2787
 6789SOL    HW132003   3.099   2.725   4.734  0.6919 -1.8309 -0.7518
 6789SOL    HW232004   3.164   2.750   4.867 -1.4353  0.1423  0.0239
 6790SOL     OW32005   2.974   3.546  16.495  0.0651 -0.3438 -0.2471
 6790SOL    HW132006   2.994   3.637  16.517 -0.6276 -0.8290  2.4932
 6790SOL    HW232007   2.945   3.541  16.404 -1.9433 -0.1820  0.3744
 6791SOL     OW32008   3.579   2.287   6.901 -0.6766  0.1761 -0.1075
 6791SOL    HW132009   3.596   2.346   6.828  0.3962  0.7663  0.6228
 6791SOL    HW232010   3.569   2.206   6.852  1.6773 -0.6902  0.8676
 6792SOL     OW32011   4.118   1.319  17.561  0.4673 -0.1136  0.4803
 6792SOL    HW132012   4.059   1.384  17.600  0.6875  1.5894 -2.0039
 6792SOL    HW232013   4.150   1.270  17.637  0.1537 -2.1984 -0.7563
 6793SOL     OW32014   2.720   4.203  15.416 -0.2097  0.4092  0.9208
 6793SOL    HW132015   2.679   4.270  15.361 -0.1467 -0.6808 -0.4610
 6793SOL    HW232016   2.725   4.260  15.492 -0.8831 -1.3522  2.2872
 6794SOL     OW32017   3.875   0.570   9.772 -0.0146 -0.5562 -0.1391
 6794SOL    HW132018   3.876   0.640   9.837 -0.2368 -1.3726  0.7364
 6794SOL    HW232019   3.969   0.562   9.756  0.2816 -2.0893  2.3630
 6795SOL     OW32020   0.103   3.034   5.422  0.6752 -0.4628 -0.1825
 6795SOL    HW132021   0.126   2.964   5.483 -0.8187  0.1138  1.0475
 6795SOL    HW232022   0.187   3.063   5.385  2.7663 -1.5598  3.6043
 6796SOL     OW32023   1.458   0.007   5.648 -0.1416  0.0759 -0.0012
 6796SOL    HW132024   1.401   0.081   5.670 -1.2640 -0.2971 -1.6330
 6796SOL    HW232025   1.533   0.030   5.703 -2.0691  1.5938  1.9984
 6797SOL     OW32026   2.147   3.744   2.145 -0.0853  0.1482 -0.3967
 6797SOL    HW132027   2.199   3.824   2.135  0.9005 -0.4005  0.3454
 6797SOL    HW232028   2.140   3.743   2.240  0.7840 -1.7706 -0.3649
 6798SOL     OW32029   0.667   1.500   3.165  0.6248  0.3374 -0.2786
 6798SOL    HW132030   0.684   1.584   3.123 -1.2002  1.0107  0.3090
 6798SOL    HW232031   0.662   1.438   3.093  3.0353 -0.5263  0.2907
 6799SOL     OW32032   2.913   1.377   2.531  0.0958 -0.2658  0.5716
 6799SOL    HW132033   2.858   1.434   2.477 -1.7144 -1.0005  1.6358
 6799SOL    HW232034   2.928   1.305   2.470  0.7461  0.2642  0.1032
 6800SOL     OW32035   3.627   0.954   9.474 -0.1028  0.3541 -0.7321
 6800SOL    HW132036   3.690   1.024   9.490  0.6125 -0.5822  0.5679
 6800SOL    HW232037   3.674   0.875   9.502  0.0359  0.6223 -0.2037
 6801SOL     OW32038   0.304   2.618   6.266  0.1379  0.1041 -0.2451
 6801SOL    HW132039   0.301   2.712   6.279  2.2447  0.0489  0.7385
 6801SOL    HW232040   0.291   2.626   6.172 -0.5201 -1.2327 -0.2730
 6802SOL     OW32041   4.224   3.485   8.705 -0.4655 -0.4232  0.2202
 6802SOL    HW132042   4.178   3.538   8.641 -2.3991 -0.6745  1.4050
 6802SOL    HW232043   4.212   3.528   8.790  1.6189 -0.0616  0.3461
 6803SOL     OW32044   3.948   0.960   8.604 -0.0529  0.2566 -0.5396
 6803SOL    HW132045   3.974   1.011   8.528  2.2152 -0.7546 -0.4461
 6803SOL    HW232046   4.007   0.886   8.609 -1.6374 -0.9683  0.0330
 6804SOL     OW32047   4.190   1.875   8.744 -0.4042 -0.6635  0.0917
 6804SOL    HW132048   4.195   1.791   8.790  0.1692  1.2769  3.5754
 6804SOL    HW232049   4.278   1.913   8.747 -0.3524 -0.5995 -2.7383
 6805SOL     OW32050   1.448   0.221  12.116  0.2779 -0.1328  0.6333
 6805SOL    HW132051   1.368   0.172  12.134 -0.5197  0.7709 -0.4396
 6805SOL    HW232052   1.420   0.308  12.144  0.9771 -0.4638  2.3449
 6806SOL     OW32053   1.967   4.270   8.567  0.1353  0.9554 -0.9681
 6806SOL    HW132054   1.873   4.282   8.583  0.0982  1.0468 -1.2530
 6806SOL    HW232055   1.958   4.202   8.500 -0.2340 -2.1974  2.2620
 6807SOL     OW32056   3.159   0.713  12.948  0.5721  0.0774  0.4475
 6807SOL    HW132057   3.230   0.702  12.885 -0.6940 -0.0968 -0.9287
 6807SOL    HW232058   3.159   0.628  12.993 -3.6391  0.7557  1.7583
 6808SOL     OW32059   0.862   2.720  17.129  0.7584  0.4332  0.2955
 6808SOL    HW132060   0.821   2.794  17.173 -1.7512 -1.0020  0.3614
 6808SOL    HW232061   0.789   2.660  17.112 -0.2629  1.3503  1.5082
 6809SOL     OW32062   1.249   0.727   7.305 -0.3587 -0.0160 -0.1538
 6809SOL    HW132063   1.268   0.722   7.399 -1.2218 -0.1216  0.0191
 6809SOL    HW232064   1.231   0.821   7.301 -0.6359 -0.1531 -2.3468
 6810SOL     OW32065   0.647   0.959   8.887  0.0667  0.3612 -0.6021
 6810SOL    HW132066   0.568   1.013   8.894  0.5218  1.0897 -1.0176
 6810SOL    HW232067   0.720   1.019   8.871 -0.1034  0.1405 -2.2017
 6811SOL     OW32068   1.426   0.038   4.218  0.3360 -0.3518  0.2129
 6811SOL    HW132069   1.343   4.728   4.208 -0.7365  2.1902 -2.7268
 6811SOL    HW232070   1.419   0.058   4.311 -0.1487 -1.3102  0.3793
 6812SOL     OW32071   4.379   1.989   2.351 -0.0270 -0.5883 -0.3277
 6812SOL    HW132072   4.450   1.966   2.412 -0.0117  0.3825  0.0266
 6812SOL    HW232073   4.441   2.017   2.284 -1.0016 -1.9021 -1.7717
 6813SOL     OW32074   2.477   1.152   5.963  1.2401 -0.1631 -0.4114
 6813SOL    HW132075   2.421   1.080   5.992  1.5785 -0.4172 -0.3938
 6813SOL    HW232076   2.557   1.100   5.951  0.8609 -0.1829 -2.8615
 6814SOL     OW32077   4.597   4.226   0.462 -0.1160 -0.8292 -0.1573
 6814SOL    HW132078   4.611   4.156   0.527  1.3313 -0.4459 -0.0452
 6814SOL    HW232079   4.503   4.241   0.462 -0.0346 -0.3326 -0.3130
 6815SOL     OW32080   3.518   2.910  15.305 -0.2039 -0.3758 -0.3953
 6815SOL    HW132081   3.423   2.896  15.305 -0.3904  0.9435 -0.8852
 6815SOL    HW232082   3.537   2.904  15.399 -0.3534  0.6736 -0.2991
 6816SOL     OW32083   3.729   3.309   1.786 -0.1315 -0.2550 -0.0607
 6816SOL    HW132084   3.746   3.396   1.822  1.1908 -0.6712  0.2933
 6816SOL    HW232085   3.669   3.327   1.713 -4.9250  0.3045  4.0190
 6817SOL     OW32086   0.636   3.087   3.745  0.1400 -0.0955  0.1152
 6817SOL    HW132087   0.731   3.076   3.743  0.1547  0.0471  0.0303
 6817SOL    HW232088   0.617   3.001   3.782 -0.7762 -0.2573 -0.7361
 6818SOL     OW32089   4.496   2.715   3.897  0.4182 -0.0206  0.2786
 6818SOL    HW132090   4.433   2.750   3.834  0.6222  0.9558  0.6163
 6818SOL    HW232091   4.441   2.721   3.974 -1.9666  1.2941 -1.5234
 6819SOL     OW32092   3.765   0.358   2.359 -0.0762 -0.7383 -0.6598
 6819SOL    HW132093   3.694   0.422   2.351 -0.1285 -0.4594  1.8323
 6819SOL    HW232094   3.841   0.412   2.380 -2.0619  2.3617 -1.4194
 6820SOL     OW32095   1.558   0.982   0.125 -0.1272 -0.4660  0.3131
 6820SOL    HW132096   1.541   0.923   0.052  1.1212  0.3661 -0.6502
 6820SOL    HW232097   1.487   0.948   0.180  1.4635 -0.5669  2.2891
 6821SOL     OW32098   0.467   4.645   7.592  0.2768 -0.2794 -0.5119
 6821SOL    HW132099   0.476   4.703   7.516 -0.6841  0.7420  0.1573
 6821SOL    HW232100   0.524   4.681   7.660 -1.7661  1.1555  0.4476
 6822SOL     OW32101   1.824   2.702   4.686  0.8225 -0.3928  0.0256
 6822SOL    HW132102   1.866   2.616   4.681  1.2638  0.0362 -3.6327
 6822SOL    HW232103   1.779   2.692   4.603  0.4714 -0.1082  0.1824
 6823SOL     OW32104   3.194   2.927   8.518 -0.6309 -0.0771 -0.6390
 6823SOL    HW132105   3.195   2.834   8.538 -2.0028 -0.0373 -0.3741
 6823SOL    HW232106   3.236   2.960   8.598  0.4049 -0.2459 -1.1227
 6824SOL     OW32107   0.618   3.058   7.412  0.3178  0.6060 -0.0041
 6824SOL    HW132108   0.690   3.007   7.449 -0.2800 -1.7209 -1.9774
 6824SOL    HW232109   0.599   3.005   7.334  1.8339 -0.2842  0.2371
 6825SOL     OW32110   1.522   1.971   8.097  0.6386 -0.0368  0.0240
 6825SOL    HW132111   1.472   1.939   8.171 -2.0236 -0.8181 -2.1052
 6825SOL    HW232112   1.529   2.065   8.114  2.6768  0.0509 -1.2402
 6826SOL     OW32113   4.570   3.211   8.400  0.0268  0.3193  0.1608
 6826SOL    HW132114   4.578   3.117   8.418  1.6567  0.6438  1.0957
 6826SOL    HW232115   4.643   3.254   8.444  1.3323 -0.2852 -1.3931
 6827SOL     OW32116   3.609   1.965   8.899 -0.5691 -0.2747  0.3006
 6827SOL    HW132117   3.676   2.012   8.850 -1.4307  1.5373  0.8424
 6827SOL    HW232118   3.532   2.006   8.858  0.6930  0.9711 -0.8439
 6828SOL     OW32119   3.441   1.554   5.417  0.3978  0.1795  1.0816
 6828SOL    HW132120   3.501   1.508   5.358  0.3499 -0.6974  1.7069
 6828SOL    HW232121   3.354   1.521   5.392  0.2303  0.1609  1.6833
 6829SOL     OW32122   2.705   0.096  15.104 -0.1526  0.3490  0.0922
 6829SOL    HW132123   2.758   0.037  15.158  0.0267  0.3944 -0.0303
 6829SOL    HW232124   2.641   0.032  15.072  0.9799 -1.0606  0.6215
 6830SOL     OW32125   0.619   1.350   2.528  0.2184  0.1693  0.0013
 6830SOL    HW132126   0.648   1.440   2.515 -0.8453  0.7600  1.7788
 6830SOL    HW232127   0.702   1.303   2.529  0.2561  0.3132  2.6711
 6831SOL     OW32128   0.556   2.788   9.019  0.3776  0.2052  0.6958
 6831SOL    HW132129   0.649   2.776   9.038  0.6528  0.9657 -0.1532
 6831SOL    HW232130   0.553   2.878   8.986  0.5477 -0.4208 -1.0561
 6832SOL     OW32131   0.500   1.424   4.557  0.6127 -0.3140 -0.2162
 6832SOL    HW132132   0.454   1.428   4.641  0.9182  0.4467 -0.0771
 6832SOL    HW232133   0.436   1.476   4.509  1.1939  0.0992 -0.5516
 6833SOL     OW32134   3.001   4.429  11.564  0.6313 -0.0137  0.6222
 6833SOL    HW132135   3.058   4.392  11.498  0.3740  1.1531 -0.2529
 6833SOL    HW232136   2.935   4.473  11.509  1.1352 -0.4437 -0.3155
 6834SOL     OW32137   1.880   0.395   9.096 -0.1118 -0.1000  0.0820
 6834SOL    HW132138   1.953   0.454   9.115  1.8557 -1.9985 -1.5849
 6834SOL    HW232139   1.800   0.448   9.106 -0.2972 -0.3080 -0.3038
 6835SOL     OW32140   3.465   1.636  16.058 -0.3398  0.3617  0.1584
 6835SOL    HW132141   3.485   1.624  16.151  0.3895  1.2684  0.1088
 6835SOL    HW232142   3.522   1.710  16.036  1.3886 -1.5105 -1.6977
 6836SOL     OW32143   0.763   0.940  12.920 -0.0751 -0.0768 -0.4009
 6836SOL    HW132144   0.813   0.861  12.938 -1.3354 -0.5791  0.9294
 6836SOL    HW232145   0.725   0.932  13.007 -3.2659  1.7733 -1.6063
 6837SOL     OW32146   1.722   2.635   6.200 -0.1811  0.5432  0.0706
 6837SOL    HW132147   1.637   2.677   6.210  1.1384  2.9624  0.9788
 6837SOL    HW232148   1.695   2.543   6.199 -2.6042  1.2560 -1.6297
 6838SOL     OW32149   3.272   2.936  15.234  0.3600 -0.8073 -0.2199
 6838SOL    HW132150   3.181   2.913  15.251  0.1612  1.0511  1.1945
 6838SOL    HW232151   3.267   2.957  15.141  0.4610 -3.0683 -0.7362
 6839SOL     OW32152   3.614   3.964   4.971 -0.1547  0.0609  0.3535
 6839SOL    HW132153   3.603   3.984   4.878  1.2119 -0.0852  0.1576
 6839SOL    HW232154   3.675   3.891   4.963 -2.5991 -1.9674  0.2567
 6840SOL     OW32155   0.485   0.698  11.716 -0.2173  0.3764 -0.3338
 6840SOL    HW132156   0.427   0.713  11.791 -0.3923 -2.7740  0.1882
 6840SOL    HW232157   0.476   0.603  11.711  0.7739  0.2014  1.4355
 6841SOL     OW32158   1.147   1.398   4.729  0.1715 -0.2497  0.1526
 6841SOL    HW132159   1.211   1.425   4.796  1.9307 -1.9575 -0.8615
 6841SOL    HW232160   1.204   1.335   4.686  2.4385  3.2247 -1.9213
 6842SOL     OW32161   1.684   2.823   5.318  0.1213  0.3237  0.1678
 6842SOL    HW132162   1.646   2.735   5.318 -0.1781  0.4527  0.9572
 6842SOL    HW232163   1.761   2.803   5.264  0.2177 -1.2559  0.8901
 6843SOL     OW32164   1.779   4.288   2.100 -0.2746 -0.0821  0.1682
 6843SOL    HW132165   1.839   4.292   2.026 -1.3460 -0.0882 -0.6864
 6843SOL    HW232166   1.703   4.336   2.068  0.5390 -0.8449 -2.8662
 6844SOL     OW32167   1.630   0.915   6.162 -0.2421 -0.0175  0.2494
 6844SOL    HW132168   1.600   0.834   6.122  0.3584 -0.3073  0.3898
 6844SOL    HW232169   1.601   0.978   6.096  1.7885 -0.5665 -1.1688
 6845SOL     OW32170   3.403   1.817   8.150  0.2232 -0.5201 -0.0985
 6845SOL    HW132171   3.425   1.733   8.190 -0.9145 -1.0886 -0.6550
 6845SOL    HW232172   3.340   1.786   8.084 -1.4404  2.4230  0.1267
 6846SOL     OW32173   2.028   1.890   2.209 -0.3624 -0.2284  0.0799
 6846SOL    HW132174   2.023   1.957   2.140 -1.7587  0.5503  0.9283
 6846SOL    HW232175   2.093   1.933   2.265  0.3175 -1.1739  0.0121
 6847SOL     OW32176   2.458   4.698   5.063  0.3286  0.2308 -0.3352
 6847SOL    HW132177   2.408   0.005   4.993  2.6075  0.6359 -1.6912
 6847SOL    HW232178   2.403   4.621   5.079 -1.1825  1.5132  0.6406
 6848SOL     OW32179   2.590   0.560   7.354 -0.1223  0.3836  0.6833
 6848SOL    HW132180   2.685   0.571   7.353  0.0746 -1.3829  1.1585
 6848SOL    HW232181   2.579   0.476   7.397  0.5965 -0.0479  0.0213
 6849SOL     OW32182   3.493   0.607   9.933 -0.2613 -0.6112 -0.0746
 6849SOL    HW132183   3.484   0.658  10.013  1.1845  0.2669 -0.4576
 6849SOL    HW232184   3.545   0.673   9.885 -0.0361 -1.3767 -0.8840
 6850SOL     OW32185   3.291   3.407   2.243  0.2017  0.1587  0.1205
 6850SOL    HW132186   3.337   3.397   2.160 -1.3880 -0.5034 -0.6853
 6850SOL    HW232187   3.205   3.436   2.212  0.6257  0.9189 -0.3180
 6851SOL     OW32188   1.040   0.445   9.935  0.8852 -0.7115  0.0494
 6851SOL    HW132189   0.946   0.465   9.941  0.7405 -1.8222  1.3449
 6851SOL    HW232190   1.071   0.523   9.981 -1.1411  0.5909 -0.7434
 6852SOL     OW32191   0.586   0.880   5.099  0.2528  0.6671  0.3598
 6852SOL    HW132192   0.562   0.827   5.176  2.0212 -1.4139 -0.5415
 6852SOL    HW232193   0.553   0.963   5.137  0.0428  0.7932 -0.1002
 6853SOL     OW32194   0.858   2.013   5.075  0.3662 -0.3721 -0.4714
 6853SOL    HW132195   0.831   2.105   5.081  1.4481 -0.1024  0.2106
 6853SOL    HW232196   0.838   2.004   4.981  3.2696 -0.0969 -1.1233
 6854SOL     OW32197   0.047   2.847   1.352 -0.8247 -0.5292  0.7408
 6854SOL    HW132198   0.042   2.919   1.290  1.5170 -0.5007  0.5993
 6854SOL    HW232199   0.040   2.898   1.433 -0.5382 -1.1935  1.1869
 6855SOL     OW32200   3.674   1.071   1.698  0.6837 -0.0329  0.0936
 6855SOL    HW132201   3.643   0.992   1.656  1.9097 -1.0155  1.0123
 6855SOL    HW232202   3.696   1.120   1.619  1.7181  0.7413  0.8514
 6856SOL     OW32203   3.420   2.514  11.217 -0.0985 -0.6459  0.4618
 6856SOL    HW132204   3.493   2.541  11.161 -1.4801 -0.6968 -1.3900
 6856SOL    HW232205   3.428   2.582  11.283  1.6730 -0.7573  0.3427
 6857SOL     OW32206   1.325   3.628  15.856 -0.0019 -0.4655 -0.1084
 6857SOL    HW132207   1.259   3.598  15.918  0.8853  0.1910  1.1477
 6857SOL    HW232208   1.324   3.720  15.884 -0.1318 -0.4210 -0.2572
 6858SOL     OW32209   3.013   2.736   3.815  0.0610  0.7361 -0.3696
 6858SOL    HW132210   3.009   2.820   3.859 -0.6295 -0.0386  1.0397
 6858SOL    HW232211   2.923   2.724   3.784  1.0580  2.0458 -3.8220
 6859SOL     OW32212   0.143   1.311   7.774 -0.2056  0.1041 -0.4719
 6859SOL    HW132213   0.072   1.248   7.762  1.7150 -1.8621 -1.4614
 6859SOL    HW232214   0.174   1.287   7.862 -2.1236 -0.2605  0.1120
 6860SOL     OW32215   1.657   2.717   4.921 -0.4576  0.7803  0.0589
 6860SOL    HW132216   1.674   2.716   4.826 -1.3493  0.0826 -0.0999
 6860SOL    HW232217   1.579   2.773   4.911 -1.1785 -0.0294  1.2080
 6861SOL     OW32218   4.637   0.857   0.597 -0.5297 -0.2221  0.4017
 6861SOL    HW132219   4.614   0.826   0.684 -1.1235 -1.0119 -0.0327
 6861SOL    HW232220   4.606   0.947   0.606 -0.0183  0.1368 -1.3893
 6862SOL     OW32221   0.692   2.773   6.912 -0.2283  0.7618  0.3348
 6862SOL    HW132222   0.779   2.780   6.951 -0.3692 -0.2547  0.8316
 6862SOL    HW232223   0.711   2.723   6.832  1.2767  2.1094 -0.1554
 6863SOL     OW32224   2.397   1.590  11.973 -0.1508  0.2140  0.8915
 6863SOL    HW132225   2.428   1.502  11.995  1.8327  0.4205 -1.0691
 6863SOL    HW232226   2.304   1.584  11.995 -0.1693 -1.0276  0.5029
 6864SOL     OW32227   4.132   3.117   8.959 -0.1726 -0.3308 -0.3398
 6864SOL    HW132228   4.179   3.067   8.891 -0.7505 -0.4046 -0.6877
 6864SOL    HW232229   4.107   3.055   9.027  2.4137  0.5214  1.3988
 6865SOL     OW32230   3.484   0.598   3.361  0.0782 -0.2014 -0.1868
 6865SOL    HW132231   3.426   0.557   3.425 -0.4824  1.1374  0.1694
 6865SOL    HW232232   3.430   0.666   3.321  0.6511  0.2776 -0.1423
 6866SOL     OW32233   2.603   4.711   2.240 -0.5301  0.2642  0.0081
 6866SOL    HW132234   2.613   4.629   2.192 -2.1014 -0.5956  1.1618
 6866SOL    HW232235   2.681   0.025   2.212  1.0438 -1.0319  2.0911
 6867SOL     OW32236   3.717   2.109   8.482 -0.3132  0.6780  0.2048
 6867SOL    HW132237   3.742   2.060   8.404  0.1799  0.5277  0.4607
 6867SOL    HW232238   3.631   2.072   8.504 -0.4285  0.0430 -1.3255
 6868SOL     OW32239   0.964   4.454  13.185 -0.0811 -0.1192 -0.3735
 6868SOL    HW132240   1.000   4.494  13.264 -0.9557 -1.9774  0.9614
 6868SOL    HW232241   0.873   4.432  13.208 -0.1561  0.9458  0.3944
 6869SOL     OW32242   0.760   4.187   3.366 -0.2989  0.3500 -0.2088
 6869SOL    HW132243   0.756   4.201   3.461 -0.0971 -0.2385 -0.1143
 6869SOL    HW232244   0.687   4.238   3.330  0.0816  0.6717 -0.5334
 6870SOL     OW32245   0.603   0.351   4.339 -0.5886 -0.0640  0.4101
 6870SOL    HW132246   0.668   0.370   4.271 -0.2937  1.5959  1.1549
 6870SOL    HW232247   0.544   0.426   4.332 -0.0439  0.4824  1.7274
 6871SOL     OW32248   0.828   3.905   1.689  0.7224  0.0016  0.1979
 6871SOL    HW132249   0.873   3.825   1.716 -0.7765 -0.3526  1.6976
 6871SOL    HW232250   0.749   3.895   1.743  1.3627  1.0203  1.3266
 6872SOL     OW32251   4.613   0.230   6.198 -0.3657  0.1900 -0.2709
 6872SOL    HW132252   4.676   0.194   6.136 -1.2896  0.6754 -1.4978
 6872SOL    HW232253   4.557   0.286   6.144 -0.4288 -0.0106 -0.4123
 6873SOL     OW32254   2.079   2.708  10.690 -0.1372  0.4308  0.0558
 6873SOL    HW132255   2.084   2.781  10.752 -1.3014  0.1016  0.5359
 6873SOL    HW232256   2.047   2.632  10.738 -0.9769  1.0409  0.4833
 6874SOL     OW32257   3.491   2.696  13.278 -0.4593  0.8476  0.6853
 6874SOL    HW132258   3.583   2.706  13.301 -0.5691 -0.8626  1.9097
 6874SOL    HW232259   3.452   2.721  13.362  0.6966 -2.2341  2.1518
 6875SOL     OW32260   3.371   3.894   0.918  0.3831  0.3634  0.3312
 6875SOL    HW132261   3.343   3.986   0.924  1.0785  0.5241  1.1001
 6875SOL    HW232262   3.408   3.886   0.830 -0.5527  1.1484 -0.1347
 6876SOL     OW32263   1.019   0.485   6.411 -0.8811  0.0539 -0.1997
 6876SOL    HW132264   0.945   0.426   6.396 -0.5686  0.3369 -2.8741
 6876SOL    HW232265   1.089   0.434   6.371 -0.2690  1.4376 -0.8999
 6877SOL     OW32266   1.805   3.590   2.142 -0.0814 -0.2048 -0.1493
 6877SOL    HW132267   1.758   3.645   2.205 -0.6538 -1.1992  0.2822
 6877SOL    HW232268   1.744   3.516   2.145  1.8280 -1.7792 -0.5500
 6878SOL     OW32269   0.514   1.794   6.743 -0.2386  0.0637  0.7313
 6878SOL    HW132270   0.578   1.724   6.762  1.5274  0.8784 -2.2439
 6878SOL    HW232271   0.444   1.746   6.699 -2.0752  1.6455  1.9555
 6879SOL     OW32272   2.763   1.521  15.412 -0.1006 -0.2444 -0.1795
 6879SOL    HW132273   2.817   1.541  15.336  0.8579 -0.9333  0.3187
 6879SOL    HW232274   2.831   1.473  15.458 -0.3087 -0.4397 -0.0731
 6880SOL     OW32275   2.519   4.637  13.046 -0.0178  0.1523  0.0619
 6880SOL    HW132276   2.454   4.685  13.097  1.4312  0.4179  1.6722
 6880SOL    HW232277   2.479   4.647  12.960 -1.9767  0.2197  0.9721
 6881SOL     OW32278   4.443   2.809   2.046 -0.1353 -0.3536  0.4094
 6881SOL    HW132279   4.467   2.843   1.960 -1.4666  1.5560  0.7851
 6881SOL    HW232280   4.531   2.820   2.082  0.3714 -0.6781 -0.7327
 6882SOL     OW32281   1.008   1.443  12.347  0.3753  0.3779  0.3440
 6882SOL    HW132282   1.081   1.382  12.334  0.3968  0.8590 -1.7449
 6882SOL    HW232283   0.949   1.394  12.405  0.5283 -1.2993 -0.9074
 6883SOL     OW32284   4.144   2.730  15.151  0.3571  0.5443  0.3434
 6883SOL    HW132285   4.224   2.680  15.136  0.3800  0.0323  2.1200
 6883SOL    HW232286   4.128   2.780  15.071  0.2102 -0.8786 -0.5049
 6884SOL     OW32287   3.029   0.592  13.478  0.0596  0.1145 -0.7586
 6884SOL    HW132288   3.104   0.640  13.444 -1.5537  2.5425 -0.8536
 6884SOL    HW232289   2.963   0.660  13.472 -1.0474 -0.8187  1.0899
 6885SOL     OW32290   0.366   1.713   0.543 -0.4558  0.2307  0.4381
 6885SOL    HW132291   0.343   1.720   0.636  0.2631 -1.8913  0.7642
 6885SOL    HW232292   0.437   1.775   0.525  0.4319 -0.7897  0.4465
 6886SOL     OW32293   1.431   0.577  14.570  0.3173 -0.7329 -0.2094
 6886SOL    HW132294   1.432   0.672  14.554 -1.0893 -0.5528  0.7401
 6886SOL    HW232295   1.344   0.559  14.607  0.5607 -0.4502  0.5052
 6887SOL     OW32296   0.977   0.265   1.893  0.3177  0.6010 -0.4536
 6887SOL    HW132297   0.943   0.176   1.908 -1.9955  1.5300 -0.1916
 6887SOL    HW232298   0.933   0.308   1.966  0.0374 -0.9149  0.2857
 6888SOL     OW32299   2.738   1.954  16.712  0.1385  0.5113 -0.2552
 6888SOL    HW132300   2.788   1.891  16.661 -0.1964  1.4134 -1.6792
 6888SOL    HW232301   2.701   1.907  16.787 -0.7024  0.1987 -0.8611
 6889SOL     OW32302   0.329   4.527   4.064 -0.6568  0.0679 -0.0202
 6889SOL    HW132303   0.291   4.556   4.147  2.1129 -0.6194  1.5251
 6889SOL    HW232304   0.259   4.479   4.020  0.7306 -1.1472 -0.9009
 6890SOL     OW32305   2.995   0.519   6.150 -0.0830  0.3788 -0.2983
 6890SOL    HW132306   2.963   0.538   6.062 -0.8112  0.4174 -0.0316
 6890SOL    HW232307   3.084   0.497   6.123 -0.5184 -0.2965 -1.1926
 6891SOL     OW32308   3.267   3.275   6.236 -0.1843  0.0786  0.4798
 6891SOL    HW132309   3.297   3.194   6.194 -0.4530 -0.6430  1.6850
 6891SOL    HW232310   3.295   3.340   6.171 -1.2615 -1.4665 -1.5625
 6892SOL     OW32311   1.336   1.954  13.417  0.5917  0.2730 -0.1175
 6892SOL    HW132312   1.315   2.047  13.428  1.2299  0.2300  1.4160
 6892SOL    HW232313   1.419   1.946  13.464  0.5109  0.0969 -0.0111
 6893SOL     OW32314   3.362   0.224  17.388  0.1370 -0.6254 -0.1446
 6893SOL    HW132315   3.316   0.307  17.386 -1.0535 -1.2996 -0.8746
 6893SOL    HW232316   3.304   0.185  17.453  1.2129  0.4538  1.4703
 6894SOL     OW32317   4.381   0.370   0.245  0.5604 -0.4918 -0.1788
 6894SOL    HW132318   4.415   0.302   0.304  0.3900  0.0110  0.5069
 6894SOL    HW232319   4.295   0.386   0.283  0.7982 -1.7565  0.9296
 6895SOL     OW32320   2.255   1.884   6.319 -0.0701 -0.2369  0.1254
 6895SOL    HW132321   2.163   1.861   6.311 -0.0919 -1.3669  3.4145
 6895SOL    HW232322   2.279   1.842   6.402  3.1423  0.3022 -0.5201
 6896SOL     OW32323   3.421   4.436   1.978 -0.2575  0.0919  0.2725
 6896SOL    HW132324   3.384   4.380   2.046 -1.8643  1.9661  0.9151
 6896SOL    HW232325   3.486   4.488   2.025 -0.2480 -0.7929  1.2242
 6897SOL     OW32326   3.612   4.162   2.739  0.1736 -0.6599 -0.0030
 6897SOL    HW132327   3.519   4.186   2.736  0.6213  1.4541  2.4701
 6897SOL    HW232328   3.640   4.210   2.817 -1.1457  0.0391  0.0353
 6898SOL     OW32329   0.104   3.770  11.186 -0.4566 -0.1224 -0.7607
 6898SOL    HW132330   0.198   3.766  11.205 -0.1348  1.9322 -1.8524
 6898SOL    HW232331   0.103   3.825  11.108 -0.2202  0.3198 -0.4533
 6899SOL     OW32332   3.187   0.974   2.251 -0.1847  0.1640  0.3087
 6899SOL    HW132333   3.112   0.988   2.307  0.2572 -0.7335  1.1169
 6899SOL    HW232334   3.154   0.974   2.161 -1.6766  1.1094  0.8550
 6900SOL     OW32335   2.275   3.113   6.671 -0.0073 -0.2164  0.5457
 6900SOL    HW132336   2.318   3.148   6.749  0.1182  1.1696 -0.1488
 6900SOL    HW232337   2.239   3.028   6.695  1.6699 -1.2934 -0.7894
 6901SOL     OW32338   4.067   0.812   5.375  0.7623 -0.1466 -0.3562
 6901SOL    HW132339   4.104   0.899   5.360  2.8434 -0.6648  1.8402
 6901SOL    HW232340   3.997   0.842   5.434  1.0327 -1.5348  0.6733
 6902SOL     OW32341   0.818   1.689   7.240  0.1894  0.4936  0.1566
 6902SOL    HW132342   0.747   1.730   7.191 -0.3308 -0.6255 -0.0404
 6902SOL    HW232343   0.840   1.622   7.175 -0.9194  0.0974  0.1846
 6903SOL     OW32344   4.674   2.752   4.278 -0.2494  0.0499 -0.4752
 6903SOL    HW132345   4.613   2.809   4.233 -0.3919 -0.5836 -1.0849
 6903SOL    HW232346   4.708   2.827   4.326 -0.7143 -0.8437  1.2736
 6904SOL     OW32347   0.038   3.713   4.468  0.1344  0.0543  0.3801
 6904SOL    HW132348   0.061   3.634   4.419 -1.3299 -0.1574  0.0297
 6904SOL    HW232349   0.129   3.715   4.499 -0.7237 -3.1668  3.1410
 6905SOL     OW32350   0.396   0.762   6.123  0.0690  0.1405  1.0236
 6905SOL    HW132351   0.318   0.710   6.106  1.6331 -1.0090 -2.6893
 6905SOL    HW232352   0.468   0.699   6.125 -2.1366 -2.4546 -2.7255
 6906SOL     OW32353   2.861   3.902  12.779  0.4139  0.0899 -0.1566
 6906SOL    HW132354   2.858   3.909  12.684  0.7913 -2.8166 -0.3977
 6906SOL    HW232355   2.806   3.976  12.805 -0.6710 -0.5717 -0.5885
 6907SOL     OW32356   0.980   4.444   4.346  0.0591  0.0610  0.7571
 6907SOL    HW132357   0.905   4.413   4.297  0.9729 -1.6559  0.4603
 6907SOL    HW232358   1.050   4.421   4.285 -1.3605  1.2035 -1.3007
 6908SOL     OW32359   1.438   0.931   3.660 -0.0572 -0.5113 -0.0444
 6908SOL    HW132360   1.407   0.923   3.750  1.4024 -1.6829  0.3443
 6908SOL    HW232361   1.448   0.839   3.637 -2.7591 -0.4886 -1.3091
 6909SOL     OW32362   0.148   4.006   8.900  0.3469  0.2011 -0.6580
 6909SOL    HW132363   0.087   4.078   8.885  0.1445 -0.2372 -1.9623
 6909SOL    HW232364   0.117   3.986   8.988  0.7300  1.5292 -0.2057
 6910SOL     OW32365   4.417   2.860   4.566 -0.1729 -0.2146  0.0254
 6910SOL    HW132366   4.489   2.802   4.541  2.8358  2.5669  2.2485
 6910SOL    HW232367   4.394   2.912   4.489 -0.0220  0.5789  0.5124
 6911SOL     OW32368   3.135   1.403   2.691 -0.4757 -0.0823 -0.5095
 6911SOL    HW132369   3.079   1.408   2.615 -2.3427  1.5453  0.9905
 6911SOL    HW232370   3.155   1.494   2.712  1.3405 -0.7565  0.7438
 6912SOL     OW32371   1.918   3.069   2.859  0.0581 -0.5028  0.3918
 6912SOL    HW132372   1.921   3.009   2.785  0.9759  1.3593 -1.1046
 6912SOL    HW232373   1.827   3.099   2.858  0.4803  0.8438  1.8210
 6913SOL     OW32374   1.595   3.013  16.130 -0.3631  0.2431 -0.1601
 6913SOL    HW132375   1.505   3.015  16.164  0.3470 -0.6522  1.8293
 6913SOL    HW232376   1.625   3.101  16.152  1.2724 -0.3225 -0.1257
 6914SOL     OW32377   0.336   3.277  10.287 -0.1429  0.2014  0.1893
 6914SOL    HW132378   0.372   3.259  10.373 -0.0523  1.0386  0.3287
 6914SOL    HW232379   0.412   3.294  10.231 -1.8030 -0.8560 -2.4115
 6915SOL     OW32380   3.368   0.371  10.408 -0.5632 -0.3458  0.8302
 6915SOL    HW132381   3.433   0.435  10.437 -0.0760  0.4295 -1.9725
 6915SOL    HW232382   3.405   0.334  10.328 -1.1917  0.5492  0.1210
 6916SOL     OW32383   0.760   4.038   7.853 -0.0970 -0.6321  0.8248
 6916SOL    HW132384   0.806   4.100   7.796 -0.8452 -0.8047  0.0414
 6916SOL    HW232385   0.828   4.035   7.921 -0.5620  0.5287  1.3358
 6917SOL     OW32386   1.282   4.526   2.454 -0.2521 -0.0223 -0.0288
 6917SOL    HW132387   1.215   4.590   2.429  0.5592  1.0970  0.6474
 6917SOL    HW232388   1.320   4.582   2.523 -0.1395  1.4192 -1.2524
 6918SOL     OW32389   4.374   2.311   7.897 -0.0772  0.3020  0.1317
 6918SOL    HW132390   4.398   2.378   7.961  1.2086  0.6376 -0.7204
 6918SOL    HW232391   4.314   2.260   7.952 -1.1364  0.2279 -1.0918
 6919SOL     OW32392   4.660   0.836   3.131  0.2322  0.2392 -0.5776
 6919SOL    HW132393   4.631   0.828   3.221 -0.6259 -0.4570 -0.9192
 6919SOL    HW232394   0.014   0.809   3.151  0.2093  1.9354  1.8200
 6920SOL     OW32395   3.892   3.374   5.312 -0.1049 -0.1891 -0.5522
 6920SOL    HW132396   3.947   3.433   5.363 -1.1199  3.1112 -3.2870
 6920SOL    HW232397   3.834   3.434   5.265 -0.0927 -1.1142 -1.7510
 6921SOL     OW32398   0.608   4.065  16.917  0.1489 -0.4173 -0.0490
 6921SOL    HW132399   0.615   4.150  16.874  0.0753 -1.1926 -1.5759
 6921SOL    HW232400   0.696   4.054  16.953  0.5978  0.3136 -0.9462
 6922SOL     OW32401   4.444   3.986   2.995  0.3770 -0.3761  0.3075
 6922SOL    HW132402   4.502   3.911   3.014  1.0016 -0.5305 -2.1908
 6922SOL    HW232403   4.395   4.003   3.076 -1.2203 -0.1886 -0.7182
 6923SOL     OW32404   4.661   1.043   6.870  0.5074  0.0704  0.1591
 6923SOL    HW132405   4.628   0.957   6.896 -1.0653  0.7363  0.3723
 6923SOL    HW232406   4.684   1.034   6.778  1.0180 -0.1819  0.3100
 6924SOL     OW32407   2.478   4.290   6.522 -0.8700 -1.0606 -0.3424
 6924SOL    HW132408   2.469   4.276   6.616 -1.7473  0.4118 -0.2075
 6924SOL    HW232409   2.400   4.339   6.496 -0.7585 -0.9042 -0.3829
 6925SOL     OW32410   0.348   0.867  14.387 -0.2793  0.1365  0.1592
 6925SOL    HW132411   0.278   0.804  14.374  1.0494 -0.9617 -1.7563
 6925SOL    HW232412   0.311   0.951  14.358  0.5010 -0.2746 -2.0506
 6926SOL     OW32413   3.223   2.411   5.914  0.0266  0.3660 -0.3130
 6926SOL    HW132414   3.153   2.476   5.922 -0.4586 -0.2650  0.6764
 6926SOL    HW232415   3.282   2.438   5.984 -1.2748 -1.7074  1.5978
 6927SOL     OW32416   2.880   3.292   3.106  0.0587  0.6945  0.5254
 6927SOL    HW132417   2.833   3.280   3.023  2.5166  3.5866 -1.2903
 6927SOL    HW232418   2.970   3.300   3.074 -0.1348 -4.0433 -1.1808
 6928SOL     OW32419   4.132   1.720   6.264  0.2597  0.1128 -0.3079
 6928SOL    HW132420   4.213   1.759   6.231  1.2666 -1.7074  0.0233
 6928SOL    HW232421   4.148   1.738   6.357  0.2403 -1.0586 -0.0808
 6929SOL     OW32422   2.343   3.623   6.012  0.1078  0.1822  0.7174
 6929SOL    HW132423   2.334   3.700   6.068  2.0832  2.6836 -2.3695
 6929SOL    HW232424   2.437   3.629   5.999 -0.0385  2.1224  0.5966
 6930SOL     OW32425   0.234   0.859   5.208  0.4482 -0.1539  0.1623
 6930SOL    HW132426   0.285   0.884   5.285  0.0953  0.6078  0.1512
 6930SOL    HW232427   0.146   0.854   5.245 -0.6396  0.7150 -2.2639
 6931SOL     OW32428   4.369   4.701  10.797  0.2236 -0.5681 -0.2953
 6931SOL    HW132429   4.428   4.627  10.780  0.6874  0.5725 -3.6289
 6931SOL    HW232430   4.407   0.006  10.875 -0.3187 -0.5378 -0.0492
 6932SOL     OW32431   3.878   1.852  16.534 -0.1029 -0.3829 -0.4827
 6932SOL    HW132432   3.873   1.938  16.492 -0.3160  0.8137  1.9780
 6932SOL    HW232433   3.926   1.861  16.616 -0.9417 -1.3802  0.1127
 6933SOL     OW32434   4.046   2.624   7.305 -0.4831 -0.1339 -0.0178
 6933SOL    HW132435   4.116   2.575   7.350 -1.9543  0.1999  2.6429
 6933SOL    HW232436   3.972   2.564   7.309 -1.1351  0.7180  0.5964
 6934SOL     OW32437   2.483   1.684   6.781  0.1780  0.5095 -0.5121
 6934SOL    HW132438   2.472   1.615   6.716  0.9628 -0.6969  0.6282
 6934SOL    HW232439   2.401   1.664   6.827  1.1810  0.9974  1.5023
 6935SOL     OW32440   4.406   1.510   1.782  0.2146 -0.0190  0.0512
 6935SOL    HW132441   4.384   1.494   1.691 -0.4911  1.2026  0.0200
 6935SOL    HW232442   4.495   1.475   1.789 -0.7969 -2.7540 -0.8177
 6936SOL     OW32443   3.289   1.128   2.584  0.7478  0.2055 -0.5179
 6936SOL    HW132444   3.258   1.156   2.498  1.8758  2.3320 -0.2418
 6936SOL    HW232445   3.348   1.199   2.612  1.6851 -0.1969 -1.4750
 6937SOL     OW32446   3.249   2.556   4.285  0.1232 -0.0249  0.1260
 6937SOL    HW132447   3.219   2.585   4.199 -2.4545  1.5418  1.5538
 6937SOL    HW232448   3.189   2.484   4.303  1.1753 -0.9345 -0.0435
 6938SOL     OW32449   0.584   2.105  16.647  1.1311  0.0833  0.1152
 6938SOL    HW132450   0.637   2.114  16.567 -0.2781  0.5598 -0.7724
 6938SOL    HW232451   0.602   2.184  16.696  0.5213  0.9621 -1.0634
 6939SOL     OW32452   4.674   0.618   3.766  0.5943  0.3259  0.6250
 6939SOL    HW132453   4.702   0.623   3.675 -3.2896  0.2931 -0.5494
 6939SOL    HW232454   4.665   0.523   3.769 -2.8653  0.5631 -3.3468
 6940SOL     OW32455   0.187   2.861   8.463  0.3169 -0.6751 -0.3804
 6940SOL    HW132456   0.208   2.768   8.469 -0.2360 -0.7999 -0.3793
 6940SOL    HW232457   0.238   2.881   8.385  0.3265 -1.9964 -0.7085
 6941SOL     OW32458   4.428   4.727   9.132  0.1087 -0.3079  0.6268
 6941SOL    HW132459   4.519   4.712   9.105 -1.5409 -0.5534 -4.7747
 6941SOL    HW232460   4.386   4.669   9.068  1.7628  0.2197 -0.9383
 6942SOL     OW32461   3.048   3.435  13.019 -0.0264  0.0099  0.0913
 6942SOL    HW132462   3.140   3.428  12.992 -0.2426  0.9237 -0.8669
 6942SOL    HW232463   3.034   3.351  13.062 -1.0590  1.1674  2.0014
 6943SOL     OW32464   3.865   3.851   3.611 -0.1059  0.2300 -0.1269
 6943SOL    HW132465   3.802   3.883   3.676  1.3023  0.5731  1.0679
 6943SOL    HW232466   3.806   3.818   3.544 -0.6409  0.0788  0.4147
 6944SOL     OW32467   4.026   4.721   2.853 -0.4175 -0.1767 -0.5033
 6944SOL    HW132468   4.017   4.643   2.908 -0.5598 -0.5415 -1.0548
 6944SOL    HW232469   4.119   4.722   2.831 -0.4180 -1.2864 -0.5578
 6945SOL     OW32470   2.455   1.036   7.606 -0.1713 -0.3772 -0.0297
 6945SOL    HW132471   2.523   1.103   7.620 -0.4089  0.5374 -3.0634
 6945SOL    HW232472   2.507   0.957   7.620  2.0444  1.4675  2.2252
 6946SOL     OW32473   0.361   3.774  10.654 -0.1895  0.2299 -0.9039
 6946SOL    HW132474   0.428   3.716  10.619 -0.1526  0.6452 -1.5298
 6946SOL    HW232475   0.323   3.816  10.577 -0.0522 -0.5943 -1.4206
 6947SOL     OW32476   2.527   3.923  14.981 -0.0405 -0.0611  0.3924
 6947SOL    HW132477   2.511   4.005  14.934  0.4885  0.5928  1.3419
 6947SOL    HW232478   2.584   3.959  15.049 -0.2419  0.2519  0.3979
 6948SOL     OW32479   2.782   3.320   4.749 -0.4709  1.2345  0.0623
 6948SOL    HW132480   2.771   3.348   4.840 -3.6160  0.3055 -0.0292
 6948SOL    HW232481   2.694   3.333   4.713 -0.1754  1.1066 -0.7062
 6949SOL     OW32482   4.509   3.351   1.699 -0.1724 -0.3456 -0.2752
 6949SOL    HW132483   4.529   3.303   1.780 -0.3725  1.3101  0.7565
 6949SOL    HW232484   4.531   3.290   1.629  0.0198  1.6822 -1.9615
 6950SOL     OW32485   3.252   2.569   2.793 -0.7022 -0.4607  0.7056
 6950SOL    HW132486   3.298   2.513   2.731  0.0279  0.1642  0.6820
 6950SOL    HW232487   3.316   2.619   2.842  0.5410 -1.4069  0.0513
 6951SOL     OW32488   3.585   2.280   6.447  0.0219  0.7070  0.0983
 6951SOL    HW132489   3.623   2.346   6.389 -1.8157  1.3876 -0.3363
 6951SOL    HW232490   3.508   2.318   6.489  0.1094  0.4361  0.5071
 6952SOL     OW32491   4.146   2.238   2.418  0.1310  0.1089  0.1585
 6952SOL    HW132492   4.151   2.196   2.332  0.5536  2.6434 -1.0610
 6952SOL    HW232493   4.241   2.247   2.430  0.2095  1.3891 -1.5243
 6953SOL     OW32494   4.035   4.724   6.342 -0.4026  0.0992 -0.1721
 6953SOL    HW132495   4.071   4.674   6.269  0.4285 -3.0136  2.3852
 6953SOL    HW232496   3.951   0.026   6.314 -0.3945  0.3466  0.1440
 6954SOL     OW32497   0.029   2.521   2.398 -0.3927  0.6835 -0.5433
 6954SOL    HW132498   0.031   2.511   2.493  0.7651  0.3945 -0.5959
 6954SOL    HW232499   4.677   2.556   2.387 -0.5775  0.0742 -1.0125
 6955SOL     OW32500   1.618   0.681   6.978  0.3653  0.5196  0.1235
 6955SOL    HW132501   1.709   0.657   6.994  0.5531  1.5397  0.6372
 6955SOL    HW232502   1.634   0.776   6.981 -0.5946  0.7016 -0.3509
 6956SOL     OW32503   1.914   3.385   3.344  0.5704 -0.7593 -0.0558
 6956SOL    HW132504   1.864   3.313   3.381  0.1655 -0.1096  0.6776
 6956SOL    HW232505   1.906   3.357   3.253 -1.2036  0.1305 -0.1763
 6957SOL     OW32506   3.343   3.934   6.558 -0.0792 -0.3682  0.4268
 6957SOL    HW132507   3.298   4.014   6.531  1.6698 -0.5471 -3.0296
 6957SOL    HW232508   3.397   3.966   6.630 -0.1654 -0.1876  0.4107
 6958SOL     OW32509   1.591   1.418   4.473  0.0529 -0.2044 -0.3583
 6958SOL    HW132510   1.626   1.507   4.478  1.1204 -0.4894 -3.0111
 6958SOL    HW232511   1.499   1.441   4.456  0.6901  0.7520 -2.5570
 6959SOL     OW32512   1.666   3.191  16.777 -0.2669 -0.8211 -1.0438
 6959SOL    HW132513   1.632   3.137  16.847  0.6942 -0.5556 -0.3679
 6959SOL    HW232514   1.749   3.145  16.760  1.2015  1.2981  0.3068
 6960SOL     OW32515   3.126   4.071   2.571  0.2781  0.3862 -0.0731
 6960SOL    HW132516   3.031   4.074   2.563  0.4471  2.6774 -1.1860
 6960SOL    HW232517   3.123   3.995   2.628 -0.4507  2.0715  2.1304
 6961SOL     OW32518   4.038   4.568   9.507 -0.4852  0.0181 -0.3074
 6961SOL    HW132519   4.069   4.524   9.587  1.2996 -1.1233 -1.6290
 6961SOL    HW232520   4.115   4.533   9.462  1.1944  0.9154  1.8353
 6962SOL     OW32521   4.269   2.338  14.109 -0.2984 -0.0577 -0.1854
 6962SOL    HW132522   4.295   2.430  14.115  1.3121 -0.4298 -1.4005
 6962SOL    HW232523   4.178   2.337  14.139  0.0771 -0.7354  0.8978
 6963SOL     OW32524   2.442   2.699   9.953 -0.1460 -0.4345 -0.5276
 6963SOL    HW132525   2.390   2.728  10.029  0.5013  0.0465 -0.2715
 6963SOL    HW232526   2.393   2.621   9.925  0.1510 -0.5895 -0.6075
 6964SOL     OW32527   0.683   4.715  12.039  0.2663  0.0931 -0.5037
 6964SOL    HW132528   0.589   4.731  12.036  0.1353 -0.9351 -1.7337
 6964SOL    HW232529   0.722   0.044  11.980 -0.4958  0.9532 -0.0628
 6965SOL     OW32530   0.931   1.674  10.164  0.4280 -0.4831  0.5173
 6965SOL    HW132531   0.978   1.736  10.220  0.5699 -1.9336  2.0143
 6965SOL    HW232532   1.001   1.647  10.105  1.9195  1.3299  1.4485
 6966SOL     OW32533   2.912   3.120   9.472 -0.0821  0.2054 -0.4046
 6966SOL    HW132534   2.986   3.070   9.437 -1.0389 -0.1476 -1.9573
 6966SOL    HW232535   2.941   3.141   9.560  1.0645  1.0544 -0.9736
 6967SOL     OW32536   3.279   2.442   8.904 -0.0764  0.2524  0.2006
 6967SOL    HW132537   3.191   2.445   8.941  0.7955  0.2721  2.2810
 6967SOL    HW232538   3.253   2.450   8.813 -2.8892 -0.2830  0.9630
 6968SOL     OW32539   3.935   1.559   2.889  0.2352  0.0700 -0.3589
 6968SOL    HW132540   3.982   1.521   2.815 -0.6194  1.3512 -1.5693
 6968SOL    HW232541   4.002   1.588   2.951  1.0934 -2.1916 -0.2368
 6969SOL     OW32542   0.880   0.288   6.084 -0.4652  0.1612 -0.0256
 6969SOL    HW132543   0.934   0.218   6.120  0.2034  0.3641 -0.6300
 6969SOL    HW232544   0.878   0.262   5.992  0.3164  1.5630 -0.4337
 6970SOL     OW32545   4.074   4.450  11.900 -0.3962 -0.3649 -0.3889
 6970SOL    HW132546   4.153   4.428  11.851 -0.1013 -1.9512  0.7632
 6970SOL    HW232547   4.004   4.421  11.842  0.2612 -0.1649 -1.2732
 6971SOL     OW32548   4.241   4.264   8.447 -0.5114  0.0575  0.5453
 6971SOL    HW132549   4.205   4.335   8.499 -0.8595  0.6005 -0.4326
 6971SOL    HW232550   4.179   4.196   8.475 -1.4671 -0.7350 -3.3924
 6972SOL     OW32551   3.044   2.605  11.470  0.5579  0.2720  0.0972
 6972SOL    HW132552   3.115   2.546  11.497  2.2369  2.2956  0.1188
 6972SOL    HW232553   2.988   2.605  11.547 -0.4362 -0.5846 -0.6449
 6973SOL     OW32554   4.261   0.747  15.226  0.0402 -0.4960 -0.1586
 6973SOL    HW132555   4.325   0.696  15.176  1.2860  0.2663  0.6440
 6973SOL    HW232556   4.225   0.684  15.289  0.0932 -0.9836 -0.6169
 6974SOL     OW32557   2.242   3.035  14.986  0.4716  0.5727 -0.4432
 6974SOL    HW132558   2.245   3.120  14.943 -1.4509  0.0583 -1.6483
 6974SOL    HW232559   2.153   3.045  15.021 -0.3297  2.5139 -3.0791
 6975SOL     OW32560   3.865   1.614   1.093 -0.6844 -0.2759  0.5981
 6975SOL    HW132561   3.826   1.529   1.071 -1.2310  0.8921 -2.9155
 6975SOL    HW232562   3.849   1.668   1.016  1.2507 -2.1307 -1.1084
 6976SOL     OW32563   1.006   3.735   3.254  0.0823  0.2613  0.2282
 6976SOL    HW132564   1.076   3.684   3.213  1.4022  2.5532 -0.3038
 6976SOL    HW232565   0.961   3.775   3.179 -0.9634 -2.8238 -0.8392
 6977SOL     OW32566   4.102   4.649   5.662 -0.5906  0.6159 -0.2218
 6977SOL    HW132567   4.075   4.729   5.707  1.8671  0.7890  0.9641
 6977SOL    HW232568   4.145   4.594   5.728  0.1745 -1.2606 -2.2533
 6978SOL     OW32569   3.343   1.559   2.481  0.3052  0.0871  0.0432
 6978SOL    HW132570   3.281   1.599   2.542  3.5004 -0.7631  3.8324
 6978SOL    HW232571   3.330   1.468   2.504 -2.4959  0.6637  0.7654
 6979SOL     OW32572   2.379   4.597  11.572 -0.6838 -0.1260  0.2418
 6979SOL    HW132573   2.453   4.625  11.519 -1.7917 -1.3880 -2.0057
 6979SOL    HW232574   2.415   4.546  11.644  0.5626  0.0774 -0.2496
 6980SOL     OW32575   3.157   0.472   8.098  0.0819 -0.2223 -0.4633
 6980SOL    HW132576   3.153   0.382   8.133  2.1796  1.0053  2.9535
 6980SOL    HW232577   3.123   0.529   8.166  0.0414  0.4922 -1.0787
 6981SOL     OW32578   2.021   1.855  15.884 -0.6667 -0.0072  0.1130
 6981SOL    HW132579   2.051   1.891  15.801 -0.5216  2.3216  1.1514
 6981SOL    HW232580   2.077   1.778  15.888 -0.9844 -0.2120  0.6112
 6982SOL     OW32581   3.382   4.251   9.323 -0.4709  0.5273  0.2558
 6982SOL    HW132582   3.370   4.228   9.231  0.6646  0.6935  0.0709
 6982SOL    HW232583   3.289   4.256   9.347 -0.0144  1.7446  1.7049
 6983SOL     OW32584   3.874   2.058   9.494 -0.0395 -0.3425 -0.7059
 6983SOL    HW132585   3.846   2.030   9.407 -1.1960 -2.0317  0.1974
 6983SOL    HW232586   3.874   1.975   9.542  3.5709  0.7822  1.2843
 6984SOL     OW32587   3.630   1.172   6.423 -0.0271 -0.3955 -0.4236
 6984SOL    HW132588   3.592   1.159   6.337  0.7179 -1.1844 -0.6324
 6984SOL    HW232589   3.678   1.254   6.408 -0.0282 -0.1465  0.8971
 6985SOL     OW32590   0.786   3.464   5.180  0.0775 -0.0012 -0.0668
 6985SOL    HW132591   0.868   3.512   5.182 -0.9903  1.6393  4.3854
 6985SOL    HW232592   0.712   3.513   5.144  1.1589  0.2062 -2.0039
 6986SOL     OW32593   0.442   0.872   3.821  0.4362  0.3180 -0.2944
 6986SOL    HW132594   0.373   0.921   3.865  1.2399  0.5623  0.6906
 6986SOL    HW232595   0.418   0.783   3.847  1.3219  0.6040  1.4834
 6987SOL     OW32596   2.191   2.789   2.641 -0.1765 -0.0573 -0.2110
 6987SOL    HW132597   2.232   2.721   2.694 -1.8150 -1.1466 -0.3610
 6987SOL    HW232598   2.108   2.783   2.689 -0.5319 -0.1658 -0.8342
 6988SOL     OW32599   0.767   0.824  11.967  0.3561  0.5127 -0.7616
 6988SOL    HW132600   0.744   0.841  11.875  1.0852  0.6273 -0.9191
 6988SOL    HW232601   0.686   0.783  11.999 -0.4699  1.8342 -1.1901
 6989SOL     OW32602   0.825   0.500   6.958 -0.3036  0.6398  0.3551
 6989SOL    HW132603   0.875   0.462   7.030 -2.3739 -1.1011  0.8623
 6989SOL    HW232604   0.787   0.584   6.985 -0.2326  0.0509  2.2543
 6990SOL     OW32605   3.440   2.359  11.660 -0.0847 -0.3653  0.3887
 6990SOL    HW132606   3.495   2.372  11.737 -2.0232 -0.2148  1.7328
 6990SOL    HW232607   3.362   2.410  11.683  0.1938 -0.3063  1.2061
 6991SOL     OW32608   0.494   1.659   3.333 -0.5279  0.1795  0.3369
 6991SOL    HW132609   0.524   1.656   3.242  0.4852 -0.3533  0.6922
 6991SOL    HW232610   0.553   1.593   3.370  2.1264  1.0251 -2.3689
 6992SOL     OW32611   3.265   1.609   9.645 -0.2774  0.2671  0.3231
 6992SOL    HW132612   3.274   1.607   9.741 -1.5708 -0.2079  0.4408
 6992SOL    HW232613   3.246   1.703   9.636 -4.4419 -0.8534 -2.4802
 6993SOL     OW32614   3.556   1.655   5.142 -0.3100 -0.1264 -0.2706
 6993SOL    HW132615   3.612   1.632   5.068  1.4113 -1.2592  1.3997
 6993SOL    HW232616   3.616   1.663   5.216 -0.7103 -1.4328  0.1882
 6994SOL     OW32617   3.155   0.376   4.135 -0.2606  0.2031 -0.3322
 6994SOL    HW132618   3.081   0.437   4.134 -1.4467 -1.2544 -1.1068
 6994SOL    HW232619   3.212   0.408   4.205 -0.8060  0.2754  0.0791
 6995SOL     OW32620   0.049   3.473  11.642  0.1640  0.2737  0.5699
 6995SOL    HW132621   0.054   3.545  11.705  4.5364  2.5386 -2.2917
 6995SOL    HW232622   0.043   3.517  11.557 -0.2571  3.8535  2.4555
 6996SOL     OW32623   4.007   2.382   7.962 -0.0753  0.0942  0.4600
 6996SOL    HW132624   3.933   2.387   8.023  0.7641 -1.3508  1.6002
 6996SOL    HW232625   4.068   2.329   8.014  1.5887  1.2783 -0.3172
 6997SOL     OW32626   3.825   0.604  13.589  0.1596  0.3812  0.2795
 6997SOL    HW132627   3.909   0.566  13.615  0.0023 -0.8027 -0.9370
 6997SOL    HW232628   3.758   0.555  13.636  0.6757 -1.9834 -1.4798
 6998SOL     OW32629   3.501   3.253  16.321  0.3460 -0.0620  0.2918
 6998SOL    HW132630   3.432   3.236  16.385  0.7168  1.8056  1.2067
 6998SOL    HW232631   3.580   3.293  16.357 -0.0912 -0.0736  1.2779
 6999SOL     OW32632   3.392   3.269  12.954  0.4241  0.3874  0.4237
 6999SOL    HW132633   3.349   3.355  12.949 -0.4386 -0.2517 -3.3343
 6999SOL    HW232634   3.329   3.231  13.015  0.0748 -0.0213 -0.1935
 7000SOL     OW32635   4.327   3.048   3.521  0.4221 -0.0973  0.4924
 7000SOL    HW132636   4.351   3.094   3.601 -1.0373  0.6377  0.5192
 7000SOL    HW232637   4.388   2.975   3.520 -1.1625 -1.3836 -2.3572
 7001SOL     OW32638   1.799   0.399   7.540 -0.0198  0.1835 -0.5187
 7001SOL    HW132639   1.787   0.394   7.635 -0.2867  1.7011 -0.4734
 7001SOL    HW232640   1.815   0.309   7.509 -0.2780 -0.3071  0.7875
 7002SOL     OW32641   3.399   0.673  13.171  0.3740  0.2103  0.4543
 7002SOL    HW132642   3.340   0.600  13.153  0.8908  0.3790 -2.0521
 7002SOL    HW232643   3.411   0.716  13.086  1.5175 -0.6021  0.2014
 7003SOL     OW32644   4.387   4.560   6.034  0.0322 -0.0583 -0.0945
 7003SOL    HW132645   4.470   4.580   5.991  0.7157 -0.8931  0.8469
 7003SOL    HW232646   4.346   4.646   6.044  0.9829  0.6679 -2.4241
 7004SOL     OW32647   0.696   0.931   1.787  0.1082  0.4962  0.2998
 7004SOL    HW132648   0.734   0.855   1.742 -1.6454  0.6862 -1.5002
 7004SOL    HW232649   0.617   0.945   1.736  0.3934 -2.6935 -1.0066
 7005SOL     OW32650   0.727   0.635   1.840 -0.1880 -0.0424  0.1654
 7005SOL    HW132651   0.756   0.633   1.749 -1.9006 -1.5997 -0.3309
 7005SOL    HW232652   0.632   0.626   1.832 -0.2880  1.2055  0.0113
 7006SOL     OW32653   0.276   3.283   8.873 -0.5015 -0.1944 -0.3481
 7006SOL    HW132654   0.221   3.277   8.952 -0.1665  1.2988  0.0058
 7006SOL    HW232655   0.292   3.377   8.885  0.3286 -0.2294 -1.2169
 7007SOL     OW32656   4.222   1.600   7.202 -0.1804 -0.2338 -0.3140
 7007SOL    HW132657   4.253   1.623   7.115  1.7899  2.5998  1.1495
 7007SOL    HW232658   4.301   1.588   7.254 -0.2815 -0.7854 -0.2888
 7008SOL     OW32659   1.204   4.721   6.279 -0.2591 -0.3203 -0.7735
 7008SOL    HW132660   1.215   4.630   6.306 -0.2016 -0.1866 -0.3452
 7008SOL    HW232661   1.122   4.735   6.327  0.5811  1.2053  0.2410
 7009SOL     OW32662   2.382   1.941   7.622  0.5377 -0.7846  0.2193
 7009SOL    HW132663   2.455   1.948   7.561 -0.7851  3.2522 -0.8915
 7009SOL    HW232664   2.301   1.956   7.573  0.8964  0.0674 -0.1124
 7010SOL     OW32665   3.099   0.562   8.694 -0.0380 -0.2813  0.3429
 7010SOL    HW132666   3.070   0.495   8.631 -1.0203  1.4665 -1.0581
 7010SOL    HW232667   3.159   0.518   8.754  2.9571  1.2964 -1.4954
 7011SOL     OW32668   3.517   2.655  14.318 -0.1770 -0.1248 -0.3284
 7011SOL    HW132669   3.537   2.694  14.233 -3.4381  2.5270  0.0958
 7011SOL    HW232670   3.445   2.716  14.337  0.3533 -0.2574  2.0095
 7012SOL     OW32671   2.677   0.037   4.430 -0.2046  0.2307 -0.3973
 7012SOL    HW132672   2.709   0.042   4.520  0.3490  1.9483 -0.6885
 7012SOL    HW232673   2.691   0.126   4.397 -2.7165  1.1251  0.9113
 7013SOL     OW32674   4.130   4.211   2.906  0.7489 -0.0915 -0.2323
 7013SOL    HW132675   4.216   4.174   2.884  1.3366  0.8937  0.3966
 7013SOL    HW232676   4.118   4.168   2.991 -2.5100 -0.1751 -0.7205
 7014SOL     OW32677   2.700   3.720  12.975  0.6920  0.1922 -0.1999
 7014SOL    HW132678   2.781   3.694  13.019  0.5485 -0.4789 -0.3209
 7014SOL    HW232679   2.740   3.722  12.887  1.5170 -2.0969  0.1069
 7015SOL     OW32680   1.071   2.837   6.211  1.0374  0.4202  0.6081
 7015SOL    HW132681   1.045   2.830   6.302 -0.5607 -1.7743 -0.0074
 7015SOL    HW232682   1.066   2.929   6.184 -1.4946 -0.1785 -0.9642
 7016SOL     OW32683   3.586   3.713   3.139  0.2511 -0.5758  0.0448
 7016SOL    HW132684   3.573   3.621   3.116 -0.4901 -0.9898  2.0563
 7016SOL    HW232685   3.603   3.750   3.053  1.9279 -1.3532  0.0378
 7017SOL     OW32686   3.015   1.516   6.420 -0.2686 -0.2158 -0.0241
 7017SOL    HW132687   3.084   1.537   6.483 -1.2875 -0.3140  1.1105
 7017SOL    HW232688   3.067   1.508   6.340  1.2976  0.9395  0.8699
 7018SOL     OW32689   0.123   2.395  16.506 -0.0119 -0.3626 -0.5904
 7018SOL    HW132690   0.117   2.388  16.601 -0.9046  0.3121 -0.5985
 7018SOL    HW232691   0.149   2.486  16.496 -0.0738 -0.5748 -2.7373
 7019SOL     OW32692   3.167   1.144   3.175  0.4747 -0.0927  0.4703
 7019SOL    HW132693   3.158   1.189   3.091  0.6261 -1.6736 -0.3864
 7019SOL    HW232694   3.252   1.184   3.196  1.5619 -1.0125 -2.1860
 7020SOL     OW32695   1.231   3.644  12.001  0.2220 -0.4938 -0.2320
 7020SOL    HW132696   1.144   3.682  12.015  0.2067 -0.1177 -1.3214
 7020SOL    HW232697   1.265   3.627  12.089  1.2324  0.7982 -0.3640
 7021SOL     OW32698   2.539   0.766  17.499 -0.4656 -0.1067  0.2240
 7021SOL    HW132699   2.628   0.789  17.471 -0.9738  0.3818 -0.9929
 7021SOL    HW232700   2.537   0.677  17.465  0.4958 -0.2611  0.5666
 7022SOL     OW32701   1.714   0.023   2.624 -0.0446 -0.0247  0.1012
 7022SOL    HW132702   1.807   0.029   2.641 -0.0662  0.3955  0.0743
 7022SOL    HW232703   1.688   0.114   2.639  2.0225  0.5595  0.0918
 7023SOL     OW32704   0.197   3.825   3.202 -0.3964 -0.5171 -0.1333
 7023SOL    HW132705   0.166   3.766   3.133 -1.1243 -0.8776  0.5050
 7023SOL    HW232706   0.204   3.755   3.267 -0.7617 -0.6698 -0.2592
 7024SOL     OW32707   2.173   0.175   2.745  0.0357 -0.6117  0.2142
 7024SOL    HW132708   2.177   0.271   2.742  2.4164 -0.7046  0.0290
 7024SOL    HW232709   2.079   0.165   2.761 -0.1041  0.9780  0.4447
 7025SOL     OW32710   2.290   3.525   7.092 -0.3891  0.4750 -0.1547
 7025SOL    HW132711   2.350   3.578   7.040 -0.4472  0.6193 -0.0759
 7025SOL    HW232712   2.214   3.583   7.086 -0.3902  0.6784  2.0594
 7026SOL     OW32713   1.794   1.120   9.310  0.2613  0.0589  0.0542
 7026SOL    HW132714   1.890   1.121   9.309  0.2743 -2.0906 -0.5227
 7026SOL    HW232715   1.781   1.181   9.383 -1.1075  1.0344 -1.0028
 7027SOL     OW32716   3.223   1.271   0.830  0.4213 -0.1335 -0.0391
 7027SOL    HW132717   3.169   1.301   0.904  1.1590  2.0038 -0.3617
 7027SOL    HW232718   3.180   1.310   0.754 -1.4643 -2.6509 -0.2433
 7028SOL     OW32719   4.081   1.816   8.012  0.2205 -0.8349 -0.0678
 7028SOL    HW132720   3.988   1.796   8.000 -0.1891 -0.0886  1.9013
 7028SOL    HW232721   4.118   1.731   7.987  0.1914 -0.5671 -1.0182
 7029SOL     OW32722   3.355   1.097   3.643 -0.3419 -0.5463  0.4414
 7029SOL    HW132723   3.365   1.034   3.572  1.5180  0.0321  0.1812
 7029SOL    HW232724   3.401   1.172   3.604 -0.3414  0.3665  2.1970
 7030SOL     OW32725   2.253   4.620   3.074  0.1979  0.3042 -0.3447
 7030SOL    HW132726   2.190   4.670   3.124 -1.4102  0.2309 -2.2852
 7030SOL    HW232727   2.196   4.572   3.014  1.5154 -0.4973 -0.9824
 7031SOL     OW32728   1.608   1.573   5.613 -0.6339 -0.4787  0.2743
 7031SOL    HW132729   1.681   1.618   5.569 -1.5679 -0.7110 -1.4955
 7031SOL    HW232730   1.566   1.553   5.529 -0.3971 -1.9270  0.5010
 7032SOL     OW32731   2.982   1.180  13.764 -0.2136  0.0404 -0.4830
 7032SOL    HW132732   2.927   1.204  13.690 -1.0957  0.7123  0.3889
 7032SOL    HW232733   2.931   1.133  13.830  1.0674  1.8387  1.7944
 7033SOL     OW32734   0.609   4.129   8.793 -0.3191 -0.5694  0.4088
 7033SOL    HW132735   0.606   4.154   8.885  0.6489 -0.3006  0.3683
 7033SOL    HW232736   0.533   4.071   8.793  0.0285 -1.0326  0.8903
 7034SOL     OW32737   1.455   1.896  15.277  0.0132 -0.3002 -0.5537
 7034SOL    HW132738   1.446   1.803  15.259 -0.7285 -0.6530  1.7447
 7034SOL    HW232739   1.449   1.905  15.372 -0.4634 -0.1808 -0.5945
 7035SOL     OW32740   3.463   3.787  16.427  0.1488 -0.5419  0.4264
 7035SOL    HW132741   3.367   3.792  16.424  0.2515 -0.8559 -2.7810
 7035SOL    HW232742   3.485   3.846  16.499 -0.0059 -0.5754  0.5009
 7036SOL     OW32743   1.852   2.421   7.239 -1.2234  0.0834 -0.2930
 7036SOL    HW132744   1.806   2.436   7.156 -0.8716 -2.2341 -0.9165
 7036SOL    HW232745   1.833   2.494   7.297 -0.2673  0.0077  0.1044
 7037SOL     OW32746   0.470   0.578   1.832 -0.4208 -0.1136  0.1205
 7037SOL    HW132747   0.434   0.667   1.832  0.7835  0.3744  1.5925
 7037SOL    HW232748   0.399   0.521   1.863 -1.7700  1.9774  0.8495
 7038SOL     OW32749   0.933   0.565   4.780 -0.1725  0.0409 -0.3867
 7038SOL    HW132750   1.023   0.533   4.775 -0.1375 -0.2905  2.4948
 7038SOL    HW232751   0.945   0.631   4.711 -1.6479 -0.4929 -1.1684
 7039SOL     OW32752   3.427   3.728   7.845  0.1810  0.0152 -0.1154
 7039SOL    HW132753   3.375   3.808   7.858 -0.0720 -0.3996  1.4119
 7039SOL    HW232754   3.427   3.715   7.750  1.5007 -2.4292  0.2124
 7040SOL     OW32755   3.322   2.599   5.019 -0.0688  0.3232 -0.1101
 7040SOL    HW132756   3.350   2.531   5.081  0.5439 -0.2474 -1.0308
 7040SOL    HW232757   3.399   2.645   4.989 -0.7612  1.6844  0.2094
 7041SOL     OW32758   3.082   0.678   8.972 -0.1950  0.1226  0.6201
 7041SOL    HW132759   3.131   0.595   8.971  0.2067  0.3621 -0.2286
 7041SOL    HW232760   3.135   0.735   8.915 -0.6743  0.5403  0.5921
 7042SOL     OW32761   2.364   1.050   2.854  0.7203  0.0941  0.3203
 7042SOL    HW132762   2.270   1.071   2.855  1.0806  1.7002  0.5634
 7042SOL    HW232763   2.389   1.053   2.946 -0.2996  0.3693  0.5899
 7043SOL     OW32764   2.647   2.905   8.501  0.3854  0.2330 -0.1402
 7043SOL    HW132765   2.725   2.867   8.461  1.9885  1.0742  2.2101
 7043SOL    HW232766   2.637   2.863   8.587  2.0914 -0.5811 -0.3380
 7044SOL     OW32767   2.666   0.064   6.764 -0.0845  0.1382 -0.0976
 7044SOL    HW132768   2.696   0.154   6.774  1.2397 -0.3240  0.1165
 7044SOL    HW232769   2.570   0.071   6.759  0.0189  1.4965 -0.0679
 7045SOL     OW32770   4.683   1.714  15.638 -0.0497  0.5516 -0.6681
 7045SOL    HW132771   4.644   1.793  15.674  0.6574  0.1235  1.0693
 7045SOL    HW232772   4.608   1.656  15.651  1.3596 -1.0042  0.4925
 7046SOL     OW32773   4.230   2.326   3.996 -0.0819  0.4787  0.0805
 7046SOL    HW132774   4.231   2.268   4.072  0.9121 -1.1211 -1.1648
 7046SOL    HW232775   4.144   2.366   4.009  0.0895  0.3918  1.5570
 7047SOL     OW32776   1.164   3.675   7.351 -0.1398 -0.2617  0.7104
 7047SOL    HW132777   1.161   3.615   7.276  0.4580  2.7135 -1.6996
 7047SOL    HW232778   1.233   3.635   7.404  1.5214 -0.5833 -1.6746
 7048SOL     OW32779   0.343   4.119   9.282 -0.8694  0.3322  0.3005
 7048SOL    HW132780   0.290   4.196   9.258 -1.0191 -0.1425 -0.8825
 7048SOL    HW232781   0.421   4.160   9.321  0.4655 -4.6351  2.8203
 7049SOL     OW32782   4.248   3.839  11.587 -0.2184  0.1125  0.1345
 7049SOL    HW132783   4.335   3.817  11.552  0.0887  0.7004  0.5266
 7049SOL    HW232784   4.212   3.751  11.599 -2.6873  0.9644 -1.0640
 7050SOL     OW32785   2.750   4.420  13.136 -0.2160  1.0223 -0.1217
 7050SOL    HW132786   2.663   4.409  13.097 -1.2978  0.3167  2.5268
 7050SOL    HW232787   2.736   4.398  13.228 -0.5518 -0.1351 -0.4471
 7051SOL     OW32788   1.195   4.549   3.042 -0.8465  0.3220  0.5063
 7051SOL    HW132789   1.114   4.601   3.037 -0.1154  1.4275  0.2229
 7051SOL    HW232790   1.160   4.461   3.053  1.1575 -0.6740 -1.3502
 7052SOL     OW32791   2.160   1.530   2.166 -0.0835 -0.0867  0.1247
 7052SOL    HW132792   2.184   1.603   2.224 -1.5644  2.4537 -2.5127
 7052SOL    HW232793   2.211   1.457   2.203 -0.3722 -1.3635 -2.0216
 7053SOL     OW32794   3.436   4.358  16.882  0.2836 -0.2114  0.2826
 7053SOL    HW132795   3.385   4.307  16.945  0.1385  0.8473  1.0410
 7053SOL    HW232796   3.388   4.441  16.885 -0.7814 -0.9237  2.7824
 7054SOL     OW32797   3.116   0.616  10.477 -0.1798 -0.2661 -0.2711
 7054SOL    HW132798   3.026   0.588  10.495 -0.3949 -0.7107 -2.0411
 7054SOL    HW232799   3.117   0.622  10.381  2.7298  0.9844 -0.1601
 7055SOL     OW32800   3.277   3.113  15.758 -0.1654  0.2274  0.0058
 7055SOL    HW132801   3.282   3.158  15.842 -0.1530  1.5141 -0.6964
 7055SOL    HW232802   3.356   3.060  15.764 -1.4597 -1.8231 -0.7735
 7056SOL     OW32803   3.110   4.535  11.798 -0.1020 -0.0015 -0.4978
 7056SOL    HW132804   3.048   4.505  11.732  0.1095 -1.0530 -0.2091
 7056SOL    HW232805   3.142   4.617  11.761  4.0337 -1.0268  0.8146
 7057SOL     OW32806   4.625   1.694   5.203 -0.4017 -0.1021  0.0713
 7057SOL    HW132807   4.606   1.650   5.286  1.6910  0.2470  0.7425
 7057SOL    HW232808   4.538   1.719   5.172 -0.4512  1.0529  1.1298
 7058SOL     OW32809   1.130   2.143   5.934 -0.2842  0.2145 -0.0383
 7058SOL    HW132810   1.072   2.145   5.857  1.8259  0.0045 -1.6307
 7058SOL    HW232811   1.206   2.198   5.915 -1.1732  1.1752 -0.8638
 7059SOL     OW32812   2.003   0.218   6.756 -0.0048 -0.1184  0.1344
 7059SOL    HW132813   1.961   0.260   6.681  1.8721 -2.0534 -2.0112
 7059SOL    HW232814   2.033   0.286   6.816 -0.9489  0.0270  0.4472
 7060SOL     OW32815   4.167   1.321   8.205 -0.0748  0.2812 -0.2340
 7060SOL    HW132816   4.098   1.387   8.211 -1.7229 -1.5746  1.3989
 7060SOL    HW232817   4.169   1.324   8.110  0.6824 -1.9536 -0.2970
 7061SOL     OW32818   2.099   3.110   5.505 -0.2546 -0.1207  0.3818
 7061SOL    HW132819   2.035   3.138   5.440  1.7943  0.7887 -1.2373
 7061SOL    HW232820   2.127   3.024   5.474  1.4326  1.3805 -2.1854
 7062SOL     OW32821   0.989   0.045   6.432  0.0725 -0.0479 -0.4655
 7062SOL    HW132822   0.948   0.130   6.412 -0.5786 -0.0095  1.0677
 7062SOL    HW232823   0.910   4.732   6.453  0.5339 -0.3029  0.6286
 7063SOL     OW32824   3.380   0.474   2.132 -0.5241  0.2694  0.2281
 7063SOL    HW132825   3.456   0.460   2.189 -0.1381  0.2856 -0.2837
 7063SOL    HW232826   3.392   0.569   2.127  0.5386  0.1376  0.3116
 7064SOL     OW32827   4.721   3.559   8.358 -0.0962  0.2895 -0.2471
 7064SOL    HW132828   0.000   3.465   8.347 -0.2083  0.1343  0.8532
 7064SOL    HW232829   4.681   3.574   8.273  0.1268  0.0888 -0.3873
 7065SOL     OW32830   4.078   2.673  14.733 -0.3526 -0.2407 -0.0762
 7065SOL    HW132831   4.024   2.619  14.676  0.1053 -0.9729  0.1929
 7065SOL    HW232832   4.151   2.617  14.757  2.0774  2.2078 -1.7744
 7066SOL     OW32833   2.828   3.353   7.603 -0.2299 -0.1344 -0.6281
 7066SOL    HW132834   2.826   3.449   7.611  0.4979 -0.1240 -0.6574
 7066SOL    HW232835   2.811   3.332   7.695  2.6589 -2.7192 -0.7260
 7067SOL     OW32836   3.755   3.932   6.661  0.3116 -0.5733 -0.2615
 7067SOL    HW132837   3.836   3.948   6.710  0.5630  0.1936 -0.9199
 7067SOL    HW232838   3.765   3.962   6.570 -1.2683  2.1844  0.5000
 7068SOL     OW32839   3.211   0.619  16.602 -0.7527 -0.0479  0.3407
 7068SOL    HW132840   3.305   0.613  16.587 -1.1028  0.0788 -1.7862
 7068SOL    HW232841   3.201   0.710  16.629  0.2424  0.3254 -0.5340
 7069SOL     OW32842   1.273   3.133  12.040 -0.7551  0.0463 -0.5515
 7069SOL    HW132843   1.200   3.155  12.097 -1.3092  0.1462 -1.2983
 7069SOL    HW232844   1.272   3.217  11.993  0.6499  1.0975  1.2946
 7070SOL     OW32845   2.276   4.668   9.894 -0.6046 -0.7065 -0.5098
 7070SOL    HW132846   2.359   4.641   9.854  0.1212  0.0553  0.4966
 7070SOL    HW232847   2.273   0.020   9.856 -0.5721 -0.5427 -0.1301
 7071SOL     OW32848   1.904   2.722  17.448 -0.1573 -0.0684  0.6571
 7071SOL    HW132849   1.867   2.787  17.390 -1.5922 -1.1645  0.3381
 7071SOL    HW232850   1.946   2.671  17.379 -1.4821 -0.0081 -0.1802
 7072SOL     OW32851   2.563   3.113  11.471 -0.9734 -0.0406 -0.7470
 7072SOL    HW132852   2.608   3.188  11.511 -1.8790 -0.1419  0.4686
 7072SOL    HW232853   2.561   3.137  11.379  3.3388 -2.0886 -1.3386
 7073SOL     OW32854   3.377   1.815   0.764  0.0922 -0.0954 -0.0474
 7073SOL    HW132855   3.317   1.846   0.832 -0.7908  0.8919 -1.2753
 7073SOL    HW232856   3.330   1.735   0.742  0.9449 -0.4911 -0.4347
 7074SOL     OW32857   3.780   2.383  12.468 -0.1237 -0.0986 -0.0238
 7074SOL    HW132858   3.730   2.387  12.549 -0.1812 -1.6911  0.0203
 7074SOL    HW232859   3.853   2.325  12.491 -1.0138 -1.2892 -0.2127
 7075SOL     OW32860   0.004   4.228   8.901 -0.4038  0.5258 -0.0961
 7075SOL    HW132861   4.710   4.205   8.989 -0.4297  1.9504  0.2744
 7075SOL    HW232862   4.714   4.320   8.907 -1.2091  0.3193 -0.3034
 7076SOL     OW32863   3.976   2.135   4.901  0.4207  0.5180 -0.1664
 7076SOL    HW132864   3.928   2.097   4.827 -0.2607 -1.0126  1.0765
 7076SOL    HW232865   3.961   2.059   4.957 -0.1369  0.0644 -0.9240
 7077SOL     OW32866   2.047   2.227  13.144  0.1639 -0.4308 -0.4324
 7077SOL    HW132867   2.137   2.223  13.178  1.4194  3.0354 -3.3255
 7077SOL    HW232868   2.056   2.279  13.064  0.4502 -1.7941 -1.3083
 7078SOL     OW32869   0.856   4.468   3.901 -0.2989  0.2197  0.5835
 7078SOL    HW132870   0.765   4.493   3.916 -0.1389 -0.3183  2.4801
 7078SOL    HW232871   0.855   4.385   3.949  0.5105  0.6463  1.3306
 7079SOL     OW32872   1.307   4.573   8.726  0.7912  0.1393 -1.0636
 7079SOL    HW132873   1.366   4.516   8.677  1.7457 -0.4097  0.7070
 7079SOL    HW232874   1.333   4.661   8.700 -0.6320  1.2898  1.4168
 7080SOL     OW32875   0.656   0.956   3.694 -0.0076 -0.8559  0.0508
 7080SOL    HW132876   0.575   0.929   3.738  0.7694 -0.2575  1.8537
 7080SOL    HW232877   0.716   0.885   3.717 -0.4464 -1.2733 -0.1051
 7081SOL     OW32878   0.238   3.171   8.630 -0.7548 -0.2688 -0.0416
 7081SOL    HW132879   0.269   3.190   8.719 -1.9694  1.2858  0.0495
 7081SOL    HW232880   0.184   3.093   8.643  1.3082 -1.5495  0.9535
 7082SOL     OW32881   3.159   3.230   5.946  0.1026 -0.4426  0.5051
 7082SOL    HW132882   3.088   3.272   5.897  1.6874  1.6647 -0.0016
 7082SOL    HW232883   3.131   3.139   5.953 -0.7087 -0.1007  1.7077
 7083SOL     OW32884   2.805   2.988  14.008 -0.5851  0.1934 -0.2029
 7083SOL    HW132885   2.791   3.023  14.096  0.5317  1.0008 -0.3439
 7083SOL    HW232886   2.773   2.901  14.032  2.1277 -0.6328  0.4896
 7084SOL     OW32887   1.580   3.107   3.715  0.3939 -0.2938 -0.3790
 7084SOL    HW132888   1.528   3.154   3.650  0.0400 -1.3353 -0.8508
 7084SOL    HW232889   1.647   3.074   3.656  1.0742  0.7924 -0.2044
 7085SOL     OW32890   3.571   3.866   7.017  0.3433 -0.3477  0.0651
 7085SOL    HW132891   3.521   3.785   7.018  1.0093 -0.7788 -1.1228
 7085SOL    HW232892   3.652   3.850   7.065 -0.4029  0.9029  1.7313
 7086SOL     OW32893   3.830   3.362   7.531 -0.2572 -0.3286  0.2654
 7086SOL    HW132894   3.882   3.429   7.487  2.7917 -1.1475  2.6390
 7086SOL    HW232895   3.868   3.285   7.489  1.0409  0.4923 -0.0501
 7087SOL     OW32896   2.830   1.139  11.954 -0.2311  0.1939 -0.9020
 7087SOL    HW132897   2.883   1.174  12.025 -2.2726  2.7357 -0.6410
 7087SOL    HW232898   2.891   1.144  11.880  0.1686 -0.5528 -0.6229
 7088SOL     OW32899   3.273   1.798  10.251  0.2687 -0.0313  0.0851
 7088SOL    HW132900   3.246   1.826  10.338 -2.0446  0.5604 -0.8326
 7088SOL    HW232901   3.309   1.710  10.267 -1.0848 -0.6680 -0.3852
 7089SOL     OW32902   0.446   0.734   3.017 -0.4085 -0.5425 -0.5275
 7089SOL    HW132903   0.509   0.734   3.089  0.3962  0.3685 -1.2223
 7089SOL    HW232904   0.462   0.651   2.973 -0.9694 -0.9220 -0.0012
 7090SOL     OW32905   1.622   0.505   3.158 -0.6449  0.3708 -0.1390
 7090SOL    HW132906   1.593   0.508   3.249 -3.1463 -2.1070 -0.8576
 7090SOL    HW232907   1.635   0.595   3.128  1.3315 -0.3518 -1.3982
 7091SOL     OW32908   1.911   0.482   3.434  0.6552  0.4986 -0.2586
 7091SOL    HW132909   1.958   0.566   3.441 -0.9003  1.3575 -0.0206
 7091SOL    HW232910   1.835   0.500   3.490  0.1764 -0.7145 -0.5157
 7092SOL     OW32911   0.488   4.318   0.166 -0.1917  0.1442  0.2484
 7092SOL    HW132912   0.453   4.388   0.220  0.1867  0.4044  0.1503
 7092SOL    HW232913   0.471   4.240   0.220  2.0881 -0.8940 -0.5564
 7093SOL     OW32914   2.144   2.608   6.936 -0.0661 -0.7498  0.0783
 7093SOL    HW132915   2.171   2.680   6.993 -0.0926  0.2768 -1.1961
 7093SOL    HW232916   2.146   2.537   7.001  0.0462 -0.8776 -0.0639
 7094SOL     OW32917   3.839   4.045   5.242  0.4395  0.5919 -0.1750
 7094SOL    HW132918   3.859   4.093   5.162  1.1280  0.4608 -0.0758
 7094SOL    HW232919   3.912   4.067   5.299  0.2371 -0.3287  0.4289
 7095SOL     OW32920   3.541   0.403   2.741  0.0652 -0.5615  0.3447
 7095SOL    HW132921   3.486   0.419   2.664  0.7285  2.1514  0.4078
 7095SOL    HW232922   3.574   0.318   2.712 -0.2929 -0.7954  0.6311
 7096SOL     OW32923   1.405   3.793   7.675 -0.2877 -0.1915 -0.3601
 7096SOL    HW132924   1.478   3.739   7.645  0.0419 -1.0466  1.9619
 7096SOL    HW232925   1.370   3.832   7.595  0.3104  2.7107  0.8062
 7097SOL     OW32926   4.576   1.624   2.874 -0.6218 -0.4431  0.2736
 7097SOL    HW132927   4.597   1.718   2.878 -1.7227 -0.2024  0.2489
 7097SOL    HW232928   4.483   1.633   2.893 -0.5478 -3.6301  2.1218
 7098SOL     OW32929   0.082   2.007  14.902  0.2544  0.5862 -0.4416
 7098SOL    HW132930   0.169   1.972  14.885  0.5234  0.4465  1.1853
 7098SOL    HW232931   0.029   1.933  14.932  1.7594 -1.2305 -2.3293
 7099SOL     OW32932   4.441   4.301   8.252  0.1424  0.2442  0.0692
 7099SOL    HW132933   4.430   4.238   8.181  3.0796 -2.5003  2.0389
 7099SOL    HW232934   4.379   4.267   8.317 -0.5482  1.3021 -0.0238
 7100SOL     OW32935   3.101   3.643  13.288 -0.4510  0.1008  0.2241
 7100SOL    HW132936   3.181   3.642  13.235 -0.5469  0.2077  0.0773
 7100SOL    HW232937   3.089   3.549  13.296 -3.0527  0.2348 -2.1712
 7101SOL     OW32938   3.397   4.311   8.804  0.7181 -0.0675 -0.2878
 7101SOL    HW132939   3.383   4.253   8.729 -0.8632  1.0859 -0.8592
 7101SOL    HW232940   3.380   4.390   8.753 -2.2318 -1.6949 -1.8086
 7102SOL     OW32941   4.346   3.552  12.988  0.4414  0.1425  0.3809
 7102SOL    HW132942   4.271   3.495  12.969  0.5193 -0.0276  0.5892
 7102SOL    HW232943   4.393   3.535  12.906 -0.9771 -0.1333 -0.3757
 7103SOL     OW32944   2.454   3.806   8.529 -0.6338  0.0951 -0.0471
 7103SOL    HW132945   2.361   3.827   8.528 -1.0422 -1.5016  4.3600
 7103SOL    HW232946   2.481   3.872   8.465  0.9215 -0.3288  0.1613
 7104SOL     OW32947   2.945   2.036   3.214 -0.1193  0.0547 -0.1868
 7104SOL    HW132948   2.976   1.964   3.268 -0.9813  1.1654  1.7760
 7104SOL    HW232949   3.022   2.080   3.177 -0.3732 -1.4163 -2.4589
 7105SOL     OW32950   3.365   4.570   7.986  0.3588 -0.0308  0.2150
 7105SOL    HW132951   3.420   4.618   7.924 -0.5476  0.0237 -0.5527
 7105SOL    HW232952   3.412   4.487   7.992  0.1402 -0.2833 -1.4990
 7106SOL     OW32953   1.554   4.245   9.256 -0.1768 -0.1806  0.2061
 7106SOL    HW132954   1.545   4.150   9.247 -0.4150 -0.1170 -0.2248
 7106SOL    HW232955   1.488   4.277   9.194 -0.9782 -0.4828  0.8999
 7107SOL     OW32956   1.525   0.473   7.132  0.3036  0.0325 -0.1424
 7107SOL    HW132957   1.559   0.556   7.097  2.2412 -1.1243 -1.0076
 7107SOL    HW232958   1.448   0.469   7.075  0.8463 -0.8497 -0.8030
 7108SOL     OW32959   0.616   3.315   7.948 -0.1145 -0.3845  0.2858
 7108SOL    HW132960   0.689   3.378   7.952 -2.1735  1.8268  2.8921
 7108SOL    HW232961   0.614   3.300   7.854 -0.0158 -0.1769  0.2512
 7109SOL     OW32962   2.192   3.109   7.834 -0.1501 -0.3720 -0.4265
 7109SOL    HW132963   2.281   3.106   7.799  0.0065  3.2365 -0.3962
 7109SOL    HW232964   2.186   3.016   7.854  2.2038 -0.2949  0.6233
 7110SOL     OW32965   0.273   4.583   0.837  0.4982  0.2734 -0.2418
 7110SOL    HW132966   0.231   4.503   0.807  1.4569 -0.6898  0.9988
 7110SOL    HW232967   0.207   4.651   0.822  1.2249  1.1202  0.3512
 7111SOL     OW32968   3.173   0.068   3.392  0.3806 -0.1863  0.5832
 7111SOL    HW132969   3.080   0.045   3.386  0.4595  0.3646 -2.8657
 7111SOL    HW232970   3.177   0.160   3.367  1.0543 -0.3531  0.0805
 7112SOL     OW32971   2.688   0.508   5.280  0.1886  0.2230  0.5931
 7112SOL    HW132972   2.677   0.414   5.299 -2.1019  0.6080  1.1250
 7112SOL    HW232973   2.654   0.513   5.191  0.7889  0.2927  0.3636
 7113SOL     OW32974   0.290   4.248   4.933  0.1107  0.2145  0.3407
 7113SOL    HW132975   0.232   4.220   4.863  1.3431  1.2923 -1.1271
 7113SOL    HW232976   0.259   4.337   4.945 -0.3598  0.3350 -1.6859
 7114SOL     OW32977   2.453   2.236   8.665  0.3305 -0.1480  0.0805
 7114SOL    HW132978   2.361   2.262   8.655  0.3504  0.3783  1.3082
 7114SOL    HW232979   2.470   2.283   8.746 -2.8018  1.3248 -0.0917
 7115SOL     OW32980   3.272   0.523   6.073 -0.0438 -0.6031 -0.2772
 7115SOL    HW132981   3.335   0.475   6.127  0.4764  2.5209  1.8422
 7115SOL    HW232982   3.277   0.469   5.994 -0.6733 -0.0177 -0.7154
 7116SOL     OW32983   2.158   4.303   9.851  0.4377 -0.3786  0.3841
 7116SOL    HW132984   2.150   4.266   9.763 -0.9105 -3.1419  1.6744
 7116SOL    HW232985   2.253   4.316   9.852  0.2605  0.8801  0.7270
 7117SOL     OW32986   1.109   3.154   4.925  0.2836 -0.8016  0.2586
 7117SOL    HW132987   1.153   3.189   5.003  3.0303 -4.2196  0.2358
 7117SOL    HW232988   1.055   3.083   4.959  0.7156 -0.0867  2.4973
 7118SOL     OW32989   2.567   1.307   7.618 -0.4017 -0.0831  0.1975
 7118SOL    HW132990   2.592   1.317   7.526 -0.5907 -0.5568  0.0937
 7118SOL    HW232991   2.650   1.332   7.658 -1.4547  0.4028  2.0565
 7119SOL     OW32992   1.044   4.360   7.478  0.1372  0.1336  0.2427
 7119SOL    HW132993   1.002   4.445   7.490  0.2288 -0.1171  2.2309
 7119SOL    HW232994   1.083   4.359   7.390  0.0623  1.0969  0.1936
 7120SOL     OW32995   2.769   1.481   7.034 -0.2697 -0.4221 -0.4415
 7120SOL    HW132996   2.814   1.457   7.116 -1.3613  2.3741  0.9579
 7120SOL    HW232997   2.793   1.571   7.015  2.0688 -1.0591 -0.5035
 7121SOL     OW32998   1.979   3.068  15.091  0.3485 -0.5355 -0.7282
 7121SOL    HW132999   1.944   2.993  15.140 -1.6648  0.4623 -0.6210
 7121SOL    HW233000   1.898   3.113  15.065 -0.8644 -2.2004  0.1071
 7122SOL     OW33001   4.267   2.378   0.387 -0.0777 -1.0786  0.5454
 7122SOL    HW133002   4.285   2.330   0.307  0.0410 -2.3082  1.3024
 7122SOL    HW233003   4.278   2.471   0.367 -2.2410 -1.0244 -0.4069
 7123SOL     OW33004   0.022   4.440  10.831  0.6780 -0.4127  0.8129
 7123SOL    HW133005   4.683   4.425  10.773 -0.1162  1.3714  1.3963
 7123SOL    HW233006   4.721   4.492  10.902  0.6985  0.9645 -0.1732
 7124SOL     OW33007   2.020   1.605  13.836 -0.4491 -0.2686 -0.0615
 7124SOL    HW133008   1.970   1.523  13.829 -1.6962  0.7133 -2.7621
 7124SOL    HW233009   1.978   1.636  13.916 -2.1700  0.7174 -1.3476
 7125SOL     OW33010   0.885   1.421   8.299  0.0858  0.2434 -0.0943
 7125SOL    HW133011   0.818   1.354   8.313  0.2055  0.0973 -0.2227
 7125SOL    HW233012   0.886   1.413   8.203 -0.7120  0.8644 -0.1557
 7126SOL     OW33013   3.538   0.028   4.609  0.3720 -0.4707 -0.2133
 7126SOL    HW133014   3.517   0.048   4.701  1.3613  0.1370 -0.1250
 7126SOL    HW233015   3.497   4.678   4.604  0.4487 -0.4471 -1.1895
 7127SOL     OW33016   0.232   1.826   8.255  0.1767 -1.0063  0.4725
 7127SOL    HW133017   0.313   1.844   8.303  1.0105  1.6194 -1.9208
 7127SOL    HW233018   0.231   1.731   8.252 -1.1783 -1.0305  1.3527
 7128SOL     OW33019   1.741   3.995   5.681 -0.5207  0.0256 -0.3995
 7128SOL    HW133020   1.709   3.957   5.763  0.5968  0.9080  0.4461
 7128SOL    HW233021   1.747   3.924   5.616  0.5925 -1.2777  1.1129
 7129SOL     OW33022   2.105   1.691  16.823 -0.3429 -0.3350 -0.6365
 7129SOL    HW133023   2.067   1.741  16.895 -0.7673 -1.4074 -0.1163
 7129SOL    HW233024   2.187   1.654  16.856  0.7588  2.2003 -0.5187
 7130SOL     OW33025   1.545   3.464  11.106 -0.2024 -0.1416 -0.0096
 7130SOL    HW133026   1.526   3.376  11.075 -0.4123 -0.2871  0.5372
 7130SOL    HW233027   1.641   3.465  11.116 -0.1462 -1.4359 -0.4520
 7131SOL     OW33028   4.258   3.886   7.611  0.0730 -0.8786 -0.0526
 7131SOL    HW133029   4.204   3.928   7.678  0.1876  1.7160 -1.5702
 7131SOL    HW233030   4.275   3.797   7.641  0.6380  0.0909  2.5391
 7132SOL     OW33031   1.633   2.972   4.338 -0.3298 -0.4757  1.3815
 7132SOL    HW133032   1.705   2.916   4.368  2.2921  1.9607 -0.3752
 7132SOL    HW233033   1.685   3.043   4.299  0.2073 -0.4030  2.2353
 7133SOL     OW33034   3.473   3.669  15.787  0.2308  0.1170  0.4795
 7133SOL    HW133035   3.461   3.664  15.882 -0.8328  0.4058  0.3555
 7133SOL    HW233036   3.388   3.639  15.756  0.4213 -1.0938  1.1450
 7134SOL     OW33037   2.560   1.259  12.263  0.0976 -0.0382  0.3673
 7134SOL    HW133038   2.515   1.301  12.336  0.9101  1.6277 -0.1106
 7134SOL    HW233039   2.646   1.240  12.300 -0.4734 -0.5797  1.4193
 7135SOL     OW33040   3.719   3.549   5.206 -0.5451  0.5525 -0.4439
 7135SOL    HW133041   3.703   3.640   5.230 -2.7268 -0.1587  0.8480
 7135SOL    HW233042   3.675   3.544   5.121 -0.7137  0.9892 -0.3790
 7136SOL     OW33043   0.929   1.045   1.456  0.2703 -0.0162  0.7645
 7136SOL    HW133044   0.978   1.091   1.387  0.4941 -0.8515  0.3702
 7136SOL    HW233045   0.847   1.092   1.439  0.9991  0.9333 -0.1626
 7137SOL     OW33046   1.599   4.566   8.165  0.1720  0.0659 -0.0267
 7137SOL    HW133047   1.680   4.517   8.152  0.0147  0.2050 -1.5748
 7137SOL    HW233048   1.609   4.604   8.252 -0.2170 -3.2963  1.4782
 7138SOL     OW33049   4.169   4.234   2.005  0.0852  0.1635 -0.1845
 7138SOL    HW133050   4.225   4.285   2.064 -1.7829  3.0326 -0.8764
 7138SOL    HW233051   4.232   4.175   1.964  0.4216  0.1196  0.3938
 7139SOL     OW33052   4.672   4.584   6.596 -0.1054  0.3396 -0.4956
 7139SOL    HW133053   4.592   4.601   6.547  0.5618  1.7149 -1.1267
 7139SOL    HW233054   4.634   4.567   6.682 -1.4730 -2.6170 -1.6839
 7140SOL     OW33055   0.188   3.302   3.752 -0.1622 -0.5912 -0.2433
 7140SOL    HW133056   0.258   3.250   3.711  0.7145  0.0418  0.4458
 7140SOL    HW233057   0.144   3.342   3.677 -1.5112 -0.6601  0.5238
 7141SOL     OW33058   0.689   0.951   6.364  0.0034  0.3566  0.3958
 7141SOL    HW133059   0.731   0.879   6.318  0.6149  1.1614 -0.2937
 7141SOL    HW233060   0.758   0.977   6.424  0.0167  0.5493  0.2943
 7142SOL     OW33061   2.337   2.304   4.457  0.4404  0.9343  0.2836
 7142SOL    HW133062   2.353   2.389   4.498 -0.8663  0.7583  1.1869
 7142SOL    HW233063   2.398   2.251   4.508  0.5025  0.2033 -0.5608
 7143SOL     OW33064   2.565   3.120   6.199  0.2045  0.1564 -0.6543
 7143SOL    HW133065   2.628   3.083   6.137 -1.3890 -1.5722 -1.2864
 7143SOL    HW233066   2.484   3.074   6.176 -1.0119  1.4524  1.0779
 7144SOL     OW33067   0.046   2.402  13.151  0.5747 -0.5903 -0.4897
 7144SOL    HW133068   4.714   2.339  13.176  1.2262 -0.5077  1.5285
 7144SOL    HW233069   0.058   2.431  13.242 -0.7346 -0.0236 -0.5103
 7145SOL     OW33070   3.097   4.197   8.194 -0.9601  0.0889 -0.1802
 7145SOL    HW133071   3.010   4.235   8.202 -1.7848 -1.8799  0.1491
 7145SOL    HW233072   3.123   4.198   8.286 -2.5001 -0.2475  0.2499
 7146SOL     OW33073   2.407   0.372  12.575 -0.1682  0.0984 -0.4075
 7146SOL    HW133074   2.334   0.344  12.520  0.3997  0.9138 -1.5658
 7146SOL    HW233075   2.468   0.299  12.561  0.9673  1.2305 -1.3271
 7147SOL     OW33076   3.597   1.749   6.440  0.1584 -0.4048 -0.2640
 7147SOL    HW133077   3.616   1.842   6.426  1.5444 -0.3178  2.1860
 7147SOL    HW233078   3.672   1.704   6.402  1.5012  0.5485  1.2675
 7148SOL     OW33079   0.782   1.485   5.597  0.2932 -0.2912  0.3514
 7148SOL    HW133080   0.871   1.470   5.630  0.8421  1.4622 -0.3257
 7148SOL    HW233081   0.741   1.399   5.609 -0.7708  0.3533  1.3307
 7149SOL     OW33082   1.426   4.582   1.643 -0.3979 -0.0261  0.0296
 7149SOL    HW133083   1.477   4.611   1.568 -1.6645 -2.0215 -1.6191
 7149SOL    HW233084   1.494   4.554   1.705  0.0580  0.4408 -0.2631
 7150SOL     OW33085   4.074   1.060   4.698 -0.6114 -0.5772  0.0573
 7150SOL    HW133086   4.100   0.968   4.697 -0.2621 -0.4913  0.7507
 7150SOL    HW233087   4.153   1.092   4.654  1.0040 -1.2145  2.4976
 7151SOL     OW33088   4.518   1.972   9.116  0.0022 -0.2812 -0.3673
 7151SOL    HW133089   4.435   1.951   9.072  0.3437 -0.0747 -1.1121
 7151SOL    HW233090   4.555   1.884   9.122  1.1956  0.2144 -0.4894
 7152SOL     OW33091   0.768   4.281   3.617 -0.4714 -0.1781 -0.8545
 7152SOL    HW133092   0.812   4.203   3.649 -0.0566 -0.7367 -2.7496
 7152SOL    HW233093   0.835   4.347   3.598 -1.9437  1.7498  0.6182
 7153SOL     OW33094   4.463   0.388  17.461  0.6236  0.2365  0.1975
 7153SOL    HW133095   4.455   0.320  17.528  2.7014 -0.5086 -0.2930
 7153SOL    HW233096   4.370   0.394  17.442  1.5550 -0.1858 -4.5726
 7154SOL     OW33097   0.873   1.509   7.444  0.1497 -0.4967  0.0866
 7154SOL    HW133098   0.873   1.421   7.408 -0.1055 -0.3893 -0.1726
 7154SOL    HW233099   0.835   1.565   7.376 -0.5828 -2.9425 -1.4900
 7155SOL     OW33100   3.259   3.547  14.683 -0.6346  0.0747 -0.2499
 7155SOL    HW133101   3.286   3.617  14.742 -1.0772  0.6060 -0.6732
 7155SOL    HW233102   3.231   3.608  14.614 -1.1977  0.6628  0.4962
 7156SOL     OW33103   2.329   0.388   6.591 -0.4417  0.1826 -0.5787
 7156SOL    HW133104   2.277   0.354   6.519 -1.3835 -0.8328  0.5771
 7156SOL    HW233105   2.265   0.432   6.648 -0.2664 -0.0815 -0.1746
 7157SOL     OW33106   1.472   2.996   9.052  0.5878  0.2388 -0.4393
 7157SOL    HW133107   1.442   2.931   8.988  2.1013 -0.4468 -0.4532
 7157SOL    HW233108   1.567   3.003   9.043  0.4751  2.5337  0.2186
 7158SOL     OW33109   3.275   4.297   6.975  0.4260  0.2060 -0.1905
 7158SOL    HW133110   3.265   4.345   6.893  0.5092 -0.4751 -0.5967
 7158SOL    HW233111   3.184   4.283   7.000  0.4298  0.6025  0.0474
 7159SOL     OW33112   4.502   3.676  11.886 -0.5785  0.2074  0.3167
 7159SOL    HW133113   4.591   3.712  11.892 -1.0859  1.4589  0.4041
 7159SOL    HW233114   4.452   3.756  11.902 -0.5761  0.1648  0.5303
 7160SOL     OW33115   1.610   0.295   6.407 -0.8009 -0.3301 -0.0301
 7160SOL    HW133116   1.536   0.236   6.394 -0.6730  0.1450 -2.7744
 7160SOL    HW233117   1.647   0.299   6.319 -2.1321  0.6130 -0.5512
 7161SOL     OW33118   0.099   3.891  10.926  0.1966 -0.5585  0.6657
 7161SOL    HW133119   0.009   3.876  10.955  0.4051  0.4295  1.8386
 7161SOL    HW233120   0.090   3.977  10.885 -0.7128 -1.0699 -0.2032
 7162SOL     OW33121   2.871   4.028   3.257 -0.2741  0.1210  0.1590
 7162SOL    HW133122   2.867   3.951   3.314 -0.5171 -0.4475 -0.6286
 7162SOL    HW233123   2.781   4.062   3.258 -0.8761 -1.4812  0.3945
 7163SOL     OW33124   1.067   3.748   4.155  0.0552 -0.2290 -0.1652
 7163SOL    HW133125   0.986   3.763   4.204 -0.5307 -0.5904 -1.0368
 7163SOL    HW233126   1.116   3.810   4.210 -1.2832  0.8728 -0.2254
 7164SOL     OW33127   2.273   2.010   4.265 -0.1055 -0.0600  0.4889
 7164SOL    HW133128   2.346   2.072   4.261  1.3221 -1.6358  2.5386
 7164SOL    HW233129   2.278   1.965   4.181  0.7564  1.2905 -0.1820
 7165SOL     OW33130   3.365   1.794   5.279 -0.4818  0.2876  0.8335
 7165SOL    HW133131   3.295   1.729   5.269 -0.1043 -0.0422  0.3415
 7165SOL    HW233132   3.442   1.747   5.247  0.3171  0.8321  1.9507
 7166SOL     OW33133   3.574   1.655   4.039  0.3988  0.1273 -0.0562
 7166SOL    HW133134   3.588   1.560   4.048  0.0734  0.0683 -0.1901
 7166SOL    HW233135   3.567   1.661   3.944  0.1985 -0.6906 -0.1001
 7167SOL     OW33136   3.989   1.098   1.056  0.7162  0.0741  0.6853
 7167SOL    HW133137   4.080   1.069   1.060  1.7283  2.8364 -2.5742
 7167SOL    HW233138   3.989   1.167   0.990 -0.0358 -2.1823 -1.6649
 7168SOL     OW33139   3.100   1.577  12.043 -0.3150 -0.1172  0.4521
 7168SOL    HW133140   3.117   1.630  11.965 -1.1280 -0.9907 -0.3150
 7168SOL    HW233141   3.092   1.647  12.108 -0.2345  3.0118 -2.9105
 7169SOL     OW33142   4.043   1.046   7.249  0.1055  0.1351 -0.1878
 7169SOL    HW133143   3.992   1.037   7.330  0.6024 -1.5903 -0.0571
 7169SOL    HW233144   4.056   1.141   7.250 -1.0546  0.2900 -0.0908
 7170SOL     OW33145   2.952   0.959   5.482  0.0724  0.1871 -0.0678
 7170SOL    HW133146   3.044   0.983   5.470 -0.3233  1.7031 -0.0491
 7170SOL    HW233147   2.956   0.972   5.577  2.6635  3.0958 -0.5962
 7171SOL     OW33148   3.628   3.757   1.886 -0.0220 -0.1833 -0.6551
 7171SOL    HW133149   3.674   3.780   1.806 -0.6678  0.5929 -0.8036
 7171SOL    HW233150   3.693   3.768   1.955  0.7945 -0.9208 -1.3226
 7172SOL     OW33151   0.732   1.978   2.662  0.3841  0.5191 -0.1745
 7172SOL    HW133152   0.726   1.930   2.745 -0.7774 -0.5666 -0.8820
 7172SOL    HW233153   0.766   2.064   2.688  2.4322  0.2402 -1.9795
 7173SOL     OW33154   2.639   0.963   1.466  0.3821 -0.5162  0.9119
 7173SOL    HW133155   2.641   1.005   1.380 -3.1616 -1.3750  0.4129
 7173SOL    HW233156   2.596   1.022   1.528 -1.2639 -0.2307 -0.5252
 7174SOL     OW33157   2.994   4.483   7.251  0.2436  0.3980 -0.0202
 7174SOL    HW133158   2.923   4.517   7.197 -0.6873 -0.0202  0.9432
 7174SOL    HW233159   2.961   4.492   7.340  1.4377 -0.0218  0.4651
 7175SOL     OW33160   3.398   0.919   3.425  0.3977 -0.0248  0.2061
 7175SOL    HW133161   3.436   0.916   3.337  0.6255  0.0354  0.3026
 7175SOL    HW233162   3.456   0.868   3.481 -0.8523  0.3318  1.8398
 7176SOL     OW33163   3.496   2.859  15.581  0.7396  0.2267 -0.0905
 7176SOL    HW133164   3.558   2.907  15.636 -0.4551  1.8600 -0.1747
 7176SOL    HW233165   3.427   2.835  15.644  2.7909  2.4431  2.9669
 7177SOL     OW33166   0.408   2.100   4.842  0.2065  0.2303  0.1121
 7177SOL    HW133167   0.335   2.066   4.893  0.6223 -0.4717  0.2484
 7177SOL    HW233168   0.426   2.182   4.886 -0.8910  2.0336 -2.7933
 7178SOL     OW33169   1.804   0.039   2.007  0.2540 -0.3176 -0.9019
 7178SOL    HW133170   1.804   4.716   2.083 -2.0943  1.4938  0.5290
 7178SOL    HW233171   1.719   0.014   1.970 -0.7294 -1.2582  1.9246
 7179SOL     OW33172   1.087   4.408  10.376  0.3133  0.1990 -0.5385
 7179SOL    HW133173   0.991   4.417  10.381  0.0919 -1.8370 -1.1849
 7179SOL    HW233174   1.122   4.495  10.395 -0.8392  1.3887 -3.7220
 7180SOL     OW33175   1.893   2.128  13.368  0.0628  0.1142 -0.1874
 7180SOL    HW133176   1.846   2.210  13.348  0.5490  0.6053  0.7280
 7180SOL    HW233177   1.963   2.139  13.303 -1.1237  1.0723 -1.3223
 7181SOL     OW33178   4.307   0.261   0.938  0.2805 -0.1458 -0.3440
 7181SOL    HW133179   4.278   0.343   0.897  1.1396  0.3842  0.1063
 7181SOL    HW233180   4.352   0.290   1.017 -1.4746 -0.0847  0.6465
 7182SOL     OW33181   3.393   2.113   7.442 -0.4793  0.0071 -0.2484
 7182SOL    HW133182   3.342   2.192   7.462 -0.2795 -0.7414  3.2201
 7182SOL    HW233183   3.397   2.128   7.347 -0.1768  0.0316 -0.2306
 7183SOL     OW33184   1.563   1.466  14.285 -0.0484 -0.4055 -0.4314
 7183SOL    HW133185   1.516   1.536  14.330  0.9004  0.3373 -0.5908
 7183SOL    HW233186   1.657   1.484  14.291  0.0753 -1.8248  1.8774
 7184SOL     OW33187   2.568   3.556   2.664  0.2925 -0.5240 -0.3281
 7184SOL    HW133188   2.501   3.559   2.596  2.8499 -0.4724 -2.8432
 7184SOL    HW233189   2.643   3.515   2.620 -0.3581  0.4571 -2.3617
 7185SOL     OW33190   2.078   2.696   1.592  0.6785  0.5704  0.5051
 7185SOL    HW133191   2.138   2.740   1.652  3.1472  0.9981 -2.2481
 7185SOL    HW233192   2.079   2.765   1.526  0.8958 -0.2398 -0.3443
 7186SOL     OW33193   2.732   4.495   3.663 -0.0735  0.6595 -0.3336
 7186SOL    HW133194   2.707   4.585   3.685  3.3135  2.1222 -2.5389
 7186SOL    HW233195   2.815   4.505   3.617 -0.1899  1.6467 -0.3223
 7187SOL     OW33196   4.156   0.672  14.777  0.4795  0.3170  0.3179
 7187SOL    HW133197   4.214   0.641  14.847 -1.0829 -0.3414  1.3177
 7187SOL    HW233198   4.154   0.767  14.786  2.2422  0.2641  1.3933
 7188SOL     OW33199   1.166   2.278   5.042  0.2037 -0.8199  0.3152
 7188SOL    HW133200   1.208   2.344   5.098  1.3427 -0.5256 -0.8891
 7188SOL    HW233201   1.171   2.202   5.100 -3.4486 -0.6582  0.8618
 7189SOL     OW33202   0.245   3.891   3.803 -1.0970  0.6355 -0.1239
 7189SOL    HW133203   0.273   3.889   3.895 -0.2625 -1.4916 -0.4099
 7189SOL    HW233204   0.176   3.957   3.804 -2.3739 -0.6901 -0.4370
 7190SOL     OW33205   2.116   4.655   6.839  0.2006  0.0067 -0.4684
 7190SOL    HW133206   2.075   0.006   6.841  0.5677  0.1780 -0.3883
 7190SOL    HW233207   2.057   4.606   6.896  0.2321 -1.1619 -1.4324
 7191SOL     OW33208   0.723   1.055   5.848  0.5386 -0.3613 -0.1179
 7191SOL    HW133209   0.731   0.960   5.858 -0.6705 -0.5705 -1.1069
 7191SOL    HW233210   0.699   1.076   5.938 -0.7956  3.5227 -1.3703
 7192SOL     OW33211   3.004   0.236   9.329 -0.2451 -0.0911 -0.0156
 7192SOL    HW133212   3.090   0.193   9.323 -0.5579 -1.0340  2.4975
 7192SOL    HW233213   2.948   0.162   9.304 -0.3405 -0.6147  1.7877
 7193SOL     OW33214   3.319   2.207   2.179  0.2734 -0.1813  0.2718
 7193SOL    HW133215   3.339   2.114   2.182  1.0188  0.0225  1.9651
 7193SOL    HW233216   3.345   2.224   2.089  3.8291  1.7296  1.6241
 7194SOL     OW33217   2.655   2.861   0.594 -0.1480 -0.0933  0.1911
 7194SOL    HW133218   2.709   2.916   0.538 -1.0428  1.6562  1.0440
 7194SOL    HW233219   2.565   2.860   0.562 -0.5486  3.8717  1.2162
 7195SOL     OW33220   2.425   3.561   5.738  0.2587  0.7177 -0.3736
 7195SOL    HW133221   2.479   3.535   5.812 -2.3594 -2.2074  0.5228
 7195SOL    HW233222   2.437   3.481   5.686 -4.1037 -0.3575  0.2516
 7196SOL     OW33223   3.503   1.558   3.142  0.6171 -0.7074 -0.1699
 7196SOL    HW133224   3.579   1.516   3.102 -0.0839 -1.7275 -0.4518
 7196SOL    HW233225   3.543   1.599   3.218 -0.9874 -4.3202  2.6587
 7197SOL     OW33226   2.185   4.262   3.721  0.2652 -0.1037  0.1602
 7197SOL    HW133227   2.255   4.323   3.700 -0.8195  0.6303 -1.3481
 7197SOL    HW233228   2.157   4.246   3.631 -1.6705 -0.6832  0.8510
 7198SOL     OW33229   2.096   4.143   6.667  0.6621 -0.2003  0.3612
 7198SOL    HW133230   2.153   4.216   6.642 -1.9119  1.2124 -1.4314
 7198SOL    HW233231   2.157   4.077   6.699 -0.7340 -0.9304  1.4665
 7199SOL     OW33232   1.364   0.751  11.713 -0.0644 -0.6364  0.3636
 7199SOL    HW133233   1.289   0.801  11.745 -0.1147 -0.3563 -0.1802
 7199SOL    HW233234   1.379   0.678  11.772  0.7563  0.1790  1.1514
 7200SOL     OW33235   1.632   0.292   6.780 -0.2498  0.5202  0.2065
 7200SOL    HW133236   1.609   0.206   6.746  0.2276  0.5706 -0.2624
 7200SOL    HW233237   1.550   0.339   6.763 -0.8970 -0.5278  0.4708
 7201SOL     OW33238   4.691   1.393   3.217  0.3878  0.7568 -0.1245
 7201SOL    HW133239   4.620   1.374   3.278 -0.0020 -0.9533 -1.1259
 7201SOL    HW233240   0.025   1.358   3.272  0.3803  0.5945 -0.2193
 7202SOL     OW33241   1.187   0.076   2.830  0.2411  0.8190 -0.0204
 7202SOL    HW133242   1.108   0.122   2.859 -0.6984  0.0234 -1.3477
 7202SOL    HW233243   1.209   0.115   2.745 -0.3241 -1.3222 -1.1471
 7203SOL     OW33244   2.796   1.412   8.294 -0.1425  0.5699  0.0808
 7203SOL    HW133245   2.865   1.470   8.327 -1.1699  1.2997  0.9433
 7203SOL    HW233246   2.833   1.383   8.211 -1.3852 -0.1770 -0.2113
 7204SOL     OW33247   0.625   0.065   7.448  0.8031  0.6452 -0.7331
 7204SOL    HW133248   0.652   0.096   7.362 -2.0790  1.1220 -1.4608
 7204SOL    HW233249   0.632   0.149   7.494  1.6323  0.8127 -1.1664
 7205SOL     OW33250   0.120   0.513   6.758 -0.0642  0.0866 -0.3397
 7205SOL    HW133251   0.153   0.505   6.847 -1.4226 -0.3377  0.1109
 7205SOL    HW233252   0.119   0.420   6.734 -0.7774 -0.3596  1.4587
 7206SOL     OW33253   4.293   0.712   4.450  0.2176  0.2830 -0.6665
 7206SOL    HW133254   4.219   0.695   4.392 -0.4755 -1.0437  0.6110
 7206SOL    HW233255   4.362   0.719   4.384 -0.3094 -0.7465 -1.3407
 7207SOL     OW33256   4.398   4.643  11.276 -0.3448 -0.3869 -0.4452
 7207SOL    HW133257   4.469   4.653  11.340  0.0304  0.6859 -1.0363
 7207SOL    HW233258   4.433   4.678  11.194  1.8497  0.6948  0.9411
 7208SOL     OW33259   1.772   3.179   4.804  0.6086 -0.0440 -0.2492
 7208SOL    HW133260   1.820   3.236   4.743  0.2849 -1.0022 -1.4013
 7208SOL    HW233261   1.715   3.132   4.743 -0.3841  0.1028  0.5589
 7209SOL     OW33262   2.350   0.805  12.257 -0.0825 -0.2712 -0.0062
 7209SOL    HW133263   2.359   0.796  12.352 -1.4876 -0.9942  0.0560
 7209SOL    HW233264   2.357   0.716  12.223  0.9622 -0.0809 -0.2914
 7210SOL     OW33265   3.800   3.752   4.891 -0.3996  0.4596  0.1155
 7210SOL    HW133266   3.846   3.675   4.925 -1.2483 -0.1733 -0.1936
 7210SOL    HW233267   3.861   3.788   4.826 -0.0206  2.6670  1.7199
 7211SOL     OW33268   0.358   4.239  15.233  0.2588 -0.1762 -0.0943
 7211SOL    HW133269   0.416   4.174  15.272  1.0908  1.7885  1.9356
 7211SOL    HW233270   0.411   4.317  15.252 -1.6314  0.4003  2.8634
 7212SOL     OW33271   4.500   2.292  14.896  0.6798  0.5448  0.2100
 7212SOL    HW133272   4.502   2.362  14.961  0.8455 -0.7879  1.6526
 7212SOL    HW233273   4.590   2.261  14.887  1.1346  1.5697  1.2340
 7213SOL     OW33274   3.183   1.202   3.842 -0.2789  0.0540  0.2913
 7213SOL    HW133275   3.156   1.287   3.805 -1.0412 -1.0007 -1.6039
 7213SOL    HW233276   3.249   1.180   3.776 -0.1770  0.8702  0.1129
 7214SOL     OW33277   1.983   1.712   7.948 -0.3088 -0.4872  0.3651
 7214SOL    HW133278   2.069   1.753   7.938 -0.0365 -0.4746  2.8431
 7214SOL    HW233279   1.939   1.783   7.995 -0.4066  1.8275 -3.2089
 7215SOL     OW33280   2.571   1.399  16.426  0.2415  0.1469 -0.3245
 7215SOL    HW133281   2.540   1.426  16.340 -1.2909 -0.5738  0.0067
 7215SOL    HW233282   2.591   1.485  16.462 -2.0000  0.9961 -1.1418
 7216SOL     OW33283   2.023   0.179   5.338 -0.4794 -0.3375 -0.2556
 7216SOL    HW133284   2.026   0.188   5.433 -0.6352 -1.9607 -0.0986
 7216SOL    HW233285   1.935   0.143   5.326 -0.3101 -0.6070 -0.7021
 7217SOL     OW33286   1.892   1.668   2.263  0.4439  0.2011  0.6520
 7217SOL    HW133287   1.933   1.615   2.195 -1.0246 -0.9768  0.6825
 7217SOL    HW233288   1.942   1.748   2.246 -1.1315  0.2574 -3.8260
 7218SOL     OW33289   2.828   0.082   8.204  0.1094  0.3295 -0.2629
 7218SOL    HW133290   2.876   0.069   8.122  0.9512 -1.3252  0.4959
 7218SOL    HW233291   2.876   0.022   8.262 -1.0843 -2.6736 -2.4171
 7219SOL     OW33292   3.823   1.262   3.685  0.7375  0.5535  0.6625
 7219SOL    HW133293   3.768   1.192   3.650  1.2386  1.3839 -1.7964
 7219SOL    HW233294   3.907   1.219   3.698  0.1290 -0.9968 -0.5661
 7220SOL     OW33295   2.535   3.226   5.808 -0.1333 -0.6100  0.1707
 7220SOL    HW133296   2.568   3.201   5.721  1.5711 -2.0860  1.2357
 7220SOL    HW233297   2.454   3.175   5.818 -0.3984 -0.3553 -0.6786
 7221SOL     OW33298   3.154   0.822  12.011 -0.1400  0.0815  0.1903
 7221SOL    HW133299   3.219   0.889  12.034  1.7919 -1.5869 -0.4288
 7221SOL    HW233300   3.122   0.850  11.925  1.4257  1.1179 -0.0652
 7222SOL     OW33301   3.893   4.241   2.030  0.5575  0.1640  0.5721
 7222SOL    HW133302   3.860   4.268   2.116 -0.4742 -1.7209  0.7822
 7222SOL    HW233303   3.987   4.237   2.047  0.4407 -2.6749  0.5771
 7223SOL     OW33304   1.760   3.192   8.043  0.6575  0.3281  0.1148
 7223SOL    HW133305   1.833   3.232   8.090  0.2043 -1.5279  2.4232
 7223SOL    HW233306   1.693   3.230   8.100 -1.0074  0.0680 -1.6759
 7224SOL     OW33307   2.738   4.371  13.666  0.1476  0.4800  0.0844
 7224SOL    HW133308   2.650   4.332  13.671  0.0475  0.8730  1.4261
 7224SOL    HW233309   2.770   4.350  13.753  1.4543  0.0660 -0.4996
 7225SOL     OW33310   3.191   3.444   5.465  0.0080  0.1936  0.1690
 7225SOL    HW133311   3.231   3.385   5.401 -2.1839 -1.6378  0.4929
 7225SOL    HW233312   3.138   3.501   5.409  0.5523  0.5683  0.0343
 7226SOL     OW33313   3.910   4.552  12.099 -0.3032 -0.6724  0.0476
 7226SOL    HW133314   3.956   4.495  12.038  0.1255  0.4073 -0.6361
 7226SOL    HW233315   3.817   4.538  12.081 -0.6813 -0.6747  1.9776
 7227SOL     OW33316   0.306   4.687   2.285  0.0441  0.3145  0.6030
 7227SOL    HW133317   0.278   4.609   2.333  0.3855 -0.9365 -1.2452
 7227SOL    HW233318   0.222   4.706   2.243 -0.1824  0.4602  1.1120
 7228SOL     OW33319   1.185   3.533   1.936  0.3161  0.1517 -0.3717
 7228SOL    HW133320   1.239   3.493   1.869  0.9451 -0.2102  0.3479
 7228SOL    HW233321   1.172   3.620   1.898  1.2958  0.5172  0.1359
 7229SOL     OW33322   0.620   2.833  17.209 -0.6496  0.7783 -0.1366
 7229SOL    HW133323   0.581   2.780  17.278 -0.4751 -0.0077 -0.6439
 7229SOL    HW233324   0.602   2.920  17.244 -0.6238  0.4196  0.7524
 7230SOL     OW33325   1.915   1.280  13.502 -0.2575 -0.3515  0.3967
 7230SOL    HW133326   2.001   1.268  13.543 -0.7222  0.5259  1.6359
 7230SOL    HW233327   1.928   1.210  13.438 -0.3121  0.0432 -0.0399
 7231SOL     OW33328   3.278   1.856   8.509  0.5613  0.2593  0.1279
 7231SOL    HW133329   3.282   1.799   8.586  1.2498 -0.3327 -0.3451
 7231SOL    HW233330   3.184   1.859   8.492  0.2312 -1.4640  1.6059
 7232SOL     OW33331   3.227   2.498  11.760  0.2288 -0.2575  0.0086
 7232SOL    HW133332   3.214   2.585  11.798  0.3204 -0.9806  1.7226
 7232SOL    HW233333   3.139   2.460  11.763  0.1364  0.1046  2.5091
 7233SOL     OW33334   0.585   0.740   2.186 -0.0418 -0.0732 -0.7591
 7233SOL    HW133335   0.662   0.753   2.241  0.1724 -1.3737 -0.7624
 7233SOL    HW233336   0.610   0.652   2.159  2.1069  0.2175  0.1965
 7234SOL     OW33337   3.064   2.092   7.117  1.1525 -0.4238 -0.1458
 7234SOL    HW133338   3.133   2.109   7.054 -0.9561 -0.1083 -2.3475
 7234SOL    HW233339   3.040   2.003   7.089  0.0186 -0.5664  1.2483
 7235SOL     OW33340   2.525   3.312   9.921 -0.0852 -0.1407 -0.2387
 7235SOL    HW133341   2.581   3.357   9.858 -0.4998  0.4964 -0.1445
 7235SOL    HW233342   2.581   3.234   9.933 -1.9096 -1.6666 -1.6638
 7236SOL     OW33343   0.180   4.076   0.661  0.2099  0.3440  0.2536
 7236SOL    HW133344   0.136   4.105   0.581 -1.3914 -1.1936  0.5792
 7236SOL    HW233345   0.144   3.989   0.676 -0.5850  0.8119  1.0998
 7237SOL     OW33346   2.482   3.616  13.096 -0.3107  0.3102  0.5909
 7237SOL    HW133347   2.460   3.535  13.049 -0.5231  0.5423  0.2884
 7237SOL    HW233348   2.559   3.642  13.046 -1.3520 -3.2010 -2.8509
 7238SOL     OW33349   4.458   3.572   8.463 -0.2949 -0.3851  0.2179
 7238SOL    HW133350   4.534   3.630   8.456 -1.1919  0.5808 -1.4693
 7238SOL    HW233351   4.476   3.515   8.538 -2.1546  1.5029  2.1017
 7239SOL     OW33352   3.846   0.054   3.679 -0.4623 -0.2309  0.3699
 7239SOL    HW133353   3.800   4.709   3.697  0.5296 -0.8521  0.0776
 7239SOL    HW233354   3.783   0.116   3.642 -1.1153 -1.4314 -0.4914
 7240SOL     OW33355   4.647   3.148  10.931  0.2450 -0.1172  0.5012
 7240SOL    HW133356   4.611   3.062  10.953 -0.0086 -0.1305  0.0312
 7240SOL    HW233357   4.660   3.150  10.837  1.1497 -1.0625  0.6078
 7241SOL     OW33358   2.078   2.562   4.789  0.2897  0.0867 -0.3516
 7241SOL    HW133359   2.139   2.538   4.859  1.4441  0.5783 -1.1994
 7241SOL    HW233360   2.102   2.500   4.720 -0.3119  1.8297 -2.1300
 7242SOL     OW33361   0.471   4.120  14.529  0.1551  0.2438 -0.4808
 7242SOL    HW133362   0.431   4.057  14.470 -0.3091 -0.7527  0.9092
 7242SOL    HW233363   0.519   4.056  14.581 -0.3439 -0.1230 -0.4736
 7243SOL     OW33364   3.837   3.295   4.038  0.0311 -0.4330  0.3547
 7243SOL    HW133365   3.805   3.246   4.114 -0.7660  0.2930  0.4956
 7243SOL    HW233366   3.754   3.333   4.010  0.3227 -0.3291 -0.3650
 7244SOL     OW33367   0.146   0.528   4.370 -0.3022 -0.0708  0.0691
 7244SOL    HW133368   0.170   0.444   4.410  0.0906 -0.9161 -1.9643
 7244SOL    HW233369   0.051   0.515   4.365  0.2329 -4.0560  0.4203
 7245SOL     OW33370   2.533   3.565   9.227  0.7633 -0.1724  0.0352
 7245SOL    HW133371   2.584   3.550   9.307  0.4323  0.0406  0.2872
 7245SOL    HW233372   2.451   3.574   9.275  1.7026 -0.0600  1.6287
 7246SOL     OW33373   0.877   4.616   1.563 -0.1141  0.2312 -0.0512
 7246SOL    HW133374   0.783   4.623   1.582 -0.5261 -3.0040 -0.9967
 7246SOL    HW233375   0.906   4.544   1.618 -0.8855 -0.1611 -0.1490
 7247SOL     OW33376   1.881   3.543   7.518 -0.3767  0.1367 -0.4971
 7247SOL    HW133377   1.933   3.530   7.438  0.2483 -1.9437  0.2511
 7247SOL    HW233378   1.939   3.577   7.586  1.8263  0.0064 -2.2752
 7248SOL     OW33379   3.298   4.345   4.695 -0.1611  0.0732  0.2976
 7248SOL    HW133380   3.239   4.337   4.620 -1.1079  1.8540  0.8341
 7248SOL    HW233381   3.228   4.335   4.759 -0.7238  2.6074  0.0726
 7249SOL     OW33382   0.129   3.157  12.608  0.3761  0.0468 -0.1591
 7249SOL    HW133383   0.068   3.231  12.608 -0.7186 -0.8614 -3.2559
 7249SOL    HW233384   0.209   3.188  12.566  1.0865  1.5044  2.2311
 7250SOL     OW33385   2.588   2.773   2.514 -0.7379 -0.1919 -0.2096
 7250SOL    HW133386   2.534   2.744   2.441 -0.3639  1.1336 -1.0032
 7250SOL    HW233387   2.592   2.696   2.570  1.2195 -0.0992 -0.2249
 7251SOL     OW33388   3.602   2.004   6.379  0.2056 -0.6822  0.2483
 7251SOL    HW133389   3.607   2.099   6.394  0.2928 -0.5693 -0.4559
 7251SOL    HW233390   3.511   1.991   6.352 -0.5969 -0.3078  2.8505
 7252SOL     OW33391   4.736   1.680   4.802 -0.2851 -0.8846  0.3481
 7252SOL    HW133392   4.655   1.680   4.751  0.1322  0.0190 -0.3144
 7252SOL    HW233393   0.010   1.587   4.822  0.0923 -0.6521  1.2205
 7253SOL     OW33394   2.242   2.396   7.501 -0.1115 -0.0790 -1.3719
 7253SOL    HW133395   2.333   2.388   7.531 -0.2249  0.2893 -0.9212
 7253SOL    HW233396   2.203   2.321   7.545 -1.6747 -0.3074 -3.1522
 7254SOL     OW33397   0.900   0.726  12.218  0.6792  0.4573 -0.0550
 7254SOL    HW133398   0.809   0.728  12.247  0.5405 -3.2235 -0.2471
 7254SOL    HW233399   0.898   0.768  12.132  0.2597  2.3289  0.8793
 7255SOL     OW33400   2.758   1.369   0.761  0.9207  0.0755 -0.2639
 7255SOL    HW133401   2.737   1.368   0.668 -0.5690  2.7652  0.0475
 7255SOL    HW233402   2.821   1.441   0.772  0.8702  0.1597 -0.5194
 7256SOL     OW33403   0.605   4.477   6.872  0.5940 -0.3455  0.1244
 7256SOL    HW133404   0.581   4.569   6.881  1.3246 -0.1884  0.5195
 7256SOL    HW233405   0.683   4.464   6.926  0.9496 -0.2016 -0.3518
 7257SOL     OW33406   3.220   4.654   0.445  0.6295  0.0058 -0.1365
 7257SOL    HW133407   3.247   4.667   0.354  0.8893 -2.0637 -0.3731
 7257SOL    HW233408   3.246   4.734   0.489 -0.2845  0.9777 -1.3828
 7258SOL     OW33409   0.287   1.837   6.216 -0.0196 -0.0909 -0.4555
 7258SOL    HW133410   0.304   1.744   6.227  0.1302 -0.4565 -3.6640
 7258SOL    HW233411   0.240   1.854   6.298  0.9833  1.2701 -0.1666
 7259SOL     OW33412   0.572   0.489   2.631  0.0763  0.5180  0.2265
 7259SOL    HW133413   0.501   0.552   2.647 -1.0827 -0.3832 -1.3518
 7259SOL    HW233414   0.553   0.410   2.681 -0.2997  0.5498  0.1397
 7260SOL     OW33415   2.488   3.790   5.648  0.6005  0.4655 -0.5967
 7260SOL    HW133416   2.466   3.703   5.684  1.6486  0.9434  1.1897
 7260SOL    HW233417   2.441   3.782   5.565  0.1576 -1.3110 -0.1923
 7261SOL     OW33418   2.642   2.766  14.017  0.1348 -0.3370 -0.1153
 7261SOL    HW133419   2.572   2.812  13.972 -0.5664 -1.2554  0.0476
 7261SOL    HW233420   2.614   2.676  14.032 -0.0777 -0.3596 -0.6599
 7262SOL     OW33421   0.335   0.557   9.308 -0.0225  0.4354  0.1266
 7262SOL    HW133422   0.319   0.474   9.354  2.4718 -0.8970 -1.4330
 7262SOL    HW233423   0.255   0.559   9.255  1.0752 -2.4456 -1.5832
 7263SOL     OW33424   4.125   3.832   7.020 -0.3468 -0.5453  0.0527
 7263SOL    HW133425   4.082   3.835   6.934 -0.0350  0.4231 -0.0696
 7263SOL    HW233426   4.167   3.917   7.030  0.7803 -0.9619 -1.1468
 7264SOL     OW33427   4.078   1.200   3.060 -0.1782 -0.4529  0.1438
 7264SOL    HW133428   4.102   1.169   2.973  0.4665  3.1691 -0.9720
 7264SOL    HW233429   4.081   1.296   3.055 -0.3683 -0.5584 -1.9729
 7265SOL     OW33430   1.861   2.113   4.221 -0.4354  0.3107 -0.0298
 7265SOL    HW133431   1.897   2.156   4.299 -1.0606 -0.7940  0.8609
 7265SOL    HW233432   1.880   2.024   4.250 -2.7785  0.3200  1.5076
 7266SOL     OW33433   2.134   3.522   7.683 -0.5739  0.4332 -0.2463
 7266SOL    HW133434   2.228   3.525   7.663 -0.2343 -1.2909  1.0939
 7266SOL    HW233435   2.122   3.428   7.665  3.8296 -0.2215  0.1322
 7267SOL     OW33436   3.439   3.939   9.176  0.2342  0.2613  0.6544
 7267SOL    HW133437   3.441   4.000   9.103  0.1610 -0.0873  0.3607
 7267SOL    HW233438   3.501   3.978   9.238 -0.7785  0.4308  1.5690
 7268SOL     OW33439   2.357   2.375  17.367 -0.0151 -0.1222 -0.3746
 7268SOL    HW133440   2.363   2.471  17.369 -0.3298 -0.0620 -2.4780
 7268SOL    HW233441   2.417   2.346  17.436  0.2265 -1.1431 -1.0195
 7269SOL     OW33442   0.910   0.699   4.505  0.8035  0.4184 -0.1922
 7269SOL    HW133443   0.923   0.787   4.540  1.0890  0.5352 -0.5830
 7269SOL    HW233444   0.815   0.693   4.512  1.0905 -1.6745  1.9426
 7270SOL     OW33445   4.611   4.155   9.392 -0.3340 -0.1761  1.0342
 7270SOL    HW133446   4.571   4.072   9.366  0.5715 -0.0806 -0.6706
 7270SOL    HW233447   4.654   4.117   9.469 -0.8326 -2.3700  0.2217
 7271SOL     OW33448   1.955   1.263  12.717  0.2125  0.0779  0.4768
 7271SOL    HW133449   1.951   1.172  12.746 -0.1885  0.5910  2.0344
 7271SOL    HW233450   1.979   1.302  12.801  0.7082  0.8789 -0.0297
 7272SOL     OW33451   2.744   1.558   2.426 -0.0030 -0.0841 -0.0802
 7272SOL    HW133452   2.682   1.570   2.354  0.5942  1.1378 -0.3990
 7272SOL    HW233453   2.700   1.595   2.504 -0.7485  1.8905 -1.4269
 7273SOL     OW33454   0.716   1.606   8.426  0.1930 -0.2553 -0.1530
 7273SOL    HW133455   0.785   1.548   8.394  0.3002  0.6589 -1.5732
 7273SOL    HW233456   0.755   1.692   8.442  1.1677 -0.2241 -2.6754
 7274SOL     OW33457   1.266   0.906   7.748 -0.7892 -0.6220  0.6212
 7274SOL    HW133458   1.264   0.958   7.668  1.1772  1.3331  1.8510
 7274SOL    HW233459   1.248   0.971   7.816  0.2174  1.5571 -1.2089
 7275SOL     OW33460   0.486   1.458   8.476  0.3072 -0.4209 -0.2729
 7275SOL    HW133461   0.546   1.532   8.484 -0.6017  0.2522  0.4156
 7275SOL    HW233462   0.537   1.390   8.520  1.9355  0.5055 -0.7452
 7276SOL     OW33463   0.971   2.573   0.845  0.3481 -0.0259 -0.2398
 7276SOL    HW133464   0.937   2.650   0.800  1.2644  1.6615  1.9539
 7276SOL    HW233465   0.970   2.504   0.779 -0.4754  0.1737 -0.4299
 7277SOL     OW33466   4.536   0.674   5.062 -0.1198 -0.4460  0.3481
 7277SOL    HW133467   4.490   0.620   4.998 -0.2765 -0.2334  0.2785
 7277SOL    HW233468   4.467   0.732   5.094  0.5744  0.1491  0.7989
 7278SOL     OW33469   2.202   2.404   6.545 -0.3853  0.0674 -0.0763
 7278SOL    HW133470   2.126   2.454   6.515  0.8703  1.1485 -1.4750
 7278SOL    HW233471   2.250   2.479   6.581 -2.1099  0.0212  2.2985
 7279SOL     OW33472   0.483   0.626   0.000  0.4987 -0.1342  0.1507
 7279SOL    HW133473   0.442   0.628   0.087  1.2782 -1.5053  0.5593
 7279SOL    HW233474   0.537   0.704  17.735  1.7225 -0.8151  1.7645
 7280SOL     OW33475   3.093   0.499   7.830  0.4852  0.5601 -0.6011
 7280SOL    HW133476   3.047   0.415   7.822 -0.2610  0.7520  1.5533
 7280SOL    HW233477   3.115   0.489   7.923  0.3321  2.3569 -0.3710
 7281SOL     OW33478   1.687   1.166   1.288  0.4249  0.8392  0.3370
 7281SOL    HW133479   1.727   1.252   1.298  1.8398  0.3224 -0.8209
 7281SOL    HW233480   1.668   1.155   1.381 -1.5679  2.0880  0.0723
 7282SOL     OW33481   0.562   2.029   1.298 -0.5039 -0.0309 -0.2869
 7282SOL    HW133482   0.656   2.029   1.285 -0.4110 -1.9383  0.3057
 7282SOL    HW233483   0.526   1.983   1.222 -0.2884  0.6328 -0.7772
 7283SOL     OW33484   1.562   1.214  10.575  0.1958 -0.5953 -0.1622
 7283SOL    HW133485   1.542   1.241  10.665  1.1948  1.6434 -0.5966
 7283SOL    HW233486   1.488   1.251  10.528 -0.0101 -0.8726 -0.0536
 7284SOL     OW33487   1.448   3.899   6.045 -0.2084  0.3456 -0.3981
 7284SOL    HW133488   1.375   3.931   5.991  1.7759 -0.3876 -3.5455
 7284SOL    HW233489   1.397   3.868   6.119  1.0759 -1.7070 -0.3637
 7285SOL     OW33490   2.929   2.036  14.102 -0.3349 -0.5810  0.4064
 7285SOL    HW133491   3.000   2.023  14.039  0.5677 -0.8411  1.4861
 7285SOL    HW233492   2.888   2.117  14.071  1.0752 -1.0905 -2.7974
 7286SOL     OW33493   3.154   1.492  10.638 -0.2028  0.1402  0.3984
 7286SOL    HW133494   3.239   1.535  10.649 -0.0181  0.2453 -1.4744
 7286SOL    HW233495   3.146   1.448  10.723  3.3846  1.4452  1.4281
 7287SOL     OW33496   4.365   3.867   3.414 -0.0601  0.1930 -0.4774
 7287SOL    HW133497   4.291   3.892   3.469  0.9251  1.2751  0.3651
 7287SOL    HW233498   4.392   3.953   3.384  1.7594  1.2495  4.1983
 7288SOL     OW33499   0.722   0.071   3.443 -0.3832 -0.1206  0.0958
 7288SOL    HW133500   0.749   0.060   3.535  0.9133 -0.2247 -0.2929
 7288SOL    HW233501   0.713   4.716   3.415 -1.5044 -0.0764  0.3360
 7289SOL     OW33502   1.671   2.968  13.358  0.2662 -0.4872  0.1703
 7289SOL    HW133503   1.762   2.994  13.344  0.4203 -0.7417  0.6872
 7289SOL    HW233504   1.649   3.014  13.439  2.1892 -0.6266  0.7687
 7290SOL     OW33505   3.620   2.339   9.583  0.1332  0.1683  0.6766
 7290SOL    HW133506   3.620   2.259   9.530 -0.0267 -0.4799  1.6444
 7290SOL    HW233507   3.668   2.398   9.525 -2.7402  0.1190 -1.7247
 7291SOL     OW33508   2.367   0.983   1.296  0.2395 -0.3125 -0.0222
 7291SOL    HW133509   2.311   0.937   1.233 -0.5334 -1.3300  1.4149
 7291SOL    HW233510   2.456   0.999   1.264 -0.5365  2.3082 -0.8278
 7292SOL     OW33511   2.719   0.901   3.279  0.1702 -0.2186  0.4572
 7292SOL    HW133512   2.787   0.966   3.257  0.2142 -0.5539 -0.3823
 7292SOL    HW233513   2.723   0.896   3.375  0.0964  1.2373  0.5414
 7293SOL     OW33514   3.997   0.340   4.040  0.6925  0.4224  0.1718
 7293SOL    HW133515   3.914   0.303   4.009 -0.0792  1.4655  1.0018
 7293SOL    HW233516   3.965   0.381   4.121  0.4886 -3.0265  1.8603
 7294SOL     OW33517   3.237   0.305   6.471  0.1705 -0.5389  0.0630
 7294SOL    HW133518   3.277   0.226   6.507 -0.8108 -0.9780  0.1900
 7294SOL    HW233519   3.210   0.278   6.383  1.0955 -0.3086 -0.2933
 7295SOL     OW33520   0.042   2.859   2.986  0.4781 -0.0912 -0.0404
 7295SOL    HW133521   0.121   2.907   3.012 -0.2286  0.3194  1.3319
 7295SOL    HW233522   0.031   2.834   3.077 -1.0687 -0.0127 -0.2005
 7296SOL     OW33523   0.101   1.985  11.806 -0.6446 -0.3573 -0.4884
 7296SOL    HW133524   0.050   2.063  11.829 -0.4893  0.2474 -2.1866
 7296SOL    HW233525   0.187   2.019  11.832 -0.3612 -0.5709 -1.1502
 7297SOL     OW33526   4.186   1.038   9.859 -0.1792 -0.6184 -0.2526
 7297SOL    HW133527   4.251   1.045   9.789  0.3419 -1.1013  0.1836
 7297SOL    HW233528   4.212   0.951   9.888 -0.0963  0.0083  1.6058
 7298SOL     OW33529   3.720   0.193   6.798  0.5424  0.1803  0.0931
 7298SOL    HW133530   3.643   0.241   6.768  0.1459 -0.1228  0.6372
 7298SOL    HW233531   3.737   0.135   6.724  2.1175 -0.2406  0.7916
 7299SOL     OW33532   1.238   1.696   3.187  0.0482  0.3421 -0.1441
 7299SOL    HW133533   1.207   1.650   3.109  0.7827  2.9070 -1.9442
 7299SOL    HW233534   1.310   1.637   3.212 -0.7281 -0.2355  0.7241
 7300SOL     OW33535   0.526   3.865   3.380  0.0228  0.3293  1.0725
 7300SOL    HW133536   0.469   3.938   3.404  0.0613  0.9891 -0.8349
 7300SOL    HW233537   0.593   3.876   3.448 -0.0913 -1.2384  1.4480
 7301SOL     OW33538   4.328   0.207  10.604  0.1905  0.1647 -0.3749
 7301SOL    HW133539   4.276   0.181  10.527 -0.9588 -2.3024  1.2614
 7301SOL    HW233540   4.354   0.122  10.638 -2.7967 -0.5800 -0.0067
 7302SOL     OW33541   1.267   1.406   8.187 -0.3516 -0.1899  0.2531
 7302SOL    HW133542   1.240   1.484   8.235 -0.4188 -1.7278  2.6731
 7302SOL    HW233543   1.226   1.336   8.237 -1.3088 -0.1278 -0.4396
 7303SOL     OW33544   1.565   2.210  15.809 -0.2160  1.0058 -0.2015
 7303SOL    HW133545   1.472   2.187  15.817  0.5172 -1.1739  1.9206
 7303SOL    HW233546   1.603   2.200  15.897 -0.1750  0.0766 -0.3219
 7304SOL     OW33547   3.249   3.050  14.988  0.3033 -0.0327 -0.0133
 7304SOL    HW133548   3.261   3.140  14.960  0.5551 -0.4592 -1.2768
 7304SOL    HW233549   3.192   3.023  14.916  0.9791  2.3134 -1.4011
 7305SOL     OW33550   0.419   1.053   8.143  0.4554  0.2063  0.2684
 7305SOL    HW133551   0.363   1.119   8.103  0.3083 -0.3798 -0.4897
 7305SOL    HW233552   0.353   1.011   8.198  0.3861  2.2764  1.7572
 7306SOL     OW33553   2.506   1.846   1.077  0.4153  0.1771 -0.1568
 7306SOL    HW133554   2.474   1.782   1.013 -0.8910  2.7008 -2.0133
 7306SOL    HW233555   2.423   1.866   1.121  0.9929 -2.6429  2.2851
 7307SOL     OW33556   0.668   2.871   8.499 -0.2992 -0.1231 -0.1804
 7307SOL    HW133557   0.615   2.913   8.565 -0.0454  0.1130 -0.1263
 7307SOL    HW233558   0.732   2.934   8.464  0.8661 -1.3151 -0.2169
 7308SOL     OW33559   4.089   2.120   2.682 -0.1009 -0.1214  0.1057
 7308SOL    HW133560   4.135   2.194   2.723  0.9901 -1.1326  0.7330
 7308SOL    HW233561   4.074   2.166   2.599  0.3441 -1.4301 -0.7076
 7309SOL     OW33562   1.088   0.637   3.358  0.3736  0.2363  0.0622
 7309SOL    HW133563   1.157   0.702   3.342 -0.9613  1.6847  0.1077
 7309SOL    HW233564   1.123   0.608   3.442  0.4991 -0.3353 -0.1893
 7310SOL     OW33565   1.522   2.675   2.507 -0.0226 -0.1444 -0.1622
 7310SOL    HW133566   1.432   2.646   2.524 -0.5351  2.6377  1.8362
 7310SOL    HW233567   1.525   2.727   2.427  1.8078  0.1749  0.1132
 7311SOL     OW33568   0.997   4.328   9.624  0.0801 -0.2515 -0.4400
 7311SOL    HW133569   1.071   4.273   9.651 -1.0108 -1.4653  0.0992
 7311SOL    HW233570   1.020   4.412   9.662 -2.3486  0.3159 -0.2260
 7312SOL     OW33571   3.743   4.594  14.862 -0.3495 -0.3804 -0.4459
 7312SOL    HW133572   3.779   4.617  14.947  0.2058 -1.3645 -0.4100
 7312SOL    HW233573   3.725   4.668  14.805 -1.1905 -0.3539 -0.1362
 7313SOL     OW33574   2.790   2.648   8.274 -0.0405 -0.2047  0.4014
 7313SOL    HW133575   2.818   2.697   8.352 -0.6421  1.5957 -0.5048
 7313SOL    HW233576   2.762   2.723   8.221  0.9840 -1.5618 -2.0310
 7314SOL     OW33577   4.411   4.429  16.873 -0.7207 -0.0947 -0.4670
 7314SOL    HW133578   4.320   4.441  16.846 -0.3988  0.8272 -1.1394
 7314SOL    HW233579   4.402   4.455  16.965  0.9587  3.0337 -1.1885
 7315SOL     OW33580   0.076   3.096  17.534  0.0803 -0.2808 -0.5484
 7315SOL    HW133581   4.729   3.051  17.519  0.1137 -0.5861  0.1781
 7315SOL    HW233582   0.118   3.027  17.586  1.2728  0.6060 -0.3191
 7316SOL     OW33583   1.649   4.105   7.898 -0.2905  0.1053 -0.3389
 7316SOL    HW133584   1.692   4.149   7.825  1.9726  1.4612  1.7960
 7316SOL    HW233585   1.603   4.179   7.937  2.3830  1.8415 -0.4765
 7317SOL     OW33586   3.790   3.135   8.008 -0.0498  0.4539  0.7245
 7317SOL    HW133587   3.717   3.115   7.949 -0.5184 -0.8589  1.7539
 7317SOL    HW233588   3.850   3.177   7.946  2.6396 -2.1349  1.5630
 7318SOL     OW33589   0.181   0.345   9.011  0.2353  0.0829 -0.6088
 7318SOL    HW133590   0.143   0.429   8.986 -0.9773 -0.6598 -1.2123
 7318SOL    HW233591   0.272   0.375   9.021 -0.9899  3.0718  1.4393
 7319SOL     OW33592   1.351   3.831  17.428 -0.4964  0.0698  0.1534
 7319SOL    HW133593   1.357   3.895  17.356 -0.4494 -2.0485 -1.7208
 7319SOL    HW233594   1.364   3.875  17.512  2.1260 -2.0346  0.8627
 7320SOL     OW33595   4.415   1.564  10.889 -0.4143 -0.6534 -0.1407
 7320SOL    HW133596   4.504   1.561  10.922  0.0037 -1.6343 -1.3325
 7320SOL    HW233597   4.425   1.612  10.807  0.8836 -0.6307  0.0422
 7321SOL     OW33598   3.269   0.582   6.475  0.3204 -0.1327  0.0719
 7321SOL    HW133599   3.337   0.602   6.539  0.4996 -0.5685  0.0204
 7321SOL    HW233600   3.252   0.489   6.488 -0.3842 -0.1924 -1.2866
 7322SOL     OW33601   4.407   2.903  15.976  0.9056  0.0485  0.4360
 7322SOL    HW133602   4.391   2.854  16.056  1.0541 -0.8443 -0.0900
 7322SOL    HW233603   4.482   2.957  15.999  0.8489  0.3228 -0.0176
 7323SOL     OW33604   0.807   0.681   6.697  0.0404 -0.2604  0.6797
 7323SOL    HW133605   0.869   0.616   6.730  1.7013 -0.0496 -2.0565
 7323SOL    HW233606   0.861   0.758   6.681  0.7595 -0.9951 -0.4539
 7324SOL     OW33607   0.403   0.387  13.614 -0.6654 -0.1179  0.2664
 7324SOL    HW133608   0.472   0.425  13.559 -0.9949  0.0818 -0.0084
 7324SOL    HW233609   0.432   0.406  13.703 -1.0737 -2.2025  0.8442
 7325SOL     OW33610   1.963   3.407   5.587 -0.5062  0.4685  0.5388
 7325SOL    HW133611   1.895   3.460   5.629 -1.0479  0.3250 -0.1634
 7325SOL    HW233612   2.015   3.471   5.538 -1.9963  2.2185  1.2662
 7326SOL     OW33613   2.945   4.705   3.115  0.3351  0.1716 -0.1596
 7326SOL    HW133614   2.869   4.725   3.060 -0.0041  0.4435  0.4098
 7326SOL    HW233615   2.937   0.036   3.182 -0.2561  0.2874 -0.3528
 7327SOL     OW33616   4.409   4.272   7.654 -0.1515  0.0024 -0.0406
 7327SOL    HW133617   4.459   4.195   7.680 -1.1011 -0.4826  0.3438
 7327SOL    HW233618   4.343   4.282   7.721  0.0780  2.2784 -0.1584
 7328SOL     OW33619   3.009   1.267   9.167 -0.3785  0.2696  0.2016
 7328SOL    HW133620   2.992   1.223   9.084 -0.9558 -0.7612  0.8707
 7328SOL    HW233621   3.093   1.227   9.191 -0.2954 -0.9346 -2.0490
 7329SOL     OW33622   3.218   1.692   3.174  0.0603 -0.5319 -0.1263
 7329SOL    HW133623   3.209   1.734   3.089  1.5339 -1.4052 -0.7267
 7329SOL    HW233624   3.308   1.659   3.167  0.2550 -0.0099 -0.0607
 7330SOL     OW33625   2.694   1.245  11.584 -0.0937 -0.2332 -0.0493
 7330SOL    HW133626   2.670   1.270  11.674 -0.3363 -3.3848  0.7690
 7330SOL    HW233627   2.615   1.272  11.537 -1.3323 -0.8745  1.6521
 7331SOL     OW33628   0.266   1.262   8.016  0.1092 -0.1302  0.1389
 7331SOL    HW133629   0.324   1.307   8.077 -1.2425 -0.7491  1.9069
 7331SOL    HW233630   0.191   1.246   8.074  0.6330 -0.3784  0.7417
 7332SOL     OW33631   0.141   1.444   7.386  0.0067  0.2458  0.2970
 7332SOL    HW133632   0.102   1.436   7.299  0.0645  0.5851  0.2385
 7332SOL    HW233633   0.066   1.448   7.446 -0.5668 -1.3876 -0.2978
 7333SOL     OW33634   1.910   1.344   9.708 -0.4958  0.0854 -0.0159
 7333SOL    HW133635   1.872   1.396   9.779 -0.0775  1.5001 -0.8085
 7333SOL    HW233636   1.975   1.294   9.758 -0.5738 -2.1320 -2.1739
 7334SOL     OW33637   3.812   4.224  11.455 -0.1149  0.3086 -0.0666
 7334SOL    HW133638   3.826   4.135  11.423  0.5542  0.4898 -0.2921
 7334SOL    HW233639   3.791   4.204  11.546 -0.4348 -0.6653 -0.3641
 7335SOL     OW33640   1.461   3.720   7.108 -0.3526 -0.4957 -0.7208
 7335SOL    HW133641   1.553   3.704   7.128  0.0557  1.6206 -0.8590
 7335SOL    HW233642   1.448   3.813   7.128  0.4261 -0.5979  0.2970
 7336SOL     OW33643   3.142   4.364   2.367 -0.0487  0.3561  0.1254
 7336SOL    HW133644   3.193   4.383   2.445 -0.1110 -0.2247  0.3115
 7336SOL    HW233645   3.100   4.278   2.378  0.9794 -0.0409  0.8929
 7337SOL     OW33646   2.784   1.141   4.354 -0.1124 -0.3713 -0.0208
 7337SOL    HW133647   2.805   1.200   4.426 -0.0614  0.3583 -0.6354
 7337SOL    HW233648   2.710   1.191   4.320  0.7074  1.1912  0.4925
 7338SOL     OW33649   3.847   3.581   3.477 -0.0995  0.2431  0.4140
 7338SOL    HW133650   3.778   3.554   3.416  0.5338 -1.7134  0.5410
 7338SOL    HW233651   3.904   3.642   3.431 -1.0359 -0.4914 -1.7013
 7339SOL     OW33652   1.933   0.833  16.080  0.0710 -0.1786 -0.0610
 7339SOL    HW133653   1.992   0.794  16.016  2.0469  2.9966 -0.1477
 7339SOL    HW233654   1.920   0.756  16.136  0.6568  0.4737  0.9672
 7340SOL     OW33655   1.616   3.369  16.587 -0.4478  0.1950 -0.3425
 7340SOL    HW133656   1.648   3.316  16.660 -0.1520  1.3542  0.3796
 7340SOL    HW233657   1.655   3.330  16.509  0.0940 -0.9435  0.5094
 7341SOL     OW33658   1.893   2.093   8.238 -0.1577  0.1050 -0.0900
 7341SOL    HW133659   1.926   2.012   8.276 -1.3022  0.2193  1.1139
 7341SOL    HW233660   1.930   2.163   8.291 -2.7201 -0.4961  2.5046
 7342SOL     OW33661   0.073   3.921   6.072  0.2681 -1.2027  0.0169
 7342SOL    HW133662   0.075   3.825   6.071  0.2436 -1.2270  2.7243
 7342SOL    HW233663   0.131   3.965   6.134  0.2282 -2.7529  1.1590
 7343SOL     OW33664   2.721   1.494   8.914  0.1783 -0.5811  0.4673
 7343SOL    HW133665   2.782   1.477   8.842 -0.7774  1.2684 -0.7758
 7343SOL    HW233666   2.777   1.503   8.990 -1.6845  1.1824  1.6410
 7344SOL     OW33667   4.348   3.751   4.198 -0.1814  0.1220  0.3334
 7344SOL    HW133668   4.254   3.763   4.180  0.7606  2.0710 -3.1991
 7344SOL    HW233669   4.361   3.673   4.144  0.3828  0.2576  0.2738
 7345SOL     OW33670   1.548   3.249   3.962  0.2857  0.4519 -0.6585
 7345SOL    HW133671   1.545   3.219   3.871 -1.3295  2.4442 -1.2617
 7345SOL    HW233672   1.552   3.344   3.954 -0.1129  0.4724 -0.6158
 7346SOL     OW33673   0.356   4.021  17.020  0.2566 -0.6778  0.0339
 7346SOL    HW133674   0.382   4.112  17.034 -0.7596 -0.2564 -0.8054
 7346SOL    HW233675   0.431   3.997  16.965  2.0772 -1.3437  2.7866
 7347SOL     OW33676   0.322   0.950  13.294 -0.2147 -0.0635 -0.0674
 7347SOL    HW133677   0.239   0.923  13.256 -0.0538 -0.2422 -0.2965
 7347SOL    HW233678   0.301   1.029  13.343 -1.0966 -1.4915  1.8946
 7348SOL     OW33679   2.655   2.139  17.539 -0.2730 -0.1928 -0.1210
 7348SOL    HW133680   2.624   2.216  17.586 -0.0678 -1.5814  2.2728
 7348SOL    HW233681   2.633   2.075  17.607  1.6904  1.0582  1.6668
 7349SOL     OW33682   0.378   1.217   3.226  0.0317 -0.0245  0.6955
 7349SOL    HW133683   0.444   1.161   3.267  0.3565  0.0604  0.3007
 7349SOL    HW233684   0.375   1.174   3.140  2.8010 -0.1544  0.6432
 7350SOL     OW33685   0.577   2.384   9.640  0.0689  0.6446 -0.5322
 7350SOL    HW133686   0.642   2.428   9.585  0.0398 -0.1090 -1.1636
 7350SOL    HW233687   0.549   2.314   9.581 -0.7319  2.8194 -2.7084
 7351SOL     OW33688   0.100   0.298   2.557 -0.1234  0.2619 -0.6190
 7351SOL    HW133689   0.168   0.330   2.616  1.1490 -0.9737 -1.4109
 7351SOL    HW233690   0.148   0.266   2.480  0.2031 -0.7669  0.0174
 7352SOL     OW33691   1.366   2.760   7.125 -0.2155  0.2183 -0.0114
 7352SOL    HW133692   1.312   2.828   7.084  0.7980  0.8216 -0.3339
 7352SOL    HW233693   1.401   2.716   7.048  2.7573  1.2515  0.7776
 7353SOL     OW33694   4.258   2.377  11.575  0.5176 -0.2540 -0.0101
 7353SOL    HW133695   4.257   2.373  11.670  2.9101  1.0159  0.0772
 7353SOL    HW233696   4.263   2.283  11.556  1.1719 -0.5348  1.6254
 7354SOL     OW33697   1.644   0.347   5.135  0.4381 -0.1880 -0.0729
 7354SOL    HW133698   1.676   0.423   5.087 -1.0496 -0.9511 -2.2624
 7354SOL    HW233699   1.677   0.366   5.223 -1.2679  2.3323  0.0039
 7355SOL     OW33700   2.143   2.992  12.077  0.5545  0.0037  0.1789
 7355SOL    HW133701   2.227   2.948  12.089  1.0785  1.0847  0.4700
 7355SOL    HW233702   2.141   3.054  12.150  0.1724  3.6450 -2.8896
 7356SOL     OW33703   1.804   1.963  16.021 -0.7491 -0.0567 -0.1999
 7356SOL    HW133704   1.867   1.942  15.952 -1.6168  0.1830 -1.0651
 7356SOL    HW233705   1.758   1.880  16.019 -0.6111 -0.1118 -1.0924
 7357SOL     OW33706   1.487   2.451  10.923 -0.4162 -0.3230 -0.1162
 7357SOL    HW133707   1.489   2.359  10.897  0.3074 -0.4991  0.5411
 7357SOL    HW233708   1.438   2.450  11.005 -1.6825 -0.2735 -0.8705
 7358SOL     OW33709   1.760   0.217   1.615  0.3206  0.4710  0.2953
 7358SOL    HW133710   1.821   0.184   1.549 -2.6244 -0.9160 -1.7139
 7358SOL    HW233711   1.730   0.132   1.647 -0.0968 -0.0165 -1.4174
 7359SOL     OW33712   3.527   2.573   4.236 -0.1284  0.0486 -0.1214
 7359SOL    HW133713   3.433   2.566   4.253 -0.5705  1.0423 -2.1784
 7359SOL    HW233714   3.555   2.561   4.326  0.5059  2.2626 -0.0450
 7360SOL     OW33715   1.359   3.613   5.798 -0.4533  0.0115 -0.0553
 7360SOL    HW133716   1.300   3.551   5.755 -0.4658  0.6485 -0.9566
 7360SOL    HW233717   1.420   3.562   5.851  0.1735  1.8225  0.9491
 7361SOL     OW33718   4.685   0.014  12.083  0.0061  0.2423 -0.2792
 7361SOL    HW133719   4.707   0.070  12.158  1.6347  0.3814 -0.8451
 7361SOL    HW233720   4.647   4.669  12.117 -1.3804  2.1996  2.8314
 7362SOL     OW33721   3.654   2.802   3.962  0.5395  0.1737 -0.3667
 7362SOL    HW133722   3.571   2.756   3.951  1.1521 -0.7257 -1.2178
 7362SOL    HW233723   3.663   2.818   4.056 -0.2352 -0.6814 -0.1364
 7363SOL     OW33724   2.376   0.382   8.152 -1.0949 -0.3442  0.3658
 7363SOL    HW133725   2.330   0.432   8.085 -0.0655  0.7436  0.4864
 7363SOL    HW233726   2.401   0.299   8.111  0.4148  0.1100  0.3698
 7364SOL     OW33727   0.321   2.453   9.544  0.2532 -0.5781 -0.5621
 7364SOL    HW133728   0.305   2.369   9.500  1.2174  0.1730 -2.3645
 7364SOL    HW233729   0.416   2.449   9.554  0.5117  1.3119 -2.4724
 7365SOL     OW33730   0.922   2.809   3.604  0.3014  0.4754  0.1258
 7365SOL    HW133731   0.928   2.897   3.642  0.8464  0.8564 -0.8547
 7365SOL    HW233732   0.829   2.805   3.579  0.6808  0.8014 -1.3435
 7366SOL     OW33733   4.322   2.582   2.848 -0.1593  0.5834  0.4256
 7366SOL    HW133734   4.376   2.645   2.896  0.6408 -0.0635  0.3752
 7366SOL    HW233735   4.235   2.621   2.839 -1.6548 -3.1426 -1.3897
 7367SOL     OW33736   4.325   1.733  10.175  0.6411 -0.6445  0.1222
 7367SOL    HW133737   4.258   1.757  10.110  0.1694  0.5978  1.0727
 7367SOL    HW233738   4.275   1.709  10.253  0.7238 -0.2272  0.3049
 7368SOL     OW33739   3.804   3.784   9.816 -0.1239  0.3864  0.6271
 7368SOL    HW133740   3.740   3.715   9.803  0.9162 -0.1601 -1.5318
 7368SOL    HW233741   3.746   3.848   9.776  2.6114 -0.1004 -4.1427
 7369SOL     OW33742   4.099   0.211   1.399  0.1898 -0.1313 -0.1545
 7369SOL    HW133743   4.174   0.171   1.443 -0.0007 -1.7337 -1.2855
 7369SOL    HW233744   4.141   0.229   1.315 -1.8519  1.3429 -0.8647
 7370SOL     OW33745   3.338   0.340   9.930 -0.1655 -0.1465 -0.5302
 7370SOL    HW133746   3.381   0.416   9.891  0.8426 -1.5625 -2.1642
 7370SOL    HW233747   3.312   0.386  10.010 -1.4225  2.5254 -2.4528
 7371SOL     OW33748   0.854   3.990  11.795  0.2747 -0.3868  0.1495
 7371SOL    HW133749   0.883   4.067  11.845 -0.6897 -0.5609  0.9642
 7371SOL    HW233750   0.906   4.006  11.716 -1.0539  0.6699 -0.5191
 7372SOL     OW33751   0.764   3.477   5.701  0.2079  0.1133  0.2629
 7372SOL    HW133752   0.822   3.432   5.639 -1.3200 -0.6127 -0.6538
 7372SOL    HW233753   0.748   3.405   5.761 -3.3532 -0.0459 -0.8601
 7373SOL     OW33754   3.434   0.592   7.186 -0.1079 -0.2765  0.4794
 7373SOL    HW133755   3.408   0.662   7.246  2.6924 -0.6359  2.1049
 7373SOL    HW233756   3.529   0.603   7.185 -0.1283  0.0071  1.2226
 7374SOL     OW33757   2.315   4.736  12.054 -0.5632  0.6661  0.1506
 7374SOL    HW133758   2.363   0.077  12.023  0.0601  0.6485  1.0789
 7374SOL    HW233759   2.234   0.006  12.003  0.5299 -0.0661 -1.6497
 7375SOL     OW33760   1.339   2.079   2.116 -0.0443 -0.0030 -0.2453
 7375SOL    HW133761   1.288   2.043   2.044  1.3018 -0.1227 -1.1311
 7375SOL    HW233762   1.422   2.098   2.072  0.0676  1.8657  0.7975
 7376SOL     OW33763   3.327   0.891   4.079 -0.0416  0.3046  0.0677
 7376SOL    HW133764   3.414   0.852   4.069 -0.2814 -0.2856  0.2387
 7376SOL    HW233765   3.342   0.975   4.123 -0.4960  0.0171  0.7729
 7377SOL     OW33766   1.482   2.400  16.759 -0.5745  0.0210  0.1164
 7377SOL    HW133767   1.540   2.365  16.692  0.1400  0.0677  0.7008
 7377SOL    HW233768   1.487   2.493  16.738  0.5259  0.0704  0.5897
 7378SOL     OW33769   3.328   1.853   0.322  0.8654 -0.0648  0.3157
 7378SOL    HW133770   3.403   1.835   0.265  0.9902 -0.8766  0.7396
 7378SOL    HW233771   3.315   1.947   0.305  0.6792 -0.1729 -0.1369
 7379SOL     OW33772   1.929   2.677   2.056  0.2280  0.0628 -0.3077
 7379SOL    HW133773   2.008   2.623   2.051 -0.1336 -0.5434  0.5083
 7379SOL    HW233774   1.970   2.763   2.069  0.9367 -0.4916  1.0235
 7380SOL     OW33775   3.545   4.555   5.298 -0.4989 -0.2804 -0.7487
 7380SOL    HW133776   3.585   4.484   5.248  0.2618 -1.2299  1.2207
 7380SOL    HW233777   3.453   4.535   5.286 -0.8251  0.5890  0.2876
 7381SOL     OW33778   0.492   0.383   1.516  0.3199 -0.2309  0.2127
 7381SOL    HW133779   0.475   0.337   1.434  0.9587 -1.4043  0.7495
 7381SOL    HW233780   0.407   0.428   1.521  0.9292  0.7736  1.6893
 7382SOL     OW33781   4.462   3.235   8.889  0.1248  0.1334 -0.2110
 7382SOL    HW133782   4.375   3.202   8.867  0.5304 -0.4243 -0.9826
 7382SOL    HW233783   4.522   3.175   8.844  0.5565  0.6967 -0.3951
 7383SOL     OW33784   2.070   3.709   3.693 -0.3086 -0.1397  0.4627
 7383SOL    HW133785   2.034   3.786   3.649  1.7969  1.0251  0.7660
 7383SOL    HW233786   2.073   3.639   3.628 -3.0202 -1.6080  1.9098
 7384SOL     OW33787   4.073   0.266   9.419  0.1349 -0.2044  0.0014
 7384SOL    HW133788   4.075   0.353   9.379  0.8283 -0.0030  0.4770
 7384SOL    HW233789   4.110   0.210   9.352  2.6495  0.2946  0.9642
 7385SOL     OW33790   0.044   2.016   2.967 -0.1003 -0.4658 -0.3435
 7385SOL    HW133791   4.690   1.984   2.958  0.0168 -0.4934 -1.3593
 7385SOL    HW233792   0.072   2.018   2.876  2.6088 -0.8187  0.4949
 7386SOL     OW33793   1.984   1.214   2.204  0.3031 -0.2902  0.0037
 7386SOL    HW133794   2.064   1.264   2.220 -0.2431  1.4830 -2.6930
 7386SOL    HW233795   2.017   1.127   2.181  0.6527 -0.1546 -0.0083
 7387SOL     OW33796   0.072   1.799   6.429  0.2593 -0.0270 -0.5145
 7387SOL    HW133797   4.736   1.812   6.489  1.6632  0.0238  1.1556
 7387SOL    HW233798   0.067   1.874   6.370 -2.2996  0.4156  0.2582
 7388SOL     OW33799   3.552   2.421  11.923  0.1114  0.1810 -0.5094
 7388SOL    HW133800   3.643   2.451  11.925  0.2053 -0.0112 -1.7369
 7388SOL    HW233801   3.545   2.374  12.005  1.3463  2.7554  1.0947
 7389SOL     OW33802   4.495   0.018   7.512 -0.2146 -0.4161  0.2035
 7389SOL    HW133803   4.507   4.660   7.524 -1.9244 -0.6808 -0.1336
 7389SOL    HW233804   4.553   0.055   7.579  0.2680  0.9190 -0.9568
 7390SOL     OW33805   0.843   3.570  13.280 -0.0178  0.0986  0.1150
 7390SOL    HW133806   0.759   3.531  13.302 -0.2695  0.8794  0.5294
 7390SOL    HW233807   0.850   3.528  13.194  0.5987  3.0776 -1.2835
 7391SOL     OW33808   0.502   0.916   8.579  0.3253  0.1417 -0.1326
 7391SOL    HW133809   0.508   1.004   8.617  0.7667 -0.0071  0.1451
 7391SOL    HW233810   0.595   0.896   8.572  0.5538  1.2067 -0.1821
 7392SOL     OW33811   1.754   0.291   4.670 -0.5260  0.5157 -0.6224
 7392SOL    HW133812   1.792   0.322   4.752  0.1235 -0.1328 -0.6795
 7392SOL    HW233813   1.749   0.379   4.632 -1.3846  1.5418  1.8749
 7393SOL     OW33814   0.856   1.368   1.874 -0.0262  0.5553  0.1583
 7393SOL    HW133815   0.806   1.286   1.869 -0.0656  0.4908  1.6180
 7393SOL    HW233816   0.874   1.384   1.966  2.5097  4.3776 -1.0042
 7394SOL     OW33817   0.055   1.015   2.576 -0.1543 -0.0436  0.0827
 7394SOL    HW133818   0.137   1.022   2.527 -1.1166 -1.3144 -1.6881
 7394SOL    HW233819   0.075   1.083   2.640  0.1821  0.7783 -0.9009
 7395SOL     OW33820   4.155   4.045   1.466  0.7510 -0.4708  0.0737
 7395SOL    HW133821   4.172   3.974   1.404 -1.6269  0.0244 -1.1305
 7395SOL    HW233822   4.094   4.094   1.412  1.8462  1.6654  0.7996
 7396SOL     OW33823   4.520   0.760   3.364  0.3778 -0.3125  0.1309
 7396SOL    HW133824   4.554   0.798   3.445  0.3201  1.2710 -0.5969
 7396SOL    HW233825   4.441   0.814   3.360 -0.1382 -1.0779 -0.0930
 7397SOL     OW33826   0.685   3.734  12.926  0.2221 -0.5751  0.1460
 7397SOL    HW133827   0.592   3.718  12.908  0.1575 -0.0371 -0.0137
 7397SOL    HW233828   0.698   3.824  12.897 -2.4821  0.2761  1.5784
 7398SOL     OW33829   0.990   1.613  17.134 -0.2014  0.1567 -0.3444
 7398SOL    HW133830   0.923   1.668  17.094 -0.4261  0.4676  0.4549
 7398SOL    HW233831   1.047   1.591  17.060 -0.4887  0.5029 -0.6692
 7399SOL     OW33832   1.694   3.628   4.179  0.5452  0.7417  0.1644
 7399SOL    HW133833   1.659   3.563   4.119  1.4104  0.5058 -0.0888
 7399SOL    HW233834   1.722   3.703   4.126  2.3132 -0.7004 -0.9336
 7400SOL     OW33835   4.146   4.489   8.574 -0.2236 -0.1135 -0.1332
 7400SOL    HW133836   4.064   4.532   8.550  0.2667  1.8138  1.6157
 7400SOL    HW233837   4.103   4.425   8.630 -0.2757  0.9183  1.0150
 7401SOL     OW33838   3.429   1.748  10.648  0.5111  0.0533 -0.2190
 7401SOL    HW133839   3.368   1.798  10.594  2.1092  0.5363 -1.5668
 7401SOL    HW233840   3.377   1.745  10.729 -0.0399 -0.8504 -0.6136
 7402SOL     OW33841   3.521   4.218   6.598  0.5311 -0.2158 -0.0767
 7402SOL    HW133842   3.559   4.302   6.624  0.5267 -0.5057  0.8835
 7402SOL    HW233843   3.514   4.175   6.683 -1.6555  0.1583 -0.0750
 7403SOL     OW33844   0.225   3.666   3.661  0.1640 -0.0303 -0.4122
 7403SOL    HW133845   0.271   3.624   3.734 -0.4769 -0.8423 -0.4763
 7403SOL    HW233846   0.209   3.752   3.699  2.0042 -0.1921  0.7454
 7404SOL     OW33847   4.627   0.655   6.718 -0.0240  0.2283  0.0736
 7404SOL    HW133848   4.690   0.598   6.763 -1.2766  0.4308  2.0760
 7404SOL    HW233849   4.569   0.691   6.785  0.0800  1.3901 -0.4587
 7405SOL     OW33850   3.670   4.654   2.787  0.2227  0.1462  0.4147
 7405SOL    HW133851   3.599   4.594   2.812  2.5160 -3.2883 -1.3937
 7405SOL    HW233852   3.712   4.666   2.873 -1.0959 -0.6954  1.1823
 7406SOL     OW33853   1.170   0.090   7.389 -0.2503  0.0524 -0.1915
 7406SOL    HW133854   1.261   0.068   7.368 -0.6730  0.5277 -2.5273
 7406SOL    HW233855   1.128   0.061   7.308 -1.5476  1.9424 -0.2131
 7407SOL     OW33856   1.538   2.685   3.551 -0.0524 -0.4938 -0.2676
 7407SOL    HW133857   1.523   2.610   3.493 -0.0012  0.6384 -1.7496
 7407SOL    HW233858   1.470   2.751   3.535 -0.5739 -0.7731  0.7962
 7408SOL     OW33859   1.975   0.772   5.779 -0.0385  0.2564  0.3691
 7408SOL    HW133860   1.910   0.841   5.774  1.7582  1.8787 -0.6153
 7408SOL    HW233861   1.987   0.756   5.686  1.6435 -1.7589  0.9283
 7409SOL     OW33862   0.519   0.371  14.963  0.6167  0.9860  0.2238
 7409SOL    HW133863   0.578   0.349  14.890 -3.2485  2.6511 -3.3941
 7409SOL    HW233864   0.555   0.325  15.038  0.6777 -2.1238 -1.7227
 7410SOL     OW33865   1.615   0.167   4.454 -0.3626 -0.3716 -0.5614
 7410SOL    HW133866   1.688   0.172   4.517 -0.1249  2.2629 -1.0628
 7410SOL    HW233867   1.609   0.261   4.435 -1.2397 -0.4409 -0.6073
 7411SOL     OW33868   0.569   4.337  12.468  0.5376 -0.3303 -0.2127
 7411SOL    HW133869   0.655   4.296  12.459 -0.1734 -1.9797  0.5194
 7411SOL    HW233870   0.553   4.357  12.376 -0.3547 -1.9179 -0.3986
 7412SOL     OW33871   2.070   0.150   0.565  0.1573 -0.2198 -0.1265
 7412SOL    HW133872   2.156   0.167   0.603 -0.0637  2.4898 -0.8560
 7412SOL    HW233873   2.011   0.169   0.638 -1.1217  0.8153 -1.4259
 7413SOL     OW33874   4.224   1.221   3.683  0.4725  0.9238 -0.4099
 7413SOL    HW133875   4.306   1.268   3.699 -0.2918  2.9630 -2.4821
 7413SOL    HW233876   4.217   1.242   3.590  0.5663  0.3801 -0.5375
 7414SOL     OW33877   0.366   0.426   3.238 -0.1461 -0.4937 -0.0711
 7414SOL    HW133878   0.401   0.342   3.269  0.3719 -1.3720 -3.0289
 7414SOL    HW233879   0.271   0.413   3.235 -0.3755  1.1618  0.1671
 7415SOL     OW33880   4.550   1.368   9.166  0.1859 -0.0633  0.4162
 7415SOL    HW133881   4.500   1.335   9.091  2.7865  0.8010 -1.6651
 7415SOL    HW233882   4.484   1.368   9.236  0.1460 -1.0617  0.3824
 7416SOL     OW33883   4.671   2.587   6.882  0.0019 -0.2881 -0.3216
 7416SOL    HW133884   4.661   2.609   6.975  1.5382  1.8912 -0.6729
 7416SOL    HW233885   0.028   2.602   6.867 -0.7054  2.5264 -1.7268
 7417SOL     OW33886   1.666   4.046   7.443  0.0452 -0.5506  0.1733
 7417SOL    HW133887   1.664   3.988   7.519  0.9065  0.0487  0.6502
 7417SOL    HW233888   1.759   4.067   7.455 -1.0739  3.7120  1.2629
 7418SOL     OW33889   1.944   0.296   8.868  0.1092 -0.5344  0.5807
 7418SOL    HW133890   1.936   0.323   8.959 -0.6836  0.6042  0.1829
 7418SOL    HW233891   2.036   0.275   8.854  0.3492  0.6928  0.3066
 7419SOL     OW33892   3.065   3.782   4.806 -0.2955  0.3228  0.5802
 7419SOL    HW133893   3.064   3.711   4.869 -1.2222 -0.0130  0.1824
 7419SOL    HW233894   3.071   3.743   4.719  2.0385  0.4763  0.6497
 7420SOL     OW33895   4.702   4.616   3.410 -0.5436 -0.1204  0.6883
 7420SOL    HW133896   4.718   4.525   3.385 -0.7761  0.0371 -0.0120
 7420SOL    HW233897   0.029   4.661   3.355 -0.7934  1.3581  1.6182
 7421SOL     OW33898   2.542   4.666   4.790  0.3795  0.4585  0.0475
 7421SOL    HW133899   2.518   4.675   4.883  0.2171 -1.5225  0.2126
 7421SOL    HW233900   2.636   4.682   4.799  0.7843 -0.1093 -3.3745
 7422SOL     OW33901   0.544   4.601   3.717  0.3708 -0.4072 -0.0189
 7422SOL    HW133902   0.565   4.601   3.811  1.6468  0.2538 -0.2984
 7422SOL    HW233903   0.470   4.542   3.705 -0.9157  1.2558 -0.3095
 7423SOL     OW33904   2.029   0.633   6.585 -0.5575  0.2404 -0.2513
 7423SOL    HW133905   2.069   0.647   6.499 -1.2190 -0.7350 -0.7180
 7423SOL    HW233906   1.990   0.545   6.584 -0.2073  0.0851 -1.0697
 7424SOL     OW33907   3.788   0.686   4.103 -0.1304 -0.2369 -0.0573
 7424SOL    HW133908   3.825   0.623   4.165 -1.2013  0.6592  1.4889
 7424SOL    HW233909   3.868   0.732   4.077 -1.0997 -0.8661 -4.0890
 7425SOL     OW33910   3.273   3.065   3.378 -0.5163 -0.3480  0.0980
 7425SOL    HW133911   3.236   3.088   3.463 -1.5735 -1.4326 -0.0646
 7425SOL    HW233912   3.244   2.974   3.372  1.8176 -1.2062  1.9799
 7426SOL     OW33913   2.430   2.555   2.873 -0.3096 -0.2048  0.3824
 7426SOL    HW133914   2.383   2.482   2.834  0.5955 -0.7926  0.3766
 7426SOL    HW233915   2.467   2.520   2.954  0.8693 -0.5315 -0.3009
 7427SOL     OW33916   3.110   2.119   8.770  0.4536 -0.7139  0.2569
 7427SOL    HW133917   3.152   2.124   8.684  2.7734  1.7470  1.5194
 7427SOL    HW233918   3.113   2.028   8.799  0.6498 -0.7747  0.0452
 7428SOL     OW33919   1.337   0.937   9.376 -0.1341 -0.5990  0.8999
 7428SOL    HW133920   1.247   0.932   9.346 -0.1731 -0.2003  0.9425
 7428SOL    HW233921   1.329   0.874   9.447  0.4144 -0.4157  1.1287
 7429SOL     OW33922   0.649   0.635  10.983 -0.4307  0.6611  0.6774
 7429SOL    HW133923   0.571   0.580  10.987 -0.1140  0.1799  0.2643
 7429SOL    HW233924   0.617   0.716  11.023  0.2627  0.0556  2.4658
 7430SOL     OW33925   4.558   0.066   4.921  0.8500  0.1266 -0.3541
 7430SOL    HW133926   4.556   4.710   4.946 -0.4960  0.6189  1.3451
 7430SOL    HW233927   4.504   0.070   4.841  0.5151  2.5045 -0.0219
 7431SOL     OW33928   3.665   2.136  11.634  0.6097 -0.3382 -0.1640
 7431SOL    HW133929   3.710   2.179  11.561 -0.0101  2.0531  0.8397
 7431SOL    HW233930   3.575   2.166  11.630  0.4477 -0.4383  2.6591
 7432SOL     OW33931   1.853   1.827  13.485 -0.3388  0.3423 -0.1920
 7432SOL    HW133932   1.905   1.838  13.564  0.0346  0.5432 -0.4641
 7432SOL    HW233933   1.868   1.736  13.458  0.8581  0.5145 -0.1330
 7433SOL     OW33934   4.618   2.132   7.436  0.3291  0.3311  0.1561
 7433SOL    HW133935   4.680   2.164   7.502 -1.4794  0.1333  1.9429
 7433SOL    HW233936   4.685   2.110   7.371 -0.1352 -0.8905  0.0875
 7434SOL     OW33937   3.515   1.367   4.050  0.0911 -0.0358 -0.8009
 7434SOL    HW133938   3.486   1.344   4.139 -1.8147 -1.9182 -1.9091
 7434SOL    HW233939   3.484   1.289   4.005  1.0320 -0.7635 -0.1999
 7435SOL     OW33940   0.278   0.895  14.846  0.0079 -0.9167  0.3367
 7435SOL    HW133941   0.267   0.985  14.816 -1.7456 -1.0052  0.6988
 7435SOL    HW233942   0.195   0.859  14.816  0.0274 -0.1451 -0.6264
 7436SOL     OW33943   0.606   0.846   8.160 -0.3406  0.2269 -0.3100
 7436SOL    HW133944   0.546   0.918   8.143 -0.3616  0.1322 -0.6357
 7436SOL    HW233945   0.554   0.770   8.135  1.9926 -0.3468 -3.4062
 7437SOL     OW33946   2.796   0.273   8.879 -0.4183 -0.3070 -0.3261
 7437SOL    HW133947   2.803   0.280   8.783  2.7407 -2.0513 -0.2444
 7437SOL    HW233948   2.769   0.181   8.889 -2.8308  0.4228 -0.1892
 7438SOL     OW33949   2.897   1.196  16.793  0.3685  0.5338  0.4692
 7438SOL    HW133950   2.850   1.280  16.801 -1.6764 -0.3815 -1.8916
 7438SOL    HW233951   2.825   1.137  16.768  0.5176 -0.0954  1.5301
 7439SOL     OW33952   1.306   4.351  17.184 -0.2111  0.7351  0.1893
 7439SOL    HW133953   1.300   4.440  17.217 -0.5569  1.1854 -1.0934
 7439SOL    HW233954   1.382   4.368  17.128 -0.4566  1.5153  0.1038
 7440SOL     OW33955   4.008   3.711   7.904  0.0336  0.2592 -0.7742
 7440SOL    HW133956   3.924   3.729   7.862  0.0805  1.9672 -0.1423
 7440SOL    HW233957   3.976   3.667   7.983 -0.7147  2.2208 -0.0083
 7441SOL     OW33958   0.625   1.331   6.083  0.5235  0.1489 -0.1270
 7441SOL    HW133959   0.673   1.391   6.026  1.4403 -0.0653  0.4265
 7441SOL    HW233960   0.615   1.389   6.159  0.0173  1.9368 -1.5677
 7442SOL     OW33961   0.117   0.158   1.036  0.4903 -0.4835 -0.1428
 7442SOL    HW133962   0.186   0.160   0.970  1.4658  1.2184  0.9109
 7442SOL    HW233963   0.156   0.123   1.116 -0.2923  2.5820  1.6168
 7443SOL     OW33964   4.411   4.537   8.650  0.1529  0.1209  0.1012
 7443SOL    HW133965   4.318   4.527   8.631  0.0375 -0.8071  1.1617
 7443SOL    HW233966   4.429   4.629   8.631 -2.0208  0.2869 -1.2439
 7444SOL     OW33967   2.518   2.809  11.516 -0.2599 -0.3778 -0.1182
 7444SOL    HW133968   2.491   2.900  11.523 -0.3520 -0.4587  0.5307
 7444SOL    HW233969   2.436   2.769  11.545 -1.4096  0.8122 -1.7098
 7445SOL     OW33970   1.565   2.212   4.266  0.2448 -0.1364  0.9101
 7445SOL    HW133971   1.517   2.295   4.266  0.0381 -0.2523 -2.2719
 7445SOL    HW233972   1.654   2.231   4.295  0.6050  0.6714 -0.7205
 7446SOL     OW33973   3.111   1.687  15.819 -0.8123 -0.0341  0.0857
 7446SOL    HW133974   3.051   1.732  15.759 -0.7693 -2.9161 -2.1009
 7446SOL    HW233975   3.195   1.690  15.775 -1.0465 -1.5104 -0.4480
 7447SOL     OW33976   1.014   2.804  16.922 -0.4628 -0.1280  0.2569
 7447SOL    HW133977   0.957   2.751  16.976 -2.6240  1.3134 -0.6040
 7447SOL    HW233978   0.982   2.893  16.936 -0.5477 -0.1410  0.1465
 7448SOL     OW33979   1.364   0.433   3.997  0.1211 -0.3109  0.5213
 7448SOL    HW133980   1.310   0.510   3.976  1.2525  1.1271  2.7955
 7448SOL    HW233981   1.293   0.375   4.025 -0.4493  0.4117  0.5925
 7449SOL     OW33982   1.874   0.857  13.684  0.2058 -0.5728  0.0703
 7449SOL    HW133983   1.962   0.823  13.667  0.7310  0.4337  0.8214
 7449SOL    HW233984   1.877   0.886  13.775  0.2766 -2.2313  0.6025
 7450SOL     OW33985   3.414   0.080  17.156 -0.0127  0.0404  0.0879
 7450SOL    HW133986   3.436   0.118  17.241  0.4221  0.2832 -0.1356
 7450SOL    HW233987   3.322   0.107  17.155  0.3204  1.2129  1.5032
 7451SOL     OW33988   4.030   0.082   9.061 -0.3682 -0.4700 -0.0941
 7451SOL    HW133989   4.020   4.729   9.027 -3.0003 -0.3008  0.2409
 7451SOL    HW233990   4.074   0.058   9.142 -0.1306 -1.5392 -0.5330
 7452SOL     OW33991   1.017   3.020   8.296  0.3211 -0.4666  0.1561
 7452SOL    HW133992   1.023   3.084   8.226 -1.1018 -1.6233 -1.0145
 7452SOL    HW233993   0.928   3.032   8.327 -0.3088  0.0087 -1.8762
 7453SOL     OW33994   3.082   2.304   8.205 -0.5241 -0.3241 -0.2088
 7453SOL    HW133995   3.021   2.348   8.146 -1.6549 -0.3773  0.9220
 7453SOL    HW233996   3.033   2.223   8.220  0.5412 -0.6065  1.7776
 7454SOL     OW33997   4.407   1.776  16.974 -0.0699 -0.4302  0.3110
 7454SOL    HW133998   4.458   1.742  17.047 -1.7493 -0.9751  1.2161
 7454SOL    HW233999   4.423   1.713  16.904 -1.0866 -0.7548  0.3707
 7455SOL     OW34000   2.426   1.735  13.272  0.3949  0.2903 -0.1563
 7455SOL    HW134001   2.413   1.803  13.338  0.3105 -1.4950  1.6628
 7455SOL    HW234002   2.475   1.668  13.320 -1.8962 -0.8486  0.6058
 7456SOL     OW34003   3.516   2.489   7.526 -0.7109  0.3297 -0.2505
 7456SOL    HW134004   3.497   2.583   7.517 -0.4443  0.6700  2.6176
 7456SOL    HW234005   3.424   2.464   7.533 -0.4457 -0.8311 -1.0942
 7457SOL     OW34006   3.975   3.248   8.202 -0.2248 -0.0313  0.0451
 7457SOL    HW134007   3.934   3.226   8.286  2.3246 -1.1353  0.9932
 7457SOL    HW234008   3.912   3.225   8.133 -1.1551 -0.5403  1.0515
 7458SOL     OW34009   1.542   1.086   7.793  0.4534 -0.7199 -0.3972
 7458SOL    HW134010   1.455   1.084   7.753 -0.5336 -0.3021  1.7324
 7458SOL    HW234011   1.590   1.093   7.710  2.5858 -0.2909  0.8756
 7459SOL     OW34012   3.981   1.328   7.208  0.1964 -0.2061 -0.5684
 7459SOL    HW134013   3.960   1.414   7.174  0.0252  0.8216  2.1550
 7459SOL    HW234014   3.905   1.272   7.193 -0.9699  1.1257  0.4677
 7460SOL     OW34015   0.719   1.293   8.641 -0.2499 -0.2166  0.0166
 7460SOL    HW134016   0.779   1.341   8.698 -1.7628 -1.8988  3.0408
 7460SOL    HW234017   0.773   1.219   8.614  0.1568  0.2090 -0.3358
 7461SOL     OW34018   1.421   1.021   5.588 -0.2341 -0.3443 -0.4601
 7461SOL    HW134019   1.397   1.084   5.656 -4.5561 -0.2121 -2.1233
 7461SOL    HW234020   1.335   0.995   5.556 -0.0178 -0.5318 -0.8836
 7462SOL     OW34021   3.275   3.604   4.571 -0.4683 -0.0691  0.1246
 7462SOL    HW134022   3.300   3.596   4.479 -0.8527  0.1553  0.0020
 7462SOL    HW234023   3.180   3.615   4.563 -0.8881 -3.8653 -0.1162
 7463SOL     OW34024   1.829   2.790   5.635  0.0459 -0.1006 -0.0034
 7463SOL    HW134025   1.873   2.820   5.714 -0.9219  1.0168  0.1178
 7463SOL    HW234026   1.754   2.849   5.640  0.6660  0.6773  0.0699
 7464SOL     OW34027   0.682   4.147   4.000 -0.2044 -0.2779  0.2379
 7464SOL    HW134028   0.651   4.167   3.912 -0.3125 -2.5795 -0.2311
 7464SOL    HW234029   0.597   4.124   4.038 -1.2356  0.5961 -1.5761
 7465SOL     OW34030   0.247   1.916   8.602 -0.1066  0.1772 -0.0326
 7465SOL    HW134031   0.272   1.979   8.670 -0.8638  0.4955 -0.0520
 7465SOL    HW234032   0.320   1.911   8.541  0.1979 -0.8358  0.4089
 7466SOL     OW34033   0.993   2.171   7.554 -0.2472 -0.1073 -0.6167
 7466SOL    HW134034   1.055   2.136   7.618 -1.4217 -3.0155 -1.0695
 7466SOL    HW234035   0.976   2.095   7.499  1.5974  0.5047 -2.0234
 7467SOL     OW34036   4.224   2.951   5.676 -0.1066 -0.2077 -0.7668
 7467SOL    HW134037   4.162   2.923   5.744  1.6163  0.8473  1.2081
 7467SOL    HW234038   4.287   3.008   5.720 -1.9974  0.5458  0.9686
 7468SOL     OW34039   2.680   2.777   7.186  0.1101 -0.7477  0.1068
 7468SOL    HW134040   2.604   2.752   7.237 -0.2112  1.2232  0.5909
 7468SOL    HW234041   2.742   2.709   7.214  1.8834  0.2676 -1.3459
 7469SOL     OW34042   0.888   3.954  17.015  0.1605  0.3370 -0.0829
 7469SOL    HW134043   0.953   3.957  17.085 -1.2236  1.0573  1.1599
 7469SOL    HW234044   0.909   3.870  16.973  0.7510  0.2810  0.3338
 7470SOL     OW34045   3.158   1.612   4.152  1.4359  0.5151  0.2537
 7470SOL    HW134046   3.238   1.660   4.173  1.5009  1.2546 -1.7062
 7470SOL    HW234047   3.150   1.611   4.057  2.6965 -1.5563  0.1562
 7471SOL     OW34048   3.241   0.451   1.014  0.0447  0.0834 -0.8426
 7471SOL    HW134049   3.226   0.545   1.030 -1.0873 -0.0627 -0.9997
 7471SOL    HW234050   3.261   0.424   1.104  1.9716 -1.0890 -1.6336
 7472SOL     OW34051   3.981   0.915   0.291  0.2423 -0.0761  0.4029
 7472SOL    HW134052   3.954   0.905   0.200 -1.7686 -0.7562  1.0655
 7472SOL    HW234053   4.004   1.008   0.297  0.3746  0.0152 -1.4678
 7473SOL     OW34054   4.108   1.709   0.669  0.4380  0.1843  0.8596
 7473SOL    HW134055   4.132   1.768   0.740 -0.8288  0.7848  0.7904
 7473SOL    HW234056   4.048   1.768   0.622  1.0150 -1.2078 -1.6627
 7474SOL     OW34057   4.327   3.656   5.863 -0.0436 -0.1129  0.2151
 7474SOL    HW134058   4.306   3.687   5.951 -2.0086 -1.1912  0.1140
 7474SOL    HW234059   4.373   3.578   5.892  0.2519  0.4318  1.2242
 7475SOL     OW34060   2.410   0.441   3.923  0.3713  0.0435 -0.1403
 7475SOL    HW134061   2.497   0.404   3.936  0.6535  0.4433 -0.8934
 7475SOL    HW234062   2.420   0.522   3.873 -2.3280  1.2082  1.1879
 7476SOL     OW34063   2.497   4.294   4.033 -0.4152  0.1089  0.3615
 7476SOL    HW134064   2.471   4.302   4.125  0.4423 -0.1381  0.6270
 7476SOL    HW234065   2.444   4.219   4.007  0.8207 -0.6517  0.0213
 7477SOL     OW34066   3.178   1.132  11.977  0.5693 -0.2820  0.2727
 7477SOL    HW134067   3.199   1.207  11.921 -3.0011 -0.6388 -1.5715
 7477SOL    HW234068   3.128   1.176  12.046  0.4320  0.9992 -0.6414
 7478SOL     OW34069   4.076   1.241   8.752 -0.2231 -0.9918  0.5109
 7478SOL    HW134070   3.989   1.272   8.725  0.8393  1.1058 -0.5464
 7478SOL    HW234071   4.134   1.245   8.676  0.8890  0.5886  1.4414
 7479SOL     OW34072   2.208   0.269   4.255 -0.2470 -0.3546 -0.2325
 7479SOL    HW134073   2.298   0.273   4.288 -0.0400  1.5998 -1.0451
 7479SOL    HW234074   2.211   0.193   4.197  1.6055 -0.6375  0.2156
 7480SOL     OW34075   2.895   1.138   7.283  0.1681 -0.6267  0.0729
 7480SOL    HW134076   2.810   1.096   7.296 -0.1884 -0.9679 -3.3539
 7480SOL    HW234077   2.932   1.104   7.202  1.2032  0.9369 -0.0941
 7481SOL     OW34078   4.610   0.263   6.773  0.1596 -0.7569  0.1458
 7481SOL    HW134079   4.630   0.180   6.815  0.5058 -0.0839  1.3205
 7481SOL    HW234080   4.687   0.279   6.718  0.2733  0.7551  0.7263
 7482SOL     OW34081   0.417   1.822   5.345  0.4931  0.0746  0.1576
 7482SOL    HW134082   0.379   1.910   5.346  0.4229  0.0647 -2.5806
 7482SOL    HW234083   0.499   1.846   5.389  2.0622 -0.7686 -2.2892
 7483SOL     OW34084   4.419   0.069   8.604 -0.9927  0.5503  0.0067
 7483SOL    HW134085   4.391   0.082   8.514 -0.9383  0.5919 -0.0038
 7483SOL    HW234086   4.389   0.145   8.653 -1.3678 -0.0519  0.7269
 7484SOL     OW34087   0.648   3.116   6.773  0.1203  0.0401 -0.2884
 7484SOL    HW134088   0.660   3.159   6.858  2.1811  0.1648 -0.6459
 7484SOL    HW234089   0.570   3.072   6.809  1.0758 -1.9644 -0.6655
 7485SOL     OW34090   4.225   3.574   6.666 -0.5902 -0.4358 -0.1049
 7485SOL    HW134091   4.306   3.598   6.711 -1.2972  1.0234  0.3820
 7485SOL    HW234092   4.230   3.627   6.587  0.5607  1.3806  1.1882
 7486SOL     OW34093   2.765   2.616   3.698 -0.4777  0.0690 -0.4178
 7486SOL    HW134094   2.816   2.677   3.646  0.5811  0.6734  1.2980
 7486SOL    HW234095   2.679   2.648   3.673 -0.7530 -0.4614 -0.1613
 7487SOL     OW34096   3.183   0.063   5.543 -0.0879 -0.2531  0.0655
 7487SOL    HW134097   3.115   0.102   5.489 -1.0586 -1.7968  0.1688
 7487SOL    HW234098   3.235   0.036   5.468  0.0667  1.2175 -0.3428
 7488SOL     OW34099   0.949   3.919   4.712 -0.4476  0.7253  0.0353
 7488SOL    HW134100   0.892   3.869   4.771 -0.2831  0.7242  0.1939
 7488SOL    HW234101   0.983   3.992   4.765  1.2937  0.1391 -0.2557
 7489SOL     OW34102   2.309   3.130   5.079  0.0562  0.3599  0.0354
 7489SOL    HW134103   2.283   3.078   5.003  1.6462 -2.0135  1.1375
 7489SOL    HW234104   2.254   3.081   5.140 -0.1404 -0.4852 -0.8273
 7490SOL     OW34105   0.071   3.931   5.028 -0.7500  0.5280 -0.7841
 7490SOL    HW134106   0.124   3.981   5.090 -1.3451  0.1268  0.0454
 7490SOL    HW234107   0.029   4.008   4.989  0.2707  2.5449  2.0528
 7491SOL     OW34108   3.981   2.248  14.120 -0.6457  0.6324  0.1216
 7491SOL    HW134109   3.960   2.156  14.105 -1.1445  0.8759 -0.7106
 7491SOL    HW234110   3.914   2.268  14.185 -2.1558 -0.1138 -1.2078
 7492SOL     OW34111   3.293   3.292   4.168  0.1296 -0.2086 -0.3782
 7492SOL    HW134112   3.227   3.228   4.145 -0.5681  1.0661 -1.9302
 7492SOL    HW234113   3.339   3.290   4.084  0.5002 -2.5858 -0.1161
 7493SOL     OW34114   3.306   0.713  15.427 -0.1304 -0.3929  0.2830
 7493SOL    HW134115   3.340   0.797  15.457 -0.4836 -0.6061  1.2960
 7493SOL    HW234116   3.328   0.720  15.334  0.2400 -0.9608  0.3304
 7494SOL     OW34117   4.072   4.729   3.832  0.4679  0.4673 -0.1908
 7494SOL    HW134118   3.997   0.013   3.776  0.9452 -0.7730 -1.2818
 7494SOL    HW234119   4.066   4.634   3.822  0.8310  0.1118  3.0506
 7495SOL     OW34120   2.198   1.281   7.909  0.2993 -0.1131  0.1634
 7495SOL    HW134121   2.288   1.306   7.927  0.1304  0.8552 -0.3242
 7495SOL    HW234122   2.187   1.313   7.819  2.3743 -0.3511 -0.1654
 7496SOL     OW34123   0.512   0.062   2.616  0.0378  0.2221 -0.3528
 7496SOL    HW134124   0.431   0.012   2.607 -0.5080  1.5345 -2.7311
 7496SOL    HW234125   0.578   4.733   2.640 -0.5116 -0.1562  0.1005
 7497SOL     OW34126   3.940   3.307   1.560 -0.3540 -0.0994 -0.4814
 7497SOL    HW134127   3.921   3.240   1.625  0.1830 -0.6534 -0.8943
 7497SOL    HW234128   3.916   3.383   1.613 -0.2254 -0.6887  0.4174
 7498SOL     OW34129   4.457   3.582   5.221 -0.2956  0.2545 -0.2840
 7498SOL    HW134130   4.437   3.652   5.158  1.0989  0.5737 -0.3671
 7498SOL    HW234131   4.459   3.511   5.157  1.0477 -0.0849  0.1469
 7499SOL     OW34132   3.621   3.987   4.703  0.4084 -0.0686 -0.5971
 7499SOL    HW134133   3.646   3.894   4.704 -2.8551 -0.9591  0.2237
 7499SOL    HW234134   3.533   3.974   4.668  1.1027 -0.6128 -2.1304
 7500SOL     OW34135   0.903   3.998   5.454 -0.2706  0.0677 -0.0958
 7500SOL    HW134136   0.810   4.006   5.433  0.1058 -2.8079 -2.8726
 7500SOL    HW234137   0.918   4.087   5.484 -3.0013 -0.4918  2.9728
 7501SOL     OW34138   2.666   1.395   8.542 -0.3152 -0.3058  0.2670
 7501SOL    HW134139   2.735   1.429   8.599 -0.1634 -1.0617  0.5337
 7501SOL    HW234140   2.716   1.377   8.462 -2.0731  0.4404 -0.9879
 7502SOL     OW34141   0.366   2.692   3.609  0.6736  0.2407  0.1014
 7502SOL    HW134142   0.375   2.698   3.704 -1.8123 -1.1486  0.4206
 7502SOL    HW234143   0.287   2.743   3.590  0.7738 -0.2861 -1.7193
 7503SOL     OW34144   0.672   4.152   0.780 -0.1940  0.3683 -0.0504
 7503SOL    HW134145   0.714   4.176   0.697  0.9550 -1.0326  0.1244
 7503SOL    HW234146   0.742   4.182   0.838 -0.7403  0.8281  0.3741
 7504SOL     OW34147   1.121   0.192   2.566  0.4567 -0.1672  0.1578
 7504SOL    HW134148   1.154   0.164   2.481  0.8081  0.9210 -0.0623
 7504SOL    HW234149   1.138   0.285   2.556 -0.2961 -0.0411  0.0564
 7505SOL     OW34150   2.489   1.351   8.889 -0.9214  0.0939  0.3150
 7505SOL    HW134151   2.578   1.385   8.894 -1.6249  1.9845  0.0934
 7505SOL    HW234152   2.501   1.291   8.816 -2.2011  0.1501  0.0564
 7506SOL     OW34153   1.095   1.290   2.011  0.3971  0.1998 -0.1187
 7506SOL    HW134154   1.133   1.378   2.009  1.2737 -0.1665  0.2345
 7506SOL    HW234155   1.038   1.281   1.935 -0.8311  0.4735  0.7779
 7507SOL     OW34156   0.412   1.150   8.693  0.4806  0.0620  0.1264
 7507SOL    HW134157   0.322   1.158   8.661  0.3827 -0.0339  0.3793
 7507SOL    HW234158   0.415   1.224   8.754 -1.1065  1.1581 -1.0973
 7508SOL     OW34159   3.696   2.565  13.094  0.0446 -0.2772 -0.5008
 7508SOL    HW134160   3.786   2.597  13.084  0.2579 -0.3142  1.2837
 7508SOL    HW234161   3.698   2.517  13.177  1.5580 -0.3052 -0.5446
 7509SOL     OW34162   2.248   4.511   4.626  0.9501  0.2903  0.1188
 7509SOL    HW134163   2.254   4.541   4.535  1.2021  2.2732  0.7920
 7509SOL    HW234164   2.173   4.561   4.658 -0.0884 -1.6863  0.7823
 7510SOL     OW34165   3.768   1.075   6.622 -0.0959 -0.3522 -0.1024
 7510SOL    HW134166   3.693   1.021   6.645 -1.0531  0.1760 -2.0085
 7510SOL    HW234167   3.726   1.113   6.545  1.6507  1.5225 -0.1438
 7511SOL     OW34168   0.890   3.433   0.985 -0.3562 -0.4192  0.4350
 7511SOL    HW134169   0.982   3.457   0.980  0.0587 -1.8680  1.4113
 7511SOL    HW234170   0.871   3.423   0.891  1.9914 -0.0365 -0.0849
 7512SOL     OW34171   1.012   0.344   5.575  0.0921 -0.2881  0.2394
 7512SOL    HW134172   0.946   0.357   5.507  1.5413  0.2819 -1.0528
 7512SOL    HW234173   1.075   0.292   5.525  0.9968  0.7559  0.2802
 7513SOL     OW34174   1.208   1.497   6.307  0.2609  0.2906 -0.2816
 7513SOL    HW134175   1.158   1.433   6.257 -2.3731  0.8485  1.7041
 7513SOL    HW234176   1.272   1.521   6.239  0.8826  0.3447  0.3271
 7514SOL     OW34177   2.424   3.829   1.651 -0.2485  0.1934 -0.1178
 7514SOL    HW134178   2.477   3.755   1.619  2.4871  1.2564  1.9182
 7514SOL    HW234179   2.341   3.784   1.668 -0.4958  0.6148 -0.2317
 7515SOL     OW34180   3.909   1.877  15.235  0.1830 -0.4771  0.0199
 7515SOL    HW134181   3.930   1.956  15.186 -0.0912 -0.1715  0.3897
 7515SOL    HW234182   3.990   1.844  15.274  1.6490  2.0522 -0.9560
 7516SOL     OW34183   1.496   2.810   7.345  0.2062 -0.1041 -0.1246
 7516SOL    HW134184   1.568   2.831   7.285 -1.2762  1.8491 -1.2305
 7516SOL    HW234185   1.431   2.815   7.274  0.6573 -0.4242 -0.5622
 7517SOL     OW34186   4.035   0.141   5.759  0.3352 -0.2205  0.4081
 7517SOL    HW134187   3.978   0.194   5.815 -0.8032  0.3041 -1.2500
 7517SOL    HW234188   4.013   0.177   5.673  3.0644 -0.4589 -0.3836
 7518SOL     OW34189   2.685   4.695   5.914 -0.1490 -0.2399  0.7335
 7518SOL    HW134190   2.679   4.631   5.843 -2.0971 -0.5637  1.1833
 7518SOL    HW234191   2.757   4.660   5.966  0.4216  0.8063  0.6390
 7519SOL     OW34192   2.732   3.387   1.895  0.0751  0.5279  0.0547
 7519SOL    HW134193   2.747   3.325   1.824 -2.4461  2.6301 -2.3464
 7519SOL    HW234194   2.736   3.325   1.968  2.6143  0.3287 -0.2584
 7520SOL     OW34195   4.455   2.523   5.314  0.0168  0.2323 -0.4011
 7520SOL    HW134196   4.375   2.473   5.333  0.1962 -0.0561 -0.4064
 7520SOL    HW234197   4.479   2.546   5.403 -0.7238  0.1407 -0.1751
 7521SOL     OW34198   3.319   3.378   8.962  0.1940 -0.2943 -0.5982
 7521SOL    HW134199   3.250   3.435   8.997 -1.3480 -1.7042 -1.3696
 7521SOL    HW234200   3.339   3.333   9.044 -1.4008  0.9440  0.4880
 7522SOL     OW34201   3.220   0.829   5.775 -0.4842 -0.5204  1.0415
 7522SOL    HW134202   3.274   0.764   5.729 -3.1012 -2.0127  0.0937
 7522SOL    HW234203   3.233   0.802   5.866  2.3339  2.3864  1.5029
 7523SOL     OW34204   3.495   2.656   8.674 -0.0104  1.0925  0.0524
 7523SOL    HW134205   3.510   2.565   8.699  0.5102  1.3190  0.5587
 7523SOL    HW234206   3.544   2.666   8.593  0.4639 -2.5717 -0.1319
 7524SOL     OW34207   1.192   1.288  10.638  0.3433 -0.3086  0.6093
 7524SOL    HW134208   1.269   1.267  10.690  0.2028 -0.6569  0.6734
 7524SOL    HW234209   1.203   1.382  10.620  2.7335  0.0497  3.7724
 7525SOL     OW34210   0.019   2.815  10.298 -0.2528  0.8118  0.0365
 7525SOL    HW134211   4.704   2.736  10.281 -0.5751  1.3753 -1.5466
 7525SOL    HW234212   0.028   2.855  10.212 -0.0744  0.4154 -0.1318
 7526SOL     OW34213   4.636   2.634   1.295 -0.0819  0.3289  0.0944
 7526SOL    HW134214   4.607   2.612   1.383 -0.8477  0.1136 -0.2132
 7526SOL    HW234215   4.672   2.723   1.308  1.8351 -0.5064  0.5553
 7527SOL     OW34216   3.789   0.750   9.544  0.3315 -0.6132  0.4728
 7527SOL    HW134217   3.833   0.675   9.503  2.4059  1.2710 -0.7433
 7527SOL    HW234218   3.863   0.800   9.577 -1.6609  2.2525  0.5695
 7528SOL     OW34219   3.505   2.925   4.469  0.1322  0.0271  0.1009
 7528SOL    HW134220   3.465   2.946   4.554 -0.8346  0.0291 -0.3543
 7528SOL    HW234221   3.484   3.006   4.423  1.1122  0.5187  0.5308
 7529SOL     OW34222   3.520   0.975  13.220 -0.0028 -0.3011 -0.0981
 7529SOL    HW134223   3.545   0.947  13.131  0.4156  0.6527 -0.2776
 7529SOL    HW234224   3.555   0.900  13.269 -1.1218 -0.0690  1.0514
 7530SOL     OW34225   2.968   4.629   4.143 -0.1991 -0.1799  0.0309
 7530SOL    HW134226   2.903   4.633   4.072  2.8791  2.6697 -2.5890
 7530SOL    HW234227   2.928   4.692   4.202 -1.5794 -0.5506 -0.5012
 7531SOL     OW34228   2.228   1.558   7.130 -0.5384 -0.2384  0.2831
 7531SOL    HW134229   2.315   1.522   7.148 -0.4483 -0.4870 -0.6559
 7531SOL    HW234230   2.260   1.622   7.066  1.9206 -0.5785  1.1838
 7532SOL     OW34231   3.073   1.465   7.821  0.3083  0.3366 -0.3980
 7532SOL    HW134232   3.139   1.399   7.802  0.6199 -0.6217  3.9606
 7532SOL    HW234233   3.129   1.542   7.813  0.0737  0.5544  0.0285
 7533SOL     OW34234   1.249   0.757  15.985  0.2906  0.5676  0.3799
 7533SOL    HW134235   1.213   0.760  15.896  1.0452  1.5830  0.1047
 7533SOL    HW234236   1.318   0.692  15.978 -0.8509 -0.5007 -0.8055
 7534SOL     OW34237   3.722   3.399   6.059  0.2849  0.1185 -0.4037
 7534SOL    HW134238   3.750   3.356   5.978 -1.7809 -0.2501 -0.9397
 7534SOL    HW234239   3.733   3.490   6.033  1.0551  0.5949  1.6373
 7535SOL     OW34240   3.648   2.096   2.473 -0.0124  0.5855  0.8643
 7535SOL    HW134241   3.738   2.063   2.468 -0.6370 -0.9869 -0.1280
 7535SOL    HW234242   3.623   2.063   2.559 -0.5776 -0.8779  0.1377
 7536SOL     OW34243   4.589   1.737  14.399  0.4906  0.4206  0.2850
 7536SOL    HW134244   4.561   1.792  14.326  0.0799 -1.6637 -1.1396
 7536SOL    HW234245   4.506   1.701  14.431  1.0069  0.1162  1.2983
 7537SOL     OW34246   4.144   0.079   8.413 -0.8028  0.3199  0.1318
 7537SOL    HW134247   4.228   0.117   8.389  0.1397  0.2897  3.4619
 7537SOL    HW234248   4.139   0.020   8.338 -0.5399 -1.0178  1.1735
 7538SOL     OW34249   3.643   1.402   8.863 -0.0252  0.0060  0.2257
 7538SOL    HW134250   3.579   1.331   8.858 -0.4867  0.2841  2.4163
 7538SOL    HW234251   3.598   1.467   8.917 -0.9769  1.8195 -2.7364
 7539SOL     OW34252   0.996   3.901  16.095  0.1960 -0.7608  0.3814
 7539SOL    HW134253   1.044   3.912  16.177 -0.2380 -0.2248  0.5641
 7539SOL    HW234254   1.063   3.927  16.032 -1.0381  2.2272  0.3270
 7540SOL     OW34255   3.768   2.321   3.522  0.1977 -0.0432  0.1359
 7540SOL    HW134256   3.759   2.226   3.530 -0.1370 -0.2050 -2.3786
 7540SOL    HW234257   3.809   2.347   3.605 -0.9826  0.2333  0.6480
 7541SOL     OW34258   1.419   2.919   9.758 -0.5135  0.1953  0.3851
 7541SOL    HW134259   1.405   3.011   9.781  0.2627  0.6783 -1.0956
 7541SOL    HW234260   1.338   2.906   9.709 -0.1223 -0.2358 -0.1453
 7542SOL     OW34261   3.004   2.868  15.285 -0.3916 -0.3460 -0.6332
 7542SOL    HW134262   2.954   2.821  15.219  0.6714 -1.5997 -0.5584
 7542SOL    HW234263   3.027   2.799  15.347  2.1698  0.7990 -0.2942
 7543SOL     OW34264   1.713   3.903  14.730  0.4304  0.2092  0.5934
 7543SOL    HW134265   1.650   3.922  14.800 -3.0165  0.8561 -2.6605
 7543SOL    HW234266   1.703   3.808  14.723  2.8078 -0.0016  0.0543
 7544SOL     OW34267   4.206   4.097   7.014  0.2651  0.1429  0.2308
 7544SOL    HW134268   4.274   4.139   7.068 -0.1716  1.4773 -0.2388
 7544SOL    HW234269   4.124   4.133   7.048  0.8616 -0.4028  2.2393
 7545SOL     OW34270   2.403   2.844   2.237 -0.5529  0.8668 -0.1787
 7545SOL    HW134271   2.338   2.911   2.259 -0.4450  1.3347 -1.2858
 7545SOL    HW234272   2.475   2.890   2.193  0.5492  0.2479  0.9584
 7546SOL     OW34273   3.600   3.646   7.339  0.3312 -0.0707 -0.0684
 7546SOL    HW134274   3.635   3.735   7.343  0.4810 -0.0910 -0.9675
 7546SOL    HW234275   3.600   3.638   7.244  1.6761 -0.4275 -0.0362
 7547SOL     OW34276   1.971   1.434   5.404 -0.1425 -0.7706  0.2712
 7547SOL    HW134277   2.041   1.385   5.361  0.9120 -0.8777  2.0865
 7547SOL    HW234278   1.967   1.377   5.481 -1.4810  0.2931  0.9718
 7548SOL     OW34279   3.667   0.617  13.197  0.0741 -0.3531 -0.0899
 7548SOL    HW134280   3.691   0.578  13.113 -1.3945 -0.8165 -0.2929
 7548SOL    HW234281   3.572   0.624  13.197  0.0689 -0.4263 -2.5016
 7549SOL     OW34282   1.250   2.630   2.488  0.0912 -0.0674  0.5862
 7549SOL    HW134283   1.186   2.637   2.559 -1.0410  1.8604 -0.6319
 7549SOL    HW234284   1.229   2.693   2.419  0.0736  0.1220  0.7630
 7550SOL     OW34285   1.179   3.979   3.890 -0.0445 -0.6359  0.2097
 7550SOL    HW134286   1.161   3.887   3.870  0.3247 -0.6405 -0.1129
 7550SOL    HW234287   1.118   3.995   3.962  0.5832 -1.5915  0.9482
 7551SOL     OW34288   2.884   0.115   3.397  0.4335 -0.0885 -0.2547
 7551SOL    HW134289   2.888   0.209   3.376  0.3731 -0.3824 -1.5705
 7551SOL    HW234290   2.793   0.109   3.425  0.1796  0.1513 -1.0274
 7552SOL     OW34291   3.188   2.789   4.486 -0.5070  0.8230  0.4535
 7552SOL    HW134292   3.179   2.701   4.452  1.9780  1.8694 -2.8493
 7552SOL    HW234293   3.212   2.769   4.577 -1.5767 -2.2524  0.0530
 7553SOL     OW34294   2.021   1.693  16.557 -0.4479  0.4063  0.3339
 7553SOL    HW134295   2.058   1.680  16.645 -1.4396  0.3646  0.7579
 7553SOL    HW234296   1.942   1.639  16.567 -0.4604  0.0718 -1.5899
 7554SOL     OW34297   0.317   1.792   9.741 -0.1289  0.2519 -0.0400
 7554SOL    HW134298   0.331   1.885   9.757  0.7821 -0.0952  1.2312
 7554SOL    HW234299   0.364   1.754   9.816 -0.1145  1.5718  0.6290
 7555SOL     OW34300   1.733   2.739  16.640 -0.4694  0.4496 -0.0795
 7555SOL    HW134301   1.769   2.656  16.606 -2.6969 -0.0301 -1.2098
 7555SOL    HW234302   1.753   2.734  16.734 -2.1050 -0.7279  0.2076
 7556SOL     OW34303   1.658   0.528  15.615 -0.0618  0.3444 -0.0331
 7556SOL    HW134304   1.622   0.444  15.644 -1.5860  0.7325 -0.8061
 7556SOL    HW234305   1.716   0.486  15.552 -0.5675  1.1554 -1.0406
 7557SOL     OW34306   0.578   2.106   2.915  0.3585 -0.4941  0.4336
 7557SOL    HW134307   0.656   2.154   2.945 -0.2156  0.7967 -0.1315
 7557SOL    HW234308   0.548   2.060   2.993  0.6069 -1.1648  0.1315
 7558SOL     OW34309   2.415   3.127  10.696  0.3924  0.0553 -0.0102
 7558SOL    HW134310   2.450   3.038  10.693  0.8092  0.1646  1.4923
 7558SOL    HW234311   2.348   3.119  10.628  0.5400 -2.8950  0.2067
 7559SOL     OW34312   3.052   3.387   4.746  0.2132  0.1765  0.1024
 7559SOL    HW134313   3.043   3.467   4.798 -3.4839 -1.9849  2.8021
 7559SOL    HW234314   2.959   3.365   4.736 -0.4724  1.8244  3.0771
 7560SOL     OW34315   1.212   3.926   7.019 -0.1198 -0.3132  0.5390
 7560SOL    HW134316   1.165   4.001   7.055 -0.1211  0.8297 -1.8975
 7560SOL    HW234317   1.153   3.851   7.023 -2.7063  1.7949  1.6152
 7561SOL     OW34318   2.634   0.068   3.554 -0.3962 -0.2218  0.5345
 7561SOL    HW134319   2.542   0.091   3.543  0.1324  1.3892 -0.4774
 7561SOL    HW234320   2.637   0.035   3.644  3.6730  1.1130  0.8829
 7562SOL     OW34321   2.952   1.232   6.764  0.4999 -0.3679 -0.0912
 7562SOL    HW134322   2.878   1.259   6.709  0.3281 -0.9050 -0.1255
 7562SOL    HW234323   3.023   1.223   6.701 -1.2332 -2.8488 -1.7086
 7563SOL     OW34324   3.628   1.066   8.662 -0.1116  0.3496  0.2646
 7563SOL    HW134325   3.690   1.112   8.719  1.2206 -2.1872  0.8568
 7563SOL    HW234326   3.688   1.005   8.618 -1.3400 -0.5233 -0.2162
 7564SOL     OW34327   2.000   3.502   9.763  0.6798 -0.3793 -0.0138
 7564SOL    HW134328   2.006   3.421   9.813  0.0942  0.2709  1.0926
 7564SOL    HW234329   2.090   3.534   9.764 -0.5556  3.0563  0.8820
 7565SOL     OW34330   1.603   3.063   3.208 -0.6671  0.2348 -0.0503
 7565SOL    HW134331   1.643   2.994   3.261 -0.5171  0.7527  0.5022
 7565SOL    HW234332   1.674   3.110   3.164  1.1157 -3.0968 -0.7070
 7566SOL     OW34333   1.799   4.228   2.389  0.2930  0.4322  0.0601
 7566SOL    HW134334   1.715   4.254   2.427 -0.5544  0.6864 -2.0092
 7566SOL    HW234335   1.788   4.258   2.299 -1.2777 -0.7640 -0.1328
 7567SOL     OW34336   2.985   2.480   8.493  0.0268 -0.0829  0.2042
 7567SOL    HW134337   2.937   2.398   8.507 -1.6078  0.9023  0.3916
 7567SOL    HW234338   2.916   2.545   8.506 -0.4544 -0.1105 -2.1157
 7568SOL     OW34339   0.952   0.777   4.241  0.0308 -0.0184  0.0293
 7568SOL    HW134340   0.940   0.741   4.328 -0.9686  0.1288 -0.0491
 7568SOL    HW234341   0.879   0.838   4.230 -0.4143 -0.5034  0.2934
 7569SOL     OW34342   4.720   0.199  10.435 -0.8862  0.5085  0.7544
 7569SOL    HW134343   0.041   0.256  10.385 -1.3116  1.1199  0.9657
 7569SOL    HW234344   0.035   0.194  10.516 -0.7788  0.1095  0.6618
 7570SOL     OW34345   1.977   4.165   8.117  0.0583 -0.1960  0.2435
 7570SOL    HW134346   1.994   4.137   8.027  1.7785 -0.8589  0.7743
 7570SOL    HW234347   2.062   4.203   8.137 -0.0308 -0.8328  1.8705
 7571SOL     OW34348   3.132   1.348   4.208 -0.1151  0.0176 -0.1009
 7571SOL    HW134349   3.061   1.328   4.146 -0.7226  1.5368  0.1036
 7571SOL    HW234350   3.137   1.443   4.202 -1.2394  0.1693  1.4259
 7572SOL     OW34351   3.951   1.537   3.834 -0.2965  0.2443 -0.3505
 7572SOL    HW134352   3.995   1.578   3.908 -1.4297 -0.5693  0.7630
 7572SOL    HW234353   3.909   1.462   3.876 -0.1580 -0.7624 -1.9655
 7573SOL     OW34354   4.225   2.390   5.482  0.7387 -0.0856 -0.6116
 7573SOL    HW134355   4.234   2.425   5.571  0.0286 -0.1649 -0.5055
 7573SOL    HW234356   4.280   2.313   5.497  0.1270 -0.2833  0.6497
 7574SOL     OW34357   1.342   3.575   9.321 -0.4751  0.0076 -0.2727
 7574SOL    HW134358   1.411   3.637   9.343  1.6475 -2.2788 -0.5291
 7574SOL    HW234359   1.293   3.559   9.402 -0.7704  1.2728 -0.2033
 7575SOL     OW34360   3.095   0.374   9.748  0.0157 -0.3075  0.3402
 7575SOL    HW134361   3.114   0.325   9.828 -1.0136  0.5855  1.1295
 7575SOL    HW234362   3.183   0.389   9.711  0.5847  0.5720  2.0412
 7576SOL     OW34363   1.011   3.316   4.684  0.5000 -0.3667  0.3619
 7576SOL    HW134364   1.021   3.257   4.609 -4.1830 -0.3621 -0.2601
 7576SOL    HW234365   1.059   3.262   4.747 -1.0679 -2.0350  0.1361
 7577SOL     OW34366   0.149   4.182   7.230  0.3252  0.3867 -0.6652
 7577SOL    HW134367   0.171   4.160   7.321 -0.8412  0.4777 -0.3582
 7577SOL    HW234368   0.106   4.099   7.208 -1.1643  1.0483 -0.2815
 7578SOL     OW34369   0.492   0.057   4.313  0.2500 -0.4921  0.3414
 7578SOL    HW134370   0.404   0.021   4.327 -0.7428  1.7515 -0.2584
 7578SOL    HW234371   0.491   0.128   4.377 -0.4970  0.8619 -1.1848
 7579SOL     OW34372   0.184   2.989  12.815 -0.1680  0.1027 -0.7236
 7579SOL    HW134373   0.104   3.005  12.864  1.3727 -0.0414  1.8000
 7579SOL    HW234374   0.177   3.051  12.743  1.1371 -0.0145 -0.9653
 7580SOL     OW34375   3.782   0.818   4.830  0.3227 -0.4726  0.0837
 7580SOL    HW134376   3.812   0.833   4.741  0.2340  1.6019  0.3984
 7580SOL    HW234377   3.850   0.753   4.849  1.4537  0.7640  0.2906
 7581SOL     OW34378   0.343   2.196   3.673  0.3581  0.3741  0.1070
 7581SOL    HW134379   0.434   2.221   3.654 -0.0273  0.8511 -1.1164
 7581SOL    HW234380   0.298   2.210   3.590 -0.2276  0.6617  0.4770
 7582SOL     OW34381   0.346   0.998   0.369  0.0365  0.1759  0.2508
 7582SOL    HW134382   0.274   0.961   0.420  0.2806 -1.1363 -0.3563
 7582SOL    HW234383   0.310   1.087   0.367  0.3512  0.2456 -2.1752
 7583SOL     OW34384   0.529   4.602   5.994  0.5563  0.9952 -0.3324
 7583SOL    HW134385   0.553   4.668   5.929  1.0673 -0.9386 -2.1092
 7583SOL    HW234386   0.544   4.657   6.071  1.1733  0.9760 -0.4358
 7584SOL     OW34387   2.924   2.361  15.202  0.5679  0.0548 -0.0800
 7584SOL    HW134388   2.872   2.394  15.275 -0.3552 -0.4739 -0.4939
 7584SOL    HW234389   2.863   2.380  15.132  1.5085  2.3361 -0.2683
 7585SOL     OW34390   1.988   2.739   3.013 -0.2925 -0.1689  0.4823
 7585SOL    HW134391   1.980   2.752   2.918  2.3238 -2.7054 -0.0919
 7585SOL    HW234392   2.043   2.810   3.046 -0.1128 -0.7366  1.3898
 7586SOL     OW34393   0.277   0.352   6.247  0.2263  0.0092  0.6339
 7586SOL    HW134394   0.253   0.406   6.323  0.3475  0.1955  0.5386
 7586SOL    HW234395   0.296   0.419   6.181 -1.5938  1.1999  1.3213
 7587SOL     OW34396   1.130   3.796  12.859  0.0087  0.1102 -0.3701
 7587SOL    HW134397   1.054   3.739  12.851 -0.4432  0.7147 -0.4055
 7587SOL    HW234398   1.092   3.884  12.849 -2.5759 -0.9405  0.1392
 7588SOL     OW34399   4.208   4.625   1.809 -0.2704  0.1652 -0.1327
 7588SOL    HW134400   4.133   4.578   1.846  0.4076 -0.8286 -0.0244
 7588SOL    HW234401   4.180   4.621   1.718  1.2298  1.7431 -0.6630
 7589SOL     OW34402   4.449   0.629  15.080  0.0693  0.1719 -0.0005
 7589SOL    HW134403   4.511   0.563  15.049 -0.1967  0.5284 -1.3047
 7589SOL    HW234404   4.487   0.704  15.033 -0.1552  1.6059  2.1522
 7590SOL     OW34405   0.278   0.913  11.520  0.0853  0.0097 -0.1225
 7590SOL    HW134406   0.233   0.839  11.560  0.2116  0.7593  1.4067
 7590SOL    HW234407   0.361   0.869  11.503  0.9192  1.9078 -0.9623
 7591SOL     OW34408   0.766   3.911   5.950  0.4490 -0.2852 -0.0106
 7591SOL    HW134409   0.749   3.889   6.041  0.1198  0.0387  0.0078
 7591SOL    HW234410   0.679   3.891   5.914 -0.2767  3.0706 -0.1974
 7592SOL     OW34411   1.155   4.599   5.374  0.3010 -0.5349  0.5184
 7592SOL    HW134412   1.222   4.667   5.380  1.4367 -1.6983  1.0931
 7592SOL    HW234413   1.152   4.569   5.465  2.1773  0.6315  0.9739
 7593SOL     OW34414   4.182   0.401   9.857  0.2588  0.2842  0.5215
 7593SOL    HW134415   4.159   0.458   9.783  2.3485  0.6518  0.1528
 7593SOL    HW234416   4.166   0.312   9.825  1.7405  0.1608  0.1251
 7594SOL     OW34417   3.449   0.383  12.412  0.2653 -0.4348 -0.0014
 7594SOL    HW134418   3.405   0.305  12.377 -2.4887  0.1163  2.2605
 7594SOL    HW234419   3.498   0.424  12.341  0.5204 -1.1970 -0.2679
 7595SOL     OW34420   0.135   3.028   0.583  0.3222  0.6662  0.5193
 7595SOL    HW134421   0.229   3.043   0.573  0.5919 -1.6527 -0.4355
 7595SOL    HW234422   0.119   2.934   0.592 -2.1108  1.0902  0.5429
 7596SOL     OW34423   4.090   4.162   5.868 -0.4820  0.2216 -0.3998
 7596SOL    HW134424   4.161   4.178   5.930 -1.9217  0.6116  1.1575
 7596SOL    HW234425   4.013   4.130   5.914  0.0624 -0.6020 -0.0704
 7597SOL     OW34426   2.113   2.977   4.115 -0.2341  0.0844  0.0313
 7597SOL    HW134427   2.052   2.927   4.062  0.2300 -1.9774  1.4401
 7597SOL    HW234428   2.187   2.918   4.130 -0.4381 -0.6264 -1.8190
 7598SOL     OW34429   2.071   0.882   3.872 -0.3328  0.3592 -0.2135
 7598SOL    HW134430   2.151   0.913   3.831  1.1010 -0.3632  2.0378
 7598SOL    HW234431   2.108   0.865   3.959 -1.2752 -1.4477 -0.1598
 7599SOL     OW34432   3.673   4.235  16.928  0.3259 -0.0214 -0.3292
 7599SOL    HW134433   3.715   4.228  16.842  1.2660  0.7617  0.0726
 7599SOL    HW234434   3.600   4.294  16.909  0.8926  0.9392  0.4815
 7600SOL     OW34435   1.798   1.050   3.610 -0.4339  0.3973  0.3589
 7600SOL    HW134436   1.720   1.106   3.616  0.5189  1.6432  1.0588
 7600SOL    HW234437   1.802   1.004   3.694 -1.6828  0.7236  0.6011
 7601SOL     OW34438   0.119   3.260  16.385  0.0914  0.2009 -0.2952
 7601SOL    HW134439   0.165   3.259  16.301  2.0586  0.6921  0.7904
 7601SOL    HW234440   0.034   3.285  16.347 -0.0838 -0.7107 -0.5226
 7602SOL     OW34441   2.219   1.684   6.512  0.4435  0.0240  0.5121
 7602SOL    HW134442   2.161   1.613   6.539 -1.0509  0.6600 -0.9547
 7602SOL    HW234443   2.301   1.636   6.502  0.0525 -0.7276  1.0021
 7603SOL     OW34444   2.481   1.977   5.731 -0.0095 -0.3272  0.2710
 7603SOL    HW134445   2.517   1.912   5.672  1.8260  0.6990  0.2706
 7603SOL    HW234446   2.486   1.933   5.816 -1.3253  1.9696  1.5320
 7604SOL     OW34447   0.923   1.285  17.369  0.9901  0.6058 -0.3880
 7604SOL    HW134448   0.936   1.367  17.416  0.5903  0.6816 -0.4065
 7604SOL    HW234449   0.840   1.260  17.408  0.3010 -0.7525 -2.7029
 7605SOL     OW34450   3.252   3.368   1.187 -0.3599  0.3628 -0.1012
 7605SOL    HW134451   3.340   3.357   1.151  0.3655  0.3653  1.7067
 7605SOL    HW234452   3.226   3.446   1.137 -1.9326  0.2585  0.5646
 7606SOL     OW34453   0.691   1.148  10.699 -0.4124 -0.5168  0.5710
 7606SOL    HW134454   0.686   1.083  10.769  2.8211 -0.7217  0.6199
 7606SOL    HW234455   0.767   1.199  10.727 -0.7571  0.9542 -1.1172
 7607SOL     OW34456   4.180   0.744  10.690  0.0386 -0.1814 -0.1368
 7607SOL    HW134457   4.120   0.713  10.758 -1.4352 -0.9158 -1.7682
 7607SOL    HW234458   4.253   0.763  10.748 -0.6610  0.5754  0.4939
 7608SOL     OW34459   4.262   2.375   1.248 -0.0859 -0.2327 -0.1987
 7608SOL    HW134460   4.193   2.317   1.217  0.0148 -0.0883 -0.6922
 7608SOL    HW234461   4.343   2.361   1.198 -0.1684 -1.5735  0.0446
 7609SOL     OW34462   1.162   4.413   6.167 -0.1473  0.2154 -0.3033
 7609SOL    HW134463   1.195   4.385   6.253  0.1461 -0.8758 -0.7763
 7609SOL    HW234464   1.246   4.442   6.131  0.5589 -0.6570  0.6450
 7610SOL     OW34465   2.825   2.273   7.297 -0.3104  0.1374  0.7154
 7610SOL    HW134466   2.730   2.266   7.288  0.0812 -0.3882 -2.8607
 7610SOL    HW234467   2.847   2.269   7.204 -1.0317  0.0916  0.5519
 7611SOL     OW34468   3.112   3.209   5.225  0.3228  0.0209  0.0972
 7611SOL    HW134469   3.112   3.225   5.131 -1.9746  0.5639  0.1981
 7611SOL    HW234470   3.040   3.266   5.252 -0.9758 -0.6737 -1.8676
 7612SOL     OW34471   4.602   0.352   1.712  0.2214 -0.2093 -0.3571
 7612SOL    HW134472   4.531   0.378   1.654  0.2224  0.7425  0.0680
 7612SOL    HW234473   4.550   0.326   1.788  0.2851 -0.9033 -0.5524
 7613SOL     OW34474   2.107   1.619   3.020 -0.1802  0.0580  0.6089
 7613SOL    HW134475   2.081   1.535   2.982  0.0645 -0.7133  2.1351
 7613SOL    HW234476   2.103   1.611   3.115  2.6500  0.3425  0.7582
 7614SOL     OW34477   1.570   3.872   9.685  0.3914  0.0964  0.1117
 7614SOL    HW134478   1.614   3.794   9.717 -0.2024  0.6746  2.3369
 7614SOL    HW234479   1.555   3.906   9.773  1.5983  1.1611 -0.1003
 7615SOL     OW34480   3.032   3.192   7.497  0.5391 -0.1401  0.3863
 7615SOL    HW134481   3.105   3.249   7.521  0.5088 -0.5032  1.3166
 7615SOL    HW234482   2.962   3.229   7.550  0.8326  1.4160 -0.2988
 7616SOL     OW34483   2.233   1.908   3.985 -0.1511 -0.1186 -0.6901
 7616SOL    HW134484   2.296   1.900   3.913  2.8901  0.7585  1.8569
 7616SOL    HW234485   2.171   1.977   3.961  0.2565  0.2236 -0.7673
 7617SOL     OW34486   0.953   0.974   4.580  0.6539  0.4158 -0.2211
 7617SOL    HW134487   1.028   0.981   4.638  0.3833 -0.4417  0.2246
 7617SOL    HW234488   0.885   1.025   4.624  1.7543 -0.2500  2.2145
 7618SOL     OW34489   1.250   2.194  14.085 -0.2871  0.0286 -0.1424
 7618SOL    HW134490   1.222   2.224  13.998 -0.4931  0.8264  0.2035
 7618SOL    HW234491   1.268   2.270  14.140 -1.9230 -0.4130  1.0174
 7619SOL     OW34492   1.836   2.599   4.246 -0.1808 -0.4734 -0.6249
 7619SOL    HW134493   1.912   2.559   4.203  0.9875  1.3720 -0.2804
 7619SOL    HW234494   1.767   2.570   4.186 -1.3073  1.1103 -0.0976
 7620SOL     OW34495   2.684   0.442   2.530 -0.1648 -0.1106 -0.1454
 7620SOL    HW134496   2.742   0.518   2.524  0.6738 -0.8415 -1.5157
 7620SOL    HW234497   2.637   0.449   2.447  1.9153  1.3827 -1.2169
 7621SOL     OW34498   3.525   1.187   0.986 -0.4395  0.2400  0.1234
 7621SOL    HW134499   3.539   1.281   0.985  1.1604 -0.0086 -1.0194
 7621SOL    HW234500   3.455   1.169   0.923 -2.2238  0.1060  2.1709
 7622SOL     OW34501   3.175   1.637   6.960 -0.0976  0.0582  0.0769
 7622SOL    HW134502   3.207   1.552   6.990 -0.0666  0.1846  0.3997
 7622SOL    HW234503   3.254   1.674   6.921 -1.0602  1.4426 -0.5516
 7623SOL     OW34504   0.982   1.018   7.441 -0.2366 -0.1892 -0.0772
 7623SOL    HW134505   0.936   1.096   7.410  1.2992  1.2438  1.3073
 7623SOL    HW234506   0.933   0.945   7.403 -0.7918  0.4818 -0.6623
 7624SOL     OW34507   3.044   4.234   4.899 -0.1696  0.3676  0.7534
 7624SOL    HW134508   2.964   4.286   4.911  0.1236  0.4545  2.2988
 7624SOL    HW234509   3.002   4.158   4.860  0.7605  1.2615 -1.9783
 7625SOL     OW34510   0.656   2.320   3.758 -0.2512 -0.2616  0.3282
 7625SOL    HW134511   0.636   2.307   3.665 -1.2595 -2.8332  0.9038
 7625SOL    HW234512   0.720   2.253   3.781  0.0803  0.3387  1.1391
 7626SOL     OW34513   0.430   0.037   4.630 -0.0066 -0.0825  0.7759
 7626SOL    HW134514   0.511   4.722   4.636 -0.9714 -1.8649 -1.1100
 7626SOL    HW234515   0.366   4.706   4.655  0.6071 -0.9509  0.0237
 7627SOL     OW34516   0.910   0.811  10.048  0.1842  0.2432 -0.1069
 7627SOL    HW134517   0.847   0.815  10.120 -0.0936  1.0128 -0.3924
 7627SOL    HW234518   0.983   0.757  10.078  0.0520  0.8109  1.2728
 7628SOL     OW34519   2.788   0.616   3.915 -0.2955 -0.1165 -0.4397
 7628SOL    HW134520   2.712   0.653   3.960  0.1736 -1.1874  1.2004
 7628SOL    HW234521   2.812   0.686   3.853  1.4620 -0.3155  0.0229
 7629SOL     OW34522   0.117   1.982   3.234  0.0615  0.4376  0.4796
 7629SOL    HW134523   0.115   1.973   3.139  4.2866  0.4105  0.4136
 7629SOL    HW234524   0.202   1.952   3.268 -0.7278 -0.9414  1.2489
 7630SOL     OW34525   3.817   0.649   0.211 -0.4905  0.0541 -0.7028
 7630SOL    HW134526   3.765   0.664   0.290 -0.7007  0.1548 -0.8586
 7630SOL    HW234527   3.875   0.719   0.239  0.8032 -2.7450  3.6192
 7631SOL     OW34528   3.746   2.322   8.913  0.2045 -0.2276  0.5135
 7631SOL    HW134529   3.832   2.351   8.944 -0.1828  1.9545 -0.4394
 7631SOL    HW234530   3.769   2.252   8.852 -0.3732  0.0862 -0.0725
 7632SOL     OW34531   3.822   1.801   0.909 -0.0934  0.9107 -0.0517
 7632SOL    HW134532   3.753   1.850   0.954 -1.2104  0.3780 -1.1647
 7632SOL    HW234533   3.855   1.876   0.859 -1.2131  1.6197  0.2779
 7633SOL     OW34534   0.833   1.288   6.506  0.0255  0.2075 -0.0623
 7633SOL    HW134535   0.922   1.312   6.531 -0.4278  1.0748  0.7419
 7633SOL    HW234536   0.843   1.196   6.529  0.9745  0.2564 -0.2870
 7634SOL     OW34537   3.706   3.291  13.634  0.1206 -0.0799 -0.6432
 7634SOL    HW134538   3.777   3.308  13.572 -0.3711 -1.2052 -1.5185
 7634SOL    HW234539   3.716   3.361  13.699 -0.1594 -0.6215 -0.0286
 7635SOL     OW34540   2.327   3.201   3.356 -0.1022 -0.2594  0.4595
 7635SOL    HW134541   2.300   3.267   3.419 -0.9125  0.5227 -0.6943
 7635SOL    HW234542   2.384   3.248   3.295 -1.9240  0.0037 -1.0309
 7636SOL     OW34543   2.617   2.577  16.391 -0.3137  0.0558  0.9416
 7636SOL    HW134544   2.605   2.666  16.360  2.1310  0.1766  0.3651
 7636SOL    HW234545   2.584   2.587  16.481 -0.1766  3.6767  0.5690
 7637SOL     OW34546   2.007   1.835   8.680  0.0700  0.3049 -0.1224
 7637SOL    HW134547   2.083   1.853   8.624  0.6796  0.6448  0.8090
 7637SOL    HW234548   1.976   1.746   8.665 -1.3098  0.4401  1.9814
 7638SOL     OW34549   1.931   2.439   5.532 -0.3550  0.2660 -0.3562
 7638SOL    HW134550   1.989   2.365   5.512  1.0956  0.3913  3.3585
 7638SOL    HW234551   1.964   2.500   5.466 -1.8932  1.7309  0.2077
 7639SOL     OW34552   0.117   4.013   7.864  0.1246  0.1362  0.0390
 7639SOL    HW134553   0.162   3.940   7.822 -1.4100  0.5907 -2.3779
 7639SOL    HW234554   0.061   4.026   7.788 -0.0731 -0.6463  0.0529
 7640SOL     OW34555   0.178   4.291   0.836 -0.7334  0.0877  0.2659
 7640SOL    HW134556   0.173   4.240   0.755 -0.2699  3.2164 -1.7275
 7640SOL    HW234557   0.273   4.287   0.842 -0.8936 -1.8147  1.5382
 7641SOL     OW34558   0.657   1.627  12.604 -0.1435  0.3792  0.5198
 7641SOL    HW134559   0.658   1.610  12.699 -0.9491 -1.3295  0.2161
 7641SOL    HW234560   0.592   1.562  12.578 -0.5493 -0.0064  2.4700
 7642SOL     OW34561   3.956   2.544   6.583 -0.1674  0.7044 -0.4499
 7642SOL    HW134562   4.005   2.531   6.501 -3.2368  0.6856 -2.2934
 7642SOL    HW234563   4.027   2.541   6.646 -0.9252  1.0974  0.4168
 7643SOL     OW34564   1.856   4.520   6.441 -0.4731 -0.5856 -0.2104
 7643SOL    HW134565   1.900   4.601   6.468 -0.7164 -0.9661  1.3412
 7643SOL    HW234566   1.764   4.545   6.436  0.0078  1.3918  0.7993
 7644SOL     OW34567   3.138   4.141   2.155  0.4522  0.1895  0.4416
 7644SOL    HW134568   3.158   4.227   2.192  0.2368  1.1803 -1.7271
 7644SOL    HW234569   3.050   4.130   2.191  0.1116  1.3179 -0.0339
 7645SOL     OW34570   4.390   3.210   3.736 -0.1409  0.2095 -0.0359
 7645SOL    HW134571   4.315   3.253   3.697  0.0612 -1.4592 -2.2631
 7645SOL    HW234572   4.454   3.280   3.720 -1.0623  1.1053  0.2252
 7646SOL     OW34573   3.312   1.155   4.139 -0.6256  0.7515 -0.2831
 7646SOL    HW134574   3.326   1.182   4.049  0.4216 -1.4601 -0.8032
 7646SOL    HW234575   3.238   1.211   4.161 -1.9646 -0.9151 -0.5140
 7647SOL     OW34576   3.341   4.420   0.409  0.2296 -0.0218  0.2287
 7647SOL    HW134577   3.292   4.344   0.440  0.5438  0.6179  2.3047
 7647SOL    HW234578   3.292   4.500   0.430 -0.1344 -0.2275  0.1755
 7648SOL     OW34579   4.469   4.201  15.103  0.1151  0.1861  0.0087
 7648SOL    HW134580   4.482   4.280  15.155  0.7404 -0.2577  0.5247
 7648SOL    HW234581   4.402   4.227  15.039  0.6472  0.4676 -0.4359
 7649SOL     OW34582   3.617   3.013   5.600  0.0211 -0.0771 -0.0674
 7649SOL    HW134583   3.704   3.041   5.628  0.7157  0.0379 -2.3734
 7649SOL    HW234584   3.606   3.061   5.518  2.1480  1.8499  0.7955
 7650SOL     OW34585   2.393   2.470   8.840 -0.4372 -0.4722  0.0712
 7650SOL    HW134586   2.441   2.505   8.914 -0.6527  2.2966 -1.0926
 7650SOL    HW234587   2.299   2.483   8.854 -0.4519  0.8502 -1.3006
 7651SOL     OW34588   1.480   2.164  15.532 -0.0368 -0.0478 -0.7305
 7651SOL    HW134589   1.484   2.191  15.624  1.8248  0.2831 -0.9074
 7651SOL    HW234590   1.433   2.082  15.543 -0.0712 -0.1500 -1.6223
 7652SOL     OW34591   4.274   1.772   4.468 -0.3802  0.5175 -0.3017
 7652SOL    HW134592   4.333   1.701   4.495 -2.4953 -1.7223 -1.5227
 7652SOL    HW234593   4.253   1.811   4.552  1.6234  0.7833  0.0908
 7653SOL     OW34594   1.621   1.882   5.318  0.3103  0.1684  0.6923
 7653SOL    HW134595   1.529   1.906   5.328  0.1107  0.6818 -2.4664
 7653SOL    HW234596   1.628   1.915   5.229 -1.3449  0.3593  0.6293
 7654SOL     OW34597   0.624   2.211  14.648 -0.3473 -0.1620  0.4094
 7654SOL    HW134598   0.639   2.295  14.605  2.6858 -0.6233  0.5576
 7654SOL    HW234599   0.566   2.170  14.583  0.1491  0.6123 -0.5312
 7655SOL     OW34600   3.598   4.690   7.802 -0.3358  0.2502  0.2507
 7655SOL    HW134601   3.576   0.028   7.746 -0.7812  1.6121  2.2255
 7655SOL    HW234602   3.565   4.616   7.751  1.6608  0.1920 -0.9800
 7656SOL     OW34603   0.707   4.176   6.065  0.0971 -0.2068 -0.1897
 7656SOL    HW134604   0.764   4.123   6.009  0.6098  0.4435 -0.2802
 7656SOL    HW234605   0.626   4.126   6.057 -0.0107 -0.8758  4.9774
 7657SOL     OW34606   0.092   3.629  13.924 -0.0526  0.3003 -0.0787
 7657SOL    HW134607   0.084   3.576  13.845 -1.4883  1.0009 -0.4029
 7657SOL    HW234608   4.735   3.648  13.937 -0.5466 -1.7609 -0.5529
 7658SOL     OW34609   1.862   4.515   2.806  0.1474 -0.1843 -0.1039
 7658SOL    HW134610   1.768   4.508   2.787  0.2734 -0.1376 -0.7572
 7658SOL    HW234611   1.902   4.478   2.727  1.8044 -1.2228  1.2272
 7659SOL     OW34612   0.922   4.014   6.480  0.3872 -0.3645 -0.0237
 7659SOL    HW134613   0.986   3.958   6.436  0.3091  0.5025 -1.2359
 7659SOL    HW234614   0.963   4.099   6.463 -1.0276  0.1616 -0.7603
 7660SOL     OW34615   1.088   0.890   9.297 -0.3864  0.5296  0.3492
 7660SOL    HW134616   1.074   0.796   9.288  1.9512  0.2667 -0.4994
 7660SOL    HW234617   1.058   0.911   9.208  0.8523  0.7953 -0.0029
 7661SOL     OW34618   2.956   3.045  10.025  0.3479 -0.6017  0.1733
 7661SOL    HW134619   3.041   3.021   9.989 -0.0398 -2.3503  0.4083
 7661SOL    HW234620   2.928   2.964  10.068 -0.9324 -2.2375 -3.7753
 7662SOL     OW34621   1.098   2.223   6.416  0.1078 -0.0505  0.3000
 7662SOL    HW134622   1.083   2.240   6.509 -0.7628  2.2096 -0.2311
 7662SOL    HW234623   1.006   2.208   6.391 -0.0410  2.5882 -0.7864
 7663SOL     OW34624   3.837   1.783   9.524  0.3960  0.8583 -0.0229
 7663SOL    HW134625   3.776   1.721   9.564  0.7125  2.1032  2.4124
 7663SOL    HW234626   3.907   1.718   9.518 -2.3245 -1.9965 -0.5621
 7664SOL     OW34627   3.246   1.226   5.789  0.7832 -0.9527  0.1644
 7664SOL    HW134628   3.282   1.253   5.705  0.2443 -0.7583 -0.0011
 7664SOL    HW234629   3.155   1.249   5.772  0.7549 -2.5818 -1.8666
 7665SOL     OW34630   1.194   3.295   6.477 -0.3233 -0.5190  0.3955
 7665SOL    HW134631   1.194   3.390   6.471  1.8120 -0.4937  0.6693
 7665SOL    HW234632   1.282   3.287   6.515  0.3646  0.1176 -1.0923
 7666SOL     OW34633   2.410   2.894   5.824  0.3157  0.0571  0.1571
 7666SOL    HW134634   2.429   2.933   5.739 -0.9445 -0.1388 -0.2190
 7666SOL    HW234635   2.383   2.977   5.864 -0.6522 -0.1028 -0.1434
 7667SOL     OW34636   1.510   1.622   6.348 -0.7004 -0.0625 -0.3816
 7667SOL    HW134637   1.493   1.534   6.382 -0.0069 -0.2146 -0.4254
 7667SOL    HW234638   1.598   1.641   6.380 -0.2730 -0.9910 -0.9836
 7668SOL     OW34639   3.423   0.739   2.109 -0.4983  1.0159  0.4545
 7668SOL    HW134640   3.405   0.793   2.186  2.0237  0.6349  1.3270
 7668SOL    HW234641   3.423   0.810   2.045  0.5011  0.0108 -0.6655
 7669SOL     OW34642   2.778   2.550   8.876 -0.0825  0.1816  0.0312
 7669SOL    HW134643   2.804   2.632   8.918  1.2503  0.6150 -1.6401
 7669SOL    HW234644   2.858   2.501   8.895 -0.5697  0.0974  1.8205
 7670SOL     OW34645   0.356   1.490   7.598  0.1534 -0.6185 -0.1660
 7670SOL    HW134646   0.362   1.414   7.655 -2.4621 -0.0733  0.8052
 7670SOL    HW234647   0.267   1.514   7.623 -0.1112 -0.5589 -1.1652
 7671SOL     OW34648   0.278   0.339   1.929 -0.2929 -0.3942  0.0073
 7671SOL    HW134649   0.340   0.267   1.944  1.8374  1.3416 -0.4484
 7671SOL    HW234650   0.209   0.297   1.878  0.7423 -0.9564 -0.9420
 7672SOL     OW34651   0.465   1.167  13.072  0.1776  0.1645  0.1729
 7672SOL    HW134652   0.457   1.085  13.119 -1.0568  1.3471  2.0100
 7672SOL    HW234653   0.547   1.199  13.110  0.2543 -0.8012  0.8071
 7673SOL     OW34654   3.948   0.657   6.472 -0.3213 -0.2241  0.3053
 7673SOL    HW134655   3.863   0.658   6.428 -0.4554  0.7051  0.5906
 7673SOL    HW234656   4.012   0.641   6.402 -0.7715  2.4163 -0.7097
 7674SOL     OW34657   1.258   3.461   5.540  0.3005 -0.8252 -0.1832
 7674SOL    HW134658   1.242   3.491   5.451 -0.3625 -0.4809  0.0482
 7674SOL    HW234659   1.178   3.497   5.579  0.9846  0.2259  0.2812
 7675SOL     OW34660   2.383   2.439   5.334 -0.4044  0.2072  0.6232
 7675SOL    HW134661   2.328   2.453   5.411 -0.1410  0.4719  0.7627
 7675SOL    HW234662   2.460   2.487   5.363  0.3703  0.0558 -1.1933
 7676SOL     OW34663   3.765   3.767   4.198  0.1288 -0.1579  0.1253
 7676SOL    HW134664   3.733   3.702   4.261 -0.5226  1.2328  1.2066
 7676SOL    HW234665   3.744   3.841   4.254 -1.4235  0.4656 -1.2915
 7677SOL     OW34666   2.757   4.017   1.887  0.2016  0.4318  0.3534
 7677SOL    HW134667   2.755   4.057   1.800 -1.2982  2.8950  1.5115
 7677SOL    HW234668   2.712   3.936   1.866  0.3117  0.5494 -0.3367
 7678SOL     OW34669   4.659   0.966   0.213 -0.4976 -0.8170 -0.0964
 7678SOL    HW134670   4.645   0.928   0.300  0.0208 -1.5674 -0.3376
 7678SOL    HW234671   4.702   1.051   0.221  2.1895 -1.9152 -2.6392
 7679SOL     OW34672   0.510   2.002   6.144  0.4478 -0.1396  0.2694
 7679SOL    HW134673   0.430   1.950   6.144 -1.3134  2.5901 -0.2571
 7679SOL    HW234674   0.535   1.994   6.237  1.2479  0.9493  0.1516
 7680SOL     OW34675   2.150   1.888   0.594  0.0357  0.4836  0.3461
 7680SOL    HW134676   2.134   1.818   0.658  2.0205  1.0396  1.4373
 7680SOL    HW234677   2.163   1.960   0.656  0.2056  1.5030 -0.8983
 7681SOL     OW34678   3.751   2.752   6.691  0.7415  0.3278  0.0320
 7681SOL    HW134679   3.838   2.745   6.651  1.4110  2.5435  1.0992
 7681SOL    HW234680   3.781   2.827   6.743  0.2296 -1.4024  2.8026
 7682SOL     OW34681   4.615   4.015   0.624  0.0846 -0.4724  0.3602
 7682SOL    HW134682   4.610   3.923   0.596  2.1638 -1.0120  1.7359
 7682SOL    HW234683   4.603   4.006   0.718 -1.0257 -0.0690  0.2510
 7683SOL     OW34684   0.561   3.959   0.972  0.0699 -0.5763  0.2429
 7683SOL    HW134685   0.571   4.030   0.908  1.6958  0.6676  1.8837
 7683SOL    HW234686   0.518   3.911   0.901  0.7040 -0.2731 -0.3449
 7684SOL     OW34687   2.069   3.755   7.804  0.2977 -0.0982  0.1994
 7684SOL    HW134688   2.115   3.676   7.772  0.0386  0.1105 -0.6922
 7684SOL    HW234689   2.083   3.737   7.897  0.8367 -2.3778 -0.3002
 7685SOL     OW34690   0.310   3.720   6.118  0.4010 -0.5860  0.2937
 7685SOL    HW134691   0.350   3.653   6.173  0.2380 -0.7653  0.1953
 7685SOL    HW234692   0.343   3.696   6.031 -3.9686 -0.5920 -1.3753
 7686SOL     OW34693   0.467   0.826   7.257  0.1293  0.5808 -0.5096
 7686SOL    HW134694   0.375   0.851   7.254  0.4311  1.7364  0.0623
 7686SOL    HW234695   0.481   0.788   7.170 -1.7453  1.2242 -1.0939
 7687SOL     OW34696   3.880   0.728   4.557 -0.0839 -0.4032 -0.0458
 7687SOL    HW134697   3.798   0.690   4.589 -0.6997 -1.0248 -2.3259
 7687SOL    HW234698   3.839   0.769   4.480 -0.2267 -3.1929 -1.4769
 7688SOL     OW34699   4.114   3.915   5.728 -0.1735 -0.0914  0.1318
 7688SOL    HW134700   4.045   3.875   5.781 -1.2260  0.8454 -0.5266
 7688SOL    HW234701   4.118   4.005   5.760  0.1652  0.3095 -1.0417
 7689SOL     OW34702   1.759   2.663   0.545 -0.3436  0.8114 -0.0512
 7689SOL    HW134703   1.825   2.724   0.579 -0.5992  0.4893  1.0064
 7689SOL    HW234704   1.706   2.661   0.625  0.1191  1.1724  0.2642
 7690SOL     OW34705   0.214   1.390   2.530 -1.0675 -0.3888  0.3374
 7690SOL    HW134706   0.146   1.375   2.596 -2.7441  1.3214 -0.9693
 7690SOL    HW234707   0.277   1.322   2.551 -0.7775 -0.6787 -1.4892
 7691SOL     OW34708   2.968   3.337  14.834 -0.5603 -0.2442  0.2405
 7691SOL    HW134709   2.938   3.419  14.873 -0.5258 -0.2807  0.3453
 7691SOL    HW234710   2.943   3.270  14.898 -2.0880  0.4453  0.3508
 7692SOL     OW34711   4.458   1.534  11.606  0.3801  0.3761  0.2355
 7692SOL    HW134712   4.381   1.510  11.555  1.0253 -0.0726 -0.5234
 7692SOL    HW234713   4.464   1.463  11.669  1.8641 -0.7394 -1.1405
 7693SOL     OW34714   1.383   4.308   4.271 -0.5983 -0.2291 -0.1151
 7693SOL    HW134715   1.463   4.257   4.264 -0.0559  0.8118 -1.2651
 7693SOL    HW234716   1.408   4.377   4.211  1.9881 -0.1204  1.1056
 7694SOL     OW34717   1.440   3.204   8.616 -0.6964 -0.2817 -0.0785
 7694SOL    HW134718   1.445   3.200   8.711  2.5024 -3.2798 -0.4198
 7694SOL    HW234719   1.438   3.109   8.602 -0.3330 -0.5613  1.7971
 7695SOL     OW34720   3.687   3.714   0.403  0.5543  0.0804  0.4996
 7695SOL    HW134721   3.754   3.670   0.455 -1.7326 -1.6994  1.9519
 7695SOL    HW234722   3.694   3.667   0.320 -1.4146 -1.4678  1.2040
 7696SOL     OW34723   3.033   0.254   6.273  0.5246 -0.4053  0.4001
 7696SOL    HW134724   2.987   0.309   6.211 -0.9421 -0.8809  1.0724
 7696SOL    HW234725   3.000   0.276   6.360  1.3316 -0.6704  0.7789
 7697SOL     OW34726   0.016   1.327  11.223  0.1722  0.0016  0.5590
 7697SOL    HW134727   4.664   1.301  11.251  0.3071  1.4648  2.3031
 7697SOL    HW234728   0.057   1.248  11.257  0.1609  0.1514  0.9220
 7698SOL     OW34729   2.009   4.217   3.978  0.6779 -0.2999 -0.6278
 7698SOL    HW134730   1.974   4.306   3.971  0.4782 -0.2106  1.2801
 7698SOL    HW234731   2.067   4.216   3.903  0.7189 -1.6517 -0.5830
 7699SOL     OW34732   0.888   3.534   4.223  0.1280  0.2454 -0.5531
 7699SOL    HW134733   0.939   3.504   4.298 -1.1341  2.2523  1.1233
 7699SOL    HW234734   0.958   3.550   4.159 -0.1083 -0.7620 -1.0555
 7700SOL     OW34735   0.827   4.605  12.258  0.2873 -0.1750 -0.1169
 7700SOL    HW134736   0.839   4.698  12.275 -0.9536  0.1245 -0.9370
 7700SOL    HW234737   0.750   4.619  12.204  1.7622 -0.9629 -2.4309
 7701SOL     OW34738   2.409   2.379   7.131 -0.3435 -0.5463 -0.0209
 7701SOL    HW134739   2.394   2.295   7.088  1.2340 -0.3933 -0.8689
 7701SOL    HW234740   2.318   2.400   7.150 -0.0456  0.4400  0.3175
 7702SOL     OW34741   3.393   0.292   4.021 -0.6821  0.1010 -0.2491
 7702SOL    HW134742   3.311   0.322   4.058  0.5477  2.5930  0.3991
 7702SOL    HW234743   3.406   0.333   3.936 -1.9806 -0.2107 -0.5882
 7703SOL     OW34744   2.544   3.982   4.279 -0.0851 -0.4513  0.1866
 7703SOL    HW134745   2.488   4.027   4.342  0.5672  2.2645 -1.1607
 7703SOL    HW234746   2.496   4.003   4.198  2.9533  1.1051 -1.2165
 7704SOL     OW34747   0.908   3.262  13.291 -0.3019  0.4424  0.0016
 7704SOL    HW134748   0.851   3.329  13.255 -0.9085 -0.4081 -0.6371
 7704SOL    HW234749   0.971   3.254  13.219  0.7060  2.8744  0.6222
 7705SOL     OW34750   2.780   2.548  15.338 -0.0625 -0.3799 -0.3425
 7705SOL    HW134751   2.717   2.492  15.384  0.4835 -1.8075 -1.3332
 7705SOL    HW234752   2.728   2.576  15.263  1.4517 -1.3515 -1.7418
 7706SOL     OW34753   3.266   0.103  11.899 -0.0631  0.3251 -0.6676
 7706SOL    HW134754   3.269   0.196  11.922  1.0513  0.8057 -2.6919
 7706SOL    HW234755   3.245   0.099  11.805  0.8390 -0.8162 -0.8172
 7707SOL     OW34756   4.218   3.795   1.987  0.4624  0.3726 -0.4416
 7707SOL    HW134757   4.243   3.888   1.989  1.7239  0.0329 -0.6342
 7707SOL    HW234758   4.296   3.742   1.968 -0.2106 -1.0755  0.8450
 7708SOL     OW34759   4.035   4.300  10.136  0.6371  0.8789 -1.0247
 7708SOL    HW134760   3.949   4.270  10.109  0.9563  1.7814 -3.0413
 7708SOL    HW234761   4.045   4.277  10.228 -1.9435 -0.1010 -0.9919
 7709SOL     OW34762   3.719   2.393  15.156  0.6924 -0.5224  0.3011
 7709SOL    HW134763   3.632   2.428  15.179  0.1921 -1.7769  0.3218
 7709SOL    HW234764   3.781   2.464  15.143  0.7316 -0.8611 -1.2695
 7710SOL     OW34765   1.057   0.072   5.768  0.5586  0.1254  0.8497
 7710SOL    HW134766   0.978   0.124   5.753  1.8513  1.6918 -0.6288
 7710SOL    HW234767   1.052   0.056   5.862 -1.5502  1.8151  1.0156
 7711SOL     OW34768   1.989   0.630  17.469  0.3527 -0.5407 -0.2970
 7711SOL    HW134769   2.049   0.580  17.524 -1.8215 -1.8292  0.9005
 7711SOL    HW234770   2.038   0.712  17.457  0.2483  0.0973  3.6061
 7712SOL     OW34771   0.718   0.202   4.533  0.0461  0.5037 -0.1750
 7712SOL    HW134772   0.747   0.114   4.510  1.2619  0.5790  1.1081
 7712SOL    HW234773   0.678   0.231   4.451  0.8860 -0.8231 -1.0419
 7713SOL     OW34774   3.886   2.254   0.109 -0.2160 -0.1247 -0.2644
 7713SOL    HW134775   3.974   2.254   0.072 -0.6624  2.5679 -1.3705
 7713SOL    HW234776   3.872   2.349   0.102 -1.2295 -0.3036 -0.6964
 7714SOL     OW34777   1.927   1.562  13.489 -0.4074 -1.1172 -0.1757
 7714SOL    HW134778   2.021   1.555  13.504 -0.3367  0.5084  0.1055
 7714SOL    HW234779   1.897   1.472  13.477  1.8867 -2.1870  2.1525
 7715SOL     OW34780   0.634   0.409   2.004  0.1580  0.2237 -0.4861
 7715SOL    HW134781   0.593   0.336   1.957 -0.4702  0.0760  0.2918
 7715SOL    HW234782   0.613   0.483   1.947  0.0224 -0.2858 -1.0976
 7716SOL     OW34783   1.079   0.750   2.627  0.0107  0.1749 -0.0267
 7716SOL    HW134784   1.145   0.749   2.559 -0.2375 -1.6691 -0.2536
 7716SOL    HW234785   0.998   0.721   2.584  2.3101 -2.9548 -2.2362
 7717SOL     OW34786   3.905   1.091   3.241 -0.4588 -0.4816 -0.3719
 7717SOL    HW134787   3.985   1.104   3.189  0.6919 -1.6625  1.0912
 7717SOL    HW234788   3.884   1.003   3.209  0.5806  0.0765 -2.6102
 7718SOL     OW34789   2.580   4.042  15.219 -0.0905 -0.0440  0.0852
 7718SOL    HW134790   2.503   4.075  15.264  0.6867  0.5405  0.9749
 7718SOL    HW234791   2.643   4.042  15.290 -1.0047 -2.6467  0.9119
 7719SOL     OW34792   3.217   3.290   9.259 -0.1701  0.6713  0.0430
 7719SOL    HW134793   3.167   3.293   9.340 -1.4240 -2.1376 -0.6020
 7719SOL    HW234794   3.204   3.377   9.222  2.3666  0.3291 -1.6932
 7720SOL     OW34795   1.005   3.049   2.898  0.5138  0.7768  0.2349
 7720SOL    HW134796   1.076   3.079   2.842 -0.1111  0.6855 -0.5987
 7720SOL    HW234797   0.937   3.020   2.837  0.6649  0.8417  0.0365
 7721SOL     OW34798   0.262   4.070   2.462 -0.0586  0.1986 -0.1835
 7721SOL    HW134799   0.306   3.993   2.427 -1.9228 -1.2595  0.7226
 7721SOL    HW234800   0.331   4.137   2.467  0.3785 -0.2026 -0.8275
 7722SOL     OW34801   3.993   1.641   9.066 -0.4294 -0.2333  0.0095
 7722SOL    HW134802   3.922   1.582   9.092 -1.2651  1.0619  0.7183
 7722SOL    HW234803   4.063   1.628   9.130  0.4982  2.9197 -0.3537
 7723SOL     OW34804   0.438   0.270  11.792 -0.2720  0.1205 -0.3982
 7723SOL    HW134805   0.445   0.220  11.874 -0.3110  2.9309  1.3345
 7723SOL    HW234806   0.527   0.283  11.759 -0.9929 -0.0235 -2.3754
 7724SOL     OW34807   4.541   1.261   4.127  0.4430  0.5022  0.8401
 7724SOL    HW134808   4.482   1.333   4.104  0.8967  0.3385 -0.8274
 7724SOL    HW234809   4.528   1.203   4.052  1.7477  0.5729  0.5703
 7725SOL     OW34810   1.808   3.040   0.452  0.2095 -0.7654  0.3241
 7725SOL    HW134811   1.756   3.049   0.372 -1.2692 -3.1532  1.0265
 7725SOL    HW234812   1.737   3.033   0.516  1.8134  2.7254  2.4757
 7726SOL     OW34813   4.087   0.949  12.041  0.4418  0.1123 -0.3223
 7726SOL    HW134814   4.140   1.027  12.021  1.4970 -0.6725 -0.5616
 7726SOL    HW234815   4.134   0.918  12.118 -0.8182  1.1491  0.8593
 7727SOL     OW34816   3.692   0.751   8.256 -0.4570  0.5129  0.1890
 7727SOL    HW134817   3.613   0.710   8.222  1.2979 -2.1042 -0.7650
 7727SOL    HW234818   3.645   0.822   8.300 -0.6126 -0.7152  2.0146
 7728SOL     OW34819   2.555   0.540  17.366  0.1145  0.3700 -0.7232
 7728SOL    HW134820   2.571   0.468  17.427 -0.7000 -0.1721 -1.1485
 7728SOL    HW234821   2.492   0.507  17.301 -1.1158 -1.6572  1.5252
 7729SOL     OW34822   1.343   2.316   7.582 -0.2107 -0.1076 -0.2245
 7729SOL    HW134823   1.354   2.388   7.645  3.1413 -1.0958  0.3344
 7729SOL    HW234824   1.433   2.288   7.564 -0.4941 -0.9727 -0.2888
 7730SOL     OW34825   1.696   3.978   5.207  0.2310 -0.2778 -0.0707
 7730SOL    HW134826   1.738   4.049   5.158  0.1705  0.2555  0.6453
 7730SOL    HW234827   1.748   3.903   5.179 -0.6782 -0.7565 -0.5049
 7731SOL     OW34828   0.357   2.143   6.808 -0.3818  0.0959  0.0431
 7731SOL    HW134829   0.333   2.065   6.757 -1.7863  0.4170  0.2167
 7731SOL    HW234830   0.329   2.221   6.761 -0.5615  0.6957  1.1653
 7732SOL     OW34831   3.801   2.779  11.451  0.3913 -0.0856 -0.0914
 7732SOL    HW134832   3.869   2.846  11.448 -1.1982  1.6706  3.2777
 7732SOL    HW234833   3.737   2.822  11.508 -0.5739 -0.4815 -0.8968
 7733SOL     OW34834   3.570   1.566   0.575 -0.3218  0.0671  0.3293
 7733SOL    HW134835   3.486   1.570   0.529 -1.2047 -1.3175  1.7790
 7733SOL    HW234836   3.558   1.494   0.637 -0.3178 -0.3528 -0.1613
 7734SOL     OW34837   2.266   3.000   2.893  0.1375  0.8841  0.1017
 7734SOL    HW134838   2.332   2.939   2.925  0.3690  0.5825 -0.9500
 7734SOL    HW234839   2.216   3.017   2.973 -1.2222 -1.1715 -0.3007
 7735SOL     OW34840   1.529   0.796   3.916  0.0351  0.5852  0.1130
 7735SOL    HW134841   1.610   0.842   3.893  0.0099  0.4245 -0.2951
 7735SOL    HW234842   1.554   0.785   4.008 -2.4285 -0.0684  0.7045
 7736SOL     OW34843   3.493   3.757   9.479  0.3676 -0.0019  0.1954
 7736SOL    HW134844   3.515   3.846   9.451 -1.7870  0.4784  0.0967
 7736SOL    HW234845   3.513   3.759   9.573  0.1076 -2.2923  0.3124
 7737SOL     OW34846   3.127   0.199   9.021 -0.1493 -0.4844 -0.1632
 7737SOL    HW134847   3.061   0.243   9.074  0.8333  1.0222 -0.1894
 7737SOL    HW234848   3.075   0.120   9.008 -0.8500 -0.0470 -0.0043
 7738SOL     OW34849   3.274   3.561   7.379 -0.2872  0.3599  0.0611
 7738SOL    HW134850   3.336   3.502   7.336 -1.1194 -1.2488  1.0690
 7738SOL    HW234851   3.224   3.591   7.303  0.0492 -0.2316 -0.3928
 7739SOL     OW34852   3.749   0.315   5.212 -0.3442  0.9320  0.0011
 7739SOL    HW134853   3.667   0.304   5.164 -0.2187 -1.4746  0.3204
 7739SOL    HW234854   3.715   0.305   5.301 -2.0969 -3.3520 -1.1656
 7740SOL     OW34855   1.477   0.767   9.228  0.2565  0.4267 -0.0968
 7740SOL    HW134856   1.437   0.852   9.245 -2.0317 -0.3627 -1.5888
 7740SOL    HW234857   1.421   0.698   9.261  0.5312 -0.2333 -1.0048
 7741SOL     OW34858   4.480   2.104   5.719 -0.7418  0.4809  0.4192
 7741SOL    HW134859   4.505   2.142   5.634  1.9383 -0.6042  0.7399
 7741SOL    HW234860   4.391   2.072   5.703 -0.6034 -0.0371  0.7244
 7742SOL     OW34861   2.760   1.939   3.693 -0.4052  0.4593  0.5296
 7742SOL    HW134862   2.807   1.918   3.612 -1.3909 -0.4561  0.1982
 7742SOL    HW234863   2.677   1.970   3.657  0.8462  0.4561 -2.4039
 7743SOL     OW34864   3.231   3.645  15.637 -0.2605 -0.4404  0.2829
 7743SOL    HW134865   3.292   3.683  15.573  0.4319 -0.1342  1.1335
 7743SOL    HW234866   3.188   3.720  15.676 -2.8449 -1.3546 -0.8472
 7744SOL     OW34867   0.703   1.788  17.246 -0.0343  0.3126 -0.5762
 7744SOL    HW134868   0.621   1.744  17.223 -0.1164  1.5234 -2.5422
 7744SOL    HW234869   0.742   1.785  17.159 -1.9976 -1.4250 -1.3933
 7745SOL     OW34870   3.483   0.942  15.444 -0.2475 -0.2942 -0.1006
 7745SOL    HW134871   3.556   0.915  15.389 -0.4962  0.4789 -0.8288
 7745SOL    HW234872   3.495   1.036  15.428  1.6047 -0.4545  0.3275
 7746SOL     OW34873   0.457   3.961  16.684  0.1931  0.8935 -0.4473
 7746SOL    HW134874   0.530   3.938  16.626  0.1214 -2.8591  0.9513
 7746SOL    HW234875   0.508   4.020  16.740 -2.0949 -0.0912  2.6792
 7747SOL     OW34876   3.513   2.952   7.976  0.0837  0.0503 -0.1528
 7747SOL    HW134877   3.595   2.916   7.942  0.0360 -0.8271  0.6533
 7747SOL    HW234878   3.508   3.032   7.925 -0.9312 -0.8275 -1.4244
 7748SOL     OW34879   3.094   3.894   2.744  0.0393  0.0797  0.7903
 7748SOL    HW134880   3.049   3.925   2.822 -0.5300 -0.4708  0.6811
 7748SOL    HW234881   3.179   3.878   2.785  1.0025  0.3789 -1.0529
 7749SOL     OW34882   2.849   0.640   8.799 -0.1933  0.0750  0.2463
 7749SOL    HW134883   2.939   0.620   8.825 -0.4738 -1.8367 -0.2476
 7749SOL    HW234884   2.806   0.607   8.878 -2.4568 -0.4679 -1.2136
 7750SOL     OW34885   1.422   2.944   8.537  0.4009 -0.5335  0.4654
 7750SOL    HW134886   1.462   2.967   8.453 -1.4639  1.3134  0.0868
 7750SOL    HW234887   1.493   2.888   8.567  1.4658  1.5938  1.9365
 7751SOL     OW34888   0.092   2.044  16.914  0.2950 -0.0792  0.2332
 7751SOL    HW134889   0.116   1.979  16.849  2.1687 -0.6113  1.4671
 7751SOL    HW234890   0.162   2.107  16.898 -0.9711  1.0059 -1.1001
 7752SOL     OW34891   0.197   4.728   8.635  0.0674 -0.0485  0.4660
 7752SOL    HW134892   0.241   0.074   8.613  0.8591 -0.2561  1.2799
 7752SOL    HW234893   0.106   0.021   8.641  0.0476 -0.2443  1.1109
 7753SOL     OW34894   3.669   0.698  17.118 -0.2591  0.0097  0.6479
 7753SOL    HW134895   3.714   0.623  17.078  1.8657  0.6841  1.7660
 7753SOL    HW234896   3.657   0.756  17.043 -0.0857 -0.2846  0.3893
 7754SOL     OW34897   2.566   0.179   8.209 -0.0805 -0.3508 -0.4615
 7754SOL    HW134898   2.576   0.221   8.124  2.0635  0.4084  0.1558
 7754SOL    HW234899   2.649   0.131   8.206  0.1315 -0.2081  3.3322
 7755SOL     OW34900   2.264   0.092   4.893  0.3210 -0.4339 -0.2649
 7755SOL    HW134901   2.191   0.071   4.951  1.1775 -1.3821  0.4673
 7755SOL    HW234902   2.232   0.048   4.814  0.2074 -1.6942  0.4740
 7756SOL     OW34903   4.573   0.163   4.537 -0.4049 -0.0899  0.0415
 7756SOL    HW134904   4.627   0.213   4.598 -2.7210  1.7986  0.5421
 7756SOL    HW234905   4.542   0.236   4.482  0.4813 -0.2404 -0.6544
 7757SOL     OW34906   0.774   4.056   8.556 -0.0290  0.0047  0.1290
 7757SOL    HW134907   0.698   4.088   8.605  0.2796  0.8358  0.0667
 7757SOL    HW234908   0.838   4.070   8.627 -0.2482 -2.1155  0.7422
 7758SOL     OW34909   2.454   3.028   3.762  0.5055 -0.5265  0.1109
 7758SOL    HW134910   2.367   2.990   3.774 -0.4523  1.0019 -1.9766
 7758SOL    HW234911   2.426   3.119   3.753  1.3199 -0.1581  1.4203
 7759SOL     OW34912   3.868   4.466  16.357  0.0205  0.8164  0.0485
 7759SOL    HW134913   3.790   4.508  16.394 -2.1468  0.0265 -3.6679
 7759SOL    HW234914   3.930   4.538  16.346 -1.0956  2.0859  2.1128
 7760SOL     OW34915   0.195   1.672   2.246  0.0141 -0.1970  0.6072
 7760SOL    HW134916   0.139   1.727   2.190 -1.5623 -2.6522 -0.2067
 7760SOL    HW234917   0.248   1.742   2.285  0.3476  0.0879 -0.3624
 7761SOL     OW34918   3.806   4.306   6.020  0.4533  0.1749 -0.0698
 7761SOL    HW134919   3.867   4.379   6.005  1.4054 -0.6240 -0.1154
 7761SOL    HW234920   3.778   4.289   5.930 -0.7597  0.1961  0.3159
 7762SOL     OW34921   4.603   2.010   4.748  0.2328 -0.2660  0.4820
 7762SOL    HW134922   4.647   2.078   4.800 -0.9305  0.5376  0.4202
 7762SOL    HW234923   4.627   1.931   4.795  0.5570  0.3631  1.3595
 7763SOL     OW34924   0.391   2.891   6.173 -0.0336  0.3929 -0.4483
 7763SOL    HW134925   0.316   2.849   6.131 -0.4646 -0.8606  1.5926
 7763SOL    HW234926   0.426   2.934   6.095 -1.7807  3.5805  0.5082
 7764SOL     OW34927   1.907   0.872   9.227  0.3591 -0.4282  0.5561
 7764SOL    HW134928   1.865   0.850   9.143 -0.1753  0.7526  0.5202
 7764SOL    HW234929   1.856   0.942   9.267 -0.8320 -0.6600 -0.5472
 7765SOL     OW34930   1.955   4.529  11.729 -0.5319 -0.6883  0.2324
 7765SOL    HW134931   1.987   4.523  11.639  0.5622  0.0236  0.5780
 7765SOL    HW234932   1.975   4.439  11.756 -0.1612 -0.9994 -1.0705
 7766SOL     OW34933   2.475   1.999   3.337  0.1190  0.2093  0.5732
 7766SOL    HW134934   2.525   2.024   3.415  0.8087  0.4221  0.0590
 7766SOL    HW234935   2.536   2.011   3.265 -0.4017 -1.9385 -0.2192
 7767SOL     OW34936   2.518   2.876   4.353  0.3033  0.3881 -0.5829
 7767SOL    HW134937   2.446   2.877   4.290  0.1023 -0.2256 -0.3669
 7767SOL    HW234938   2.534   2.970   4.357 -1.4179  0.6681  0.1500
 7768SOL     OW34939   0.400   4.500   1.083 -0.1238 -0.0062 -0.1608
 7768SOL    HW134940   0.355   4.418   1.103  1.0968 -0.3074  1.2921
 7768SOL    HW234941   0.348   4.520   1.005  1.2786 -0.4385 -1.2259
 7769SOL     OW34942   0.633   3.621  10.551  0.2564  0.5244  0.4583
 7769SOL    HW134943   0.612   3.530  10.530  2.9255  0.4081 -1.6443
 7769SOL    HW234944   0.720   3.612  10.513 -0.6439 -2.6112 -0.9169
 7770SOL     OW34945   2.100   1.378   7.588  0.1457  0.4600 -0.1466
 7770SOL    HW134946   2.033   1.313   7.607  1.4430 -0.7620  0.2631
 7770SOL    HW234947   2.038   1.450   7.582  0.8176  0.9483 -1.2351
 7771SOL     OW34948   3.308   3.014   6.614  0.1815  0.0087  0.0399
 7771SOL    HW134949   3.367   2.942   6.594  2.4421  1.5981  0.9534
 7771SOL    HW234950   3.248   3.014   6.540 -0.4522  1.0008  0.5488
 7772SOL     OW34951   2.944   0.169   0.245 -0.2630 -0.6586 -0.1572
 7772SOL    HW134952   2.861   0.206   0.277  0.1611  0.8513 -0.7991
 7772SOL    HW234953   3.002   0.186   0.319 -0.0684  1.1800 -0.7304
 7773SOL     OW34954   0.699   2.360   8.361  0.1086  0.3359 -0.1747
 7773SOL    HW134955   0.621   2.415   8.355  0.2545  0.6230  0.6126
 7773SOL    HW234956   0.775   2.418   8.360 -0.8698  1.6262 -0.6109
 7774SOL     OW34957   3.240   3.410   0.796 -0.0367 -0.4258 -0.3297
 7774SOL    HW134958   3.269   3.479   0.855 -0.8290 -2.7218  2.7388
 7774SOL    HW234959   3.214   3.463   0.721  1.1488  0.0596 -0.4000
 7775SOL     OW34960   4.182   1.277  13.367 -0.1207  0.4016 -0.0421
 7775SOL    HW134961   4.124   1.352  13.379 -0.3364  0.6057 -2.3797
 7775SOL    HW234962   4.131   1.208  13.409 -1.3546  0.1589 -1.9547
 7776SOL     OW34963   3.118   1.638   0.662 -0.4917  0.0208 -0.3671
 7776SOL    HW134964   3.130   1.544   0.676 -1.0612  0.0839  0.5527
 7776SOL    HW234965   3.040   1.662   0.712  0.0465  0.7581  0.1010
 7777SOL     OW34966   2.443   1.239   2.100 -0.1821  0.5434 -0.2551
 7777SOL    HW134967   2.495   1.300   2.152 -0.7064  1.4920 -0.8347
 7777SOL    HW234968   2.359   1.245   2.145  0.2830  2.3384  0.3804
 7778SOL     OW34969   2.900   4.436  16.206 -0.3513 -0.2466 -0.5179
 7778SOL    HW134970   2.963   4.406  16.141  0.3275  1.3694 -0.5934
 7778SOL    HW234971   2.875   4.518  16.164  1.1061  1.7666  2.5647
 7779SOL     OW34972   3.618   0.003  10.437 -0.5018 -0.1144 -0.3523
 7779SOL    HW134973   3.647   4.665  10.383  0.7035  0.4150 -0.4284
 7779SOL    HW234974   3.589   4.695  10.516  3.3160  2.0121  2.2492
 7780SOL     OW34975   3.418   4.210   7.746 -0.6453 -0.3527 -0.5165
 7780SOL    HW134976   3.372   4.233   7.827  0.3485 -2.0261  0.5151
 7780SOL    HW234977   3.473   4.136   7.769 -1.1035 -0.1026  1.3424
 7781SOL     OW34978   3.123   0.736   0.650  0.4378  0.1662  0.5579
 7781SOL    HW134979   3.201   0.753   0.703  0.1688 -1.0029  1.3358
 7781SOL    HW234980   3.059   0.696   0.709  1.8003 -1.0671  1.1939
 7782SOL     OW34981   1.431   1.759   6.124 -0.3343 -0.5971  0.1264
 7782SOL    HW134982   1.503   1.730   6.069 -0.6692  0.1013 -0.6900
 7782SOL    HW234983   1.461   1.725   6.208 -0.6586  0.1943  0.5659
 7783SOL     OW34984   2.339   0.428   2.050 -0.4977 -0.0997 -0.3757
 7783SOL    HW134985   2.382   0.381   2.121 -0.9139 -2.1677 -1.5027
 7783SOL    HW234986   2.377   0.386   1.972  0.5309  0.0630  0.0372
 7784SOL     OW34987   0.603   0.030   5.808 -0.4829 -0.0648  0.3543
 7784SOL    HW134988   0.645   0.095   5.751 -0.2019 -1.1771 -0.7257
 7784SOL    HW234989   0.621   4.681   5.768 -0.5239 -0.1238  0.4639
 7785SOL     OW34990   2.122   1.362   9.014  0.8625 -0.0941  0.2731
 7785SOL    HW134991   2.048   1.389   9.069  1.8304  2.5929  0.2317
 7785SOL    HW234992   2.178   1.437   8.998 -0.0407  0.3987 -0.5943
 7786SOL     OW34993   1.318   3.538   8.778  0.3467  0.6157  0.2355
 7786SOL    HW134994   1.301   3.521   8.685 -2.1273  1.3944  0.5329
 7786SOL    HW234995   1.298   3.631   8.790 -0.2176  0.3730  1.1182
 7787SOL     OW34996   3.656   3.628   8.658  0.4860 -0.2507  0.3655
 7787SOL    HW134997   3.570   3.599   8.686  1.3908 -2.6081  0.7377
 7787SOL    HW234998   3.700   3.553   8.618  0.2714  0.3105 -0.8952
 7788SOL     OW34999   0.733   4.597  16.681 -0.0217 -0.1557 -0.4161
 7788SOL    HW135000   0.732   4.671  16.620  0.1835 -0.3961 -0.7082
 7788SOL    HW235001   0.765   4.529  16.622 -0.0462 -0.1250 -0.4649
 7789SOL     OW35002   4.152   0.974   3.772  0.3292  0.2843  0.1224
 7789SOL    HW135003   4.186   1.054   3.731  3.4624 -0.5191  1.1821
 7789SOL    HW235004   4.228   0.923   3.745 -1.8433 -2.0873 -1.4750
 7790SOL     OW35005   0.111   0.260   6.638 -0.0397  0.1165  0.5250
 7790SOL    HW135006   0.145   0.176   6.668  0.0472  0.9972  2.9273
 7790SOL    HW235007   0.131   0.244   6.546 -1.4820  1.1863  0.0270
 7791SOL     OW35008   3.490   2.390   1.747  0.8249  0.0401  0.5047
 7791SOL    HW135009   3.526   2.472   1.782 -1.4247  1.0956  0.2983
 7791SOL    HW235010   3.499   2.407   1.653  1.0153 -1.1014  0.3162
 7792SOL     OW35011   0.905   4.448  15.393 -0.3940 -0.1541 -0.1009
 7792SOL    HW135012   0.877   4.374  15.447  0.0498  0.4882  1.0172
 7792SOL    HW235013   0.885   4.418  15.304 -2.3292 -3.1817  1.3319
 7793SOL     OW35014   2.068   3.920   9.941 -0.2995 -0.3111 -0.4887
 7793SOL    HW135015   2.002   3.989   9.944 -1.4871 -1.4602  0.1719
 7793SOL    HW235016   2.020   3.840   9.961  0.8315 -1.4312 -2.2251
 7794SOL     OW35017   3.741   4.632   4.043  0.0833 -0.2487 -0.0726
 7794SOL    HW135018   3.655   4.666   4.066  0.2108 -0.2044  0.3360
 7794SOL    HW235019   3.733   4.589   3.957  0.6018 -0.5939  0.0517
 7795SOL     OW35020   3.243   1.754  12.646 -0.2975 -0.3885 -0.5718
 7795SOL    HW135021   3.263   1.740  12.739  0.9786 -1.9476 -1.0700
 7795SOL    HW235022   3.182   1.684  12.622 -0.0707 -0.9362  0.4258
 7796SOL     OW35023   3.893   4.336   6.762 -0.1148 -0.4381  0.2381
 7796SOL    HW135024   3.913   4.395   6.836  1.9202 -3.4366  2.0739
 7796SOL    HW235025   3.981   4.302   6.745  0.5082  0.8347  0.8753
 7797SOL     OW35026   2.499   1.022  12.145  0.8020 -0.1041  0.3110
 7797SOL    HW135027   2.440   0.962  12.192  0.2035  0.0300 -0.2687
 7797SOL    HW235028   2.504   1.095  12.206  1.1111  0.6837 -0.6626
 7798SOL     OW35029   3.128   2.659   7.700  0.1653  0.0007  0.1077
 7798SOL    HW135030   3.152   2.746   7.670  1.3773  0.3568  2.1228
 7798SOL    HW235031   3.032   2.659   7.695  0.0713 -1.0395  1.7676
 7799SOL     OW35032   4.681   2.174   2.401  0.4602  0.2656  0.1380
 7799SOL    HW135033   0.004   2.224   2.456 -1.3187  2.8494 -0.3067
 7799SOL    HW235034   4.733   2.096   2.379 -1.1793 -0.4056 -1.3395
 7800SOL     OW35035   4.304   1.598  14.315  0.1439 -0.3322 -0.7752
 7800SOL    HW135036   4.278   1.687  14.339  0.9107 -0.3740  0.2142
 7800SOL    HW235037   4.288   1.550  14.396  3.6465 -0.0055  0.1052
 7801SOL     OW35038   2.904   3.924  13.275 -0.1639 -0.2365 -0.3083
 7801SOL    HW135039   2.818   3.895  13.246  0.4913 -1.6631 -0.8356
 7801SOL    HW235040   2.904   4.014  13.240  0.8888 -0.6379 -1.3666
 7802SOL     OW35041   1.431   3.390   3.681 -0.1544 -0.3479  0.0798
 7802SOL    HW135042   1.365   3.455   3.704  0.4327 -0.6285  2.5711
 7802SOL    HW235043   1.388   3.308   3.705  0.9970 -0.7874  0.6578
 7803SOL     OW35044   2.509   1.588   4.661 -0.2670  0.6690  0.3743
 7803SOL    HW135045   2.561   1.632   4.594 -1.8746  3.3904  0.9064
 7803SOL    HW235046   2.434   1.649   4.663  0.0690  1.0884  0.1656
 7804SOL     OW35047   1.808   1.290   1.825 -0.0063 -0.2753 -0.0232
 7804SOL    HW135048   1.857   1.217   1.864  0.0069 -0.1457  0.2039
 7804SOL    HW235049   1.773   1.330   1.904  0.1587  0.3450 -0.2640
 7805SOL     OW35050   1.336   0.274   6.749  0.0197 -0.0861 -0.1644
 7805SOL    HW135051   1.285   0.341   6.704  1.6153 -0.3865 -2.4411
 7805SOL    HW235052   1.313   0.193   6.704 -3.6680  0.1635  1.3028
 7806SOL     OW35053   0.244   2.927   2.590 -0.0329  0.1318 -0.0443
 7806SOL    HW135054   0.273   2.857   2.649  2.1037 -0.5297 -1.8765
 7806SOL    HW235055   0.197   2.884   2.518  0.4323 -0.0010 -0.2691
 7807SOL     OW35056   3.479   3.253   9.614 -0.3503 -0.1666  0.1385
 7807SOL    HW135057   3.442   3.341   9.607 -0.2995 -0.1248  0.4094
 7807SOL    HW235058   3.536   3.256   9.690 -0.1562  2.1553 -0.1221
 7808SOL     OW35059   1.126   2.485   5.369 -0.0258  0.0036  0.2823
 7808SOL    HW135060   1.209   2.477   5.322  0.1003  1.2838  0.2779
 7808SOL    HW235061   1.153   2.542   5.441  1.0606  1.7622 -1.5218
 7809SOL     OW35062   2.226   1.866   8.515  0.3863 -0.5219 -0.1735
 7809SOL    HW135063   2.258   1.954   8.493 -1.4597  0.9529  3.0032
 7809SOL    HW235064   2.255   1.805   8.447 -0.8790  0.0888 -1.2498
 7810SOL     OW35065   3.199   0.331   6.790  0.1584 -0.2404  0.1297
 7810SOL    HW135066   3.143   0.296   6.721 -0.9367 -0.4864  1.1503
 7810SOL    HW235067   3.167   0.421   6.798  0.1897 -0.1826 -0.3823
 7811SOL     OW35068   3.533   2.409   7.268  1.0106  1.1153 -0.2771
 7811SOL    HW135069   3.472   2.475   7.236 -2.2092 -2.1794 -0.9449
 7811SOL    HW235070   3.530   2.424   7.362  1.4905  2.6576 -0.5026
 7812SOL     OW35071   1.617   0.584   1.878  0.2695 -0.3081 -0.4241
 7812SOL    HW135072   1.671   0.583   1.957  1.8773  0.2357 -1.5118
 7812SOL    HW235073   1.673   0.536   1.816 -0.1669  0.2992 -1.2968
 7813SOL     OW35074   0.985   2.783   3.940  0.3642  0.1884 -0.2225
 7813SOL    HW135075   1.010   2.747   3.855 -0.8058 -0.7942 -0.1492
 7813SOL    HW235076   1.062   2.761   3.992  1.2849  4.3483  0.1706
 7814SOL     OW35077   3.222   2.828   7.977 -0.4031  0.0767 -0.2222
 7814SOL    HW135078   3.313   2.852   7.998 -0.3821  1.1380 -1.5517
 7814SOL    HW235079   3.232   2.829   7.882 -3.2944 -1.9819 -0.5296
 7815SOL     OW35080   2.794   2.944   2.381  0.0723 -0.2974  0.9302
 7815SOL    HW135081   2.863   2.878   2.373 -0.1883 -0.4898  0.2729
 7815SOL    HW235082   2.729   2.894   2.430 -1.0030  0.5703  0.3947
 7816SOL     OW35083   1.285   3.729   3.613 -0.4043 -0.4728  0.2603
 7816SOL    HW135084   1.197   3.692   3.602  0.3138 -2.1695  0.3049
 7816SOL    HW235085   1.264   3.822   3.620  2.1655  0.1877 -0.6195
 7817SOL     OW35086   0.156   0.174   6.389 -0.5112 -0.0015  0.3325
 7817SOL    HW135087   0.208   0.097   6.365 -1.3446 -0.8550  1.3176
 7817SOL    HW235088   0.200   0.230   6.324  0.8623  0.5095  1.7090
 7818SOL     OW35089   2.901   4.176   2.259 -0.0144 -0.0004 -0.1975
 7818SOL    HW135090   2.828   4.191   2.198 -0.3361  1.9929  0.6923
 7818SOL    HW235091   2.863   4.095   2.292  2.3872 -1.0325  0.0546
 7819SOL     OW35092   3.290   1.327   9.380 -0.4273  0.1449  0.4949
 7819SOL    HW135093   3.220   1.334   9.444 -0.6046 -2.6250  0.6015
 7819SOL    HW235094   3.245   1.283   9.308  0.6522  0.1945 -0.2225
 7820SOL     OW35095   0.800   3.822   8.878 -0.0269  0.2156  0.0250
 7820SOL    HW135096   0.826   3.898   8.826  0.4393  0.5380  0.7284
 7820SOL    HW235097   0.838   3.757   8.818 -2.0576 -1.0246  0.0789
 7821SOL     OW35098   4.289   1.885   5.559 -0.5089 -0.6944  0.2987
 7821SOL    HW135099   4.248   1.875   5.473  2.6786  0.4360 -1.3528
 7821SOL    HW235100   4.212   1.887   5.616  0.7260  1.0224  1.9003
 7822SOL     OW35101   3.541   0.480   3.018 -0.3600  0.2314  0.1481
 7822SOL    HW135102   3.635   0.465   3.028 -0.3169 -0.2594 -0.9848
 7822SOL    HW235103   3.534   0.449   2.928  0.6593  1.5875 -0.4176
 7823SOL     OW35104   3.670   3.196   0.447 -0.5372 -0.9635 -0.4761
 7823SOL    HW135105   3.684   3.251   0.371  0.8181 -0.0003  0.4641
 7823SOL    HW235106   3.579   3.171   0.434 -1.1295  1.1674 -0.3805
 7824SOL     OW35107   1.799   1.711  15.633 -0.7473 -0.1583  0.4633
 7824SOL    HW135108   1.807   1.804  15.658  0.6038 -0.5909  1.6454
 7824SOL    HW235109   1.809   1.716  15.538 -1.5830 -0.3475  0.3648
 7825SOL     OW35110   4.235   3.905  14.627  0.2034 -0.0123  0.1370
 7825SOL    HW135111   4.290   3.981  14.607  0.7531 -0.6293 -0.6990
 7825SOL    HW235112   4.261   3.883  14.717  0.7282  0.7591  0.1785
 7826SOL     OW35113   3.642   2.496   4.812 -0.1621 -0.4436  0.3656
 7826SOL    HW135114   3.593   2.415   4.825 -3.4117  1.5954  0.9396
 7826SOL    HW235115   3.716   2.464   4.761 -1.0927 -1.9844 -0.0248
 7827SOL     OW35116   0.152   1.733   4.454 -0.4418 -0.0301 -0.1493
 7827SOL    HW135117   0.204   1.736   4.534  0.3960 -0.0130 -0.6973
 7827SOL    HW235118   0.088   1.804   4.457 -2.0594 -1.5746  2.3182
 7828SOL     OW35119   4.736   3.019   4.384 -0.1999  0.0355 -0.3797
 7828SOL    HW135120   0.021   3.105   4.420 -0.6851 -1.0541  2.5841
 7828SOL    HW235121   4.659   3.045   4.334  0.2185  2.5540  0.2865
 7829SOL     OW35122   0.047   0.706   1.175 -0.1306 -0.6625  0.4713
 7829SOL    HW135123   0.061   0.725   1.082  1.5822 -2.1699  0.4150
 7829SOL    HW235124   0.131   0.741   1.206 -0.5501  2.6287 -2.1930
 7830SOL     OW35125   1.103   1.987   0.008 -0.0543 -0.0173  0.1788
 7830SOL    HW135126   1.087   1.950  17.665  0.2404  2.2538 -0.8627
 7830SOL    HW235127   1.113   1.909   0.063  2.1568  0.6190  0.7019
 7831SOL     OW35128   2.990   2.517   6.661  0.6585 -0.6633  0.1574
 7831SOL    HW135129   3.050   2.582   6.698  1.3786 -0.5525 -1.2200
 7831SOL    HW235130   2.901   2.545   6.683  0.9915 -0.8122  1.7133
 7832SOL     OW35131   2.928   2.141  11.670 -0.3181 -0.0623 -0.0751
 7832SOL    HW135132   2.892   2.090  11.597 -0.8822  1.5134 -0.8945
 7832SOL    HW235133   2.988   2.194  11.616 -0.3751 -0.0625 -0.1386
 7833SOL     OW35134   0.411   0.416   7.007 -0.1098  0.0264 -0.5181
 7833SOL    HW135135   0.424   0.402   6.913 -0.6089  1.0874 -0.7479
 7833SOL    HW235136   0.317   0.430   7.019  0.2440  1.0729  1.0857
 7834SOL     OW35137   0.186   1.156  11.418  0.1372 -0.0043 -0.4267
 7834SOL    HW135138   0.236   1.083  11.455 -0.3430  0.0688  0.3794
 7834SOL    HW235139   0.254   1.222  11.408  0.6583 -0.0394  2.7262
 7835SOL     OW35140   3.607   3.122   5.985  0.6067 -0.0424 -0.3358
 7835SOL    HW135141   3.545   3.092   5.919 -0.1649  4.3366 -1.6015
 7835SOL    HW235142   3.558   3.201   6.007 -0.6962 -1.4733  1.8641
 7836SOL     OW35143   2.107   1.241   9.856 -0.2061  0.4049  0.1528
 7836SOL    HW135144   2.158   1.264   9.777 -1.6555  3.7222  0.1826
 7836SOL    HW235145   2.173   1.197   9.909 -0.8362 -0.7043  0.0034
 7837SOL     OW35146   3.340   4.517   1.721 -0.0270 -0.1178  0.6597
 7837SOL    HW135147   3.359   4.489   1.810  1.7406 -2.4874 -0.4470
 7837SOL    HW235148   3.410   4.579   1.702 -0.3941  0.3300  0.7919
 7838SOL     OW35149   4.703   0.816   4.467  0.1782 -0.2659 -0.0773
 7838SOL    HW135150   0.045   0.768   4.492  2.1138  2.8621 -0.0859
 7838SOL    HW235151   4.633   0.772   4.515 -0.2838  0.5102 -0.0287
 7839SOL     OW35152   2.004   3.240  17.101 -0.3373 -0.3775 -0.0081
 7839SOL    HW135153   1.994   3.306  17.169  0.1561 -0.6242  0.3077
 7839SOL    HW235154   1.931   3.180  17.118 -0.4533  0.0386  0.9491
 7840SOL     OW35155   0.448   3.475   3.280  0.5746  0.3661 -0.5985
 7840SOL    HW135156   0.386   3.473   3.207  1.4250  2.4988 -1.3932
 7840SOL    HW235157   0.404   3.543   3.331  0.8319  1.0180 -1.2411
 7841SOL     OW35158   0.510   0.033  13.302 -0.1163  0.1451 -0.2099
 7841SOL    HW135159   0.588   4.719  13.281 -0.5079 -0.6631  0.2512
 7841SOL    HW235160   0.445   4.701  13.322  0.6851 -0.9930 -1.4672
 7842SOL     OW35161   2.286   1.806   2.923 -0.4522  0.8897  0.0834
 7842SOL    HW135162   2.231   1.740   2.966  1.7745 -1.0464 -0.0292
 7842SOL    HW235163   2.311   1.851   3.004  0.4611 -0.0012  0.2908
 7843SOL     OW35164   3.064   3.601  15.416 -0.7380 -0.4536  0.0765
 7843SOL    HW135165   3.093   3.689  15.392 -1.5674  0.0615  0.9786
 7843SOL    HW235166   3.099   3.601  15.506 -1.3887  0.9983  0.3222
 7844SOL     OW35167   3.243   1.516  15.973  0.0481  0.3577 -0.1881
 7844SOL    HW135168   3.194   1.589  15.934  0.6931  0.7299 -0.3002
 7844SOL    HW235169   3.331   1.554  15.974 -0.4895  1.5659  1.9068
 7845SOL     OW35170   0.413   4.079   0.279 -0.0154 -0.6303  0.4457
 7845SOL    HW135171   0.433   4.033   0.198  2.0514  0.5469  0.3077
 7845SOL    HW235172   0.338   4.029   0.312  0.0285 -0.5740  0.6311
 7846SOL     OW35173   2.761   1.342   1.445  0.0279 -0.1565  0.5025
 7846SOL    HW135174   2.681   1.380   1.481  0.1711  0.3335  0.3001
 7846SOL    HW235175   2.806   1.332   1.529 -0.0909  2.2803  0.8465
 7847SOL     OW35176   3.520   0.154   0.449  0.2214 -0.6218  0.5838
 7847SOL    HW135177   3.441   0.126   0.495 -0.2951 -0.0206  0.0464
 7847SOL    HW235178   3.589   0.120   0.506  1.6230  2.1380  0.5137
 7848SOL     OW35179   0.602   1.497  17.348 -0.0806  0.4281  0.6071
 7848SOL    HW135180   0.557   1.553  17.284  0.8951  0.6021  0.0687
 7848SOL    HW235181   0.582   1.537  17.432  1.1208  0.3038  0.9530
 7849SOL     OW35182   4.128   4.307   4.867 -0.2810  0.5791 -0.0545
 7849SOL    HW135183   4.221   4.293   4.883 -0.2390 -0.1884 -0.9295
 7849SOL    HW235184   4.094   4.222   4.898  0.7409 -0.4575 -1.7879
 7850SOL     OW35185   0.680   0.438   5.650 -0.6920 -0.2849 -0.3851
 7850SOL    HW135186   0.695   0.468   5.561 -0.1247 -1.9740 -0.8594
 7850SOL    HW235187   0.626   0.359   5.639 -0.2395 -0.4166 -1.5774
 7851SOL     OW35188   0.815   0.466  15.003 -0.5795 -0.5565 -0.0561
 7851SOL    HW135189   0.776   0.381  15.024  1.6685 -2.2878 -2.8317
 7851SOL    HW235190   0.740   0.515  14.971 -0.9787  0.8216  3.0030
 7852SOL     OW35191   1.250   0.214   3.541  0.0686 -0.2270  0.0241
 7852SOL    HW135192   1.305   0.185   3.468  0.0878  0.7125 -0.3390
 7852SOL    HW235193   1.167   0.197   3.497 -0.2456  0.6466  0.2829
 7853SOL     OW35194   0.734   0.572   7.880 -0.1663  0.2389 -0.6422
 7853SOL    HW135195   0.764   0.509   7.814 -0.9180 -0.5503 -0.2300
 7853SOL    HW235196   0.667   0.622   7.834 -0.4755  0.1129 -0.3278
 7854SOL     OW35197   4.733   2.261   6.873  0.2505 -0.2203 -0.6110
 7854SOL    HW135198   0.032   2.324   6.811 -1.2594 -0.4992 -1.7399
 7854SOL    HW235199   4.642   2.291   6.870 -0.0222 -0.7565  2.6478
 7855SOL     OW35200   2.698   4.075  12.959  0.1023  0.5221  0.0878
 7855SOL    HW135201   2.650   4.155  12.939 -1.4955  0.4534  3.7455
 7855SOL    HW235202   2.641   4.020  13.012  0.7993  1.4235  1.7981
 7856SOL     OW35203   0.010   2.579  11.258 -0.1235 -0.6433 -0.0000
 7856SOL    HW135204   4.676   2.587  11.193 -0.2979  4.1705  0.7497
 7856SOL    HW235205   0.071   2.643  11.221 -0.8481  0.6122  0.9967
 7857SOL     OW35206   0.534   0.315   3.707 -0.2906  0.6602 -0.3049
 7857SOL    HW135207   0.445   0.304   3.741 -0.3632 -0.3496 -0.8321
 7857SOL    HW235208   0.516   0.280   3.620  1.3591 -0.9688  0.0132
 7858SOL     OW35209   2.651   1.061   3.867 -0.5355 -0.8537  0.1752
 7858SOL    HW135210   2.726   1.096   3.915 -0.0187 -0.5952 -0.8270
 7858SOL    HW235211   2.639   1.133   3.805  1.2044 -0.9000 -0.2084
 7859SOL     OW35212   0.391   2.617   8.693  0.0150 -0.5716 -0.2172
 7859SOL    HW135213   0.435   2.536   8.666 -0.5830 -1.4806  1.5260
 7859SOL    HW235214   0.409   2.616   8.787  1.3380 -1.9517 -0.4855
 7860SOL     OW35215   0.166   0.783   4.959 -0.4302  0.5208  0.0839
 7860SOL    HW135216   0.244   0.739   4.927 -0.8182  0.0321 -0.1860
 7860SOL    HW235217   0.200   0.812   5.044 -1.0296  0.7294  0.2533
 7861SOL     OW35218   0.610   0.650   5.827  0.6825 -0.0657 -0.3931
 7861SOL    HW135219   0.698   0.677   5.855  0.4418 -0.5717  0.8747
 7861SOL    HW235220   0.639   0.568   5.788 -1.9053 -0.9396 -0.4543
 7862SOL     OW35221   3.634   3.873  15.541  0.7004 -0.0462  0.0391
 7862SOL    HW135222   3.640   3.928  15.463  2.1489 -1.0565 -0.5505
 7862SOL    HW235223   3.554   3.918  15.568  0.6494 -0.3298  0.3546
 7863SOL     OW35224   4.543   1.150   1.984 -0.2384  0.1918  0.6848
 7863SOL    HW135225   4.497   1.233   1.990 -1.1095 -0.1793 -0.9180
 7863SOL    HW235226   4.629   1.189   2.001 -0.7564  0.4694  2.5869
 7864SOL     OW35227   1.951   2.692   6.092 -0.3519  0.6807  0.2559
 7864SOL    HW135228   1.858   2.677   6.107 -0.7558  0.0449 -2.8547
 7864SOL    HW235229   1.947   2.784   6.119  2.6676  1.2094 -0.9910
 7865SOL     OW35230   4.006   0.747   0.567  0.5015 -0.2144  0.2569
 7865SOL    HW135231   3.955   0.734   0.487 -0.0214 -1.3760  0.7764
 7865SOL    HW235232   4.079   0.686   0.554  0.4965 -0.1483 -0.0892
 7866SOL     OW35233   1.746   3.580  10.741 -0.5099 -0.3266  0.0870
 7866SOL    HW135234   1.702   3.664  10.743 -0.5760 -0.3254 -2.2093
 7866SOL    HW235235   1.835   3.605  10.768 -0.8695  3.5438 -2.5345
 7867SOL     OW35236   2.808   2.455   4.520 -0.1772 -0.3619  0.3295
 7867SOL    HW135237   2.897   2.487   4.534 -0.9943  2.4178 -0.7378
 7867SOL    HW235238   2.759   2.521   4.569 -0.1814 -0.5364  0.5579
 7868SOL     OW35239   0.924   0.329   5.827  0.6247  0.0154  0.5318
 7868SOL    HW135240   0.976   0.325   5.746  1.9141  1.0227  1.3064
 7868SOL    HW235241   0.851   0.379   5.792  2.9074  1.0811 -2.8245
 7869SOL     OW35242   2.073   3.915   6.260 -0.5569 -0.1034 -0.5286
 7869SOL    HW135243   2.061   3.950   6.349  0.9073  0.0258 -0.3944
 7869SOL    HW235244   2.041   3.825   6.264 -2.5419  0.6193  0.0173
 7870SOL     OW35245   2.387   3.138   6.929 -0.1658 -0.3941 -0.3226
 7870SOL    HW135246   2.401   3.044   6.939 -0.4058 -0.1917  1.9783
 7870SOL    HW235247   2.477   3.166   6.948 -0.0640  0.5731 -2.2416
 7871SOL     OW35248   3.499   0.049   4.090 -0.0289  0.0257  0.1961
 7871SOL    HW135249   3.468   0.057   4.180 -2.9160  1.8886 -0.9473
 7871SOL    HW235250   3.456   0.117   4.037 -2.0789 -0.6163  1.0183
 7872SOL     OW35251   3.999   3.267  11.289 -0.3313  0.0547 -0.2043
 7872SOL    HW135252   3.996   3.319  11.209  2.0650  2.6121  1.3929
 7872SOL    HW235253   4.081   3.296  11.328 -0.3031 -0.4865  0.1460
 7873SOL     OW35254   2.891   2.458  10.048 -0.0901 -0.2311 -0.4952
 7873SOL    HW135255   2.916   2.462  10.140  2.1752 -0.3321 -1.1112
 7873SOL    HW235256   2.975   2.479  10.008  0.0333  1.1534  0.4849
 7874SOL     OW35257   1.323   4.715   8.445  0.2493  0.1599  0.4305
 7874SOL    HW135258   1.308   0.074   8.439 -2.3917 -0.3498 -0.6904
 7874SOL    HW235259   1.266   4.684   8.376  3.4394  0.8122 -2.4752
 7875SOL     OW35260   2.200   0.471   3.102  0.4087 -0.1129  0.1268
 7875SOL    HW135261   2.208   0.464   3.007  2.0674 -0.4005  0.3002
 7875SOL    HW235262   2.121   0.417   3.106  1.3520 -1.6015 -1.3061
 7876SOL     OW35263   1.216   3.723   8.566 -0.4712 -0.0193  0.0889
 7876SOL    HW135264   1.262   3.800   8.599 -1.5045  0.5624  0.1897
 7876SOL    HW235265   1.195   3.741   8.475  0.3703 -1.7712 -0.4382
 7877SOL     OW35266   4.554   2.568   7.427  0.3541  0.1687 -0.0359
 7877SOL    HW135267   4.645   2.540   7.412  1.2615  1.7256  2.4237
 7877SOL    HW235268   4.530   2.515   7.503 -2.0269  0.5530 -0.5322
 7878SOL     OW35269   4.337   4.364   3.475  0.5119  0.2695 -0.7162
 7878SOL    HW135270   4.268   4.299   3.487  0.2714  0.7325  0.3750
 7878SOL    HW235271   4.345   4.358   3.380  1.2973  2.8032 -0.7992
 7879SOL     OW35272   4.263   0.076   4.391 -0.0451  0.2004 -0.3444
 7879SOL    HW135273   4.226   0.079   4.303  0.9288 -2.1457 -0.8343
 7879SOL    HW235274   4.194   0.025   4.433  0.2621  0.0572 -0.0046
 7880SOL     OW35275   2.953   1.974   4.239  0.1307  0.3647  0.3315
 7880SOL    HW135276   2.971   2.028   4.162 -1.3973  0.1818 -0.1544
 7880SOL    HW235277   3.030   1.994   4.292  0.2564  1.2144 -0.1603
 7881SOL     OW35278   4.013   2.507  11.401 -0.1678 -0.2029 -0.7717
 7881SOL    HW135279   4.090   2.482  11.452  0.5329  1.4045 -1.0585
 7881SOL    HW235280   4.004   2.599  11.424 -1.4146 -0.5032 -0.0244
 7882SOL     OW35281   2.412   0.025   7.510 -0.4735  0.4180 -0.1968
 7882SOL    HW135282   2.433   0.005   7.419 -0.1993  1.7862 -0.4334
 7882SOL    HW235283   2.347   0.093   7.494 -1.3150 -0.7414 -1.6647
 7883SOL     OW35284   1.172   3.353   3.815 -0.1099  0.5038  0.4766
 7883SOL    HW135285   1.211   3.269   3.792 -0.0767  0.4751  0.6362
 7883SOL    HW235286   1.222   3.375   3.894  0.1016 -2.8303  1.2677
 7884SOL     OW35287   0.190   0.704   7.678 -0.4951  0.9168  0.3397
 7884SOL    HW135288   0.141   0.726   7.758  1.4947  1.0426  1.5386
 7884SOL    HW235289   0.168   0.775   7.618 -1.7008 -0.7601 -1.1650
 7885SOL     OW35290   1.902   2.973   2.609  0.3591 -0.2328  0.4178
 7885SOL    HW135291   1.966   3.041   2.585 -1.1830  1.4043  0.9808
 7885SOL    HW235292   1.820   3.001   2.569  0.9395  0.6623 -0.1570
 7886SOL     OW35293   0.750   0.260   2.813  0.3977 -0.3864  0.0820
 7886SOL    HW135294   0.763   0.353   2.832 -1.7297 -0.2298  0.8171
 7886SOL    HW235295   0.744   0.258   2.718  0.2014  3.9362  0.0043
 7887SOL     OW35296   0.768   3.216   1.099  0.1329 -0.2631  0.0187
 7887SOL    HW135297   0.682   3.257   1.088 -0.1391 -0.0839  2.7419
 7887SOL    HW235298   0.822   3.288   1.069  1.2254 -2.5705 -3.5773
 7888SOL     OW35299   0.720   4.015   4.574 -0.0569  0.0433 -0.1389
 7888SOL    HW135300   0.718   4.019   4.478  0.1591 -4.0958 -0.3048
 7888SOL    HW235301   0.805   3.977   4.595  1.2155  3.2435  0.4665
 7889SOL     OW35302   2.222   2.620   4.308  0.1005  0.5050 -0.2195
 7889SOL    HW135303   2.177   2.537   4.291 -1.0152  1.4047 -1.5767
 7889SOL    HW235304   2.152   2.677   4.340 -1.3482 -2.2437  1.5471
 7890SOL     OW35305   2.183   0.847   4.125 -0.2203  0.4295 -0.5416
 7890SOL    HW135306   2.278   0.836   4.119 -0.5602 -2.9198 -0.3035
 7890SOL    HW235307   2.165   0.790   4.201  2.0833  0.2223 -0.1445
 7891SOL     OW35308   1.146   0.853   8.083  0.3617  0.2082 -0.4086
 7891SOL    HW135309   1.232   0.811   8.076 -0.3374 -1.7982  3.0544
 7891SOL    HW235310   1.093   0.775   8.067 -0.0835  0.7246 -1.5016
 7892SOL     OW35311   0.814   3.352  16.844  0.2810  0.9138 -0.4638
 7892SOL    HW135312   0.724   3.380  16.826  1.2064  1.8860 -3.5607
 7892SOL    HW235313   0.795   3.260  16.827  1.5408  0.5291  0.2229
 7893SOL     OW35314   4.338   4.731   2.382  0.1625  0.0052 -0.2865
 7893SOL    HW135315   4.352   0.090   2.382 -4.2723  0.6951 -0.4963
 7893SOL    HW235316   4.428   4.699   2.378  1.3133  3.3317 -1.0368
 7894SOL     OW35317   2.763   3.924   2.177  0.3930  0.5141  0.4493
 7894SOL    HW135318   2.714   3.977   2.114  0.0574 -2.3777 -1.7072
 7894SOL    HW235319   2.729   3.835   2.182 -1.1364  1.0240 -1.0292
 7895SOL     OW35320   0.367   3.553   4.825  0.1284 -0.2230  0.4221
 7895SOL    HW135321   0.327   3.490   4.765  2.6118 -0.3402 -1.1109
 7895SOL    HW235322   0.326   3.519   4.905  1.6158 -0.0602  1.2403
 7896SOL     OW35323   0.327   4.098  10.727 -0.5184  0.2429  0.3039
 7896SOL    HW135324   0.287   4.118  10.812  0.8804  1.6859  0.6005
 7896SOL    HW235325   0.322   4.002  10.724 -0.8637  0.2524  0.5128
 7897SOL     OW35326   1.577   2.402   6.143  0.1714 -0.1274  0.4351
 7897SOL    HW135327   1.577   2.363   6.056  0.9003  0.9837 -0.0675
 7897SOL    HW235328   1.570   2.324   6.198 -1.1508  0.7889  1.5644
 7898SOL     OW35329   1.115   2.744   8.688 -0.4194 -0.2506 -0.2806
 7898SOL    HW135330   1.121   2.829   8.644  0.9027  0.0933  0.5701
 7898SOL    HW235331   1.033   2.751   8.736 -0.1321  0.0294  0.1727
 7899SOL     OW35332   2.433   1.638   5.297  0.5889  0.0352  0.1857
 7899SOL    HW135333   2.391   1.552   5.298 -0.5842  0.5990  0.0005
 7899SOL    HW235334   2.528   1.632   5.308  0.7766  0.2692 -1.2111
 7900SOL     OW35335   0.977   3.709  14.923 -0.2528  0.3599  0.3244
 7900SOL    HW135336   0.906   3.676  14.980 -0.0805 -2.7912 -1.2879
 7900SOL    HW235337   1.032   3.631  14.913  0.2094  0.7491 -0.0988
 7901SOL     OW35338   3.231   2.416  12.076 -0.4613  0.2434  0.2673
 7901SOL    HW135339   3.259   2.378  11.993  1.9655  2.3605  0.0961
 7901SOL    HW235340   3.298   2.382  12.136  1.5924  1.6926 -1.1800
 7902SOL     OW35341   3.135   1.277   6.162  0.2698  0.3084  0.8074
 7902SOL    HW135342   3.091   1.342   6.108  1.6358 -1.2041 -2.1153
 7902SOL    HW235343   3.138   1.196   6.112  0.0214 -0.0200  1.3172
 7903SOL     OW35344   2.615   0.161   1.961  0.0925 -0.2999  0.0028
 7903SOL    HW135345   2.556   0.195   1.893  0.5427  0.4741 -0.0062
 7903SOL    HW235346   2.599   0.067   1.955  1.5602 -0.6569  1.7857
 7904SOL     OW35347   2.370   1.456   2.904 -0.3123 -0.4129  0.0421
 7904SOL    HW135348   2.437   1.419   2.847 -1.9697 -0.3202 -1.9669
 7904SOL    HW235349   2.335   1.524   2.846  0.5380 -1.0582 -1.2122
 7905SOL     OW35350   4.725   3.310   8.677 -0.8475  0.0111 -0.3366
 7905SOL    HW135351   0.077   3.276   8.663 -0.2767  1.4030 -0.0415
 7905SOL    HW235352   0.012   3.402   8.669  0.2216 -0.2493 -0.3153
 7906SOL     OW35353   0.315   3.047   3.724  0.0197 -0.4143 -0.0585
 7906SOL    HW135354   0.305   3.044   3.819 -0.5667  0.8537 -0.0830
 7906SOL    HW235355   0.403   3.009   3.721  0.7005  1.1026  0.3810
 7907SOL     OW35356   0.214   1.647   5.393  0.6247  0.7627 -0.3414
 7907SOL    HW135357   0.234   1.618   5.304  0.0407  0.0316 -0.2343
 7907SOL    HW235358   0.281   1.715   5.391  0.1099  1.2932  0.4688
 7908SOL     OW35359   4.456   0.516  12.233 -0.6165 -0.6950  0.0332
 7908SOL    HW135360   4.484   0.504  12.142  1.3720 -1.6972  0.7825
 7908SOL    HW235361   4.367   0.551  12.230 -0.2216  0.5041  2.1568
 7909SOL     OW35362   4.420   0.315   1.926  0.1920  0.1651 -0.3454
 7909SOL    HW135363   4.343   0.259   1.924  0.3314 -0.0639  1.3983
 7909SOL    HW235364   4.380   0.394   1.961  2.3288  1.4339 -0.7629
 7910SOL     OW35365   2.292   1.733   9.558  0.6098  0.1944 -0.2684
 7910SOL    HW135366   2.309   1.805   9.619  1.9676 -1.3566  1.1814
 7910SOL    HW235367   2.368   1.675   9.567  0.5272 -0.6852 -5.2274
 7911SOL     OW35368   4.183   2.324   7.195  0.1340  0.3467 -0.5262
 7911SOL    HW135369   4.123   2.323   7.270  0.1717 -0.7301 -0.5096
 7911SOL    HW235370   4.194   2.230   7.183  0.4852  0.0035  2.4082
 7912SOL     OW35371   1.166   1.512   7.162  0.2954  0.2017 -0.3632
 7912SOL    HW135372   1.207   1.487   7.245  0.4890  0.4891 -0.3699
 7912SOL    HW235373   1.114   1.590   7.179 -1.9796 -1.5590  0.6197
 7913SOL     OW35374   4.297   1.855   4.037 -0.3700 -0.7500  0.1357
 7913SOL    HW135375   4.326   1.782   3.982  0.0162 -1.9621  1.9348
 7913SOL    HW235376   4.374   1.858   4.095 -1.1802  0.4165  1.1461
 7914SOL     OW35377   0.387   3.520   8.960 -0.9706 -0.5612 -0.0503
 7914SOL    HW135378   0.378   3.574   9.039 -1.2628  0.0914 -0.5340
 7914SOL    HW235379   0.449   3.571   8.908  0.6646 -1.2013  1.2687
 7915SOL     OW35380   4.070   4.251   2.638 -0.6826  0.1969 -0.0824
 7915SOL    HW135381   3.984   4.291   2.641 -0.9634 -0.4509  0.6366
 7915SOL    HW235382   4.084   4.240   2.732  1.4537  0.6054 -0.3556
 7916SOL     OW35383   4.400   2.818   6.765  0.3526 -0.4064 -0.6229
 7916SOL    HW135384   4.332   2.875   6.730  0.2634 -0.4865 -0.5793
 7916SOL    HW235385   4.376   2.807   6.857 -2.6415  1.0732 -1.2527
 7917SOL     OW35386   4.568   1.310   8.462  0.1401 -1.0122  0.1245
 7917SOL    HW135387   4.611   1.369   8.401  0.0432 -1.8763 -0.7793
 7917SOL    HW235388   4.612   1.348   8.538 -1.0532  0.9601 -0.1667
 7918SOL     OW35389   2.753   4.143   1.652 -0.2748  0.0643 -0.4168
 7918SOL    HW135390   2.806   4.217   1.621 -0.0536  0.4827  0.9604
 7918SOL    HW235391   2.679   4.141   1.592 -0.5379  0.5097 -0.1109
 7919SOL     OW35392   3.512   0.597   8.788 -0.2791 -0.5321  0.5862
 7919SOL    HW135393   3.475   0.664   8.847  1.3141 -0.5090  1.5670
 7919SOL    HW235394   3.442   0.531   8.784 -2.6770  2.1205 -1.2827
 7920SOL     OW35395   3.037   0.763   8.027  0.5168  0.0303 -0.5973
 7920SOL    HW135396   2.969   0.736   7.965 -0.2505  1.9983 -0.6048
 7920SOL    HW235397   3.018   0.708   8.103  0.7679 -1.5796 -1.6898
 7921SOL     OW35398   2.169   4.114  10.662  0.1520  0.2840 -0.2760
 7921SOL    HW135399   2.245   4.152  10.619  0.3198  0.7554  0.4473
 7921SOL    HW235400   2.119   4.106  10.580  0.8707  2.0782 -0.8838
 7922SOL     OW35401   4.258   3.583   7.874  0.1171  0.4432  0.0606
 7922SOL    HW135402   4.275   3.553   7.785 -0.1504 -0.0555  0.1732
 7922SOL    HW235403   4.165   3.606   7.885  0.3566  0.8176  1.3391
 7923SOL     OW35404   2.943   2.676   6.326 -0.0950  0.5159  0.0580
 7923SOL    HW135405   2.903   2.753   6.365 -1.3459 -0.2230  0.2315
 7923SOL    HW235406   3.015   2.720   6.280 -0.7077 -0.0107 -1.4208
 7924SOL     OW35407   0.315   0.500  14.893  0.7754 -0.6532  0.0904
 7924SOL    HW135408   0.369   0.572  14.860  1.1201 -2.0048 -2.2542
 7924SOL    HW235409   0.387   0.452  14.934  2.1680  1.9559  0.7014
 7925SOL     OW35410   0.825   1.912   1.224 -0.0501  0.5031  0.0134
 7925SOL    HW135411   0.865   1.885   1.141 -1.0947  1.5435 -0.8338
 7925SOL    HW235412   0.867   1.850   1.283 -1.7526 -0.1893  0.5026
 7926SOL     OW35413   2.687   2.868   8.127  0.2732 -0.0183  0.1511
 7926SOL    HW135414   2.629   2.892   8.056 -2.3670 -0.4747  2.1440
 7926SOL    HW235415   2.700   2.957   8.161  0.6451 -0.6846  1.7675
 7927SOL     OW35416   3.658   0.867  15.676  0.2827  0.0353  0.4938
 7927SOL    HW135417   3.566   0.842  15.676 -0.1594  1.7249  0.9713
 7927SOL    HW235418   3.690   0.826  15.595 -0.2151 -1.7368  1.1985
 7928SOL     OW35419   4.497   3.160   7.752 -0.2404  0.3308 -0.0748
 7928SOL    HW135420   4.544   3.190   7.830 -0.7618 -1.5122  0.9641
 7928SOL    HW235421   4.561   3.105   7.707  2.0732  3.8750 -1.0969
 7929SOL     OW35422   3.791   2.584   3.483  0.0849  0.0856  0.0429
 7929SOL    HW135423   3.719   2.599   3.422 -1.1550 -0.3292  1.4027
 7929SOL    HW235424   3.787   2.489   3.492  1.9537 -0.0450 -0.5594
 7930SOL     OW35425   3.453   2.190   0.327  0.1632 -0.5232 -0.1609
 7930SOL    HW135426   3.370   2.168   0.283  0.4566 -0.0136 -0.9537
 7930SOL    HW235427   3.502   2.227   0.254 -3.5510  2.2265 -1.2828
 7931SOL     OW35428   2.812   2.112  15.029 -0.1366 -1.0754 -0.3492
 7931SOL    HW135429   2.845   2.037  14.980 -0.6657 -0.8804 -1.0017
 7931SOL    HW235430   2.888   2.134  15.084 -0.8137  0.5032 -0.0279
 7932SOL     OW35431   4.140   1.486   3.074  0.0642 -0.2306  0.4035
 7932SOL    HW135432   4.121   1.518   3.162 -1.4170 -1.5971  0.5600
 7932SOL    HW235433   4.233   1.463   3.083 -0.0143  0.2129  2.4643
 7933SOL     OW35434   4.487   3.253   2.268  0.1044  0.4666 -0.5717
 7933SOL    HW135435   4.526   3.182   2.319 -0.0242  0.6754 -0.1812
 7933SOL    HW235436   4.420   3.208   2.216 -2.4570 -1.7854  4.6930
 7934SOL     OW35437   3.689   4.021   9.675  0.7540 -0.3624  0.0568
 7934SOL    HW135438   3.618   4.072   9.636  2.7160  2.7069  0.4628
 7934SOL    HW235439   3.732   3.990   9.596 -0.3698  0.6404 -0.9563
 7935SOL     OW35440   0.908   2.585   8.377  0.0443  0.4958 -0.1126
 7935SOL    HW135441   0.828   2.628   8.407 -0.6424 -1.9346  1.4610
 7935SOL    HW235442   0.963   2.577   8.454  0.7975  2.4760 -0.4468
 7936SOL     OW35443   2.295   3.980   3.018 -0.1856  0.2278 -0.2222
 7936SOL    HW135444   2.377   3.935   3.000 -0.1142 -0.5889  2.1364
 7936SOL    HW235445   2.290   4.050   2.953 -1.2127  2.1628  1.9308
 7937SOL     OW35446   3.393   1.614   8.367 -0.1023  0.3948 -0.2211
 7937SOL    HW135447   3.354   1.694   8.403 -2.4521 -0.0820 -1.7351
 7937SOL    HW235448   3.409   1.550   8.436 -2.9093  1.6599  1.6026
 7938SOL     OW35449   1.470   1.374  14.026  0.6790  0.8054 -0.3718
 7938SOL    HW135450   1.518   1.388  14.107  1.0780 -0.9296 -0.2978
 7938SOL    HW235451   1.404   1.441  14.040  0.3865  0.5026 -0.3133
 7939SOL     OW35452   1.454   3.530  14.226  0.2445  0.1561  0.2050
 7939SOL    HW135453   1.490   3.618  14.219 -0.5069  0.5915  1.9828
 7939SOL    HW235454   1.518   3.481  14.175 -0.0648  0.7718 -0.7850
 7940SOL     OW35455   1.262   0.183  14.883  0.5324 -0.4895 -0.4088
 7940SOL    HW135456   1.167   0.171  14.887  0.1657  1.9685 -1.3969
 7940SOL    HW235457   1.282   0.158  14.792 -0.8959  2.8091 -1.6120
 7941SOL     OW35458   3.465   2.426   5.203  0.1268 -0.2872 -0.3383
 7941SOL    HW135459   3.525   2.472   5.260 -0.7029  0.5876 -0.1669
 7941SOL    HW235460   3.427   2.372   5.272  0.0803 -1.4427 -1.2623
 7942SOL     OW35461   2.282   2.585   8.318 -0.0412 -0.1525 -0.2995
 7942SOL    HW135462   2.324   2.663   8.282 -2.4391  0.9116 -0.8085
 7942SOL    HW235463   2.355   2.544   8.364  0.1468 -0.8628 -1.2252
 7943SOL     OW35464   2.457   2.605   7.282  0.1183 -0.2269  0.3078
 7943SOL    HW135465   2.475   2.532   7.223 -2.4198 -0.6841  0.0863
 7943SOL    HW235466   2.417   2.557   7.355  0.5126  0.9513  1.3129
 7944SOL     OW35467   2.687   2.488   4.823 -0.1208  0.5090  0.3146
 7944SOL    HW135468   2.714   2.558   4.765 -0.5700 -1.8053 -2.7118
 7944SOL    HW235469   2.772   2.467   4.862 -0.5044 -1.9948 -0.1664
 7945SOL     OW35470   4.045   2.093   7.227 -0.0321  0.5455  0.2229
 7945SOL    HW135471   3.972   2.126   7.278 -0.8884  0.7337 -1.1356
 7945SOL    HW235472   4.032   1.998   7.217  1.2336  0.4865 -0.9162
 7946SOL     OW35473   4.524   0.911  16.595  0.7111 -0.2126  0.2273
 7946SOL    HW135474   4.598   0.929  16.537  1.0293  2.2797  1.4152
 7946SOL    HW235475   4.570   0.915  16.679 -0.2971  1.3318  0.6951
 7947SOL     OW35476   2.934   2.401   2.986 -0.0156 -0.5514  0.0323
 7947SOL    HW135477   2.904   2.461   3.054 -1.4602 -0.7979 -0.3903
 7947SOL    HW235478   3.028   2.390   2.996  0.1976 -0.4066 -1.8341
 7948SOL     OW35479   2.303   2.765   4.781 -0.2398  0.3048  0.1196
 7948SOL    HW135480   2.209   2.746   4.780 -0.4361  1.1878  1.9740
 7948SOL    HW235481   2.318   2.757   4.687 -0.4632  0.1909  0.0933
 7949SOL     OW35482   4.040   3.897   1.705 -0.3213 -0.1678 -0.1167
 7949SOL    HW135483   4.091   3.825   1.741  1.0226  0.1883 -1.3009
 7949SOL    HW235484   4.091   3.919   1.627 -0.9126 -2.0188 -1.0211
 7950SOL     OW35485   3.723   3.877  15.138  0.5449  0.4563 -0.7551
 7950SOL    HW135486   3.668   3.905  15.065  0.9058 -2.8095 -2.2650
 7950SOL    HW235487   3.675   3.921  15.208  0.7450 -0.9185  0.2539
 7951SOL     OW35488   3.233   1.334   4.522  0.2106  0.0708  0.2552
 7951SOL    HW135489   3.179   1.311   4.447 -0.4421  0.8680  0.4758
 7951SOL    HW235490   3.288   1.405   4.488 -1.7759  1.1004 -0.8080
 7952SOL     OW35491   3.139   1.720   1.292  0.6383  0.3228  0.1033
 7952SOL    HW135492   3.162   1.767   1.212  1.0530 -1.9454 -1.1197
 7952SOL    HW235493   3.141   1.789   1.358  0.7431 -0.4069  0.8706
 7953SOL     OW35494   0.101   1.726   7.440 -0.5647 -0.2798  0.1681
 7953SOL    HW135495   0.094   1.725   7.344  1.9225  0.0813 -0.0005
 7953SOL    HW235496   0.085   1.633   7.452 -1.7053  0.0291  1.0491
 7954SOL     OW35497   4.496   4.580   2.147  0.1366  0.7837  0.5965
 7954SOL    HW135498   4.517   4.633   2.070  1.5223  1.5102  1.4788
 7954SOL    HW235499   4.403   4.558   2.137  0.4831 -1.1035  1.6056
 7955SOL     OW35500   1.149   0.270   1.273 -0.2971  0.0811  0.3919
 7955SOL    HW135501   1.186   0.318   1.347 -0.4199 -0.1970  0.6335
 7955SOL    HW235502   1.104   0.197   1.316  1.7047 -1.4098 -0.0186
 7956SOL     OW35503   1.434   2.913  11.992 -0.0713 -0.5904 -0.4163
 7956SOL    HW135504   1.413   3.005  12.006  1.0391 -0.3127 -0.5505
 7956SOL    HW235505   1.385   2.870  12.063  0.6768  1.9427  1.6455
 7957SOL     OW35506   1.891   0.005   6.997 -0.1566  0.1457 -1.1765
 7957SOL    HW135507   1.888   0.100   6.984 -0.6689  0.3366  0.3295
 7957SOL    HW235508   1.798   4.721   6.992 -0.3958  1.1639 -0.9368
 7958SOL     OW35509   1.913   3.417   8.162  0.2894 -0.4791  0.0688
 7958SOL    HW135510   1.998   3.438   8.201  0.9461  0.8504 -2.0961
 7958SOL    HW235511   1.872   3.503   8.159  2.3923  0.5171  0.2399
 7959SOL     OW35512   1.086   0.301   4.973  0.9846 -0.1659  0.0915
 7959SOL    HW135513   0.993   0.280   4.977  0.6939  1.0020 -0.5764
 7959SOL    HW235514   1.114   0.210   4.984 -0.6277 -0.7736 -0.9079
 7960SOL     OW35515   0.192   2.874   5.643  0.3181  0.3967 -0.2183
 7960SOL    HW135516   0.281   2.839   5.654 -0.4296 -1.3932  0.0066
 7960SOL    HW235517   0.204   2.963   5.676 -1.3061 -0.1213  1.7578
 7961SOL     OW35518   1.571   1.376   9.253  0.1149  0.1366 -0.0292
 7961SOL    HW135519   1.504   1.312   9.278  1.6856 -1.1514  0.8372
 7961SOL    HW235520   1.650   1.353   9.302  0.2603  0.5954 -0.0553
 7962SOL     OW35521   4.011   3.538  11.951  0.2883  0.4329  0.8854
 7962SOL    HW135522   3.943   3.520  12.016 -1.3361  2.8214 -0.1691
 7962SOL    HW235523   4.020   3.633  11.939  0.6419  0.2496 -0.3259
 7963SOL     OW35524   4.334   2.743   3.317 -0.1286 -0.0659  0.0137
 7963SOL    HW135525   4.263   2.717   3.376 -1.6125  2.7928 -0.5140
 7963SOL    HW235526   4.414   2.733   3.369  0.7182  2.2729 -0.8614
 7964SOL     OW35527   3.869   0.500   1.192  0.1236  0.3484  0.4407
 7964SOL    HW135528   3.894   0.419   1.148 -0.5947  2.4280 -3.7641
 7964SOL    HW235529   3.779   0.500   1.161  0.3441 -1.5616 -0.2031
 7965SOL     OW35530   0.021   4.728   4.360  0.1141  1.0637  0.7519
 7965SOL    HW135531   4.703   0.067   4.383 -0.7125  0.2997  1.3155
 7965SOL    HW235532   4.720   4.665   4.422 -3.6209  0.5604 -2.0078
 7966SOL     OW35533   2.558   3.298   2.148 -0.2563 -0.3080  0.7871
 7966SOL    HW135534   2.518   3.248   2.219 -1.1611 -0.6702  0.0171
 7966SOL    HW235535   2.498   3.291   2.073  0.3303  0.3774  0.2515
 7967SOL     OW35536   0.269   4.577   8.069  0.1253  0.3238 -0.2455
 7967SOL    HW135537   0.345   4.586   8.127  1.0021 -0.7552 -1.2048
 7967SOL    HW235538   0.229   4.661   8.089 -1.1060 -0.1409 -0.7358
 7968SOL     OW35539   4.549   4.346   4.164  0.0114 -0.4536  0.5464
 7968SOL    HW135540   4.526   4.298   4.084 -0.9976  2.0868 -0.6757
 7968SOL    HW235541   4.466   4.341   4.211  0.1906  0.0027  0.9196
 7969SOL     OW35542   3.996   3.084  15.809 -0.4748  0.9250  0.6818
 7969SOL    HW135543   4.040   3.137  15.876  3.0192 -0.2813 -0.6273
 7969SOL    HW235544   4.067   3.025  15.782  0.0102  2.1344 -0.6677
 7970SOL     OW35545   3.981   1.826  11.085  0.5032 -0.1546 -0.5470
 7970SOL    HW135546   3.985   1.774  11.166 -0.4481 -3.4712 -2.6378
 7970SOL    HW235547   3.886   1.837  11.077  0.3422  0.2537  1.9181
 7971SOL     OW35548   4.328   0.394  10.086  0.4737 -0.1939  0.5853
 7971SOL    HW135549   4.292   0.397   9.998 -0.5460 -2.2369  0.9353
 7971SOL    HW235550   4.300   0.479  10.119  2.3345  0.1522  1.2447
 7972SOL     OW35551   3.128   1.875   8.934 -0.2453  0.4580 -0.8277
 7972SOL    HW135552   3.048   1.883   8.985 -1.1511  1.9874 -2.4957
 7972SOL    HW235553   3.190   1.880   9.006 -0.7834 -0.9311 -0.2755
 7973SOL     OW35554   1.774   0.974   3.866 -0.2083 -0.3554  0.7574
 7973SOL    HW135555   1.864   0.977   3.901  0.4011 -0.8583 -0.7764
 7973SOL    HW235556   1.740   1.055   3.904 -0.6657 -0.8375  1.3793
 7974SOL     OW35557   4.282   3.381  14.003  0.0489  0.0819 -0.3603
 7974SOL    HW135558   4.224   3.312  13.972 -0.3130  1.1682 -2.0671
 7974SOL    HW235559   4.277   3.373  14.099  3.2275  1.7878 -0.0601
 7975SOL     OW35560   4.414   1.005   1.808 -0.4608 -0.2699 -0.0115
 7975SOL    HW135561   4.326   1.044   1.811  0.1432  0.7926  5.2516
 7975SOL    HW235562   4.462   1.060   1.870 -0.9116 -1.7070  1.5994
 7976SOL     OW35563   2.135   3.958   1.310  0.4710  0.1824 -0.3439
 7976SOL    HW135564   2.116   4.036   1.258 -1.3977 -0.6979 -0.9817
 7976SOL    HW235565   2.224   3.931   1.291  0.1786  0.1567 -1.6495
 7977SOL     OW35566   3.526   2.944  10.484 -0.1002  0.0206 -0.0274
 7977SOL    HW135567   3.435   2.964  10.507 -0.2006  1.9889 -1.9975
 7977SOL    HW235568   3.571   2.923  10.565  0.8208  0.6696 -0.3577
 7978SOL     OW35569   0.775   0.512   2.947  0.2790 -0.0354  0.1125
 7978SOL    HW135570   0.829   0.496   3.024 -1.2348  3.7378  1.9898
 7978SOL    HW235571   0.688   0.535   2.980 -0.5960 -2.4778 -0.4755
 7979SOL     OW35572   2.206   1.211   8.619  0.4354 -0.4931  0.8869
 7979SOL    HW135573   2.196   1.211   8.714 -1.9074 -0.1136  0.6353
 7979SOL    HW235574   2.254   1.129   8.611  2.5264  0.7191  0.8711
 7980SOL     OW35575   4.405   4.595  14.190 -0.7827  0.1471  0.2501
 7980SOL    HW135576   4.450   4.670  14.152 -0.6099  0.4993  1.1453
 7980SOL    HW235577   4.435   4.603  14.280  0.6015 -2.7084  0.0506
 7981SOL     OW35578   0.640   4.431   8.802 -0.9194  0.8710  0.1196
 7981SOL    HW135579   0.607   4.352   8.845 -0.9080  0.8224  0.0394
 7981SOL    HW235580   0.613   4.417   8.712  2.9213 -3.5134 -0.3716
 7982SOL     OW35581   2.770   0.152   6.146  0.0863  0.2778 -0.3418
 7982SOL    HW135582   2.819   0.165   6.227 -0.1683 -1.4620  0.0831
 7982SOL    HW235583   2.770   0.059   6.124 -1.0608  0.6956 -2.1545
 7983SOL     OW35584   3.783   1.638   1.357  0.0372 -0.3091 -0.2298
 7983SOL    HW135585   3.794   1.626   1.263 -1.6159  2.4957 -0.7779
 7983SOL    HW235586   3.731   1.718   1.366 -0.0933 -0.4388  0.2034
 7984SOL     OW35587   2.767   0.463   5.574 -0.3130 -0.0072  0.0662
 7984SOL    HW135588   2.738   0.544   5.534 -1.1814 -1.8246 -2.9397
 7984SOL    HW235589   2.682   0.418   5.576 -0.6550  0.6365 -0.2426
 7985SOL     OW35590   1.452   2.577   4.771 -0.0019 -0.2114 -0.3433
 7985SOL    HW135591   1.392   2.502   4.776  0.5663 -0.8113 -2.4224
 7985SOL    HW235592   1.508   2.563   4.847  0.5775 -0.2368 -0.7754
 7986SOL     OW35593   1.723   1.027  13.040 -0.4074 -0.1215  0.2586
 7986SOL    HW135594   1.668   0.976  13.100 -0.4709 -1.1359 -0.6589
 7986SOL    HW235595   1.764   1.091  13.098 -0.8602  0.0584  0.3801
 7987SOL     OW35596   4.727   3.568   3.817 -0.4534 -0.4860  0.5969
 7987SOL    HW135597   4.657   3.515   3.780 -0.1200 -1.7702  1.7912
 7987SOL    HW235598   0.001   3.619   3.737  2.7002  0.2693  1.4704
 7988SOL     OW35599   1.890   1.019   5.011 -0.0741 -0.7118  0.5806
 7988SOL    HW135600   1.937   1.068   5.078  0.6427 -1.7822  0.8551
 7988SOL    HW235601   1.893   0.932   5.051  1.2218 -2.1794 -2.7263
 7989SOL     OW35602   3.088   4.222   1.897 -0.4277 -0.1351  0.0839
 7989SOL    HW135603   3.160   4.174   1.855  0.1937  1.9702 -1.2550
 7989SOL    HW235604   3.083   4.165   1.974 -1.6472 -1.1084 -0.7073
 7990SOL     OW35605   2.826   0.508   8.532  0.4423 -0.0549  0.3006
 7990SOL    HW135606   2.860   0.562   8.604  0.0922 -2.9738  2.6829
 7990SOL    HW235607   2.762   0.564   8.487  1.9447  0.4488 -1.1959
 7991SOL     OW35608   1.276   1.342   4.052  0.2703 -0.1104 -0.1243
 7991SOL    HW135609   1.266   1.382   3.966 -0.5782 -0.4497 -0.1880
 7991SOL    HW235610   1.342   1.402   4.086  0.4295  1.5556 -3.4079
 7992SOL     OW35611   1.716   2.636   2.690  0.1373  0.0535  0.1299
 7992SOL    HW135612   1.668   2.643   2.607  1.6450  0.9497 -0.6615
 7992SOL    HW235613   1.651   2.597   2.749  0.6138  1.7175  1.7670
 7993SOL     OW35614   3.546   4.733  16.913 -0.5310  0.2470 -0.5228
 7993SOL    HW135615   3.525   0.068  16.973  1.3417 -1.4695  2.1699
 7993SOL    HW235616   3.460   4.692  16.905 -0.5610 -0.0160  1.1109
 7994SOL     OW35617   1.595   0.835  13.217 -0.4606  0.3666  0.1822
 7994SOL    HW135618   1.529   0.779  13.257  1.8795 -1.2184  1.7876
 7994SOL    HW235619   1.656   0.829  13.290  0.1875  1.7869 -0.2385
 7995SOL     OW35620   1.804   0.739   3.569  0.2246  0.1193 -0.1282
 7995SOL    HW135621   1.889   0.728   3.612 -0.2100  1.0695  0.9750
 7995SOL    HW235622   1.808   0.831   3.542 -1.4284 -0.1440 -1.2389
 7996SOL     OW35623   3.393   0.999  12.054  0.2621  0.2137 -0.3968
 7996SOL    HW135624   3.444   1.062  12.104  0.1785  0.6423 -0.8487
 7996SOL    HW235625   3.319   1.052  12.027  0.0015 -1.2829 -2.6380
 7997SOL     OW35626   0.476   1.479   3.788 -0.1589  0.0393  0.2069
 7997SOL    HW135627   0.556   1.480   3.841 -0.4600 -0.0057  0.6511
 7997SOL    HW235628   0.427   1.429   3.853  0.0294 -0.9599 -0.4123
 7998SOL     OW35629   4.621   3.000   4.102 -0.2316  0.2166  0.7946
 7998SOL    HW135630   4.629   3.093   4.121  0.9522  0.2830 -0.0376
 7998SOL    HW235631   4.535   2.992   4.060  0.1896  0.1590 -0.0589
 7999SOL     OW35632   3.205   4.145   5.119  0.1587  0.2143 -0.3541
 7999SOL    HW135633   3.156   4.139   5.038  1.6882 -2.7417 -1.0855
 7999SOL    HW235634   3.269   4.073   5.116  0.9802  0.9566 -0.6315
 8000SOL     OW35635   2.844   0.293   5.036 -0.0630  0.2474 -0.3574
 8000SOL    HW135636   2.920   0.349   5.020  1.2403 -1.0915  1.1885
 8000SOL    HW235637   2.773   0.355   5.050 -0.2161  0.9061 -4.0134
 8001SOL     OW35638   2.194   2.165   3.423  0.8009 -0.4217 -0.1307
 8001SOL    HW135639   2.154   2.198   3.343 -0.8342 -0.6864  0.5804
 8001SOL    HW235640   2.276   2.119   3.400 -0.2130 -3.4466  2.2458
 8002SOL     OW35641   0.053   2.398   8.723  1.0171 -0.0102  0.0991
 8002SOL    HW135642   0.082   2.335   8.657 -0.3777 -1.4497  0.8745
 8002SOL    HW235643   0.080   2.361   8.807  0.5449  1.6652  1.0025
 8003SOL     OW35644   4.430   2.978  16.631  0.2453  0.1949 -0.5654
 8003SOL    HW135645   4.372   2.905  16.652 -0.6736  1.0838 -0.0169
 8003SOL    HW235646   4.514   2.952  16.669 -0.2827  0.7839  0.9886
 8004SOL     OW35647   2.742   4.053   8.319  0.3345  0.0470  0.5336
 8004SOL    HW135648   2.685   4.030   8.392  1.3224  1.0531  1.6151
 8004SOL    HW235649   2.803   4.113   8.362  1.2422  0.6021 -1.5064
 8005SOL     OW35650   4.228   1.019   8.830  0.5184  0.1979 -0.6517
 8005SOL    HW135651   4.195   1.096   8.785  4.0644  1.9522 -0.2242
 8005SOL    HW235652   4.239   1.051   8.919 -1.9172 -2.3926  0.5699
 8006SOL     OW35653   4.553   3.586   4.729  0.1424 -0.7174 -0.3339
 8006SOL    HW135654   4.640   3.553   4.708 -0.2018 -1.7901 -0.0710
 8006SOL    HW235655   4.551   3.549   4.817 -0.8085  0.0859 -0.0108
 8007SOL     OW35656   2.025   2.194   7.713  0.4449  0.4102 -0.1410
 8007SOL    HW135657   2.026   2.199   7.809  0.4352  1.0445 -0.1725
 8007SOL    HW235658   1.940   2.237   7.700  0.5744 -0.3259 -3.3658
 8008SOL     OW35659   0.584   1.573   1.161  0.1884  0.0780 -0.2950
 8008SOL    HW135660   0.593   1.653   1.109  1.9872 -0.2521 -0.4985
 8008SOL    HW235661   0.536   1.601   1.238  1.0569  0.4910  0.1003
 8009SOL     OW35662   0.880   4.367   4.602  0.1243 -0.2345 -0.4693
 8009SOL    HW135663   0.938   4.440   4.579 -0.2974  0.0474 -0.6453
 8009SOL    HW235664   0.881   4.317   4.521 -1.8942 -2.6605  1.0005
 8010SOL     OW35665   1.187   0.278  10.295  0.0898  0.0985  0.3162
 8010SOL    HW135666   1.168   0.266  10.202 -0.9689  1.9439  0.2884
 8010SOL    HW235667   1.123   0.216  10.330 -0.4946 -0.8608 -2.4752
 8011SOL     OW35668   1.551   2.221   4.742  0.0933  0.5173  0.0013
 8011SOL    HW135669   1.495   2.292   4.773  1.8058  1.5341  0.7491
 8011SOL    HW235670   1.481   2.172   4.699  0.8557 -2.5124  2.2009
 8012SOL     OW35671   1.474   1.135  13.330  0.5219 -0.2466  0.8393
 8012SOL    HW135672   1.542   1.086  13.377  0.3283 -0.5921  0.7618
 8012SOL    HW235673   1.412   1.148  13.401  0.1200  1.2530  0.2018
 8013SOL     OW35674   1.990   2.581   6.496  0.1250 -0.3949 -0.5665
 8013SOL    HW135675   1.942   2.598   6.577 -1.4406 -3.1918 -0.9285
 8013SOL    HW235676   2.021   2.669   6.473  0.1251 -0.5369 -1.1030
 8014SOL     OW35677   2.008   2.861   5.011  0.3000  0.0902  0.1357
 8014SOL    HW135678   1.980   2.870   4.920  0.8841 -0.8112 -0.1349
 8014SOL    HW235679   1.982   2.771   5.032 -0.8734  0.3600 -0.1787
 8015SOL     OW35680   2.370   3.724   9.372 -0.0699  0.1615 -0.7072
 8015SOL    HW135681   2.362   3.702   9.465 -1.9966 -2.5105 -1.5185
 8015SOL    HW235682   2.382   3.817   9.391  2.0254 -0.0544 -0.9854
 8016SOL     OW35683   4.488   0.456   0.667 -0.6372  0.0681  0.0763
 8016SOL    HW135684   4.562   0.502   0.628  0.7171 -0.7473  1.7202
 8016SOL    HW235685   4.487   0.484   0.758  0.4840 -1.1822  0.4681
 8017SOL     OW35686   4.256   3.869   2.586 -0.4453  0.4742 -0.3307
 8017SOL    HW135687   4.250   3.774   2.591  1.8945  0.3983  1.2362
 8017SOL    HW235688   4.349   3.880   2.562  0.1357 -0.9250  1.3336
 8018SOL     OW35689   4.717   1.665   3.253 -0.5453 -0.1823  0.0972
 8018SOL    HW135690   0.076   1.657   3.246 -0.7985 -1.1721 -2.1159
 8018SOL    HW235691   4.690   1.573   3.247 -1.5674  0.2295 -1.6279
 8019SOL     OW35692   1.455   2.293   3.637 -0.0193  0.3175  0.0759
 8019SOL    HW135693   1.445   2.200   3.614 -3.1688  0.4842  0.8369
 8019SOL    HW235694   1.550   2.301   3.644  0.0842  0.7353 -1.6452
 8020SOL     OW35695   1.369   4.433   4.779 -0.1790  0.4431 -0.0198
 8020SOL    HW135696   1.337   4.428   4.689 -2.0700 -2.1710  0.8189
 8020SOL    HW235697   1.367   4.527   4.800 -1.0628  0.9137 -2.2355
 8021SOL     OW35698   0.368   1.030  15.948 -0.4407  0.3391 -0.0586
 8021SOL    HW135699   0.278   1.059  15.938  0.0963  1.2573 -2.3065
 8021SOL    HW235700   0.398   1.060  15.862  1.8739 -0.6291  0.3961
 8022SOL     OW35701   1.172   0.239   5.362  0.0028 -0.3145 -0.0619
 8022SOL    HW135702   1.185   0.293   5.284 -3.3949  1.0445  0.3296
 8022SOL    HW235703   1.257   0.196   5.363  0.0237 -0.2934 -1.3154
 8023SOL     OW35704   1.511   3.115   7.151 -0.2844 -0.3786  0.0209
 8023SOL    HW135705   1.532   3.176   7.222 -2.8598  0.6842 -0.1169
 8023SOL    HW235706   1.579   3.048   7.141  0.7736  0.5495  1.0737
 8024SOL     OW35707   0.074   0.305   5.579  0.2374 -0.0239  0.4137
 8024SOL    HW135708   0.046   0.390   5.544 -0.3362 -0.5237 -0.3380
 8024SOL    HW235709   0.139   0.267   5.520  2.2152  0.6038  2.2223
 8025SOL     OW35710   0.988   0.975  15.802 -0.2420  0.6873 -0.4512
 8025SOL    HW135711   1.035   0.893  15.786 -0.7485  0.3809 -0.3676
 8025SOL    HW235712   0.966   1.009  15.715  1.7610  0.2188 -1.1544
 8026SOL     OW35713   0.450   1.349  13.479  0.2182 -0.2740  0.3188
 8026SOL    HW135714   0.437   1.383  13.568  0.0861  0.9007 -0.1491
 8026SOL    HW235715   0.545   1.360  13.470  0.2160 -1.1704 -0.8062
 8027SOL     OW35716   4.301   1.456   4.771  0.4297 -0.6070 -0.5765
 8027SOL    HW135717   4.311   1.453   4.676 -2.1564  1.7382 -0.9042
 8027SOL    HW235718   4.375   1.401   4.799  1.5645  1.0425 -0.3028
 8028SOL     OW35719   2.659   3.665   2.198 -0.0934 -0.0970 -0.1082
 8028SOL    HW135720   2.611   3.673   2.115  0.5380  4.8189  0.0231
 8028SOL    HW235721   2.641   3.572   2.212 -0.3192 -0.0928 -0.3618
 8029SOL     OW35722   0.051   2.537   2.662  0.1419 -0.1988 -0.4230
 8029SOL    HW135723   0.136   2.537   2.706  0.1099  0.8356 -0.3691
 8029SOL    HW235724   4.729   2.590   2.717  1.1348 -0.5825  1.0212
 8030SOL     OW35725   0.319   1.382   9.129  0.2774 -0.0334  0.4239
 8030SOL    HW135726   0.256   1.324   9.173 -0.5503 -0.4739 -1.3106
 8030SOL    HW235727   0.249   1.442   9.104 -1.5120 -1.9600  0.7955
 8031SOL     OW35728   0.567   3.308   5.841 -0.2092  0.0727  0.3726
 8031SOL    HW135729   0.496   3.345   5.789 -0.8378 -1.9428 -0.2287
 8031SOL    HW235730   0.517   3.283   5.919 -1.1554  1.1147  0.0938
 8032SOL     OW35731   0.592   1.010  10.216  0.6388 -0.0611 -0.2054
 8032SOL    HW135732   0.621   0.984  10.304 -0.9490  0.1188  0.3854
 8032SOL    HW235733   0.666   1.054  10.175  0.5004  0.0553 -0.3337
 8033SOL     OW35734   2.414   0.318   1.825  0.5648 -0.1742  0.3103
 8033SOL    HW135735   2.458   0.356   1.749 -0.0996  3.7815  1.9059
 8033SOL    HW235736   2.322   0.329   1.801  0.1613 -0.6697  1.6322
 8034SOL     OW35737   3.107   2.601   4.061 -0.0733  0.0160  0.2986
 8034SOL    HW135738   3.094   2.632   3.971  2.1556 -1.7363 -0.6296
 8034SOL    HW235739   3.019   2.575   4.088  0.0954 -0.5518  0.3004
 8035SOL     OW35740   2.418   2.886   6.986  0.1112 -0.5477  0.5924
 8035SOL    HW135741   2.432   2.801   6.944  0.7505 -0.8599  1.4458
 8035SOL    HW235742   2.365   2.862   7.062 -2.2792  0.8161 -0.6409
 8036SOL     OW35743   2.253   0.708   8.839  0.0167  0.1720  0.3474
 8036SOL    HW135744   2.165   0.728   8.870  1.4089  3.6278  2.0578
 8036SOL    HW235745   2.243   0.643   8.769 -0.3033 -0.4945  1.0109
 8037SOL     OW35746   1.203   4.211   8.240  0.7765 -0.1192 -0.0273
 8037SOL    HW135747   1.119   4.217   8.287  0.9355 -1.6310  0.4388
 8037SOL    HW235748   1.255   4.276   8.287  2.6089 -1.1358 -0.6698
 8038SOL     OW35749   4.095   1.854   2.717 -0.6360  0.2897 -0.3044
 8038SOL    HW135750   4.116   1.947   2.710  0.8137  0.0562  1.0491
 8038SOL    HW235751   4.067   1.830   2.628 -2.5034 -1.3178  0.7107
 8039SOL     OW35752   3.764   1.283   1.185  0.8531  0.0514  0.1768
 8039SOL    HW135753   3.694   1.313   1.128  1.8269 -0.9842 -1.5754
 8039SOL    HW235754   3.746   1.190   1.179  1.5050 -0.0134 -0.9674
 8040SOL     OW35755   1.267   3.022   6.650 -0.4740 -0.1455 -0.5199
 8040SOL    HW135756   1.279   3.104   6.697 -0.2909 -0.7140  0.4172
 8040SOL    HW235757   1.351   2.981   6.671 -1.6002 -0.5554  3.2881
 8041SOL     OW35758   3.240   3.198  15.330 -0.3949 -0.6770 -0.1204
 8041SOL    HW135759   3.196   3.163  15.407  0.9277 -0.8168  0.5672
 8041SOL    HW235760   3.276   3.124  15.281  0.0917 -0.7218  0.3083
 8042SOL     OW35761   2.871   4.125  14.812 -0.1788 -0.1693  0.5550
 8042SOL    HW135762   2.853   4.142  14.719  2.9375 -0.0581 -0.0244
 8042SOL    HW235763   2.801   4.062  14.826  0.6313 -1.3744 -0.7904
 8043SOL     OW35764   3.282   3.205   2.426 -0.1150  0.1298  0.1337
 8043SOL    HW135765   3.308   3.127   2.377  0.5985 -0.4599  1.4632
 8043SOL    HW235766   3.254   3.259   2.351 -1.0379  0.2566  0.5696
 8044SOL     OW35767   1.415   4.712  11.718  0.2891 -0.0955  0.7891
 8044SOL    HW135768   1.450   0.065  11.719  1.2102 -0.4519 -0.0472
 8044SOL    HW235769   1.495   4.661  11.703  0.0278  0.0171 -0.9330
 8045SOL     OW35770   4.557   4.640   2.584 -0.4040  0.4970  0.4572
 8045SOL    HW135771   4.567   4.724   2.628  0.3514 -0.2535  1.7183
 8045SOL    HW235772   4.593   4.651   2.496  0.7823 -1.3199  0.7144
 8046SOL     OW35773   2.666   4.730   8.900 -0.6148 -0.4121 -0.9542
 8046SOL    HW135774   2.661   4.665   8.830  2.4298 -0.0623 -1.4894
 8046SOL    HW235775   2.572   4.732   8.919 -0.7999  1.4750 -2.0768
 8047SOL     OW35776   2.378   3.826   7.711 -0.0765  0.0701 -0.0055
 8047SOL    HW135777   2.471   3.805   7.717 -0.3447 -0.9116  0.8157
 8047SOL    HW235778   2.339   3.742   7.685 -0.5769  1.3751 -3.3415
 8048SOL     OW35779   1.495   4.446   7.944 -0.6620  0.1914 -0.2666
 8048SOL    HW135780   1.464   4.364   7.983  3.7851 -0.2395  2.2670
 8048SOL    HW235781   1.519   4.493   8.024  0.2142 -0.6534 -0.0386
 8049SOL     OW35782   3.860   4.703   8.680 -0.3975 -0.4990 -0.1961
 8049SOL    HW135783   3.799   0.013   8.622  0.4314  0.2636 -0.4583
 8049SOL    HW235784   3.833   0.007   8.763  0.8131  0.8678 -0.4734
 8050SOL     OW35785   2.678   3.999   5.556 -0.8579 -0.6647 -0.4310
 8050SOL    HW135786   2.677   4.031   5.466 -0.4267 -0.8885 -0.5132
 8050SOL    HW235787   2.614   3.929   5.568  0.7238 -1.9648  0.4544
 8051SOL     OW35788   0.248   3.981   9.918 -0.2723  0.4823 -0.1638
 8051SOL    HW135789   0.167   3.963   9.870  0.3031 -0.9606 -0.5966
 8051SOL    HW235790   0.259   3.891   9.950  0.7465  0.8575  0.5090
 8052SOL     OW35791   4.731   4.285   3.345 -0.1863  0.3460 -0.1003
 8052SOL    HW135792   0.045   4.206   3.365 -0.1193 -0.1106 -2.1134
 8052SOL    HW235793   4.664   4.263   3.411  0.2053 -0.2060  0.1170
 8053SOL     OW35794   3.452   0.669   5.670  0.1837  0.0583 -0.0015
 8053SOL    HW135795   3.488   0.628   5.591 -1.4424  1.3772 -1.4307
 8053SOL    HW235796   3.516   0.737   5.687 -0.4853  0.8692 -0.7041
 8054SOL     OW35797   0.768   1.443   5.307 -0.5711 -0.3177  0.3599
 8054SOL    HW135798   0.685   1.487   5.286 -0.1510  0.4308  0.2559
 8054SOL    HW235799   0.778   1.454   5.402  0.5713 -0.3586  0.2374
 8055SOL     OW35800   3.834   2.137   5.790 -0.2445  0.6482  0.2109
 8055SOL    HW135801   3.905   2.144   5.725 -1.7542 -1.6067 -1.6749
 8055SOL    HW235802   3.883   2.097   5.861 -1.7030 -0.9553  0.2931
 8056SOL     OW35803   3.654   3.406   0.229  0.2421  0.1227  0.4948
 8056SOL    HW135804   3.623   3.440   0.145  0.6928 -1.1864 -0.2121
 8056SOL    HW235805   3.724   3.469   0.244  0.0773  0.1757  1.0359
 8057SOL     OW35806   0.104   1.030   4.849 -0.7595  0.0937  0.3512
 8057SOL    HW135807   0.118   0.942   4.882 -1.3084 -0.6013 -1.2567
 8057SOL    HW235808   0.008   1.029   4.860 -0.7578 -1.2938  0.2459
 8058SOL     OW35809   1.559   0.028  13.004 -0.2362 -0.1136  0.2394
 8058SOL    HW135810   1.602   4.681  12.985 -0.3019  0.8308 -4.0197
 8058SOL    HW235811   1.467   0.004  13.018 -1.0208  2.4817 -0.4431
 8059SOL     OW35812   1.910   1.934   2.903  0.5741 -0.2039  0.4900
 8059SOL    HW135813   1.945   1.988   2.974 -1.5464  0.1074  1.3081
 8059SOL    HW235814   1.957   1.852   2.917 -0.5275 -0.8651  0.2311
 8060SOL     OW35815   3.938   3.681  16.033  0.4966 -0.1200 -0.2181
 8060SOL    HW135816   3.890   3.658  15.953  0.5639  0.9541 -0.5675
 8060SOL    HW235817   3.875   3.739  16.074  0.2737 -0.5543  0.0526
 8061SOL     OW35818   0.060   1.730  16.499 -0.1912 -0.4002  0.0031
 8061SOL    HW135819   0.135   1.788  16.490 -3.2274  3.4005 -0.7125
 8061SOL    HW235820   0.052   1.721  16.594  0.2201 -0.0419  0.0674
 8062SOL     OW35821   2.016   2.782   9.635 -0.0106  0.1856 -0.4493
 8062SOL    HW135822   2.028   2.862   9.585 -0.4506 -0.3270 -1.3854
 8062SOL    HW235823   2.103   2.747   9.617 -0.0009  0.4765 -0.9694
 8063SOL     OW35824   1.900   2.354   1.937  0.2870  0.4085 -0.4976
 8063SOL    HW135825   1.957   2.429   1.951 -0.6597  0.7413  1.6992
 8063SOL    HW235826   1.871   2.371   1.848 -0.2548 -0.5398 -0.4984
 8064SOL     OW35827   0.661   1.196   2.039  0.3160 -0.2623 -0.0290
 8064SOL    HW135828   0.713   1.194   2.120 -0.7769  2.9896  0.7489
 8064SOL    HW235829   0.619   1.110   2.033  0.5431 -0.3082 -0.9533
 8065SOL     OW35830   3.160   2.683   6.883  0.6875  0.9266  0.1074
 8065SOL    HW135831   3.154   2.766   6.929 -3.3132 -0.8262  2.7174
 8065SOL    HW235832   3.174   2.708   6.791 -1.1980  1.0154 -0.1722
 8066SOL     OW35833   1.549   4.720  10.274 -0.4736  0.1189  0.5476
 8066SOL    HW135834   1.582   0.065  10.314 -0.2425  0.2189  0.1488
 8066SOL    HW235835   1.622   4.689  10.221  0.1012  0.8058  0.9224
 8067SOL     OW35836   3.402   4.729   3.799  0.0339  0.4047 -0.1998
 8067SOL    HW135837   3.325   0.016   3.852 -0.3047  2.9856 -1.8038
 8067SOL    HW235838   3.454   4.682   3.864  0.7023  0.2187 -0.8714
 8068SOL     OW35839   0.415   2.440   7.360 -0.2538 -0.2617  0.6976
 8068SOL    HW135840   0.483   2.506   7.349 -1.7793  1.1725 -0.0992
 8068SOL    HW235841   0.370   2.472   7.437 -0.2060 -0.9746  1.0230
 8069SOL     OW35842   3.304   2.666   6.067 -0.2277  0.7857  0.2956
 8069SOL    HW135843   3.389   2.700   6.038  0.6158 -0.5859  1.1223
 8069SOL    HW235844   3.347   2.600   6.122 -4.0691 -1.0689  1.0889
 8070SOL     OW35845   0.410   2.747   4.921  0.3140  0.1243  0.0861
 8070SOL    HW135846   0.397   2.710   5.008 -3.2832 -0.9527 -0.9293
 8070SOL    HW235847   0.383   2.674   4.865 -2.5129  0.1395  1.4609
 8071SOL     OW35848   1.908   4.419   6.107 -0.0837  0.2969 -0.0522
 8071SOL    HW135849   1.907   4.350   6.041 -2.1343 -0.8699  1.1925
 8071SOL    HW235850   1.939   4.372   6.184 -1.3774  0.1277  0.3635
 8072SOL     OW35851   4.503   2.596   8.429  0.0346 -0.0742 -0.1982
 8072SOL    HW135852   4.437   2.529   8.449  1.1774 -1.0795  0.2355
 8072SOL    HW235853   4.438   2.662   8.406  0.4454  0.7752  1.1075
 8073SOL     OW35854   1.677   1.749   6.813 -0.1416  0.3523  0.4502
 8073SOL    HW135855   1.617   1.821   6.830  0.5277  1.1219 -0.4514
 8073SOL    HW235856   1.765   1.783   6.828  0.7236 -0.7320 -2.1038
 8074SOL     OW35857   3.426   4.120   4.293  0.7250  0.0595  0.3950
 8074SOL    HW135858   3.415   4.176   4.216 -1.2479  1.1911  1.4995
 8074SOL    HW235859   3.335   4.114   4.320 -0.1701 -0.2296 -2.6721
 8075SOL     OW35860   3.218   0.119   1.824  0.5971  0.0764  0.4429
 8075SOL    HW135861   3.174   0.156   1.747  1.2954  0.7773  0.3757
 8075SOL    HW235862   3.253   0.203   1.856  1.8877 -0.3999  0.2703
 8076SOL     OW35863   0.695   3.180   4.445  0.1163  0.0359  0.3055
 8076SOL    HW135864   0.711   3.125   4.522 -2.1720 -0.7169  0.2386
 8076SOL    HW235865   0.705   3.265   4.489  1.6325 -0.5224  1.0319
 8077SOL     OW35866   4.513   2.456  16.843 -0.5626 -0.6818  0.4766
 8077SOL    HW135867   4.457   2.386  16.810 -1.1024  0.5246 -1.2417
 8077SOL    HW235868   4.474   2.478  16.927  1.6587 -0.7891  1.5407
 8078SOL     OW35869   0.511   3.230   4.976 -0.0855  0.5704  0.0123
 8078SOL    HW135870   0.476   3.145   4.949  0.3030 -0.1034  1.6474
 8078SOL    HW235871   0.602   3.222   4.950 -0.9200 -0.4732 -2.6355
 8079SOL     OW35872   3.332   0.829   0.796 -0.0195  0.3287 -0.4351
 8079SOL    HW135873   3.347   0.912   0.750 -0.9862  0.9276  0.3008
 8079SOL    HW235874   3.387   0.843   0.873 -0.5465  3.4628 -0.5986
 8080SOL     OW35875   4.650   1.779   8.864  0.2412  0.0800 -0.7256
 8080SOL    HW135876   4.706   1.746   8.794  0.0241  1.6212 -1.6245
 8080SOL    HW235877   4.657   1.700   8.918 -0.9245  1.7291  1.8123
 8081SOL     OW35878   3.693   4.372   5.144  0.3182  0.0713 -0.5648
 8081SOL    HW135879   3.739   4.418   5.075  0.1994  0.2360 -0.5347
 8081SOL    HW235880   3.758   4.374   5.214  0.5456 -3.7841 -0.6870
 8082SOL     OW35881   4.086   2.205   2.135  0.6788  0.2221 -0.1685
 8082SOL    HW135882   4.079   2.298   2.157 -3.4997 -0.4232  1.3173
 8082SOL    HW235883   4.009   2.190   2.080  1.1802  2.0197 -1.3777
 8083SOL     OW35884   2.233   2.340   2.336 -0.1486  0.3857 -0.1282
 8083SOL    HW135885   2.243   2.435   2.332  1.5298  0.2645  1.0685
 8083SOL    HW235886   2.275   2.319   2.253  0.6485  1.2468  0.0541
 8084SOL     OW35887   2.873   2.808  10.099 -0.6152  0.1793  0.1371
 8084SOL    HW135888   2.780   2.803  10.121 -0.3177 -1.2894  1.0549
 8084SOL    HW235889   2.876   2.725  10.050  0.9364  0.4868 -0.2860
 8085SOL     OW35890   4.285   4.499   7.395 -0.3377 -0.2198 -0.0646
 8085SOL    HW135891   4.284   4.587   7.357  1.2651  0.6141  1.8296
 8085SOL    HW235892   4.370   4.502   7.438 -0.8096 -3.2091  1.0506
 8086SOL     OW35893   2.557   0.357   7.546  0.2834 -0.2370  0.5174
 8086SOL    HW135894   2.611   0.363   7.625 -0.4005 -0.2312  0.9760
 8086SOL    HW235895   2.534   0.264   7.541 -0.4611 -0.0068 -0.3643
 8087SOL     OW35896   1.797   4.728  16.624 -0.2620 -0.0484 -0.2827
 8087SOL    HW135897   1.753   4.650  16.659 -0.6658 -0.1048 -0.9087
 8087SOL    HW235898   1.784   0.061  16.689 -0.6509 -0.4143  0.0305
 8088SOL     OW35899   3.911   4.367   6.455 -0.0592  0.5053 -0.2395
 8088SOL    HW135900   3.988   4.421   6.435 -0.2366  0.2498 -1.5863
 8088SOL    HW235901   3.887   4.389   6.545  1.4839  2.2673 -0.2579
 8089SOL     OW35902   3.717   3.364   2.598 -0.5488 -0.3983 -0.1772
 8089SOL    HW135903   3.669   3.324   2.670 -3.5191  2.2892 -0.6583
 8089SOL    HW235904   3.644   3.407   2.553  0.2158 -0.4449 -1.4462
 8090SOL     OW35905   3.129   0.243   4.917  0.0661  0.1006  0.0195
 8090SOL    HW135906   3.130   0.330   4.957 -3.3060  0.9852 -1.8199
 8090SOL    HW235907   3.205   0.242   4.858  0.0940  1.2283  0.0439
 8091SOL     OW35908   0.655   0.485  11.830  0.1045  0.1333 -0.4262
 8091SOL    HW135909   0.672   0.558  11.770 -0.6628  0.8743  0.2816
 8091SOL    HW235910   0.665   0.528  11.914  0.4695 -0.7514 -0.0155
 8092SOL     OW35911   4.324   4.041   2.253  0.3678  0.2785  0.5001
 8092SOL    HW135912   4.379   4.052   2.331  2.8452 -0.8643 -1.0506
 8092SOL    HW235913   4.235   4.048   2.287 -0.1136  1.0354 -0.9228
 8093SOL     OW35914   2.356   0.698  15.032 -0.1302 -0.0389  0.2735
 8093SOL    HW135915   2.426   0.723  14.972  0.9896 -2.6101  0.4953
 8093SOL    HW235916   2.391   0.705  15.120  2.3499 -0.0475 -0.7160
 8094SOL     OW35917   3.302   2.485  14.419 -0.5245  0.1580 -0.0941
 8094SOL    HW135918   3.301   2.393  14.394  0.3370  0.1443 -0.0772
 8094SOL    HW235919   3.376   2.526  14.374 -0.9486  0.6480 -0.3424
 8095SOL     OW35920   1.209   3.955  17.129 -0.0912  0.0838  0.4075
 8095SOL    HW135921   1.204   4.043  17.165 -0.6999  0.1808  0.0845
 8095SOL    HW235922   1.302   3.955  17.105 -0.3699 -0.2490 -0.6812
 8096SOL     OW35923   1.999   0.772   8.898 -0.1704  0.4921 -0.3270
 8096SOL    HW135924   1.918   0.777   8.949 -0.9777  1.1684 -1.6862
 8096SOL    HW235925   2.003   0.844   8.835  0.2033 -1.2324 -2.2399
 8097SOL     OW35926   1.102   4.618   3.877  0.3651  0.8380 -0.2089
 8097SOL    HW135927   1.032   4.569   3.920  0.2797 -0.2109 -1.5297
 8097SOL    HW235928   1.064   4.702   3.852  0.3251  2.1849  4.4024
 8098SOL     OW35929   1.937   0.823   7.581 -0.0669 -0.0187 -0.0814
 8098SOL    HW135930   2.031   0.806   7.576 -0.3776 -1.2784 -1.6085
 8098SOL    HW235931   1.933   0.913   7.548 -0.7801 -0.5495 -1.4685
 8099SOL     OW35932   0.580   4.304   4.729 -0.4780 -0.4560 -0.3840
 8099SOL    HW135933   0.656   4.264   4.686  0.6299  1.9471 -0.6289
 8099SOL    HW235934   0.516   4.233   4.719 -0.9704 -0.4716  3.1225
 8100SOL     OW35935   3.965   0.769   9.111  0.6640  0.4382  0.0336
 8100SOL    HW135936   3.985   0.831   9.181 -1.5334 -0.4450  1.4491
 8100SOL    HW235937   3.992   0.831   9.044  2.2821 -0.4909 -0.1706
 8101SOL     OW35938   0.990   3.054  10.081  0.2107 -0.6345 -0.4572
 8101SOL    HW135939   1.015   3.050  10.174 -0.3943 -0.5412 -0.2944
 8101SOL    HW235940   1.078   3.064  10.043  1.2570  1.5838  2.5047
 8102SOL     OW35941   2.408   0.171  15.404 -0.6379 -0.5605 -0.0537
 8102SOL    HW135942   2.413   0.177  15.499  0.0318  0.1283 -0.1356
 8102SOL    HW235943   2.411   0.262  15.375 -2.6453 -1.0970 -1.9660
 8103SOL     OW35944   3.939   2.372  15.903  0.0242  0.4623 -0.1227
 8103SOL    HW135945   3.845   2.390  15.908  0.2332  2.5918 -4.1669
 8103SOL    HW235946   3.979   2.454  15.933  1.2469  0.2422 -1.1402
 8104SOL     OW35947   1.571   4.006   6.501  0.1730  0.2156 -0.5526
 8104SOL    HW135948   1.595   3.943   6.568 -0.5442  2.1614  1.5434
 8104SOL    HW235949   1.480   4.031   6.518  1.0342  2.1906  1.2152
 8105SOL     OW35950   4.196   3.802   6.507  0.2689 -0.5434  0.4139
 8105SOL    HW135951   4.216   3.848   6.426  0.8995 -0.7528  0.4484
 8105SOL    HW235952   4.214   3.874   6.568 -0.9579 -0.1963  0.3783
 8106SOL     OW35953   3.337   0.503   4.287  0.2011 -0.2912 -0.3909
 8106SOL    HW135954   3.327   0.540   4.375  1.3435  1.5165 -1.0441
 8106SOL    HW235955   3.398   0.569   4.255 -3.2540  2.8300 -0.4778
 8107SOL     OW35956   2.764   3.235   7.061 -0.1033  0.1240  0.5916
 8107SOL    HW135957   2.757   3.293   7.137  1.4661 -1.3184  1.8465
 8107SOL    HW235958   2.720   3.152   7.082 -1.7674  0.8018 -0.2506
 8108SOL     OW35959   2.579   1.309  14.502  0.2378 -0.0256 -0.7689
 8108SOL    HW135960   2.668   1.276  14.508  0.7392  1.6726  1.2797
 8108SOL    HW235961   2.545   1.250  14.569  0.7673  0.4338 -0.0968
 8109SOL     OW35962   3.134   1.434   4.771  0.3002  0.1306 -0.6507
 8109SOL    HW135963   3.059   1.486   4.744 -0.5079 -0.6509  0.0996
 8109SOL    HW235964   3.175   1.416   4.687 -1.5806 -1.1350 -1.2954
 8110SOL     OW35965   2.213   1.216   1.321  0.1234 -0.3757  0.1555
 8110SOL    HW135966   2.271   1.150   1.282  0.9069  1.0976 -1.2000
 8110SOL    HW235967   2.153   1.164   1.373  1.6677 -0.6192  1.6930
 8111SOL     OW35968   1.024   2.893   4.651 -0.2096  0.2276 -0.3054
 8111SOL    HW135969   1.006   2.837   4.727 -3.7774  0.1019 -1.2503
 8111SOL    HW235970   0.941   2.940   4.643 -0.3451 -0.2452 -1.7627
 8112SOL     OW35971   0.341   1.834   7.522 -0.3637 -0.0752  0.0291
 8112SOL    HW135972   0.304   1.918   7.495  0.4241  0.3368  0.2354
 8112SOL    HW235973   0.265   1.778   7.505  1.1467 -1.5207 -1.9849
 8113SOL     OW35974   1.867   1.787   1.258 -0.0076 -0.0000 -0.0575
 8113SOL    HW135975   1.788   1.754   1.214 -0.0022  0.9479 -0.7751
 8113SOL    HW235976   1.918   1.787   1.177  0.0428 -0.0278 -0.0257
 8114SOL     OW35977   2.073   3.229   6.435 -0.2003  0.1701 -0.7608
 8114SOL    HW135978   2.156   3.275   6.426 -0.3775  1.0956  2.1793
 8114SOL    HW235979   2.099   3.178   6.511 -0.6131  1.7586  0.4554
 8115SOL     OW35980   3.379   2.679  17.154 -0.6304  0.1799  0.2474
 8115SOL    HW135981   3.334   2.713  17.077  0.2880  0.3965 -0.1991
 8115SOL    HW235982   3.465   2.660  17.115 -0.9954 -1.5644  0.2857
 8116SOL     OW35983   3.198   4.474  15.828  0.5955  0.1966  0.0166
 8116SOL    HW135984   3.229   4.537  15.893 -0.0701  0.3466  0.1948
 8116SOL    HW235985   3.258   4.488  15.755  0.8297 -2.6882 -0.3442
 8117SOL     OW35986   2.886   1.067  14.819  0.6496 -0.1268  0.2350
 8117SOL    HW135987   2.900   1.117  14.899  1.4671  0.6978 -0.4329
 8117SOL    HW235988   2.879   0.977  14.851  3.1305  0.6234  2.8461
 8118SOL     OW35989   1.369   0.355  16.901  0.1797  0.0042 -1.0976
 8118SOL    HW135990   1.368   0.365  16.997  1.0638  0.4411 -1.1385
 8118SOL    HW235991   1.384   0.447  16.879 -0.0225  0.3458  0.1409
 8119SOL     OW35992   1.865   1.401   1.277 -0.1560 -0.9038 -0.4860
 8119SOL    HW135993   1.805   1.472   1.253 -2.3966 -2.3912  0.7464
 8119SOL    HW235994   1.852   1.397   1.372  1.7537  1.3323 -0.1489
 8120SOL     OW35995   0.490   1.207   7.618 -0.4046 -0.1086 -0.1477
 8120SOL    HW135996   0.449   1.239   7.538  1.4047  0.3184 -0.8976
 8120SOL    HW235997   0.483   1.113   7.603 -1.4397  0.0237 -0.4866
 8121SOL     OW35998   0.492   3.811   2.424  0.3913  0.3998  0.6234
 8121SOL    HW135999   0.403   3.821   2.391  0.1393 -0.1262  1.1582
 8121SOL    HW236000   0.476   3.749   2.495  2.8122  0.1195  0.9225
 8122SOL     OW36001   3.411   3.327  11.981 -0.3836  0.5273  0.1559
 8122SOL    HW136002   3.396   3.257  11.917  2.7991  0.3137 -0.3706
 8122SOL    HW236003   3.494   3.311  12.025  0.9085  5.7869 -0.4815
 8123SOL     OW36004   0.364   2.104   5.450  0.1943 -0.3238 -0.1473
 8123SOL    HW136005   0.373   2.053   5.531 -0.5607  3.5997  2.3595
 8123SOL    HW236006   0.442   2.158   5.456 -0.6775  0.8752  0.3251
 8124SOL     OW36007   2.136   1.129   5.588  0.4124  0.1818 -0.0056
 8124SOL    HW136008   2.055   1.156   5.632  0.7669  0.2136  0.6237
 8124SOL    HW236009   2.156   1.064   5.655 -1.5505 -1.4068 -0.9733
 8125SOL     OW36010   1.127   3.708   3.900  0.0140  0.0995 -1.0503
 8125SOL    HW136011   1.204   3.655   3.920  0.4140  1.2030  0.3416
 8125SOL    HW236012   1.109   3.733   3.990 -0.0953 -1.6286 -0.6046
 8126SOL     OW36013   3.376   2.916   9.622  0.3882  0.9309 -0.5459
 8126SOL    HW136014   3.357   2.825   9.643 -3.5589  2.0146  0.6208
 8126SOL    HW236015   3.470   2.907   9.640  0.1939  1.5693  0.7971
 8127SOL     OW36016   4.361   3.669   7.068  0.4428  0.2722 -0.1027
 8127SOL    HW136017   4.393   3.657   6.978  1.2296  0.3501  0.1700
 8127SOL    HW236018   4.284   3.725   7.054  0.1651  0.3278  1.7010
 8128SOL     OW36019   2.759   1.675   5.299 -0.3237  0.2454  0.4841
 8128SOL    HW136020   2.841   1.720   5.315  0.2428 -0.6289  0.0574
 8128SOL    HW236021   2.774   1.627   5.218 -3.0650  1.5850 -0.8159
 8129SOL     OW36022   3.339   3.191   3.146 -0.4759 -0.3715  0.0802
 8129SOL    HW136023   3.426   3.169   3.113 -0.0053  0.6334  0.6463
 8129SOL    HW236024   3.324   3.128   3.216  2.8473 -0.2996  0.8148
 8130SOL     OW36025   1.721   0.248   8.473  0.3202 -0.4021  0.0812
 8130SOL    HW136026   1.693   0.269   8.562 -0.4352  0.1420 -0.2843
 8130SOL    HW236027   1.665   0.306   8.421  0.1335 -2.5290 -2.1122
 8131SOL     OW36028   2.511   0.496   6.344 -0.1311 -0.7780  0.0343
 8131SOL    HW136029   2.512   0.431   6.414  0.5390  0.2444  0.9767
 8131SOL    HW236030   2.604   0.518   6.346 -0.0292 -1.3374  1.3061
 8132SOL     OW36031   4.635   2.966   7.614  0.5429 -0.0116  0.1129
 8132SOL    HW136032   4.710   2.927   7.569 -0.2271 -1.9568  0.4854
 8132SOL    HW236033   4.572   2.926   7.554  1.4755 -1.4875  0.1054
 8133SOL     OW36034   3.197   0.646   1.184 -0.2367 -0.0415  0.6766
 8133SOL    HW136035   3.279   0.688   1.158 -0.0263 -2.0152 -1.8601
 8133SOL    HW236036   3.200   0.658   1.279  2.6340  0.1909  0.5395
 8134SOL     OW36037   2.776   3.048  12.169  0.5699  0.0977 -0.5130
 8134SOL    HW136038   2.850   3.088  12.215  2.4320 -1.9393 -1.7569
 8134SOL    HW236039   2.766   3.119  12.106 -0.7272  1.8319  1.6389
 8135SOL     OW36040   2.619   2.468   3.077 -0.1547 -0.3353  0.0446
 8135SOL    HW136041   2.691   2.485   3.137 -0.5920  1.9929 -0.1099
 8135SOL    HW236042   2.581   2.392   3.121  1.8307  0.2749  2.7522
 8136SOL     OW36043   1.297   4.098   0.545  0.3279  0.5015  0.1767
 8136SOL    HW136044   1.333   4.186   0.547  0.5215  0.3924  1.5179
 8136SOL    HW236045   1.246   4.105   0.626  0.5626 -3.1288  0.6435
 8137SOL     OW36046   2.199   4.730  15.342 -0.0954 -0.1313  0.3854
 8137SOL    HW136047   2.133   0.048  15.298  1.5445  0.4501 -1.3378
 8137SOL    HW236048   2.267   0.056  15.367 -0.6379  0.9165 -0.7207
 8138SOL     OW36049   3.930   3.152   2.963  0.0462 -0.6342 -0.0471
 8138SOL    HW136050   4.026   3.144   2.968  0.3356  2.3194 -0.9457
 8138SOL    HW236051   3.907   3.184   3.050 -1.1984  0.8399 -0.9445
 8139SOL     OW36052   0.650   4.636   4.689 -0.0736 -0.5283  0.0004
 8139SOL    HW136053   0.632   4.606   4.778 -0.9941  1.8704  0.6289
 8139SOL    HW236054   0.739   4.670   4.700  0.8432 -2.3233 -1.8302
 8140SOL     OW36055   2.102   1.847  10.035  0.4321 -0.0168  0.3054
 8140SOL    HW136056   2.187   1.806  10.017  0.4519 -0.1852  0.7843
 8140SOL    HW236057   2.103   1.905   9.959  1.0199  1.4656  1.4550
 8141SOL     OW36058   4.186   1.254   4.221 -0.5812 -0.4089 -0.5533
 8141SOL    HW136059   4.214   1.334   4.177 -0.3916 -0.2743 -0.1926
 8141SOL    HW236060   4.233   1.190   4.168 -2.2603 -0.5627 -1.8597
 8142SOL     OW36061   2.080   2.614   7.415  0.0155 -1.0144  0.2298
 8142SOL    HW136062   1.993   2.617   7.377  0.4764 -0.4555 -0.7675
 8142SOL    HW236063   2.095   2.522   7.435 -0.7855 -1.1276  0.2796
 8143SOL     OW36064   2.766   0.886  12.082  0.2287  0.0629 -0.4340
 8143SOL    HW136065   2.686   0.936  12.097  0.8213  1.1325 -0.8211
 8143SOL    HW236066   2.820   0.954  12.042  0.8358 -0.4065 -0.4067
 8144SOL     OW36067   0.563   3.631   5.213 -0.3005 -0.5609  0.4782
 8144SOL    HW136068   0.485   3.669   5.173 -0.1143 -1.0714 -0.3586
 8144SOL    HW236069   0.563   3.661   5.304 -0.8535  0.3039  0.1947
 8145SOL     OW36070   4.127   3.163  11.618  0.3804  0.3308  0.5010
 8145SOL    HW136071   4.148   3.223  11.689  0.9156  1.4203 -0.5658
 8145SOL    HW236072   4.192   3.193  11.554 -0.1818 -2.1845 -1.2571
 8146SOL     OW36073   0.296   3.189   0.301 -0.3337 -0.1535 -0.0774
 8146SOL    HW136074   0.362   3.123   0.279 -0.0989 -0.1955  0.7727
 8146SOL    HW236075   0.286   3.225   0.213 -0.0105 -0.5475 -0.2768
 8147SOL     OW36076   1.980   4.731   2.520 -0.3835  0.3247  0.3698
 8147SOL    HW136077   2.075   0.010   2.526  0.0087 -2.3929  0.6609
 8147SOL    HW236078   1.977   4.643   2.484  1.1010  0.3125  0.2637
 8148SOL     OW36079   3.868   1.826   2.174  0.0290  0.2740 -0.5505
 8148SOL    HW136080   3.792   1.881   2.193 -0.3609  0.0734 -1.5325
 8148SOL    HW236081   3.929   1.874   2.230 -0.1548 -0.6562  0.4552
 8149SOL     OW36082   1.006   0.954   2.379  0.0648 -0.4098  0.0858
 8149SOL    HW136083   1.067   0.902   2.432  1.2436  1.8011  0.8649
 8149SOL    HW236084   1.065   0.993   2.315  0.3929 -0.4399  0.3694
 8150SOL     OW36085   4.208   3.351   6.856  0.1082  0.2383  0.4207
 8150SOL    HW136086   4.219   3.419   6.922  1.1387  0.7719 -0.2954
 8150SOL    HW236087   4.189   3.407   6.781  0.4040 -0.6559 -0.3368
 8151SOL     OW36088   0.004   3.762   5.424 -0.4752 -0.4522 -0.2735
 8151SOL    HW136089   4.657   3.805   5.443 -0.3464 -1.1481  1.7862
 8151SOL    HW236090   4.732   3.740   5.331 -1.3564 -0.0182 -0.3011
 8152SOL     OW36091   3.501   0.660   2.580  0.3180 -0.2641  0.0081
 8152SOL    HW136092   3.580   0.714   2.587  0.9680 -0.9854 -1.9168
 8152SOL    HW236093   3.461   0.659   2.667  1.1330 -0.5691  0.3802
 8153SOL     OW36094   3.700   4.496  10.359 -0.4599 -0.2081  0.1460
 8153SOL    HW136095   3.741   4.468  10.442 -1.7463  4.0113  2.2044
 8153SOL    HW236096   3.689   4.410  10.320  0.4229 -0.9295  1.4856
 8154SOL     OW36097   1.541   4.157   5.501 -0.1493 -0.4693  0.0802
 8154SOL    HW136098   1.581   4.243   5.502  0.4058 -0.7253 -1.0610
 8154SOL    HW236099   1.610   4.090   5.506 -2.0977 -2.4057  1.2194
 8155SOL     OW36100   2.002   3.893   6.537 -1.2127 -0.1451  1.1286
 8155SOL    HW136101   2.067   3.951   6.576 -2.1143 -0.1258  2.6067
 8155SOL    HW236102   2.029   3.811   6.578  0.1508 -0.2732 -0.0042
 8156SOL     OW36103   4.692   1.537   3.846  0.2170 -0.1490  0.3147
 8156SOL    HW136104   4.729   1.604   3.789 -0.0119  0.4516  0.8685
 8156SOL    HW236105   0.042   1.501   3.868 -0.0784 -0.9783  0.0950
 8157SOL     OW36106   3.056   1.544  12.683 -0.6275  0.1815 -0.0346
 8157SOL    HW136107   3.021   1.469  12.635  0.0945  0.5020 -1.0444
 8157SOL    HW236108   3.138   1.503  12.712 -0.0131  1.8807  0.6376
 8158SOL     OW36109   2.598   1.758  13.654 -0.1404  0.1152  0.0019
 8158SOL    HW136110   2.625   1.843  13.620  1.0245 -1.1099 -2.0759
 8158SOL    HW236111   2.612   1.766  13.749  2.5128 -1.5693 -0.2564
 8159SOL     OW36112   2.339   0.710   6.983  0.2617  0.2260  0.0259
 8159SOL    HW136113   2.329   0.660   7.064  0.6939 -0.7477 -0.5198
 8159SOL    HW236114   2.256   0.756   6.974  0.6601  0.0888 -4.4951
 8160SOL     OW36115   1.795   0.637   7.416 -0.0319  0.0486 -0.2230
 8160SOL    HW136116   1.812   0.549   7.449 -0.4886  0.0205 -0.0719
 8160SOL    HW236117   1.841   0.685   7.484  0.0850  2.4039 -1.9544
 8161SOL     OW36118   3.135   1.461  16.791  0.3283 -0.3136  0.8264
 8161SOL    HW136119   3.168   1.383  16.834  0.6431 -0.2072  0.7767
 8161SOL    HW236120   3.097   1.421  16.713 -1.0004  1.3984  0.5848
 8162SOL     OW36121   0.074   0.081   2.131 -0.2135 -0.3450  0.0574
 8162SOL    HW136122   0.057   0.168   2.093 -1.3249  0.2175  1.8275
 8162SOL    HW236123   0.034   0.021   2.068 -1.2802  0.9591 -0.5217
 8163SOL     OW36124   2.171   4.602  16.523 -0.1912  0.1124  0.0041
 8163SOL    HW136125   2.246   4.601  16.583 -0.3213  0.2379  0.1667
 8163SOL    HW236126   2.143   4.693  16.533 -2.2763 -0.5278 -0.0040
 8164SOL     OW36127   0.392   1.585   2.816  0.4666  0.1155  0.6596
 8164SOL    HW136128   0.436   1.622   2.739 -2.0093  0.1950 -0.7290
 8164SOL    HW236129   0.331   1.658   2.827 -2.5017 -2.5118  1.4151
 8165SOL     OW36130   1.430   1.918   1.214  0.2055  0.1899 -0.4876
 8165SOL    HW136131   1.346   1.954   1.239 -0.0388  0.7591 -2.0796
 8165SOL    HW236132   1.434   1.827   1.241  0.7815  0.1147 -0.8063
 8166SOL     OW36133   2.248   0.818  14.665 -0.1132  0.4110 -0.0875
 8166SOL    HW136134   2.313   0.748  14.665 -3.1336 -2.4029  1.1325
 8166SOL    HW236135   2.300   0.882  14.713 -0.7724  1.2646 -0.4949
 8167SOL     OW36136   2.593   2.252  14.984 -0.0824  0.6921  0.5922
 8167SOL    HW136137   2.643   2.333  14.976  2.7318 -1.2197 -1.5958
 8167SOL    HW236138   2.674   2.203  15.004  0.7188  1.3836 -0.9393
 8168SOL     OW36139   1.553   3.427   5.463 -0.4040  0.0314  0.1110
 8168SOL    HW136140   1.484   3.366   5.489 -0.7264 -0.3239 -1.5627
 8168SOL    HW236141   1.629   3.374   5.486 -0.7008 -0.1109  0.7760
 8169SOL     OW36142   4.382   1.379   2.740  0.3506 -0.4596  0.0171
 8169SOL    HW136143   4.297   1.417   2.718 -0.3638 -0.5755  2.5513
 8169SOL    HW236144   4.439   1.452   2.717  1.9578 -1.2263  1.5271
 8170SOL     OW36145   1.340   0.082  16.899 -0.1885  0.3896 -0.3945
 8170SOL    HW136146   1.248   0.089  16.926 -0.1686 -0.9006  0.0088
 8170SOL    HW236147   1.363   0.175  16.902  1.8732 -0.0355 -2.5310
 8171SOL     OW36148   1.722   1.458  15.641 -0.3902 -0.0189  0.3274
 8171SOL    HW136149   1.775   1.538  15.649 -1.8126  0.9188  0.4878
 8171SOL    HW236150   1.641   1.476  15.689  0.5486  0.3843  1.7310
 8172SOL     OW36151   2.809   0.842   7.492 -0.9827  0.0749  0.6262
 8172SOL    HW136152   2.900   0.820   7.515 -0.1619 -0.3453 -3.1074
 8172SOL    HW236153   2.758   0.787   7.552 -0.4046 -0.0848  0.9822
 8173SOL     OW36154   3.886   2.861   6.468 -0.3426 -0.1258 -0.1933
 8173SOL    HW136155   3.957   2.886   6.527 -1.2196  0.3317  0.6841
 8173SOL    HW236156   3.851   2.948   6.452 -0.1725  0.1536  0.9208
 8174SOL     OW36157   4.530   4.469   3.836  0.1580 -0.3189 -0.1941
 8174SOL    HW136158   4.452   4.469   3.892  0.8151 -1.5172  0.7308
 8174SOL    HW236159   4.503   4.529   3.767  1.2658  1.2075  0.6883
 8175SOL     OW36160   1.685   3.839  10.802 -0.3036 -0.0658 -0.0416
 8175SOL    HW136161   1.598   3.842  10.843 -0.2331 -0.9599  0.1781
 8175SOL    HW236162   1.685   3.919  10.749 -0.1168  0.0632  0.1540
 8176SOL     OW36163   3.467   0.659   6.722 -0.0897 -0.1006  0.3044
 8176SOL    HW136164   3.456   0.612   6.805  0.2524 -0.5886  0.0768
 8176SOL    HW236165   3.494   0.589   6.663 -1.8623 -0.9525  0.5046
 8177SOL     OW36166   1.474   2.322   0.387  0.9626 -0.0390  0.0035
 8177SOL    HW136167   1.430   2.306   0.304 -0.6427 -0.7730  0.9938
 8177SOL    HW236168   1.401   2.315   0.448 -2.0429  1.2033 -3.4290
 8178SOL     OW36169   1.268   2.582  10.769  0.4375 -0.1181 -0.1177
 8178SOL    HW136170   1.240   2.663  10.812 -0.5016 -1.0268  0.9983
 8178SOL    HW236171   1.274   2.525  10.846 -1.7828  0.9941  0.8880
 8179SOL     OW36172   4.195   4.397  14.063 -0.8064  0.3953  0.4409
 8179SOL    HW136173   4.276   4.402  14.012  0.0224  0.5800  1.7633
 8179SOL    HW236174   4.186   4.488  14.093 -1.8699  0.3442  0.2542
 8180SOL     OW36175   1.349   0.850   6.908  0.0401 -0.4876  0.1622
 8180SOL    HW136176   1.318   0.940   6.895  0.8664 -0.4087 -1.2779
 8180SOL    HW236177   1.442   0.871   6.910 -0.0172 -0.2479  0.4655
 8181SOL     OW36178   4.017   2.472   2.426 -0.1344  0.1681  0.5454
 8181SOL    HW136179   4.026   2.472   2.331  1.1838  1.4863  0.6621
 8181SOL    HW236180   4.019   2.379   2.449  1.8155 -0.1277 -0.7963
 8182SOL     OW36181   4.167   1.867   0.874 -0.2506 -0.3410 -0.1934
 8182SOL    HW136182   4.101   1.936   0.881 -0.0488 -0.3704  1.7911
 8182SOL    HW236183   4.235   1.896   0.934  1.1771 -0.5496 -1.6939
 8183SOL     OW36184   0.514   0.041   6.195  0.1338  0.4812  0.5393
 8183SOL    HW136185   0.543   0.127   6.224 -0.9770 -0.1656  3.5777
 8183SOL    HW236186   0.459   0.015   6.270  2.6234  0.0161  2.2152
 8184SOL     OW36187   1.297   0.696   7.594  0.6342  0.1412  0.4818
 8184SOL    HW136188   1.302   0.768   7.657 -2.0554  0.5795  0.2061
 8184SOL    HW236189   1.388   0.667   7.598  0.7890  0.2856 -1.6931
 8185SOL     OW36190   4.239   2.982  15.748 -0.5982  0.2314 -0.0050
 8185SOL    HW136191   4.305   2.970  15.816  1.0076  1.9592 -1.2747
 8185SOL    HW236192   4.254   2.897  15.705  0.3023 -0.0198  0.8048
 8186SOL     OW36193   4.426   2.192   4.628 -0.1583 -0.2353 -0.6737
 8186SOL    HW136194   4.371   2.205   4.705 -0.1565  0.0825 -0.7292
 8186SOL    HW236195   4.478   2.115   4.651  2.0391  1.3643 -0.2789
 8187SOL     OW36196   3.672   0.544   4.950  0.1149 -0.4871 -0.5464
 8187SOL    HW136197   3.716   0.558   5.034 -1.6415  0.8863  0.1406
 8187SOL    HW236198   3.585   0.580   4.969 -0.2945 -1.8001  0.0983
 8188SOL     OW36199   0.658   4.118   8.190 -0.5402 -0.0102  0.1163
 8188SOL    HW136200   0.648   4.206   8.154  0.9170 -0.2489 -0.8779
 8188SOL    HW236201   0.741   4.104   8.145  0.5059  2.5124  1.2950
 8189SOL     OW36202   0.313   0.157   0.834 -0.1264  0.0949  0.1670
 8189SOL    HW136203   0.350   0.078   0.874  1.5600  1.4951  1.3621
 8189SOL    HW236204   0.382   0.185   0.774 -0.3085  1.7040  0.6930
 8190SOL     OW36205   0.957   3.395   3.346 -0.1617 -0.3069 -0.1050
 8190SOL    HW136206   0.875   3.348   3.329  0.1816 -0.8550 -0.2246
 8190SOL    HW236207   0.942   3.446   3.426 -1.4266  0.2015 -0.6553
 8191SOL     OW36208   0.282   2.166   2.520 -0.1307  0.3083  0.1234
 8191SOL    HW136209   0.302   2.080   2.483 -3.0352 -1.0839  1.7792
 8191SOL    HW236210   0.340   2.170   2.596  0.8519 -1.6947 -0.5036
 8192SOL     OW36211   4.094   0.815   5.819  0.7407  0.4375  0.2763
 8192SOL    HW136212   4.119   0.903   5.789  1.9025 -0.1355 -0.4673
 8192SOL    HW236213   4.014   0.837   5.865  0.0190 -0.1664 -0.6844
 8193SOL     OW36214   0.731   3.668   4.462 -0.4949  0.0484  0.5654
 8193SOL    HW136215   0.674   3.629   4.395 -1.9459 -0.2165  1.9672
 8193SOL    HW236216   0.665   3.683   4.530 -0.3722 -1.1801  0.9428
 8194SOL     OW36217   0.353   3.383   7.960 -0.3251 -0.4258  0.3072
 8194SOL    HW136218   0.375   3.476   7.968 -1.1193 -0.3025  1.0914
 8194SOL    HW236219   0.438   3.348   7.933 -0.1099  0.1769  0.1998
 8195SOL     OW36220   2.366   0.725   6.457  0.5350 -0.0897 -0.0172
 8195SOL    HW136221   2.425   0.657   6.425  2.0264  1.5012 -0.7204
 8195SOL    HW236222   2.285   0.692   6.420 -0.0309  0.5098  0.6793
 8196SOL     OW36223   0.641   3.612   2.129 -0.0505  0.3526 -0.0360
 8196SOL    HW136224   0.598   3.697   2.137  0.7009  0.6966  0.3838
 8196SOL    HW236225   0.723   3.637   2.086 -0.2784  0.6796 -0.2817
 8197SOL     OW36226   3.627   1.854   1.504  0.7463  0.1309 -0.6635
 8197SOL    HW136227   3.552   1.888   1.553 -1.4747 -3.3473 -1.6059
 8197SOL    HW236228   3.690   1.833   1.572  0.5741  1.9177  0.0607
 8198SOL     OW36229   4.584   3.055  10.186  0.3630  0.1138  0.4153
 8198SOL    HW136230   4.582   2.967  10.150 -0.9504  0.0159  0.7390
 8198SOL    HW236231   4.675   3.084  10.187  0.3975  0.0259 -0.1686
 8199SOL     OW36232   3.081   1.355   0.617 -0.4003  0.2413 -0.4951
 8199SOL    HW136233   3.069   1.360   0.522 -0.0689  0.8152 -0.5049
 8199SOL    HW236234   3.050   1.265   0.629 -1.5812  0.7033 -0.0160
 8200SOL     OW36235   3.266   1.666   7.351  0.3039  0.7062  0.3861
 8200SOL    HW136236   3.288   1.743   7.297 -0.8290  0.2982 -0.6666
 8200SOL    HW236237   3.244   1.598   7.288  0.9635  0.2294  0.6782
 8201SOL     OW36238   0.158   2.682   1.901 -0.1788  0.0778 -0.3802
 8201SOL    HW136239   0.233   2.687   1.960  0.1028 -1.5162 -0.6221
 8201SOL    HW236240   0.096   2.727   1.959 -0.0794  0.2224 -0.3875
 8202SOL     OW36241   4.347   2.404   5.056  0.2020  0.0711 -0.7368
 8202SOL    HW136242   4.299   2.481   5.026  1.4595  1.1340 -0.0205
 8202SOL    HW236243   4.411   2.434   5.122 -1.4195  1.6258  0.1462
 8203SOL     OW36244   0.193   0.341  10.342  0.7618 -0.1162  0.7716
 8203SOL    HW136245   0.232   0.371  10.260  0.9234 -2.4430 -0.0140
 8203SOL    HW236246   0.253   0.269  10.364  2.0595  0.9915  0.8714
 8204SOL     OW36247   3.235   4.012  17.216  0.0818  0.3824 -0.4405
 8204SOL    HW136248   3.193   4.041  17.297 -1.6988  1.7472 -1.8400
 8204SOL    HW236249   3.168   3.947  17.193  1.5229 -1.3580  0.2896
 8205SOL     OW36250   1.042   3.218   6.747 -0.1797 -0.1989 -0.8599
 8205SOL    HW136251   1.094   3.170   6.682  0.9370 -0.7529  0.4572
 8205SOL    HW236252   1.038   3.166   6.827 -0.0034  0.4072 -0.4626
 8206SOL     OW36253   2.725   3.153   8.609  0.3786 -0.0886 -0.2599
 8206SOL    HW136254   2.653   3.198   8.565 -0.1341 -0.4696  0.1821
 8206SOL    HW236255   2.704   3.060   8.611 -1.6643  0.3692 -0.1989
 8207SOL     OW36256   3.346   4.493   0.003 -0.2427 -0.1780  0.2049
 8207SOL    HW136257   3.374   4.466   0.091  1.7605 -1.1539 -0.7088
 8207SOL    HW236258   3.411   4.452  17.688  0.5974  3.0303 -1.1209
 8208SOL     OW36259   3.647   0.338   6.305  0.0184 -0.0955 -0.3438
 8208SOL    HW136260   3.648   0.277   6.231  2.2896  2.5723 -2.5022
 8208SOL    HW236261   3.594   0.289   6.368 -3.8440  3.9961 -0.3915
 8209SOL     OW36262   4.683   2.743   8.615 -0.0061 -0.7126 -0.4096
 8209SOL    HW136263   4.648   2.679   8.554 -0.7076  0.0158 -0.7819
 8209SOL    HW236264   0.039   2.726   8.597  0.8038  0.3410  2.7396
 8210SOL     OW36265   4.585   1.408  14.674  0.2205  0.4578 -0.2447
 8210SOL    HW136266   4.660   1.468  14.677  1.2401 -0.8480  0.2020
 8210SOL    HW236267   4.620   1.339  14.730  0.6485 -0.3425 -1.4850
 8211SOL     OW36268   4.166   4.505   1.220 -0.0737 -0.6121  0.3474
 8211SOL    HW136269   4.072   4.501   1.204 -0.0997  0.3209  0.2742
 8211SOL    HW236270   4.206   4.527   1.136  0.8322  2.5703  1.5961
 8212SOL     OW36271   3.343   2.958   4.718  0.1928  0.0246 -0.6157
 8212SOL    HW136272   3.292   2.878   4.734 -1.1421  0.3010 -3.4309
 8212SOL    HW236273   3.409   2.954   4.787  0.5034  1.0246 -0.8640
 8213SOL     OW36274   0.477   4.259  11.154 -0.4508 -0.5322  0.4949
 8213SOL    HW136275   0.467   4.310  11.073  2.5728 -1.2103 -0.2836
 8213SOL    HW236276   0.463   4.171  11.119  3.2598 -0.4755 -1.1409
 8214SOL     OW36277   1.302   3.870   5.432 -0.2381 -0.0500  0.5415
 8214SOL    HW136278   1.359   3.819   5.491  0.8069 -1.3734 -1.6271
 8214SOL    HW236279   1.250   3.924   5.492 -1.4815  0.1955 -0.7428
 8215SOL     OW36280   3.835   2.168  16.515 -0.3857 -0.2178 -0.0295
 8215SOL    HW136281   3.791   2.129  16.440  0.5851  0.0201 -0.7159
 8215SOL    HW236282   3.776   2.241  16.535 -1.4947 -1.3429  0.8528
 8216SOL     OW36283   2.968   4.606   8.302 -0.2476 -0.6357  0.0284
 8216SOL    HW136284   3.048   4.639   8.262 -1.2537  0.6918 -0.8824
 8216SOL    HW236285   2.972   4.649   8.387  2.1044  1.1714 -0.9966
 8217SOL     OW36286   3.188   2.626   3.647 -0.7749  0.2699  0.2791
 8217SOL    HW136287   3.143   2.544   3.626  2.4978 -1.6028  0.5395
 8217SOL    HW236288   3.121   2.670   3.699  0.9356  0.9359  1.9116
 8218SOL     OW36289   4.355   3.893  15.186 -0.3585  0.1763 -0.1382
 8218SOL    HW136290   4.353   3.838  15.264  0.5037  0.9466  0.4190
 8218SOL    HW236291   4.386   3.975  15.225 -0.8256 -0.2155  1.0764
 8219SOL     OW36292   4.513   2.270   3.449 -0.1070 -0.2101 -0.0974
 8219SOL    HW136293   4.460   2.199   3.486  0.3729 -0.3863  0.2519
 8219SOL    HW236294   4.588   2.247   3.503 -0.4559  1.8884  1.2576
 8220SOL     OW36295   3.714   2.640   8.078  0.0776 -0.1351  0.4378
 8220SOL    HW136296   3.719   2.679   7.991  0.5718 -1.4284 -0.1203
 8220SOL    HW236297   3.624   2.661   8.101  1.6245  2.3511  4.1740
 8221SOL     OW36298   2.310   3.484   6.670 -0.0491 -0.1922 -0.0040
 8221SOL    HW136299   2.334   3.420   6.602  0.0087 -1.3814  1.1355
 8221SOL    HW236300   2.285   3.425   6.740 -1.5772 -1.2489 -1.4451
 8222SOL     OW36301   0.086   2.126  13.560  0.0128 -0.3285 -0.2343
 8222SOL    HW136302   0.112   2.057  13.500  2.2522  0.3279 -0.0329
 8222SOL    HW236303   0.024   2.075  13.612  0.8304 -0.5080  0.5683
 8223SOL     OW36304   2.899   0.029  11.514  0.1655  0.2191  0.4129
 8223SOL    HW136305   2.856   0.107  11.478 -1.2443  0.1126  1.8754
 8223SOL    HW236306   2.849   4.693  11.476  0.8785  0.0977 -0.2844
 8224SOL     OW36307   2.046   2.828   5.441 -0.0957  1.0384  0.4501
 8224SOL    HW136308   2.099   2.755   5.472 -0.9737  0.4022  0.4635
 8224SOL    HW236309   1.966   2.805   5.489 -1.2592  0.1352 -1.9603
 8225SOL     OW36310   0.293   2.370   0.644  0.3186  0.3932 -0.1581
 8225SOL    HW136311   0.217   2.330   0.686  0.1845 -0.2476 -1.0244
 8225SOL    HW236312   0.336   2.408   0.721  0.6573  2.2027 -1.2560
 8226SOL     OW36313   1.087   4.313  10.049  0.1642 -0.0403 -0.2719
 8226SOL    HW136314   1.043   4.390  10.084 -1.9915 -1.3050 -0.1786
 8226SOL    HW236315   1.145   4.278  10.117 -1.5727  0.1108  1.2990
 8227SOL     OW36316   2.537   4.225   7.188 -0.0859  0.2157  0.0669
 8227SOL    HW136317   2.450   4.255   7.162  0.3008  1.4674  0.2268
 8227SOL    HW236318   2.520   4.134   7.165  1.5137  0.3404 -1.5990
 8228SOL     OW36319   2.698   2.310   1.332 -0.2366 -0.0202  0.3499
 8228SOL    HW136320   2.616   2.360   1.337 -0.2425  0.1734 -1.3953
 8228SOL    HW236321   2.760   2.383   1.338 -0.2486  0.2539 -2.5668
 8229SOL     OW36322   1.317   3.705   8.125  0.7189  0.5582 -0.5178
 8229SOL    HW136323   1.381   3.662   8.068  0.2148 -0.7633 -0.0768
 8229SOL    HW236324   1.348   3.795   8.120  0.6994  0.5190 -1.3935
 8230SOL     OW36325   0.471   4.709   5.439 -0.0649 -1.3555  0.1496
 8230SOL    HW136326   0.561   4.682   5.424  0.0044 -1.6554  1.0970
 8230SOL    HW236327   0.479   0.068   5.438  0.3915 -1.4212 -2.2246
 8231SOL     OW36328   2.055   4.202   2.786 -0.1468 -0.5498  0.3834
 8231SOL    HW136329   2.006   4.238   2.713  4.0679  0.2804 -2.0524
 8231SOL    HW236330   2.081   4.119   2.744  1.7013  0.1152  0.2013
 8232SOL     OW36331   0.821   3.177   6.168 -0.0332  0.2205  0.5672
 8232SOL    HW136332   0.774   3.110   6.118 -1.6887  1.6835  0.1687
 8232SOL    HW236333   0.911   3.146   6.159  0.0547  0.2459  1.3434
 8233SOL     OW36334   0.011   0.908   1.369  0.2550 -0.4573  0.1697
 8233SOL    HW136335   0.074   0.949   1.310 -2.6680  2.3080 -1.0271
 8233SOL    HW236336   4.715   0.838   1.312 -1.8665  0.8847 -0.2814
 8234SOL     OW36337   2.063   1.837  17.039  0.4643 -0.7273 -0.0925
 8234SOL    HW136338   2.140   1.862  17.090  0.3166 -1.7666  0.6431
 8234SOL    HW236339   1.993   1.902  17.053  2.0561  0.5822  1.7370
 8235SOL     OW36340   4.252   0.647  10.213 -0.3907  0.3058 -0.5153
 8235SOL    HW136341   4.326   0.637  10.273 -0.5920  2.4223  0.0852
 8235SOL    HW236342   4.203   0.570  10.243 -0.3834  0.7576  0.6716
 8236SOL     OW36343   3.050   4.268   7.108  0.5671  0.1943 -0.3093
 8236SOL    HW136344   3.022   4.343   7.159 -1.5161 -2.8934  3.0529
 8236SOL    HW236345   2.975   4.237   7.057  1.1166 -1.8444  0.1146
 8237SOL     OW36346   0.853   2.549   6.279 -0.2328 -0.1279 -0.5426
 8237SOL    HW136347   0.875   2.609   6.351  0.4321 -0.4854 -0.4513
 8237SOL    HW236348   0.941   2.531   6.244 -0.9034 -2.1728 -1.1395
 8238SOL     OW36349   1.233   2.233   7.315 -0.1629  0.0143  0.4219
 8238SOL    HW136350   1.225   2.275   7.401 -1.5903 -0.1779  0.3715
 8238SOL    HW236351   1.142   2.206   7.311 -0.2000  0.3469 -1.0612
 8239SOL     OW36352   4.593   1.085   5.084  0.2339  0.4636  0.0087
 8239SOL    HW136353   4.584   1.032   5.004  2.5399 -0.1240  0.1326
 8239SOL    HW236354   4.553   1.023   5.145  1.2879  1.1355  1.3904
 8240SOL     OW36355   0.060   2.900  10.039 -0.5811 -0.1836 -0.6932
 8240SOL    HW136356   0.113   2.946   9.974  1.5102  0.9148  1.8301
 8240SOL    HW236357   0.092   2.810  10.033 -0.7797 -0.1831 -1.8595
 8241SOL     OW36358   0.625   3.134   1.792 -0.1649  0.1133  0.5625
 8241SOL    HW136359   0.561   3.069   1.822 -1.8027  1.3379 -0.3363
 8241SOL    HW236360   0.597   3.141   1.701  1.4268 -1.1513 -0.0236
 8242SOL     OW36361   3.417   4.256   1.610  0.4418  0.6264  0.3682
 8242SOL    HW136362   3.387   4.211   1.689  0.1462 -1.0972 -0.7249
 8242SOL    HW236363   3.400   4.346   1.637 -1.8082 -0.7364  3.3806
 8243SOL     OW36364   0.289   4.497   5.963  0.0407 -0.7390  0.7765
 8243SOL    HW136365   0.277   4.588   5.992 -0.0833  0.4844 -3.1654
 8243SOL    HW236366   0.377   4.511   5.929 -1.1224 -0.3801 -2.0429
 8244SOL     OW36367   3.931   3.146   7.412 -0.2623 -0.0513 -0.1087
 8244SOL    HW136368   3.886   3.071   7.452 -0.9339  0.4958  0.1664
 8244SOL    HW236369   3.946   3.103   7.328 -2.2393 -2.3351  0.6925
 8245SOL     OW36370   1.193   3.368  11.912 -0.6843  0.4427 -0.1545
 8245SOL    HW136371   1.239   3.451  11.923  0.3297 -0.3805  1.6515
 8245SOL    HW236372   1.182   3.380  11.817  1.0043 -1.0955 -0.5420
 8246SOL     OW36373   0.939   1.220   4.731 -0.8543  0.3775  0.3180
 8246SOL    HW136374   0.999   1.294   4.717  1.5265 -1.5241  0.5692
 8246SOL    HW236375   0.856   1.266   4.718 -0.4965  1.2919  1.2698
 8247SOL     OW36376   1.016   0.989   5.014 -0.2032 -0.4355 -0.2871
 8247SOL    HW136377   0.962   0.957   4.941  0.0467 -2.2492  0.3046
 8247SOL    HW236378   0.971   1.069   5.040 -0.6554 -1.2178  1.3692
 8248SOL     OW36379   1.576   2.155   7.532 -0.0040  0.4285  0.1726
 8248SOL    HW136380   1.589   2.092   7.602 -0.3132  0.7696  0.5340
 8248SOL    HW236381   1.553   2.094   7.462 -0.5534  1.1210 -0.2630
 8249SOL     OW36382   4.116   4.392   4.605  0.0273  0.4228 -0.1431
 8249SOL    HW136383   4.208   4.415   4.606  0.1588 -0.1336  0.5264
 8249SOL    HW236384   4.117   4.360   4.695 -2.0920 -1.5436 -0.7945
 8250SOL     OW36385   0.633   4.148  11.483 -0.4441 -0.0007  0.3036
 8250SOL    HW136386   0.662   4.104  11.403  0.2686 -2.1323  1.7414
 8250SOL    HW236387   0.704   4.208  11.506 -0.1767  0.0395 -0.6219
 8251SOL     OW36388   0.168   4.100   6.283 -0.0895  0.2641  0.0546
 8251SOL    HW136389   0.108   4.075   6.354  0.1081  2.3150  0.9286
 8251SOL    HW236390   0.255   4.098   6.322 -0.5338 -0.6711  1.0305
 8252SOL     OW36391   0.233   4.607   6.247  0.7830 -0.5748 -0.1098
 8252SOL    HW136392   0.220   4.543   6.177 -0.7694 -0.0234 -0.3163
 8252SOL    HW236393   0.185   4.573   6.323 -1.4736  2.4190 -0.2099
 8253SOL     OW36394   3.009   2.039  15.307 -0.1604  0.8195  0.8234
 8253SOL    HW136395   3.044   2.106  15.366  1.8782 -0.5919  1.2570
 8253SOL    HW236396   3.095   2.002  15.287 -1.0861 -0.5939 -0.4906
 8254SOL     OW36397   3.672   0.549   3.570 -0.4244 -0.1216 -0.2302
 8254SOL    HW136398   3.603   0.498   3.613 -0.8297 -0.3381 -1.1225
 8254SOL    HW236399   3.621   0.585   3.497  0.3185  0.3630 -0.5065
 8255SOL     OW36400   3.264   2.446   5.607 -0.4516 -0.6588 -0.0295
 8255SOL    HW136401   3.232   2.430   5.696 -1.9549 -0.2169 -0.4886
 8255SOL    HW236402   3.326   2.517   5.625  1.1834 -2.3201  0.9125
 8256SOL     OW36403   2.127   3.042  13.029 -0.0103 -0.3165  0.7757
 8256SOL    HW136404   2.056   3.097  13.063  0.0145  0.8392 -1.0069
 8256SOL    HW236405   2.094   2.996  12.952 -0.9106  0.5134  0.6658
 8257SOL     OW36406   0.648   4.228   5.161 -0.8454  0.0498  0.0289
 8257SOL    HW136407   0.739   4.239   5.187 -0.4171 -1.0823 -1.0026
 8257SOL    HW236408   0.634   4.133   5.161  2.1142 -0.3853  0.8050
 8258SOL     OW36409   0.910   2.771   6.454 -0.2505  0.3820 -0.2551
 8258SOL    HW136410   0.855   2.838   6.494  1.4609  2.6194 -1.6410
 8258SOL    HW236411   0.986   2.771   6.511  0.4728  0.6814 -1.2335
 8259SOL     OW36412   3.854   4.212   3.414 -0.3530 -0.4038 -0.2892
 8259SOL    HW136413   3.836   4.132   3.366  1.5026 -1.6081  1.0355
 8259SOL    HW236414   3.808   4.278   3.362  1.1948  0.1813 -0.8974
 8260SOL     OW36415   1.128   4.658   3.339 -0.5712  0.5928 -0.3408
 8260SOL    HW136416   1.161   4.677   3.251 -1.7303  3.6631 -0.1155
 8260SOL    HW236417   1.063   4.589   3.321  2.0465 -1.2018 -2.8456
 8261SOL     OW36418   4.708   0.416   8.177  0.0271 -0.1200  0.1768
 8261SOL    HW136419   4.687   0.390   8.266  0.6385 -1.3191 -0.0172
 8261SOL    HW236420   0.067   0.405   8.163 -0.0061 -1.5595  1.0833
 8262SOL     OW36421   3.539   1.932   8.542 -0.2684  0.0735  0.3447
 8262SOL    HW136422   3.449   1.904   8.527 -0.1695 -0.1114  0.1000
 8262SOL    HW236423   3.567   1.860   8.599 -3.1751  0.7373  2.5938
 8263SOL     OW36424   1.324   2.466  16.974 -0.1268 -0.3222  0.0200
 8263SOL    HW136425   1.374   2.403  16.921  0.4873  1.4703 -1.5108
 8263SOL    HW236426   1.361   2.447  17.060 -2.1309 -2.3838  0.4373
 8264SOL     OW36427   1.938   1.736   5.774  0.5238  0.7488 -0.0805
 8264SOL    HW136428   1.938   1.827   5.804 -3.2103  0.7802 -0.2364
 8264SOL    HW236429   1.927   1.746   5.679  1.2225 -2.3038 -0.4622
 8265SOL     OW36430   2.945   4.004   3.919  0.1343 -0.6136 -0.2540
 8265SOL    HW136431   2.913   3.913   3.918 -0.5160 -0.4214  2.0584
 8265SOL    HW236432   3.034   3.981   3.894 -0.8986 -3.1377 -1.6645
 8266SOL     OW36433   3.224   3.841  13.430 -0.4951 -0.4748  0.1689
 8266SOL    HW136434   3.206   3.925  13.387 -0.0178 -0.9604 -0.9892
 8266SOL    HW236435   3.172   3.780  13.378  0.4190 -0.3797 -0.8788
 8267SOL     OW36436   4.672   1.936  13.655 -0.0415  0.2930 -0.2953
 8267SOL    HW136437   4.628   1.858  13.620  0.9752 -1.2714  1.8904
 8267SOL    HW236438   4.672   1.928  13.750 -3.5076 -1.0909 -0.3945
 8268SOL     OW36439   2.020   2.525   8.214  0.2292 -0.1736  0.1243
 8268SOL    HW136440   2.102   2.542   8.261  1.0589  1.1482 -1.8229
 8268SOL    HW236441   1.960   2.505   8.287  0.7789 -0.0727  0.6053
 8269SOL     OW36442   0.794   0.727   3.773  0.9783 -0.1309 -0.1698
 8269SOL    HW136443   0.709   0.688   3.792  0.6836  0.8190  0.4980
 8269SOL    HW236444   0.823   0.671   3.701  0.0167 -0.8012 -0.0307
 8270SOL     OW36445   2.004   3.197   9.788 -0.9360 -0.1635 -0.5218
 8270SOL    HW136446   2.041   3.117   9.751 -0.9791 -0.2528 -0.3707
 8270SOL    HW236447   2.088   3.238   9.809 -1.2056  0.1063  0.0307
 8271SOL     OW36448   0.432   2.766   4.095 -0.1920 -0.2713 -0.2702
 8271SOL    HW136449   0.369   2.838   4.098  0.9881  0.7722 -0.7286
 8271SOL    HW236450   0.419   2.737   4.004 -1.0421 -1.4921  0.2397
 8272SOL     OW36451   2.308   2.496  10.662  0.1349 -0.0203 -0.3145
 8272SOL    HW136452   2.242   2.447  10.710  0.5830  0.2121  0.5303
 8272SOL    HW236453   2.262   2.580  10.664 -2.1232 -1.2709  0.3994
 8273SOL     OW36454   0.562   1.917  11.499  0.4392 -0.4627  0.0503
 8273SOL    HW136455   0.571   1.832  11.457 -0.1606 -0.6068  0.2179
 8273SOL    HW236456   0.504   1.963  11.438  0.5530  0.8040  0.8980
 8274SOL     OW36457   1.462   3.445   1.139  0.1920  0.3045  0.1424
 8274SOL    HW136458   1.391   3.390   1.174  0.7133 -0.3491  0.1677
 8274SOL    HW236459   1.535   3.390   1.168  0.1221  0.8826  1.4131
 8275SOL     OW36460   4.694   1.468   7.186 -0.3550 -0.5548 -0.2649
 8275SOL    HW136461   4.712   1.400   7.121  0.5217 -2.5222  2.0050
 8275SOL    HW236462   4.604   1.444   7.209  0.0925 -1.3410  0.7131
 8276SOL     OW36463   4.711   2.511   1.059  0.2907  0.1789  0.5250
 8276SOL    HW136464   4.679   2.557   1.137  0.7367  0.9351  0.2542
 8276SOL    HW236465   0.033   2.572   1.014 -0.4469  1.3707  1.2017
 8277SOL     OW36466   3.686   4.508   6.650  0.0191 -0.0042  0.3768
 8277SOL    HW136467   3.638   4.545   6.725 -0.0163  0.3816  0.1651
 8277SOL    HW236468   3.736   4.445   6.702 -0.8895 -0.2006  1.0183
 8278SOL     OW36469   2.455   2.232   2.467  0.6860  0.0943  0.1428
 8278SOL    HW136470   2.520   2.299   2.446 -0.6007  1.5460  0.7713
 8278SOL    HW236471   2.371   2.268   2.438  0.4993 -1.4314 -1.2114
 8279SOL     OW36472   4.105   2.970   9.915  0.7178 -0.3833 -0.2254
 8279SOL    HW136473   4.102   2.946  10.007  0.9794 -1.9161 -0.6174
 8279SOL    HW236474   4.079   2.888   9.873  0.5015 -0.6441  0.4258
 8280SOL     OW36475   2.462   3.225   8.524  0.3927 -0.5057 -0.3831
 8280SOL    HW136476   2.395   3.158   8.508 -0.3773  0.8070 -2.6004
 8280SOL    HW236477   2.410   3.303   8.541  0.5644  0.3060 -3.5716
 8281SOL     OW36478   3.228   4.038   3.882  0.1777  0.0533  0.0500
 8281SOL    HW136479   3.187   4.044   3.968  0.2372 -1.3099  0.1633
 8281SOL    HW236480   3.272   3.953   3.874  0.6561  0.4632 -1.7936
 8282SOL     OW36481   0.228   0.439   2.185  0.0355  0.3907 -0.0004
 8282SOL    HW136482   0.240   0.394   2.101 -1.3878  0.9917 -0.5030
 8282SOL    HW236483   0.245   0.366   2.246 -2.7388  0.6499  1.0439
 8283SOL     OW36484   3.224   4.295   9.048 -0.0660  0.0437  0.3796
 8283SOL    HW136485   3.214   4.384   9.083 -0.1008  0.4661 -0.7100
 8283SOL    HW236486   3.289   4.313   8.980 -1.1886 -3.6108 -1.5992
 8284SOL     OW36487   3.542   4.717   1.637  0.4622 -0.1854 -0.2701
 8284SOL    HW136488   3.597   0.003   1.562 -0.3557  2.7443 -0.0019
 8284SOL    HW236489   3.565   0.041   1.707 -0.6664  3.4147 -2.9485
 8285SOL     OW36490   2.893   3.680  16.908  0.3360 -0.0328 -0.2361
 8285SOL    HW136491   2.841   3.753  16.942 -0.5118 -0.7762  0.0557
 8285SOL    HW236492   2.833   3.607  16.922  1.0905 -0.5584  0.2656
 8286SOL     OW36493   2.250   4.083   5.012 -0.7696  0.3418  0.1384
 8286SOL    HW136494   2.258   4.142   4.936  0.7783 -1.2140 -0.9044
 8286SOL    HW236495   2.166   4.114   5.045 -1.2558 -1.0989  0.2371
 8287SOL     OW36496   1.709   4.322  11.910  0.1006 -0.3619  0.4934
 8287SOL    HW136497   1.795   4.294  11.879  0.0645 -0.1879  0.2341
 8287SOL    HW236498   1.668   4.235  11.916 -1.5488  0.3746 -0.0600
 8288SOL     OW36499   2.576   0.227   6.515 -0.6653 -0.3756 -0.0029
 8288SOL    HW136500   2.530   0.272   6.586  0.3368  2.7461 -1.3308
 8288SOL    HW236501   2.503   0.204   6.457 -0.3508 -1.0770 -0.1259
 8289SOL     OW36502   2.898   0.493   9.594  0.2295 -0.4233  0.1328
 8289SOL    HW136503   2.971   0.447   9.635  1.6863  1.8200  0.0769
 8289SOL    HW236504   2.818   0.452   9.626 -0.8807  1.2319 -0.5652
 8290SOL     OW36505   0.532   1.865   4.763 -0.3205  0.3621  0.5892
 8290SOL    HW136506   0.449   1.818   4.754 -0.8060  0.9930  1.8366
 8290SOL    HW236507   0.510   1.951   4.797  1.8123  1.5382 -0.9869
 8291SOL     OW36508   1.305   3.642  14.668 -0.0473  0.3861 -0.2202
 8291SOL    HW136509   1.363   3.642  14.592  0.8625 -2.7722  0.4733
 8291SOL    HW236510   1.357   3.708  14.714 -1.9089  1.1992  0.7089
 8292SOL     OW36511   1.095   1.541   8.420 -0.3649  0.1272  0.2311
 8292SOL    HW136512   1.033   1.481   8.379 -0.1944 -0.7527  1.2551
 8292SOL    HW236513   1.037   1.601   8.467 -0.7530  0.8460 -1.1740
 8293SOL     OW36514   4.260   3.418  17.402  0.2774 -0.5496  0.2566
 8293SOL    HW136515   4.347   3.450  17.380 -0.2181 -0.2255 -1.2350
 8293SOL    HW236516   4.201   3.488  17.373  1.6969  0.2116 -0.7775
 8294SOL     OW36517   0.876   3.345   2.031  0.0087 -0.4876 -0.8231
 8294SOL    HW136518   0.893   3.321   2.123 -2.2257  1.0005 -0.0411
 8294SOL    HW236519   0.943   3.288   1.992  0.8299 -0.9920  1.2898
 8295SOL     OW36520   2.231   1.689  15.890 -0.4994  0.3792  0.7633
 8295SOL    HW136521   2.275   1.681  15.974 -1.3243 -3.7937  0.7964
 8295SOL    HW236522   2.290   1.636  15.837  0.0606  0.1309  1.6471
 8296SOL     OW36523   3.783   2.951  16.276 -0.3457  0.5785  0.3814
 8296SOL    HW136524   3.819   2.873  16.232 -0.4962  0.2186  0.9048
 8296SOL    HW236525   3.789   3.014  16.204 -2.3768  0.4700  0.1365
 8297SOL     OW36526   1.371   0.330   9.207 -0.3914 -0.0519  0.0516
 8297SOL    HW136527   1.410   0.250   9.242  0.1258  0.0849 -0.2215
 8297SOL    HW236528   1.305   0.279   9.159  0.9183  0.0350 -1.8183
 8298SOL     OW36529   2.095   4.168  10.925 -0.2887  0.2164  0.0397
 8298SOL    HW136530   2.138   4.175  10.839 -0.6183 -0.9973 -0.2313
 8298SOL    HW236531   2.003   4.160  10.901 -0.0752 -2.3943  0.0947
 8299SOL     OW36532   3.760   0.814   2.521  0.0756  0.5215 -0.3957
 8299SOL    HW136533   3.796   0.774   2.442  0.2685 -0.4559  0.1810
 8299SOL    HW236534   3.817   0.780   2.590 -2.0373  1.0603  1.6459
 8300SOL     OW36535   2.640   0.187  12.572  0.0468 -0.3637  0.0651
 8300SOL    HW136536   2.664   0.266  12.523 -2.5164  0.6165  0.4057
 8300SOL    HW236537   2.719   0.145  12.608  0.1704 -1.5506 -1.5900
 8301SOL     OW36538   1.367   1.775  10.792  0.1112 -0.1042 -0.2670
 8301SOL    HW136539   1.382   1.846  10.855  0.2015 -1.0280  0.7432
 8301SOL    HW236540   1.352   1.820  10.709  0.6607 -2.3358 -1.5720
 8302SOL     OW36541   3.000   3.427   7.280 -0.8356 -0.8212 -0.3072
 8302SOL    HW136542   3.009   3.501   7.220  0.9672 -0.1863  0.7663
 8302SOL    HW236543   3.001   3.478   7.361 -2.5133 -2.0771  0.5005
 8303SOL     OW36544   2.184   1.005   7.677 -0.6372  0.4069  0.1954
 8303SOL    HW136545   2.277   1.028   7.670  0.0441 -2.1093  0.8494
 8303SOL    HW236546   2.193   0.919   7.637  1.4482  0.2655  0.9308
 8304SOL     OW36547   2.050   1.799  17.390 -0.4763 -0.6249 -0.0562
 8304SOL    HW136548   2.136   1.827  17.421 -0.3846  0.1819 -1.0533
 8304SOL    HW236549   2.009   1.883  17.367  0.5599  0.4573  2.0347
 8305SOL     OW36550   1.559   3.045   5.631 -0.8792  0.3069 -0.0642
 8305SOL    HW136551   1.475   3.089   5.618 -2.0427 -1.5082  1.2916
 8305SOL    HW236552   1.613   3.118   5.601 -2.0186  0.2242 -2.3132
 8306SOL     OW36553   3.010   2.400   8.979 -0.3382 -0.1558  0.5759
 8306SOL    HW136554   2.941   2.334   8.978  0.7960 -1.3578  3.1206
 8306SOL    HW236555   3.021   2.417   9.073  0.9937 -0.1848  0.4189
 8307SOL     OW36556   4.151   1.743   3.594 -0.0359 -0.4968  0.3820
 8307SOL    HW136557   4.151   1.837   3.614 -0.1276 -0.7438  1.5916
 8307SOL    HW236558   4.171   1.762   3.503  1.7258  1.3025  1.1300
 8308SOL     OW36559   0.706   0.890   5.585  0.0294 -0.4677  0.3078
 8308SOL    HW136560   0.684   0.958   5.648  0.4131 -0.5665  0.5489
 8308SOL    HW236561   0.779   0.850   5.632 -0.7348 -1.9623  0.2562
 8309SOL     OW36562   4.132   4.512   6.490  0.1490  0.5574  0.3671
 8309SOL    HW136563   4.123   4.600   6.453 -1.5700 -1.3424 -3.7643
 8309SOL    HW236564   4.141   4.532   6.583  0.4492  1.7724  0.0842
 8310SOL     OW36565   1.359   3.465  16.720 -0.2512 -0.0103  0.0745
 8310SOL    HW136566   1.297   3.401  16.754 -0.2740  1.3905  2.6761
 8310SOL    HW236567   1.439   3.413  16.706 -0.4548 -0.3783  0.2699
 8311SOL     OW36568   1.334   1.951   3.185 -0.2918  0.2759 -0.7822
 8311SOL    HW136569   1.287   2.002   3.250  0.9036 -2.1480  1.9975
 8311SOL    HW236570   1.293   1.865   3.199 -0.3650 -0.0173 -2.7039
 8312SOL     OW36571   2.965   3.678   9.042 -0.1852  0.1025  0.1498
 8312SOL    HW136572   2.982   3.741   8.973  3.5245 -0.0909  0.8829
 8312SOL    HW236573   2.888   3.634   9.006  0.0606  0.4166 -0.7499
 8313SOL     OW36574   0.255   2.359  15.101  0.1319 -0.4179  0.6953
 8313SOL    HW136575   0.286   2.450  15.109  1.0310 -0.8072  1.5981
 8313SOL    HW236576   0.222   2.347  15.190  1.0002 -1.7372  0.8387
 8314SOL     OW36577   3.390   1.346   6.819  0.0609  0.9547 -0.4345
 8314SOL    HW136578   3.481   1.350   6.848 -0.2612  1.5128  0.5120
 8314SOL    HW236579   3.398   1.351   6.724 -1.2189 -1.2724 -0.6723
 8315SOL     OW36580   3.595   2.108  13.367  0.3013  0.3024 -0.1791
 8315SOL    HW136581   3.599   2.014  13.351  0.3487  0.5672 -1.6583
 8315SOL    HW236582   3.633   2.107  13.455 -1.7131  0.3527  0.6996
 8316SOL     OW36583   4.005   0.086   5.119  0.0914 -0.6320  0.4661
 8316SOL    HW136584   3.971   0.175   5.105  1.5778  0.1109  1.4931
 8316SOL    HW236585   3.930   0.039   5.155  0.8293 -1.9708  0.2485
 8317SOL     OW36586   1.281   0.341  11.701 -0.2394 -0.0200 -0.1006
 8317SOL    HW136587   1.207   0.282  11.716 -0.6957  0.2539 -1.2491
 8317SOL    HW236588   1.264   0.379  11.614 -0.4682  0.1646  0.0248
 8318SOL     OW36589   1.715   4.642   3.814 -0.1206 -0.7251  0.4187
 8318SOL    HW136590   1.648   4.692   3.861 -0.0523 -0.1136 -0.1316
 8318SOL    HW236591   1.695   4.653   3.721 -0.0316  1.7859  0.7069
 8319SOL     OW36592   2.339   4.274  13.198  0.2489 -0.0131 -0.3516
 8319SOL    HW136593   2.340   4.246  13.106 -1.4354  1.1642 -0.7214
 8319SOL    HW236594   2.360   4.191  13.240  1.3512  0.0309 -0.8310
 8320SOL     OW36595   2.812   2.580   2.436  0.1910 -0.6706 -0.6153
 8320SOL    HW136596   2.746   2.570   2.504  1.7153  0.0568  0.9655
 8320SOL    HW236597   2.767   2.641   2.377 -1.1482 -1.6767 -0.6144
 8321SOL     OW36598   2.249   2.602   2.295 -0.4094 -0.1509  0.0993
 8321SOL    HW136599   2.212   2.595   2.206 -2.0494 -1.3084  0.8746
 8321SOL    HW236600   2.313   2.672   2.282 -1.2567  0.5602 -0.3711
 8322SOL     OW36601   1.955   0.380   2.570 -0.5794 -0.4268  0.1213
 8322SOL    HW136602   2.045   0.389   2.600  0.0012 -0.5724 -1.5644
 8322SOL    HW236603   1.928   0.314   2.634  0.9995 -0.3434  0.8727
 8323SOL     OW36604   3.582   0.588  11.110 -0.9055 -0.2972  0.9485
 8323SOL    HW136605   3.584   0.605  11.016 -3.6837 -0.6737  0.8362
 8323SOL    HW236606   3.549   0.673  11.139 -1.3564  0.0211 -0.5313
 8324SOL     OW36607   4.555   4.712   5.624 -0.2815 -0.4318  0.0654
 8324SOL    HW136608   4.479   0.010   5.577 -1.4428  0.4064  2.5599
 8324SOL    HW236609   4.525   4.631   5.665 -2.2897  1.1133  1.6456
 8325SOL     OW36610   1.227   2.081   6.996  0.1440  0.3051  0.7624
 8325SOL    HW136611   1.272   2.152   7.041 -1.5201 -0.3920  3.5560
 8325SOL    HW236612   1.165   2.051   7.063  1.4337 -1.8968  0.9631
 8326SOL     OW36613   0.227   0.310   5.330  0.4359 -0.4348 -0.0965
 8326SOL    HW136614   0.300   0.372   5.324 -0.0121 -0.1381 -2.2287
 8326SOL    HW236615   0.229   0.280   5.240  3.1308 -1.0333  0.1646
 8327SOL     OW36616   1.824   3.694   8.138 -0.2559  0.4270 -0.2391
 8327SOL    HW136617   1.758   3.739   8.190  0.7943  0.5950  0.9504
 8327SOL    HW236618   1.785   3.693   8.050  1.4693 -0.8178 -0.9887
 8328SOL     OW36619   2.668   0.555   2.948  0.1018  0.2068 -0.1177
 8328SOL    HW136620   2.611   0.518   3.016 -0.2741 -2.4104 -1.8730
 8328SOL    HW236621   2.752   0.508   2.943 -0.0419 -0.0341 -0.2378
 8329SOL     OW36622   4.653   3.709   0.531  0.6011  0.5182 -0.2830
 8329SOL    HW136623   4.614   3.624   0.552  0.9569 -0.1934 -2.4866
 8329SOL    HW236624   4.627   3.727   0.441 -0.2274  0.1713 -0.1147
 8330SOL     OW36625   4.124   4.448   3.803 -0.0912 -0.2916  0.9390
 8330SOL    HW136626   4.104   4.416   3.891 -2.3201 -2.1886 -0.2578
 8330SOL    HW236627   4.215   4.473   3.814 -0.7214  2.2472  0.2889
 8331SOL     OW36628   1.454   1.746  14.020  0.4679  0.0328  0.2284
 8331SOL    HW136629   1.408   1.816  14.066 -0.3590  0.2680 -0.9857
 8331SOL    HW236630   1.404   1.669  14.048 -1.9489  1.7113  0.4406
 8332SOL     OW36631   2.580   2.487  14.092 -0.3166  0.0814  0.2469
 8332SOL    HW136632   2.538   2.511  14.175  0.8889 -2.2792  1.5376
 8332SOL    HW236633   2.563   2.393  14.088  3.3642 -0.5463 -0.7998
 8333SOL     OW36634   3.069   0.654   5.553 -0.2783  0.1452 -0.6258
 8333SOL    HW136635   3.033   0.734   5.591 -1.1063  0.9291 -3.0648
 8333SOL    HW236636   2.992   0.598   5.547 -0.2859 -0.0534  1.2244
 8334SOL     OW36637   1.161   0.870  16.630  0.1286  0.3457  0.3144
 8334SOL    HW136638   1.102   0.938  16.596 -0.1562  0.6032  1.3123
 8334SOL    HW236639   1.096   0.827  16.685 -0.4306  0.7959  0.0085
 8335SOL     OW36640   3.170   0.548  15.990  0.4947  0.2250 -0.0049
 8335SOL    HW136641   3.117   0.564  15.912  0.9663 -3.9823 -1.2075
 8335SOL    HW236642   3.179   0.635  16.029  0.4328 -0.7317  2.1313
 8336SOL     OW36643   0.720   1.502   7.682  0.5915  0.2365  0.4288
 8336SOL    HW136644   0.810   1.499   7.714  0.8600 -0.2509 -0.3567
 8336SOL    HW236645   0.734   1.502   7.587  1.4198  1.2641  0.5593
 8337SOL     OW36646   0.305   0.073   8.364 -0.3402  0.3721 -0.4997
 8337SOL    HW136647   0.266   0.137   8.424 -1.4868 -1.0531  0.2962
 8337SOL    HW236648   0.234   0.063   8.300 -0.7175 -1.0274  0.1298
 8338SOL     OW36649   3.773   1.513   8.456  0.6509 -1.0216 -0.5429
 8338SOL    HW136650   3.695   1.545   8.502  1.1030 -0.1504 -0.3961
 8338SOL    HW236651   3.757   1.564   8.377 -0.5574 -0.5912 -0.0231
 8339SOL     OW36652   3.722   1.571  17.649 -0.7414 -0.3975  0.2262
 8339SOL    HW136653   3.805   1.534  17.679 -1.9954 -2.0501  1.6994
 8339SOL    HW236654   3.737   1.665  17.645  2.4040 -0.9311  0.0646
 8340SOL     OW36655   0.752   2.296   6.879 -0.1002  0.4733  0.2040
 8340SOL    HW136656   0.794   2.226   6.929 -0.4698  0.1630  0.0727
 8340SOL    HW236657   0.664   2.293   6.917 -0.7613 -3.2023 -1.6870
 8341SOL     OW36658   3.556   3.569  15.530  0.4533 -0.5754  0.0112
 8341SOL    HW136659   3.584   3.658  15.510 -0.8562 -0.0406  0.5767
 8341SOL    HW236660   3.542   3.570  15.624 -2.9068 -3.0365 -0.4298
 8342SOL     OW36661   1.659   1.575   4.774 -0.3061 -0.0620  0.1168
 8342SOL    HW136662   1.720   1.502   4.788 -1.1147 -0.8992 -0.7495
 8342SOL    HW236663   1.687   1.608   4.689  0.5000 -0.3205  0.2845
 8343SOL     OW36664   3.345   1.477   5.929  0.0110  0.0860  0.2133
 8343SOL    HW136665   3.269   1.495   5.874 -0.1613  0.0343  0.4363
 8343SOL    HW236666   3.358   1.386   5.902  0.5767  0.6394 -1.3962
 8344SOL     OW36667   2.977   2.940   7.410  0.0556 -0.3891  0.9797
 8344SOL    HW136668   3.004   2.933   7.319  0.3414 -1.9711  1.1832
 8344SOL    HW236669   2.987   3.033   7.430  0.4532  0.1085 -1.6046
 8345SOL     OW36670   4.707   2.271   4.891  0.1027 -0.6099  0.4102
 8345SOL    HW136671   4.734   2.359   4.919  1.6844 -0.6175 -1.0544
 8345SOL    HW236672   4.697   2.230   4.977 -3.2604 -1.8744 -0.5960
 8346SOL     OW36673   1.293   2.686   6.142 -0.1064  0.2569 -0.2680
 8346SOL    HW136674   1.220   2.744   6.121 -0.5236  0.2885  1.2994
 8346SOL    HW236675   1.257   2.600   6.122 -0.4538  0.1851  0.6669
 8347SOL     OW36676   0.229   1.063  13.884 -0.1164 -0.6029  0.7925
 8347SOL    HW136677   0.299   1.016  13.928  0.1388 -0.7986  0.1709
 8347SOL    HW236678   0.253   1.036  13.796  0.3550 -1.2795  1.1390
 8348SOL     OW36679   0.242   0.268   8.585  0.1960  0.0591  0.4986
 8348SOL    HW136680   0.304   0.341   8.585 -1.2000  1.2626  1.5266
 8348SOL    HW236681   0.174   0.312   8.637  0.6757  1.5640 -0.1379
 8349SOL     OW36682   1.350   2.173   0.146 -0.2159  0.2261  0.2800
 8349SOL    HW136683   1.279   2.122   0.183  0.4228 -1.1492 -0.3872
 8349SOL    HW236684   1.408   2.097   0.146 -2.7764 -1.6965 -0.0132
 8350SOL     OW36685   4.343   2.207   7.451 -0.3877  0.8889  0.0343
 8350SOL    HW136686   4.438   2.209   7.467 -0.4951  1.3562  0.5815
 8350SOL    HW236687   4.300   2.155   7.519  0.2654  0.6883  0.2916
 8351SOL     OW36688   3.415   2.752   7.555  0.2005 -0.1393  0.2017
 8351SOL    HW136689   3.384   2.785   7.471  4.2955  1.4608 -0.6907
 8351SOL    HW236690   3.336   2.724   7.601 -0.4501  2.5131  0.7167
 8352SOL     OW36691   3.868   4.196  16.332 -0.1976  0.2714 -0.1609
 8352SOL    HW136692   3.805   4.187  16.403 -0.8370 -0.1895 -0.7894
 8352SOL    HW236693   3.861   4.292  16.329  2.1061  0.4333 -1.0918
 8353SOL     OW36694   1.039   0.968   9.558 -1.2302  0.2393  0.5127
 8353SOL    HW136695   1.008   0.880   9.582  0.3810 -0.6437 -0.6976
 8353SOL    HW236696   1.043   0.962   9.463  1.6108  0.0359  0.6611
 8354SOL     OW36697   1.612   4.289   4.667  0.0374  0.3019  0.2344
 8354SOL    HW136698   1.562   4.238   4.603  0.7668 -1.2050  0.8649
 8354SOL    HW236699   1.553   4.280   4.742  0.8793 -0.8546  0.7555
 8355SOL     OW36700   3.116   1.899   5.560 -0.1303  0.0201 -0.3520
 8355SOL    HW136701   3.193   1.943   5.523  0.5862 -2.4475 -1.8141
 8355SOL    HW236702   3.079   1.970   5.611 -1.2161 -0.0961 -0.9785
 8356SOL     OW36703   1.868   0.861   3.189  0.3683 -0.1345  0.2648
 8356SOL    HW136704   1.879   0.907   3.272 -2.7558  0.2197  0.4854
 8356SOL    HW236705   1.949   0.812   3.180  1.7926  2.2693  0.0378
 8357SOL     OW36706   2.510   4.073   4.922 -0.1729 -0.3729  0.7543
 8357SOL    HW136707   2.421   4.065   4.954  0.1122  1.2958  1.9842
 8357SOL    HW236708   2.518   4.167   4.938 -1.0828 -0.2972  0.7223
 8358SOL     OW36709   0.937   3.589   6.481  0.4839  0.1866 -0.8235
 8358SOL    HW136710   0.941   3.522   6.549 -0.4603  0.0536 -0.9074
 8358SOL    HW236711   0.939   3.530   6.406  0.0502  0.5589 -1.1295
 8359SOL     OW36712   0.376   1.116   5.808  0.1751 -0.2379  0.0724
 8359SOL    HW136713   0.417   1.031   5.825  0.5961  0.2614  1.5742
 8359SOL    HW236714   0.426   1.136   5.729  1.0369  2.4160  1.2867
 8360SOL     OW36715   3.408   2.895  13.120  0.2705 -0.1181 -0.3680
 8360SOL    HW136716   3.340   2.842  13.077 -0.0403  0.5564 -0.7018
 8360SOL    HW236717   3.461   2.827  13.161  0.5616  0.8715  0.8799
 8361SOL     OW36718   4.453   4.127   4.006  0.0957 -0.1383  0.1701
 8361SOL    HW136719   4.399   4.159   3.935 -0.9174 -1.5308  0.3086
 8361SOL    HW236720   4.460   4.034   3.985  0.9196  0.1970 -1.0169
 8362SOL     OW36721   3.660   0.257   8.763 -0.1591  0.5570 -0.2644
 8362SOL    HW136722   3.713   0.335   8.781  0.4236 -0.0583  0.7267
 8362SOL    HW236723   3.706   0.202   8.827  0.4431  1.8357  0.4079
 8363SOL     OW36724   3.186   0.304  14.224  0.7582  0.7465  0.0701
 8363SOL    HW136725   3.235   0.242  14.171 -0.5320 -0.5141  0.3555
 8363SOL    HW236726   3.149   0.246  14.290 -2.5195 -1.2354 -3.5021
 8364SOL     OW36727   0.351   2.648   3.205 -0.0581  0.3761 -0.0772
 8364SOL    HW136728   0.297   2.670   3.281  0.5822 -0.5140  0.6286
 8364SOL    HW236729   0.411   2.584   3.242 -0.4229  0.2263  0.2554
 8365SOL     OW36730   4.582   1.381  15.959  0.5424 -0.1375 -0.3577
 8365SOL    HW136731   4.489   1.358  15.966  0.8904 -1.2080  0.5673
 8365SOL    HW236732   4.576   1.476  15.948 -3.2479 -0.0928  1.8800
 8366SOL     OW36733   0.151   3.743   8.476 -0.2052  0.0267  0.2024
 8366SOL    HW136734   0.081   3.683   8.453 -0.1736 -0.2515  0.8176
 8366SOL    HW236735   0.146   3.741   8.572 -1.3723  0.3255  0.1409
 8367SOL     OW36736   0.244   3.243   6.790  0.2856 -0.4768  0.3913
 8367SOL    HW136737   0.305   3.284   6.729 -1.3700  0.6429 -0.5150
 8367SOL    HW236738   0.244   3.305   6.862  1.2567  1.6528 -1.4441
 8368SOL     OW36739   3.632   1.487   3.590 -0.6057 -0.9082  0.5162
 8368SOL    HW136740   3.717   1.467   3.552  0.2458 -0.6296  2.2796
 8368SOL    HW236741   3.576   1.421   3.550  2.0874 -1.2643 -2.6283
 8369SOL     OW36742   0.020   1.709   6.152 -0.3161 -0.1041  1.2694
 8369SOL    HW136743   0.077   1.699   6.076 -2.1576 -1.4077  0.0562
 8369SOL    HW236744   0.070   1.682   6.229 -1.6165  1.6001  2.7200
 8370SOL     OW36745   0.742   0.061  16.506 -0.2427  0.6604  0.1038
 8370SOL    HW136746   0.796   0.127  16.549 -0.2396 -0.1523  1.3518
 8370SOL    HW236747   0.774   0.073  16.416 -0.2438  0.6344  0.0997
 8371SOL     OW36748   2.859   0.880  15.950  0.2712  0.2220 -0.0736
 8371SOL    HW136749   2.903   0.952  15.905  3.1322 -0.8063  1.0530
 8371SOL    HW236750   2.931   0.818  15.964  0.2427  0.4528  1.1311
 8372SOL     OW36751   0.774   2.555  12.384 -0.0805  0.1515  1.0531
 8372SOL    HW136752   0.862   2.522  12.399  0.6922  0.5743 -2.6011
 8372SOL    HW236753   0.785   2.650  12.395 -0.6485  0.1812  1.3525
 8373SOL     OW36754   0.331   3.280   4.762  0.2697 -0.5445 -0.2134
 8373SOL    HW136755   0.393   3.280   4.835  2.6231  3.9028 -2.2342
 8373SOL    HW236756   0.256   3.240   4.807 -2.1394  2.7595 -1.3362
 8374SOL     OW36757   1.617   0.554   8.856  0.4648  0.0379  0.3018
 8374SOL    HW136758   1.681   0.565   8.786  0.0408  1.2824  0.1102
 8374SOL    HW236759   1.570   0.637   8.843  1.3584  0.5257  0.1942
 8375SOL     OW36760   0.776   0.623   5.283 -0.1073 -0.4789 -0.4580
 8375SOL    HW136761   0.685   0.649   5.291  0.1119 -0.5335  2.4401
 8375SOL    HW236762   0.821   0.706   5.297 -2.0436  0.6034 -0.7794
 8376SOL     OW36763   0.751   2.159   6.261  0.1074  0.3809  0.1565
 8376SOL    HW136764   0.746   2.064   6.249 -3.9858  1.1378 -3.9887
 8376SOL    HW236765   0.822   2.178   6.200  0.1953  0.8311  0.3982
 8377SOL     OW36766   0.806   1.521   7.019  0.0935 -0.1009  0.1703
 8377SOL    HW136767   0.815   1.426   7.034 -0.5627 -0.3920 -1.2710
 8377SOL    HW236768   0.721   1.533   6.977  1.3272  1.6879 -1.7415
 8378SOL     OW36769   3.931   2.270   5.245 -0.2601 -0.2409 -0.4004
 8378SOL    HW136770   3.857   2.294   5.189 -0.3963  0.6079  0.1400
 8378SOL    HW236771   3.929   2.341   5.310 -2.4579 -0.2612 -0.4382
 8379SOL     OW36772   0.554   3.472  13.064  0.0543 -0.0210  0.4376
 8379SOL    HW136773   0.634   3.508  13.025 -1.2254  1.6400 -0.6647
 8379SOL    HW236774   0.585   3.457  13.153 -0.8347 -1.7227  0.4669
 8380SOL     OW36775   0.326   1.176  11.737 -0.2596 -0.3588 -0.4012
 8380SOL    HW136776   0.281   1.094  11.720  1.1898 -0.9750 -1.3118
 8380SOL    HW236777   0.263   1.245  11.715 -0.4465 -0.5676 -0.5137
 8381SOL     OW36778   3.217   3.075   9.060  0.7455 -0.3846  0.1390
 8381SOL    HW136779   3.218   3.144   9.127 -1.6728 -0.8731  0.6736
 8381SOL    HW236780   3.297   3.027   9.080  0.1309 -0.4769  2.3978
 8382SOL     OW36781   0.974   4.038   7.098 -0.7547  0.1095  0.4013
 8382SOL    HW136782   0.890   4.062   7.060 -1.3529 -0.8761  1.1044
 8382SOL    HW236783   0.949   3.972   7.163  1.7618  0.1201  1.3912
 8383SOL     OW36784   0.488   4.589  13.655 -0.2785 -0.4091  0.6668
 8383SOL    HW136785   0.559   4.642  13.619  0.6064 -1.0101  1.5228
 8383SOL    HW236786   0.449   4.567  13.570 -0.6065 -1.2731  1.0356
 8384SOL     OW36787   0.144   4.282  16.567  0.5875  0.2462 -0.3413
 8384SOL    HW136788   0.070   4.341  16.556  2.1057  2.1347 -0.4822
 8384SOL    HW236789   0.195   4.322  16.637  0.1772  0.6122 -0.2493
 8385SOL     OW36790   0.880   2.134   4.152 -0.0663 -0.7038 -0.2010
 8385SOL    HW136791   0.822   2.058   4.159  0.2009 -0.5596  3.6217
 8385SOL    HW236792   0.961   2.101   4.191 -0.9776 -2.1873  0.4440
 8386SOL     OW36793   4.309   0.023   7.284  0.1884  1.2769  0.2812
 8386SOL    HW136794   4.246   0.071   7.337 -2.6843 -0.5004 -1.5703
 8386SOL    HW236795   4.389   0.064   7.317  0.7197 -0.3480  0.9959
 8387SOL     OW36796   4.360   2.802  10.980  0.3060 -0.1013 -0.5332
 8387SOL    HW136797   4.347   2.897  10.989  1.0272 -0.2507  2.0075
 8387SOL    HW236798   4.281   2.771  10.936 -1.0192  0.6571  1.2962
 8388SOL     OW36799   3.969   2.062   4.343 -0.7203  0.1310  0.2658
 8388SOL    HW136800   3.877   2.090   4.347 -0.0794  2.1518  0.6578
 8388SOL    HW236801   4.017   2.135   4.382  1.9574 -0.5450 -1.7527
 8389SOL     OW36802   2.479   1.407   7.922  0.5396 -0.4090 -0.1566
 8389SOL    HW136803   2.503   1.372   7.836 -0.7510 -0.3136 -0.5642
 8389SOL    HW236804   2.541   1.360   7.977  1.0640 -0.5032 -0.8168
 8390SOL     OW36805   0.709   0.899   7.419  0.3310  0.1372  0.4112
 8390SOL    HW136806   0.633   0.886   7.361  0.3081  0.9551  0.2565
 8390SOL    HW236807   0.661   0.927   7.498 -1.6443  0.3666 -0.8635
 8391SOL     OW36808   2.303   3.633  15.877 -0.4942  0.8012 -0.3247
 8391SOL    HW136809   2.348   3.574  15.817 -0.5852  0.3656  0.0359
 8391SOL    HW236810   2.230   3.645  15.816 -0.4949  0.1166 -0.4590
 8392SOL     OW36811   0.082   0.583   9.160  0.0118 -0.0815 -0.1671
 8392SOL    HW136812   0.049   0.576   9.070 -0.2777 -1.5083  0.0605
 8392SOL    HW236813   0.020   0.528   9.207  0.7478 -1.4034 -0.7397
 8393SOL     OW36814   3.397   4.473   4.925 -0.1297 -0.2156 -0.0011
 8393SOL    HW136815   3.438   4.391   4.955 -1.5972  0.1733  3.0927
 8393SOL    HW236816   3.364   4.438   4.842 -1.7989 -1.7496  1.3043
 8394SOL     OW36817   4.186   3.216   1.967 -0.0732 -0.0589  0.2905
 8394SOL    HW136818   4.231   3.165   2.034 -1.8340 -0.6050  1.0543
 8394SOL    HW236819   4.231   3.300   1.978  1.1728 -0.6052 -0.7675
 8395SOL     OW36820   4.061   1.805  16.736 -0.0515  0.3061  0.1875
 8395SOL    HW136821   4.134   1.776  16.681 -0.0353 -2.2007  1.5207
 8395SOL    HW236822   4.028   1.719  16.761 -0.3355 -0.1816 -1.8604
 8396SOL     OW36823   1.582   3.077  17.031 -0.3895 -0.5173  0.0113
 8396SOL    HW136824   1.542   3.134  17.096 -0.6433  0.9333 -1.4234
 8396SOL    HW236825   1.557   2.991  17.066 -0.5850 -0.2709  0.4679
 8397SOL     OW36826   3.964   3.879   7.526 -0.1972  0.0766  0.3954
 8397SOL    HW136827   4.032   3.846   7.467 -1.5122 -2.6185  0.4005
 8397SOL    HW236828   3.926   3.795   7.550 -1.7970  0.2273 -1.5882
 8398SOL     OW36829   2.836   2.210   3.699  0.2760  0.3250 -0.0999
 8398SOL    HW136830   2.832   2.114   3.698  0.9865  0.2999 -0.7045
 8398SOL    HW236831   2.771   2.234   3.765 -0.6765  0.1028 -0.9389
 8399SOL     OW36832   0.327   1.283   0.365  0.6022 -0.5282 -0.2294
 8399SOL    HW136833   0.326   1.375   0.335  0.1179 -0.0520  1.2821
 8399SOL    HW236834   0.406   1.287   0.418  1.1262 -0.7707 -0.9799
 8400SOL     OW36835   3.767   4.110  13.027 -0.4169 -0.4235  0.6588
 8400SOL    HW136836   3.685   4.154  13.051 -0.1355  1.0842 -1.0725
 8400SOL    HW236837   3.733   4.023  13.005 -1.4569 -0.1075  1.0229
 8401SOL     OW36838   1.011   4.055  10.026  0.5846 -0.0465 -0.3295
 8401SOL    HW136839   1.014   4.040   9.932 -1.5573 -0.8573 -0.2514
 8401SOL    HW236840   1.044   4.145  10.034  0.7596 -0.1130 -0.2908
 8402SOL     OW36841   0.868   2.078   8.106 -0.0757 -0.1953  0.4179
 8402SOL    HW136842   0.926   2.007   8.133  0.0846 -0.8271 -1.5454
 8402SOL    HW236843   0.938   2.132   8.068  0.0786 -0.4547  0.3271
 8403SOL     OW36844   0.751   3.881  15.303 -0.5981 -0.0533  0.2084
 8403SOL    HW136845   0.775   3.814  15.239  1.5835  0.9344  0.0033
 8403SOL    HW236846   0.816   3.950  15.298  0.1012 -0.8496 -1.5847
 8404SOL     OW36847   4.213   4.508   2.129  0.1091 -0.0908 -0.2853
 8404SOL    HW136848   4.140   4.533   2.073 -0.5126 -0.4087  0.3795
 8404SOL    HW236849   4.154   4.490   2.202  0.6819 -1.9661 -0.2868
 8405SOL     OW36850   1.933   3.327   0.193  0.1126 -0.0179  0.1948
 8405SOL    HW136851   1.944   3.257   0.257  0.2373  1.2206  1.5364
 8405SOL    HW236852   1.838   3.330   0.201 -0.0683 -2.6152 -1.0723
 8406SOL     OW36853   1.122   4.221   8.641 -0.5065 -0.1868 -0.0958
 8406SOL    HW136854   1.122   4.293   8.578  1.2561 -1.1099 -1.1689
 8406SOL    HW236855   1.070   4.253   8.714  1.5241 -0.3248  1.3985
 8407SOL     OW36856   0.768   3.119   4.202 -0.5533  0.3692  0.2765
 8407SOL    HW136857   0.725   3.163   4.275  2.0941  4.0868 -0.4432
 8407SOL    HW236858   0.762   3.026   4.225 -1.5875  0.4206  0.1878
 8408SOL     OW36859   1.062   4.523   4.942  0.5005  0.3498  0.0785
 8408SOL    HW136860   1.110   4.506   4.861  1.0383 -2.5356  1.0155
 8408SOL    HW236861   0.978   4.485   4.915  0.1634  0.7593  0.5398
 8409SOL     OW36862   3.418   3.090   9.414  0.0129  0.0647 -0.4778
 8409SOL    HW136863   3.446   3.158   9.475  1.3850 -0.6710 -0.2801
 8409SOL    HW236864   3.415   3.014   9.472 -0.1423 -1.1108 -1.9959
 8410SOL     OW36865   1.356   1.090   7.576 -0.0188  0.1536  0.2606
 8410SOL    HW136866   1.386   1.178   7.552  0.4862 -0.8482 -2.7824
 8410SOL    HW236867   1.318   1.061   7.493  1.1887 -0.3382 -0.1157
 8411SOL     OW36868   1.142   0.495  12.099 -0.1044 -0.0454 -0.2204
 8411SOL    HW136869   1.192   0.466  12.176 -0.8795  2.3978  1.2036
 8411SOL    HW236870   1.209   0.533  12.042 -0.2377  0.5380  0.0128
 8412SOL     OW36871   2.716   1.033  11.119  0.2972 -0.0858 -0.5339
 8412SOL    HW136872   2.644   0.994  11.169 -0.1159  0.0170 -1.0528
 8412SOL    HW236873   2.749   1.081  11.195  1.3799  0.7512 -1.5432
 8413SOL     OW36874   0.136   2.697   6.520 -0.1277  0.0757 -0.1279
 8413SOL    HW136875   0.085   2.621   6.548  0.6218  0.0841  1.2795
 8413SOL    HW236876   0.217   2.653   6.495 -0.4865  0.9323 -2.7845
 8414SOL     OW36877   1.845   2.000   5.726  0.3798 -0.0053 -0.1816
 8414SOL    HW136878   1.782   2.035   5.789  0.4800  0.3424 -0.2745
 8414SOL    HW236879   1.817   2.046   5.647  1.6085  1.6450  0.3618
 8415SOL     OW36880   1.103   2.640   6.816  0.4405  0.3822  0.4164
 8415SOL    HW136881   1.150   2.713   6.857  2.5556 -1.0362  0.5104
 8415SOL    HW236882   1.081   2.688   6.736  2.8541 -0.1605 -0.5858
 8416SOL     OW36883   1.256   0.032  15.995 -0.2691  0.3221  0.0765
 8416SOL    HW136884   1.293   0.060  16.079 -0.8269  3.9276 -0.8640
 8416SOL    HW236885   1.291   0.109  15.949 -0.3396  0.6029  0.4874
 8417SOL     OW36886   3.915   4.094   0.850  0.1160 -0.2414 -0.1656
 8417SOL    HW136887   3.997   4.087   0.898  0.1635  1.9755  0.1160
 8417SOL    HW236888   3.951   4.137   0.772 -0.3267 -0.3443 -0.4301
 8418SOL     OW36889   1.466   4.439  13.861 -0.3624  0.3256 -0.2185
 8418SOL    HW136890   1.432   4.472  13.778  1.4228  1.9529 -0.2989
 8418SOL    HW236891   1.556   4.469  13.862  0.3413 -1.7782 -0.1430
 8419SOL     OW36892   4.149   4.689  10.665 -0.0693  0.3962 -0.0507
 8419SOL    HW136893   4.208   4.677  10.591 -2.1242 -0.7993 -1.4962
 8419SOL    HW236894   4.214   4.696  10.735  0.8243 -0.4185 -0.7959
 8420SOL     OW36895   0.863   2.328  14.766 -0.0023 -0.2082  0.2704
 8420SOL    HW136896   0.811   2.250  14.743  0.7025 -0.6124  0.0495
 8420SOL    HW236897   0.807   2.351  14.840 -2.0454 -1.2246 -0.9741
 8421SOL     OW36898   1.181   0.471   8.107  0.8347 -0.5394 -0.4177
 8421SOL    HW136899   1.189   0.390   8.055 -2.2891 -0.5618 -0.8421
 8421SOL    HW236900   1.137   0.522   8.039 -1.2872 -0.3656  1.1019
 8422SOL     OW36901   0.999   0.767  16.789 -0.0622  0.2971 -0.3626
 8422SOL    HW136902   0.943   0.835  16.826 -0.0237  0.7412 -1.1211
 8422SOL    HW236903   0.933   0.700  16.802  0.6042 -0.1822  0.5346
 8423SOL     OW36904   4.212   0.605  12.194  0.0494 -0.1669 -0.2183
 8423SOL    HW136905   4.190   0.610  12.287  2.9289 -0.3996  0.4725
 8423SOL    HW236906   4.128   0.583  12.154 -1.0081  1.1008  1.3098
 8424SOL     OW36907   3.243   1.043   5.511  0.0819  0.4229 -0.2163
 8424SOL    HW136908   3.287   1.125   5.535 -0.1668  0.1047  1.2795
 8424SOL    HW236909   3.267   0.980   5.579 -0.5550  0.0925 -0.3021
 8425SOL     OW36910   1.221   2.074   9.763  0.4237 -0.5925  0.2139
 8425SOL    HW136911   1.235   1.988   9.802  0.0107 -0.4302  0.7115
 8425SOL    HW236912   1.213   2.119   9.847  2.0677 -0.2544  0.1950
 8426SOL     OW36913   3.345   2.056   9.318 -0.5068  0.0561  0.0321
 8426SOL    HW136914   3.327   2.002   9.241 -0.2027  0.4701 -0.3320
 8426SOL    HW236915   3.298   2.011   9.388 -0.6908  0.9342  0.4774
 8427SOL     OW36916   0.158   0.413   2.973 -0.0131  0.4256  0.2455
 8427SOL    HW136917   0.103   0.477   2.927 -0.3766 -0.5533 -0.6573
 8427SOL    HW236918   0.143   0.446   3.062 -1.1967 -0.2044  0.2641
 8428SOL     OW36919   0.264   1.800   0.788 -0.0815 -0.0680  0.1486
 8428SOL    HW136920   0.259   1.782   0.882 -1.5185 -0.1290  0.0581
 8428SOL    HW236921   0.348   1.846   0.783 -0.0464 -0.0460  0.8414
 8429SOL     OW36922   3.962   4.192  17.712 -0.2173  0.3069  0.1589
 8429SOL    HW136923   3.894   4.227  17.655  0.0264 -0.2136 -0.4566
 8429SOL    HW236924   3.922   4.107  17.731  1.1193 -0.2269  0.6174
 8430SOL     OW36925   1.719   1.099   4.249  0.2601 -0.0621 -0.2708
 8430SOL    HW136926   1.681   1.083   4.163 -0.3857 -0.7172  0.1396
 8430SOL    HW236927   1.798   1.045   4.253  1.4069  1.4225 -3.1888
 8431SOL     OW36928   2.813   2.981   1.975  0.1414  0.5442  0.3350
 8431SOL    HW136929   2.813   2.905   2.033  0.9462  0.8193  0.6959
 8431SOL    HW236930   2.852   3.044   2.037  1.4091 -1.3903  1.4945
 8432SOL     OW36931   2.872   0.175  11.079 -0.2514  0.1331  0.3073
 8432SOL    HW136932   2.929   0.222  11.140  0.5155 -1.6026  0.9460
 8432SOL    HW236933   2.785   0.200  11.109 -0.3466  0.9009 -0.6384
 8433SOL     OW36934   0.989   3.276  15.857  0.1534  0.5332 -0.0779
 8433SOL    HW136935   1.067   3.222  15.847 -2.6232 -3.6568  1.3399
 8433SOL    HW236936   0.938   3.228  15.792  0.0828 -0.9188  1.0655
 8434SOL     OW36937   0.254   2.095   4.281  0.7823  0.0507  0.1355
 8434SOL    HW136938   0.245   2.099   4.376  2.3598  0.6525  0.2638
 8434SOL    HW236939   0.281   2.185   4.261 -3.5585  1.2585 -0.3826
 8435SOL     OW36940   1.829   4.684  16.957  0.4433  0.0888  0.3222
 8435SOL    HW136941   1.744   4.699  16.998 -0.0980  1.2361 -1.2287
 8435SOL    HW236942   1.857   0.035  16.928  0.6983 -0.5811 -1.4561
 8436SOL     OW36943   1.516   3.372   5.177 -0.2020 -0.3604 -0.3164
 8436SOL    HW136944   1.573   3.447   5.161  1.8905 -1.7742  0.4245
 8436SOL    HW236945   1.556   3.347   5.261  1.0078 -0.6997 -0.9931
 8437SOL     OW36946   1.721   4.099   8.978  0.0254 -0.3677 -0.3173
 8437SOL    HW136947   1.669   4.046   8.918 -1.0732  1.3224 -0.8458
 8437SOL    HW236948   1.788   4.033   8.997  0.5879  0.5123  0.7240
 8438SOL     OW36949   3.720   2.651  13.691 -0.0403 -0.1747  0.5298
 8438SOL    HW136950   3.634   2.685  13.668  0.5473  0.2921 -0.9571
 8438SOL    HW236951   3.744   2.716  13.757  1.4036 -0.5017  0.3208
 8439SOL     OW36952   0.329   2.312   6.578 -0.6691  0.2872 -0.0922
 8439SOL    HW136953   0.288   2.269   6.502 -0.3632 -0.4877  0.1848
 8439SOL    HW236954   0.415   2.336   6.545  0.9657 -1.7366  2.7329
 8440SOL     OW36955   2.570   3.548   7.220  0.4657  0.0163  0.1501
 8440SOL    HW136956   2.647   3.574   7.271 -0.5736  0.0741  1.6916
 8440SOL    HW236957   2.558   3.617   7.155 -1.1164  1.0264  1.5427
 8441SOL     OW36958   1.052   3.421  12.830  0.0872  0.3154 -0.2521
 8441SOL    HW136959   0.991   3.492  12.850  1.7462  1.8167 -0.5357
 8441SOL    HW236960   1.000   3.370  12.768 -1.6438  0.6614  0.9185
 8442SOL     OW36961   0.511   2.810  11.823 -0.3073  0.1391  0.3042
 8442SOL    HW136962   0.574   2.779  11.757  0.5839  1.0148  0.7444
 8442SOL    HW236963   0.525   2.743  11.890 -0.2507 -1.1348 -0.9713
 8443SOL     OW36964   3.777   1.401   3.306  0.2300 -0.5876 -0.5967
 8443SOL    HW136965   3.755   1.489   3.337  0.1430 -0.6382 -0.5169
 8443SOL    HW236966   3.872   1.407   3.294  0.4268  0.7762  1.7262
 8444SOL     OW36967   1.577   2.181   6.295 -0.2510  0.1808  0.0003
 8444SOL    HW136968   1.637   2.108   6.282  0.4196  0.6446  0.4809
 8444SOL    HW236969   1.500   2.137   6.330 -0.0984 -1.7944 -2.2149
 8445SOL     OW36970   2.249   3.761  15.606  0.1771 -0.0662 -0.2419
 8445SOL    HW136971   2.231   3.849  15.575  0.6164 -0.0937 -0.5738
 8445SOL    HW236972   2.308   3.724  15.540  1.0187  0.0889  0.4154
 8446SOL     OW36973   1.183   0.665   1.718  0.1938  0.0592  0.3383
 8446SOL    HW136974   1.255   0.728   1.723  0.7658 -0.5021 -0.8596
 8446SOL    HW236975   1.108   0.722   1.729 -0.0989 -0.1662 -0.5100
 8447SOL     OW36976   3.165   1.439  17.731 -0.1111  0.0566 -0.1373
 8447SOL    HW136977   3.226   1.455   0.060  0.6526  1.5856 -1.1257
 8447SOL    HW236978   3.223   1.381  17.682 -1.7158  0.0440 -2.0346
 8448SOL     OW36979   0.718   2.030  12.344 -0.2953 -0.5858  0.3066
 8448SOL    HW136980   0.796   2.076  12.374 -1.0322 -0.8788  2.7197
 8448SOL    HW236981   0.739   1.942  12.378 -0.1244  0.3442  2.6426
 8449SOL     OW36982   3.118   3.704  14.497 -0.4040  0.6520 -0.1150
 8449SOL    HW136983   3.065   3.783  14.503 -0.3484  0.5629  1.7970
 8449SOL    HW236984   3.178   3.735  14.430  1.6530  1.4815  2.1062
 8450SOL     OW36985   3.696   3.505   8.324 -0.2637  0.3991 -0.0132
 8450SOL    HW136986   3.693   3.410   8.312  1.2117  0.6051 -1.9968
 8450SOL    HW236987   3.610   3.512   8.365  0.0158  0.5850  0.5557
 8451SOL     OW36988   0.860   1.819   8.368  0.3123  0.3549  0.2200
 8451SOL    HW136989   0.924   1.813   8.297 -1.2646 -4.6936 -0.7642
 8451SOL    HW236990   0.828   1.909   8.364 -2.2475 -0.6104 -0.5748
 8452SOL     OW36991   2.550   2.584   9.734  0.0857  0.2852 -0.7600
 8452SOL    HW136992   2.520   2.642   9.664  0.2627  0.7484 -0.4491
 8452SOL    HW236993   2.528   2.634   9.812 -1.8885 -3.1926  0.8903
 8453SOL     OW36994   3.522   3.868   4.038 -0.0976 -0.0490  0.0219
 8453SOL    HW136995   3.599   3.864   4.095 -0.3925 -1.0196  0.3537
 8453SOL    HW236996   3.510   3.962   4.032  0.6727  0.0788  0.4945
 8454SOL     OW36997   1.866   2.649   5.081  0.4559 -1.0041 -0.0032
 8454SOL    HW136998   1.782   2.679   5.046  0.6524 -1.4534 -0.8807
 8454SOL    HW236999   1.842   2.559   5.102  0.0341 -0.8861  0.0084
 8455SOL     OW37000   1.980   2.903   4.739 -0.5073  0.2872 -0.4819
 8455SOL    HW137001   1.944   2.943   4.660 -1.4877  2.4992  1.0882
 8455SOL    HW237002   1.934   2.819   4.745 -0.8363  0.3635 -1.9461
 8456SOL     OW37003   4.044   1.506  16.542  0.1807  0.7223 -0.0619
 8456SOL    HW137004   4.085   1.420  16.548 -0.5654  0.2465 -1.7552
 8456SOL    HW237005   4.037   1.530  16.634  1.2747  0.4364  0.0958
 8457SOL     OW37006   2.205   4.375   6.521  0.2723  0.2269 -0.2962
 8457SOL    HW137007   2.168   4.458   6.491  1.2888  1.1256  0.8998
 8457SOL    HW237008   2.174   4.316   6.453  0.5038  1.2211 -1.2562
 8458SOL     OW37009   1.508   4.458  14.754 -0.3029 -0.0504  0.2922
 8458SOL    HW137010   1.495   4.379  14.806 -1.4303 -0.8109 -1.1512
 8458SOL    HW237011   1.577   4.504  14.802 -0.0484 -1.8016  1.6001
 8459SOL     OW37012   1.461   3.864  15.125  0.1957  0.0213  0.2280
 8459SOL    HW137013   1.428   3.930  15.186  1.6956  0.8797  0.1210
 8459SOL    HW237014   1.383   3.809  15.124  0.2604 -0.0574 -0.9235
 8460SOL     OW37015   2.510   2.294   3.368 -0.3357 -0.1692 -0.4047
 8460SOL    HW137016   2.602   2.307   3.392 -0.0612 -0.6397 -1.1894
 8460SOL    HW237017   2.463   2.339   3.438 -2.6800 -2.6453 -0.3532
 8461SOL     OW37018   0.519   4.726   6.942  0.6303  0.3181 -0.1075
 8461SOL    HW137019   0.425   0.004   6.946  0.6237  0.0053  0.8805
 8461SOL    HW237020   0.544   0.060   6.881  0.2269 -0.4710 -1.1813
 8462SOL     OW37021   3.721   1.720   2.768 -0.1150  0.0641  0.7237
 8462SOL    HW137022   3.746   1.674   2.848 -1.6279  0.7732  1.6033
 8462SOL    HW237023   3.780   1.796   2.772  0.6422 -0.3283 -3.0898
 8463SOL     OW37024   1.367   2.077   6.429  0.1551 -0.6202 -0.4061
 8463SOL    HW137025   1.284   2.117   6.403  0.4842  0.8229  0.7825
 8463SOL    HW237026   1.337   1.996   6.472  1.1416  0.0867  1.6179
 8464SOL     OW37027   3.127   3.024   5.683  0.2866  0.0984 -0.7807
 8464SOL    HW137028   3.171   2.941   5.665  0.9496  0.6183 -1.5271
 8464SOL    HW237029   3.136   3.074   5.602 -0.6759  0.4889 -0.6449
 8465SOL     OW37030   4.354   1.643   3.829  0.5104 -0.0025  0.1460
 8465SOL    HW137031   4.410   1.706   3.785  0.0686 -0.3036 -0.8579
 8465SOL    HW237032   4.286   1.636   3.761 -1.8421  0.9364  2.3980
 8466SOL     OW37033   3.354   0.114  13.158  0.1401  0.7134 -0.3694
 8466SOL    HW137034   3.302   0.043  13.121  0.0878  1.2730 -1.3664
 8466SOL    HW237035   3.374   0.077  13.244  0.4663 -0.5915 -1.0085
 8467SOL     OW37036   4.542   1.004   9.616 -0.4299 -0.1934 -0.5076
 8467SOL    HW137037   4.457   1.047   9.621  0.1983  0.4687  4.2298
 8467SOL    HW237038   4.595   1.082   9.605 -1.0963  0.1467 -1.3425
 8468SOL     OW37039   4.265   3.855   7.992 -0.3747 -0.2724 -0.1015
 8468SOL    HW137040   4.173   3.846   7.968 -0.0964 -0.4783 -1.0755
 8468SOL    HW237041   4.302   3.774   7.959  2.3807  0.1563  1.8861
 8469SOL     OW37042   2.686   0.973   9.019  0.1886 -0.1758 -0.0920
 8469SOL    HW137043   2.715   0.884   9.035  0.2650 -0.1139  0.1111
 8469SOL    HW237044   2.608   0.988   9.073  2.2052  0.6506  2.5844
 8470SOL     OW37045   1.864   0.309  11.641  0.3042  0.0343  0.3650
 8470SOL    HW137046   1.832   0.233  11.689  1.7199 -0.0527  1.1572
 8470SOL    HW237047   1.830   0.375  11.701  0.3665  0.1416  0.2833
 8471SOL     OW37048   0.977   4.266  11.808 -0.4977 -0.3357 -0.5408
 8471SOL    HW137049   1.061   4.257  11.852 -1.0824 -0.2837  0.5895
 8471SOL    HW237050   0.976   4.361  11.816  2.8572 -0.1937 -1.8210
 8472SOL     OW37051   2.922   3.799   5.535 -0.4720  0.2356  0.3814
 8472SOL    HW137052   2.901   3.764   5.622 -2.2492 -0.2672 -0.2401
 8472SOL    HW237053   2.840   3.843   5.513 -0.1745  1.1559  1.0690
 8473SOL     OW37054   3.672   2.580   7.014  0.0634  0.0679  0.1168
 8473SOL    HW137055   3.636   2.506   7.062 -1.4063  1.5147  1.2386
 8473SOL    HW237056   3.672   2.550   6.923  0.4666  0.7861 -0.1282
 8474SOL     OW37057   2.420   4.471   7.500 -0.1820  0.3925  0.2054
 8474SOL    HW137058   2.515   4.464   7.505 -0.2020 -0.2936 -0.5218
 8474SOL    HW237059   2.406   4.563   7.523  1.6100  0.2521  1.8977
 8475SOL     OW37060   3.206   1.271   1.552 -0.8925 -0.1095 -0.2279
 8475SOL    HW137061   3.291   1.248   1.514 -0.1402  1.8458  0.2865
 8475SOL    HW237062   3.152   1.258   1.474 -0.1021  0.6298 -0.9019
 8476SOL     OW37063   2.177   2.018   2.431  0.1600  0.3311 -0.3506
 8476SOL    HW137064   2.263   2.045   2.463  1.1290 -1.7434 -1.2603
 8476SOL    HW237065   2.135   2.002   2.516 -1.3868  2.4889 -0.7215
 8477SOL     OW37066   3.240   3.609   6.257  0.0366 -0.6580  0.1777
 8477SOL    HW137067   3.157   3.593   6.302  0.6429 -2.3488  0.7183
 8477SOL    HW237068   3.202   3.587   6.172 -0.8632 -0.8507  0.6318
 8478SOL     OW37069   3.611   1.676   5.815 -0.4156 -0.0950 -0.3409
 8478SOL    HW137070   3.706   1.664   5.813 -0.5585 -0.5825 -3.1373
 8478SOL    HW237071   3.602   1.761   5.773  2.2121  0.4329  0.1657
 8479SOL     OW37072   1.267   0.367   9.806 -0.3039  0.1581 -0.0343
 8479SOL    HW137073   1.201   0.377   9.874 -0.3246 -0.2525  0.0057
 8479SOL    HW237074   1.211   0.371   9.728  0.5879  0.1021 -0.6838
 8480SOL     OW37075   2.959   1.484   8.657 -0.4659 -0.0730  0.4629
 8480SOL    HW137076   2.997   1.506   8.742 -0.3473  0.7334  0.2089
 8480SOL    HW237077   2.938   1.391   8.665 -3.2082  0.6081  1.1650
 8481SOL     OW37078   2.165   1.108   6.510  0.1159 -0.3034  0.3742
 8481SOL    HW137079   2.075   1.092   6.538  0.6011 -2.8416  0.5267
 8481SOL    HW237080   2.213   1.110   6.593 -0.5079  0.1726  0.7216
 8482SOL     OW37081   3.515   2.510   3.015 -0.0078 -0.2040  0.2726
 8482SOL    HW137082   3.567   2.484   2.939 -1.0784 -0.9366 -0.2119
 8482SOL    HW237083   3.582   2.497   3.082  0.3573 -0.0979 -0.0709
 8483SOL     OW37084   0.400   4.102   3.977  0.4186 -0.4155 -0.5097
 8483SOL    HW137085   0.357   4.035   4.029 -3.0655  0.3194 -2.4343
 8483SOL    HW237086   0.393   4.059   3.892  1.3156 -0.8737 -0.3487
 8484SOL     OW37087   3.950   4.154   1.788 -1.0479  0.0709  0.1754
 8484SOL    HW137088   3.956   4.157   1.883 -1.1991  0.0643  0.1848
 8484SOL    HW237089   3.971   4.062   1.773 -0.2552  0.4675 -1.2594
 8485SOL     OW37090   2.834   0.778   9.109  0.0734  0.0849  0.6237
 8485SOL    HW137091   2.807   0.714   9.175 -0.7870  0.1512  0.3296
 8485SOL    HW237092   2.895   0.729   9.053 -1.3760 -1.0493  0.0642
 8486SOL     OW37093   1.705   4.478  17.315  0.1188 -0.1265  0.5531
 8486SOL    HW137094   1.660   4.461  17.232 -0.2444 -1.8874  1.0934
 8486SOL    HW237095   1.666   4.414  17.375  0.1548 -1.3210 -0.7232
 8487SOL     OW37096   2.565   2.227  10.264  0.1015 -0.4304 -0.1771
 8487SOL    HW137097   2.486   2.173  10.257  0.9653 -1.3020 -3.4794
 8487SOL    HW237098   2.548   2.286  10.337 -2.3518 -0.0565 -1.0535
 8488SOL     OW37099   3.608   2.501   6.707 -0.6077  0.3921  0.0210
 8488SOL    HW137100   3.522   2.513   6.668 -0.7889  3.6981  1.4340
 8488SOL    HW237101   3.645   2.587   6.686 -1.5443  0.3984 -1.5799
 8489SOL     OW37102   3.061   4.180   3.125 -0.7632  0.1137 -0.4815
 8489SOL    HW137103   3.016   4.146   3.202  1.9667 -1.5980  0.3938
 8489SOL    HW237104   3.064   4.098   3.075  0.0581  1.3986 -2.5385
 8490SOL     OW37105   2.302   3.415   5.134 -0.4729 -0.3738 -0.1322
 8490SOL    HW137106   2.280   3.327   5.102  0.6265  0.0293 -2.0049
 8490SOL    HW237107   2.277   3.471   5.061  1.3215  0.0351 -0.4298
 8491SOL     OW37108   0.459   3.982  16.250  0.0069 -0.5488  0.8572
 8491SOL    HW137109   0.379   4.020  16.288  0.0887  1.5233 -1.0760
 8491SOL    HW237110   0.471   4.038  16.174  2.4834 -0.6136  1.2049
 8492SOL     OW37111   0.760   0.404   9.322  0.7841 -0.1984  0.1262
 8492SOL    HW137112   0.851   0.373   9.318  1.2759  1.1971  0.6331
 8492SOL    HW237113   0.728   0.354   9.247 -2.0156  1.7557  0.0510
 8493SOL     OW37114   0.457   3.465  11.892 -0.2872  0.0410  0.2872
 8493SOL    HW137115   0.416   3.535  11.841  1.0458  1.7048  1.4880
 8493SOL    HW237116   0.437   3.393  11.834 -2.1068 -0.3346  1.3953
 8494SOL     OW37117   0.096   3.009  11.883  0.4635 -0.0033  0.3833
 8494SOL    HW137118   0.101   2.954  11.961  4.4661  0.7189  0.6451
 8494SOL    HW237119   0.148   2.954  11.825  1.4137  0.3450  0.9090
 8495SOL     OW37120   1.198   0.417   1.052 -0.4326  0.0283  0.3743
 8495SOL    HW137121   1.159   0.378   1.131 -1.3180 -2.7129 -1.4001
 8495SOL    HW237122   1.124   0.412   0.991 -0.1963  1.1120  0.0043
 8496SOL     OW37123   2.891   3.687   6.045 -0.5081 -0.1889 -0.1982
 8496SOL    HW137124   2.926   3.750   6.108  0.5741 -0.5377 -0.4440
 8496SOL    HW237125   2.971   3.635   6.036  0.4794  0.9616  1.9286
 8497SOL     OW37126   3.629   0.358   5.717 -0.3968  0.4687 -0.1009
 8497SOL    HW137127   3.612   0.296   5.788 -0.4170  1.6463  0.9353
 8497SOL    HW237128   3.551   0.413   5.718  0.5468  1.8153  2.1416
 8498SOL     OW37129   1.488   3.619   9.002 -0.4056  0.1074  0.0913
 8498SOL    HW137130   1.401   3.652   9.025 -0.4529  1.4379 -2.0034
 8498SOL    HW237131   1.479   3.573   8.918  1.4089 -0.6150  0.2913
 8499SOL     OW37132   0.450   3.192  11.655  0.3180 -0.1245 -0.4854
 8499SOL    HW137133   0.522   3.221  11.711  0.6306 -0.4351 -0.7251
 8499SOL    HW237134   0.453   3.265  11.593  0.6334  1.2933  1.1767
 8500SOL     OW37135   3.061   4.487   3.250 -0.4479 -0.0655  0.2087
 8500SOL    HW137136   3.018   4.548   3.191  0.2457  0.4309  0.2098
 8500SOL    HW237137   3.095   4.426   3.185  1.6381 -1.1060  2.2651
 8501SOL     OW37138   1.502   0.799   7.200 -0.8001 -0.0251 -0.5731
 8501SOL    HW137139   1.526   0.743   7.126 -0.7247 -1.0342  0.2162
 8501SOL    HW237140   1.407   0.798   7.193 -0.9421 -0.5145  1.5850
 8502SOL     OW37141   0.487   2.906   4.647 -0.6302 -0.5563 -0.0316
 8502SOL    HW137142   0.472   2.853   4.569 -2.4026 -0.3280  0.1417
 8502SOL    HW237143   0.463   2.850   4.720  3.6803 -2.5668 -0.1802
 8503SOL     OW37144   3.059   1.330  11.310  0.2017 -0.3566  0.4097
 8503SOL    HW137145   3.075   1.393  11.240  0.0362 -1.7472 -0.8894
 8503SOL    HW237146   3.152   1.308  11.324  0.2241  0.2457  1.1890
 8504SOL     OW37147   2.531   2.486   7.877 -0.5240  0.0437 -1.0814
 8504SOL    HW137148   2.467   2.458   7.941 -3.7174  3.0887 -2.9238
 8504SOL    HW237149   2.611   2.441   7.905 -0.7671 -1.2895 -2.5623
 8505SOL     OW37150   4.231   1.360   5.341 -0.4339  0.4619 -0.1137
 8505SOL    HW137151   4.137   1.344   5.345 -0.3048 -0.2769 -0.0090
 8505SOL    HW237152   4.235   1.393   5.251 -2.3330 -2.6582 -1.3171
 8506SOL     OW37153   1.014   3.880   3.482 -0.2867  0.3505  0.2353
 8506SOL    HW137154   0.993   3.806   3.540  0.7729 -0.2648 -0.1585
 8506SOL    HW237155   1.018   3.830   3.401  2.3720 -2.8823  2.3339
 8507SOL     OW37156   0.086   1.917   2.389 -0.6153  0.6390 -0.3117
 8507SOL    HW137157   0.082   1.920   2.293  1.7576 -0.1720 -0.4362
 8507SOL    HW237158   0.176   1.890   2.403 -0.6894  1.0697  0.9299
 8508SOL     OW37159   3.362   3.955   2.860  0.1078  0.4019  0.1843
 8508SOL    HW137160   3.445   3.943   2.815  1.1345 -1.9461  2.6715
 8508SOL    HW237161   3.340   4.040   2.823 -1.2905  1.2795  2.9901
 8509SOL     OW37162   2.617   3.539  15.305  0.2807 -0.5204  0.1908
 8509SOL    HW137163   2.695   3.485  15.320  0.3056 -1.0231 -1.8326
 8509SOL    HW237164   2.606   3.536  15.210  1.4239 -1.0608  0.0693
 8510SOL     OW37165   3.588   2.751   3.304 -0.1265  0.4146  0.2822
 8510SOL    HW137166   3.610   2.822   3.365 -0.1544 -2.1677  3.2899
 8510SOL    HW237167   3.635   2.775   3.224  0.2221 -1.3836 -0.0635
 8511SOL     OW37168   3.958   1.136   2.671  0.3660  0.0103 -0.1544
 8511SOL    HW137169   4.039   1.128   2.722 -0.1796 -0.6184  0.6138
 8511SOL    HW237170   3.990   1.116   2.583 -0.0424  0.8420 -0.4960
 8512SOL     OW37171   3.591   2.200   9.101  0.5781 -0.0515  0.4326
 8512SOL    HW137172   3.656   2.261   9.067  0.7684 -1.2962 -1.4428
 8512SOL    HW237173   3.548   2.175   9.019 -1.1778 -0.3333  1.4497
 8513SOL     OW37174   2.514   2.340  17.675  0.0376 -0.1495  0.5633
 8513SOL    HW137175   2.532   2.423  17.720  1.9038  0.2779 -0.9601
 8513SOL    HW237176   2.472   2.292   0.004 -0.2671  1.1008  1.2232
 8514SOL     OW37177   2.066   2.426   4.145  0.0817 -0.2233  0.0350
 8514SOL    HW137178   2.151   2.414   4.103  0.0632  0.2833 -0.1406
 8514SOL    HW237179   2.068   2.358   4.213 -0.1752 -1.0664 -0.7992
 8515SOL     OW37180   4.444   1.096   2.320  0.0169 -0.0292 -0.4507
 8515SOL    HW137181   4.537   1.102   2.298  0.3434  1.4272  1.3226
 8515SOL    HW237182   4.423   1.188   2.334  0.5521  0.3195 -1.8990
 8516SOL     OW37183   1.861   2.847   7.557  0.4820  0.2167 -0.0285
 8516SOL    HW137184   1.816   2.826   7.639  0.3162  2.8842  0.5554
 8516SOL    HW237185   1.949   2.823   7.585  0.4172 -0.3448 -0.3005
 8517SOL     OW37186   2.943   1.764  15.592  0.5093 -0.1962  0.0252
 8517SOL    HW137187   2.940   1.707  15.515  1.4580  1.0951 -0.9522
 8517SOL    HW237188   2.914   1.846  15.553  1.0861  0.3323  0.7246
 8518SOL     OW37189   3.782   3.357   0.617 -0.3620 -0.8605 -0.2946
 8518SOL    HW137190   3.873   3.349   0.589  0.2216 -0.5386  1.4675
 8518SOL    HW237191   3.742   3.294   0.558 -2.7894 -1.2930  1.7833
 8519SOL     OW37192   3.686   3.246  10.092  0.5891  0.6173  0.1130
 8519SOL    HW137193   3.721   3.316  10.147  1.4415 -0.3854  0.8444
 8519SOL    HW237194   3.595   3.254  10.123  1.5952  0.5776  3.0954
 8520SOL     OW37195   3.405   4.232   5.314 -0.5437 -0.3660  0.0525
 8520SOL    HW137196   3.362   4.160   5.361 -1.2496  0.7359  1.0913
 8520SOL    HW237197   3.360   4.229   5.230  1.6222 -0.1462 -1.1046
 8521SOL     OW37198   4.458   2.139   6.523 -0.0829 -0.6546  0.4178
 8521SOL    HW137199   4.390   2.150   6.457 -1.2838 -0.6645  1.6511
 8521SOL    HW237200   4.400   2.155   6.597  0.7779 -1.4496  1.2655
 8522SOL     OW37201   3.746   3.688  11.941 -0.2797  0.1583  0.7403
 8522SOL    HW137202   3.822   3.747  11.945 -0.2093  0.1610 -0.4972
 8522SOL    HW237203   3.719   3.681  12.032 -1.4697  1.4267  0.4745
 8523SOL     OW37204   4.069   1.475   4.910 -0.2245 -0.1201 -1.0163
 8523SOL    HW137205   4.156   1.471   4.873  0.2698  2.0854 -0.1044
 8523SOL    HW237206   4.014   1.458   4.833 -1.3072  3.6890 -1.0859
 8524SOL     OW37207   2.313   2.974  16.765  0.2112  0.2164 -0.0389
 8524SOL    HW137208   2.262   3.047  16.798  2.2855  1.7784 -0.2743
 8524SOL    HW237209   2.309   2.915  16.841  0.7391  0.7713  0.4125
 8525SOL     OW37210   4.216   2.087   7.680  0.2869  0.4813 -0.3677
 8525SOL    HW137211   4.257   2.051   7.758 -0.3153  1.3195  0.3449
 8525SOL    HW237212   4.130   2.099   7.720  0.8991 -0.1709  1.1461
 8526SOL     OW37213   3.855   4.554   3.227 -0.9305  0.3188 -0.3363
 8526SOL    HW137214   3.870   4.644   3.255 -2.8953  0.3162  0.6736
 8526SOL    HW237215   3.782   4.563   3.166  0.4823  1.6682 -1.8726
 8527SOL     OW37216   1.637   0.604   9.387  0.0916 -0.3730  0.5499
 8527SOL    HW137217   1.576   0.665   9.346  1.3596  1.2494  1.0502
 8527SOL    HW237218   1.667   0.553   9.312 -1.8612  0.8304 -1.0529
 8528SOL     OW37219   1.977   2.559   3.863  0.3521  0.0614 -0.0575
 8528SOL    HW137220   1.916   2.506   3.915  0.3439  0.1333  0.0060
 8528SOL    HW237221   2.060   2.511   3.870 -0.5698 -1.2520  1.8527
 8529SOL     OW37222   3.086   2.997   3.933 -0.3381 -0.5883  0.0814
 8529SOL    HW137223   3.064   3.052   4.008 -1.3269 -1.1868  0.2365
 8529SOL    HW237224   3.042   3.028   3.854  3.1311 -1.1511 -2.0756
 8530SOL     OW37225   0.720   3.551  10.267  0.3985 -0.2339  0.1308
 8530SOL    HW137226   0.770   3.614  10.215 -1.0806 -0.2335 -1.3034
 8530SOL    HW237227   0.670   3.502  10.201 -0.0520 -1.8867  1.7187
 8531SOL     OW37228   1.764   1.706   7.412  0.2029  0.1768 -0.1200
 8531SOL    HW137229   1.770   1.748   7.498 -2.0863  1.2821 -0.5045
 8531SOL    HW237230   1.843   1.654   7.404 -0.3239 -0.4857 -1.0095
 8532SOL     OW37231   3.499   4.144  12.854 -0.3565 -0.1589  0.1983
 8532SOL    HW137232   3.516   4.216  12.915 -0.8226  2.3338 -2.5641
 8532SOL    HW237233   3.559   4.163  12.782 -0.7388  1.2213  0.2379
 8533SOL     OW37234   2.184   2.976   8.747 -0.1654  0.5906 -0.0530
 8533SOL    HW137235   2.241   2.981   8.671  0.7458  1.4191  0.6772
 8533SOL    HW237236   2.197   3.064   8.782 -1.6748  0.9276 -0.3680
 8534SOL     OW37237   0.916   1.896   7.728  0.2627 -0.0618 -0.2890
 8534SOL    HW137238   0.895   1.891   7.634  1.0621 -0.2090 -0.4585
 8534SOL    HW237239   0.997   1.847   7.737 -0.1183 -0.7948 -0.8664
 8535SOL     OW37240   2.256   3.987   3.735 -0.0263  0.2029 -0.2422
 8535SOL    HW137241   2.184   3.975   3.674 -0.8722  1.9333  0.4276
 8535SOL    HW237242   2.286   4.076   3.718  0.1775 -0.0342 -1.1516
 8536SOL     OW37243   1.575   4.288   5.161 -0.1805 -0.3915  0.7274
 8536SOL    HW137244   1.510   4.253   5.222 -2.2998  1.3236 -0.5884
 8536SOL    HW237245   1.515   4.335   5.104 -0.2407 -0.8607  0.4020
 8537SOL     OW37246   0.613   0.564   8.676 -0.8224 -0.3410 -0.7921
 8537SOL    HW137247   0.677   0.626   8.641 -0.3670  1.0911  2.6131
 8537SOL    HW237248   0.609   0.575   8.771  2.8608  0.0998 -0.6880
 8538SOL     OW37249   3.331   0.100   5.767  0.0135 -0.2543  0.0454
 8538SOL    HW137250   3.267   0.074   5.701  1.2960  0.8355 -1.6329
 8538SOL    HW237251   3.399   0.037   5.744  1.3516  1.7086 -1.3496
 8539SOL     OW37252   3.360   0.785  17.426  0.3108 -0.1580  0.5972
 8539SOL    HW137253   3.312   0.714  17.383  0.2573  0.4306 -0.3090
 8539SOL    HW237254   3.329   0.763  17.514 -0.5066 -1.1259  0.0767
 8540SOL     OW37255   2.273   2.987   1.210 -0.2453 -0.6662 -0.1883
 8540SOL    HW137256   2.316   2.933   1.144  0.0172  0.3984 -0.8898
 8540SOL    HW237257   2.310   3.075   1.199  1.4255 -1.1946  1.2637
 8541SOL     OW37258   2.377   2.286   2.108  0.3930  0.6956  0.2179
 8541SOL    HW137259   2.453   2.293   2.166  0.6041 -0.2405  0.0634
 8541SOL    HW237260   2.389   2.369   2.063  1.2245  0.6949  0.4292
 8542SOL     OW37261   1.202   4.393  12.903 -0.8752 -0.3474  0.1677
 8542SOL    HW137262   1.112   4.364  12.916 -0.1290 -1.6461  2.5123
 8542SOL    HW237263   1.246   4.328  12.847 -0.6821  1.4300 -1.7233
 8543SOL     OW37264   1.393   2.993   8.149  0.1237 -0.3526  0.5514
 8543SOL    HW137265   1.461   2.984   8.216  1.6358  0.0668 -0.9438
 8543SOL    HW237266   1.367   3.085   8.157 -1.9474 -1.0116  1.6205
 8544SOL     OW37267   0.665   1.233   8.244  0.2525 -0.4581  0.1341
 8544SOL    HW137268   0.713   1.230   8.162 -0.4948  0.9278 -0.3526
 8544SOL    HW237269   0.577   1.204   8.216  0.0529  0.4645 -0.1965
 8545SOL     OW37270   3.247   3.921  10.540  0.0715 -0.0088  0.0311
 8545SOL    HW137271   3.306   3.993  10.518 -1.2250  0.7100 -1.0979
 8545SOL    HW237272   3.269   3.848  10.483 -1.5589 -1.1091  0.8129
 8546SOL     OW37273   2.103   3.276   0.494 -0.0626  0.1468 -0.7470
 8546SOL    HW137274   2.107   3.181   0.504 -1.0812  0.4714  3.1082
 8546SOL    HW237275   2.194   3.300   0.510 -0.2293 -0.7728  1.5697
 8547SOL     OW37276   0.526   4.409   1.752 -0.5141  0.4659  0.3134
 8547SOL    HW137277   0.434   4.385   1.742  0.0790 -1.6477 -0.0038
 8547SOL    HW237278   0.560   4.320   1.747 -0.6113  0.3705  1.3393
 8548SOL     OW37279   2.110   3.142   3.737 -0.7344 -1.0448 -0.3532
 8548SOL    HW137280   2.093   3.088   3.815  0.2408 -2.0689 -0.8348
 8548SOL    HW237281   2.105   3.074   3.670 -0.1753 -1.3399 -0.1002
 8549SOL     OW37282   2.681   4.242   3.825  0.1757 -0.1199  0.3311
 8549SOL    HW137283   2.618   4.274   3.889 -0.3568 -0.5543  0.0208
 8549SOL    HW237284   2.681   4.314   3.761  2.4386  2.1545  2.8794
 8550SOL     OW37285   3.127   2.658  11.043  0.0927  0.1668 -0.4754
 8550SOL    HW137286   3.135   2.700  11.129  2.0733 -2.1643  0.4798
 8550SOL    HW237287   3.203   2.696  11.000  0.9161 -0.5686  0.3219
 8551SOL     OW37288   1.086   4.426   8.471 -0.8772  0.4323 -0.1035
 8551SOL    HW137289   1.105   4.494   8.407 -0.7881  1.5014  1.0627
 8551SOL    HW237290   0.998   4.458   8.489 -0.1531  1.6407  1.2437
 8552SOL     OW37291   3.116   3.832   3.323  0.3540 -0.5937  0.5370
 8552SOL    HW137292   3.021   3.822   3.331  0.3232 -0.5595  0.2214
 8552SOL    HW237293   3.133   3.900   3.388  0.5131 -0.6734  0.5782
 8553SOL     OW37294   1.027   0.090  16.915  0.5336  0.0746 -0.2652
 8553SOL    HW137295   0.931   0.099  16.921  0.3302 -1.3724 -1.2465
 8553SOL    HW237296   1.034   4.732  16.930 -0.2264  0.1942  0.8310
 8554SOL     OW37297   3.872   0.976  17.345  0.2283 -0.0868  0.5661
 8554SOL    HW137298   3.841   1.003  17.259 -1.0521  1.2466  1.4499
 8554SOL    HW237299   3.797   0.921  17.368 -1.6811  2.8146  1.2585
 8555SOL     OW37300   4.398   1.603   5.931  0.1958 -0.1002  0.0375
 8555SOL    HW137301   4.364   1.692   5.921  1.8394  0.4945 -0.1608
 8555SOL    HW237302   4.472   1.602   5.870  0.7374 -0.0046  0.6956
 8556SOL     OW37303   0.473   4.423   0.591  0.3484 -0.5503  0.2188
 8556SOL    HW137304   0.482   4.331   0.567  0.8361 -0.5127  0.2565
 8556SOL    HW237305   0.387   4.454   0.561  1.2017 -0.9425 -2.6003
 8557SOL     OW37306   0.348   1.885   3.389  0.1091  0.3027  0.2123
 8557SOL    HW137307   0.377   1.796   3.369 -1.9432  0.0433 -1.5969
 8557SOL    HW237308   0.422   1.920   3.437  0.5281  0.9457 -0.8883
 8558SOL     OW37309   0.347   0.701   6.415  0.2113  0.4924  0.0038
 8558SOL    HW137310   0.376   0.718   6.326  1.1044  1.0128  0.3969
 8558SOL    HW237311   0.343   0.795   6.434 -1.2376  0.2708  0.8245
 8559SOL     OW37312   3.977   0.830   1.990  0.0626 -0.6613  0.4332
 8559SOL    HW137313   3.890   0.867   2.008  0.4955 -0.4993  2.1384
 8559SOL    HW237314   3.963   0.737   2.009 -2.9037 -0.6241 -1.5429
 8560SOL     OW37315   0.689   3.305   6.551 -0.0728  0.2455  0.2924
 8560SOL    HW137316   0.657   3.258   6.628 -0.2892  0.9405  0.6274
 8560SOL    HW237317   0.776   3.268   6.537 -0.7401 -0.7264 -1.2709
 8561SOL     OW37318   1.679   4.047   8.408  0.1730  0.3508  0.5869
 8561SOL    HW137319   1.598   4.085   8.441  1.9242  2.2099  2.6846
 8561SOL    HW237320   1.662   4.035   8.314 -2.5578 -2.2078  1.4396
 8562SOL     OW37321   2.060   0.548   8.145  0.7470 -0.3544  0.1735
 8562SOL    HW137322   2.073   0.606   8.070  1.2578  1.0030  1.3215
 8562SOL    HW237323   1.977   0.504   8.127  0.0212  2.0836 -2.3641
 8563SOL     OW37324   2.903   2.925   4.990  0.2227 -0.2949  0.2571
 8563SOL    HW137325   2.968   2.856   5.003  0.9162  0.3836  0.4066
 8563SOL    HW237326   2.951   3.007   4.984  1.6947 -1.5284 -4.2925
 8564SOL     OW37327   1.268   3.477  12.691 -0.5581 -0.2656 -0.3690
 8564SOL    HW137328   1.316   3.534  12.750  0.5023 -0.1171 -1.3772
 8564SOL    HW237329   1.201   3.460  12.757  2.6875 -2.4341  2.3847
 8565SOL     OW37330   0.324   0.179   3.935  0.5771  0.8172  0.0146
 8565SOL    HW137331   0.396   0.164   3.997  1.2693  2.2517 -0.4435
 8565SOL    HW237332   0.274   0.097   3.933 -0.8862  1.6805  1.1727
 8566SOL     OW37333   2.142   2.884   2.081  0.1929  0.0384  0.1364
 8566SOL    HW137334   2.184   2.931   2.154  1.0330  0.1463 -0.4146
 8566SOL    HW237335   2.116   2.945   2.012 -0.5630  0.2676  0.6255
 8567SOL     OW37336   3.792   4.056   3.037  0.0251 -0.0493 -0.3304
 8567SOL    HW137337   3.821   4.067   2.946 -2.3581  2.7479 -0.7657
 8567SOL    HW237338   3.727   4.125   3.048  1.4053  1.0865  0.6334
 8568SOL     OW37339   2.323   1.135   8.345  0.2191 -0.0200  0.0235
 8568SOL    HW137340   2.257   1.196   8.378  0.0295 -0.3228  0.1963
 8568SOL    HW237341   2.401   1.151   8.398 -0.1699 -0.5202  0.7364
 8569SOL     OW37342   3.520   0.519   5.458 -0.2407 -0.2195  0.2373
 8569SOL    HW137343   3.548   0.440   5.410  0.6392 -0.3335  0.9407
 8569SOL    HW237344   3.428   0.494   5.447  0.3183 -2.3807  0.4571
 8570SOL     OW37345   2.741   0.903   7.988 -0.5665  0.8022  0.5123
 8570SOL    HW137346   2.823   0.907   7.940 -1.7158 -1.0450 -1.5933
 8570SOL    HW237347   2.778   0.896   8.076  1.4571 -0.8182 -0.4644
 8571SOL     OW37348   3.110   2.961  11.627 -0.3720 -0.2700 -0.4731
 8571SOL    HW137349   3.078   2.871  11.621  0.2015 -0.4476 -0.8447
 8571SOL    HW237350   3.036   2.998  11.578 -0.1730 -0.3336 -0.8243
 8572SOL     OW37351   1.848   3.753   5.107  0.2189  0.5120 -0.3086
 8572SOL    HW137352   1.871   3.751   5.014 -0.5794 -2.1474 -0.4610
 8572SOL    HW237353   1.911   3.688   5.138 -2.2878 -1.0651  1.4996
 8573SOL     OW37354   4.105   4.585   0.766 -0.1827 -0.1017 -0.1283
 8573SOL    HW137355   4.110   4.532   0.846 -2.0064  0.7457  0.5289
 8573SOL    HW237356   4.189   4.632   0.767 -0.6291  0.6569  2.0136
 8574SOL     OW37357   0.131   0.373  14.729  0.0745 -0.2589  0.2384
 8574SOL    HW137358   0.191   0.338  14.664  0.3817 -1.2919  1.0578
 8574SOL    HW237359   0.196   0.401  14.793 -1.5273  2.2395  0.7693
 8575SOL     OW37360   2.827   1.254   2.762 -0.2376 -0.1581 -0.2360
 8575SOL    HW137361   2.831   1.333   2.709 -1.2009 -0.7980 -1.2555
 8575SOL    HW237362   2.788   1.183   2.710 -0.8563 -0.8258  1.1237
 8576SOL     OW37363   2.790   4.332  13.388  0.0962  0.3510  0.1988
 8576SOL    HW137364   2.769   4.363  13.476  1.4290  0.1307  0.5901
 8576SOL    HW237365   2.863   4.272  13.396 -0.8925 -0.9137 -0.3189
 8577SOL     OW37366   2.990   2.551  15.710 -0.0816  0.0007  0.1708
 8577SOL    HW137367   3.014   2.472  15.759 -0.6359  0.0045  0.4441
 8577SOL    HW237368   2.931   2.599  15.768 -2.4106 -0.9165 -1.4596
 8578SOL     OW37369   3.905   3.919  16.271 -0.0276 -0.1870  0.1898
 8578SOL    HW137370   3.856   3.897  16.192 -0.5103 -1.2709  0.8015
 8578SOL    HW237371   3.892   4.014  16.276 -0.4114 -0.2453  0.2969
 8579SOL     OW37372   2.640   0.618  10.485 -0.2950 -0.6307 -0.6278
 8579SOL    HW137373   2.684   0.690  10.441  0.6581  0.7386  2.5270
 8579SOL    HW237374   2.696   0.625  10.563 -1.2823 -1.0423  0.1181
 8580SOL     OW37375   1.308   1.506   4.969 -0.6609  0.3841 -0.1641
 8580SOL    HW137376   1.288   1.584   5.022  1.5317  1.0076 -0.2640
 8580SOL    HW237377   1.302   1.435   5.033  1.9877 -0.9696 -1.4336
 8581SOL     OW37378   4.302   2.780   7.048 -0.0940  0.0325 -0.0041
 8581SOL    HW137379   4.220   2.826   7.067  1.6463  3.2124 -0.3347
 8581SOL    HW237380   4.272   2.689   7.042 -0.4743  0.0250  2.0085
 8582SOL     OW37381   0.517   0.842  11.127  0.4225 -0.0112  0.0543
 8582SOL    HW137382   0.560   0.831  11.212 -4.0406 -0.5007  2.2487
 8582SOL    HW237383   0.440   0.896  11.145 -0.2585 -1.3208  1.1240
 8583SOL     OW37384   4.418   2.854   5.492  0.4511  0.0336 -0.1919
 8583SOL    HW137385   4.347   2.888   5.548  0.9287  1.0013 -0.1603
 8583SOL    HW237386   4.414   2.915   5.419 -1.9459 -0.2254 -0.2805
 8584SOL     OW37387   2.878   1.307   6.002  0.2679  0.3013  0.0899
 8584SOL    HW137388   2.844   1.232   6.052 -2.4126  0.9533 -0.7765
 8584SOL    HW237389   2.813   1.375   6.022 -0.5595 -0.3706 -0.3234
 8585SOL     OW37390   0.966   2.394   3.374  0.0381  0.3613  0.0809
 8585SOL    HW137391   1.026   2.404   3.447  1.9809  0.8799 -1.5998
 8585SOL    HW237392   1.026   2.406   3.300 -0.7104 -0.9090 -0.7332
 8586SOL     OW37393   1.140   4.355   4.164 -0.5365  0.2565  0.0752
 8586SOL    HW137394   1.096   4.288   4.112 -0.0505 -0.1665  0.2021
 8586SOL    HW237395   1.222   4.306   4.174 -0.4480  0.3295 -0.2998
 8587SOL     OW37396   2.120   3.566   9.080  0.2758  0.5287 -0.5406
 8587SOL    HW137397   2.094   3.622   9.007  2.1387  1.9469 -0.1405
 8587SOL    HW237398   2.116   3.623   9.157 -0.4538  2.7735 -2.2481
 8588SOL     OW37399   0.041   1.594  14.879  0.4939  0.5585 -0.2037
 8588SOL    HW137400   0.123   1.633  14.907  0.7548  0.5068 -0.8755
 8588SOL    HW237401   4.716   1.662  14.907  0.9744  0.5176  0.9357
 8589SOL     OW37402   2.376   3.121   1.714  0.6524 -1.3695 -0.1513
 8589SOL    HW137403   2.436   3.186   1.679  0.4922 -1.3727 -0.4322
 8589SOL    HW237404   2.365   3.150   1.805  1.4246 -0.3373 -0.3852
 8590SOL     OW37405   2.384   0.084   6.391 -0.2234 -0.1326 -0.1225
 8590SOL    HW137406   2.314   0.144   6.366  1.2622  1.9011  0.6146
 8590SOL    HW237407   2.341   0.043   6.466 -2.3212  2.7389  0.2330
 8591SOL     OW37408   1.391   2.427  11.188 -0.0886  0.1136  0.1895
 8591SOL    HW137409   1.322   2.455  11.248 -1.5597 -1.1198 -0.9334
 8591SOL    HW237410   1.459   2.494  11.197  0.6194 -0.5026 -0.5080
 8592SOL     OW37411   0.955   1.631   1.810 -0.5454 -0.1741 -0.0226
 8592SOL    HW137412   0.883   1.569   1.803 -0.6181 -0.2798  1.6854
 8592SOL    HW237413   0.907   1.713   1.798 -0.3090  0.0166  0.3224
 8593SOL     OW37414   3.952   3.838   4.660  0.2472 -0.0973  0.0841
 8593SOL    HW137415   4.006   3.822   4.582  1.1350  1.3107  0.4105
 8593SOL    HW237416   3.893   3.907   4.630 -2.8545 -2.0144  1.7483
 8594SOL     OW37417   2.387   2.846  16.993  0.4411  0.1194 -0.7305
 8594SOL    HW137418   2.317   2.794  17.032 -0.3161  0.8192 -1.1433
 8594SOL    HW237419   2.455   2.780  17.000  1.1053  0.6122 -2.4558
 8595SOL     OW37420   2.161   2.949   5.232 -0.1443  0.2418  0.5365
 8595SOL    HW137421   2.128   2.912   5.315 -0.3376  0.0896  0.3926
 8595SOL    HW237422   2.089   2.924   5.174  0.3916  1.5343 -0.6792
 8596SOL     OW37423   3.717   2.071  17.725 -0.0567  0.0941  0.0043
 8596SOL    HW137424   3.644   2.120  17.688 -0.5491 -1.1683 -0.7185
 8596SOL    HW237425   3.768   2.136   0.030 -0.8480  2.0274 -1.7461
 8597SOL     OW37426   1.211   0.321   6.329  0.5297 -0.1425 -1.0666
 8597SOL    HW137427   1.255   0.236   6.340 -0.1117 -0.6006 -2.0462
 8597SOL    HW237428   1.265   0.374   6.387 -0.7099 -1.7843  1.5619
 8598SOL     OW37429   1.020   0.244   6.753  0.4559  0.3620  0.0694
 8598SOL    HW137430   1.051   0.334   6.739 -0.1179  0.7286  1.1330
 8598SOL    HW237431   1.075   0.193   6.694  0.0602 -2.6382  2.2555
 8599SOL     OW37432   1.673   2.545   4.046 -0.3257 -0.0808  0.2448
 8599SOL    HW137433   1.685   2.586   3.960  1.7612  0.2157  0.6646
 8599SOL    HW237434   1.694   2.454   4.025  0.7851  0.0076  0.9644
 8600SOL     OW37435   3.698   4.372   1.711 -0.1074 -0.1136  0.1112
 8600SOL    HW137436   3.770   4.320   1.676 -0.1968 -0.5141  0.5282
 8600SOL    HW237437   3.662   4.312   1.776 -1.9035  2.2923  1.3422
 8601SOL     OW37438   4.491   1.277  11.706  0.2637  0.0691  0.0349
 8601SOL    HW137439   4.409   1.229  11.696 -0.8065  1.9767 -0.5181
 8601SOL    HW237440   4.550   1.245  11.638 -1.9411 -1.0042 -1.3556
 8602SOL     OW37441   1.564   2.401  15.118  0.4936  0.1697  0.0488
 8602SOL    HW137442   1.567   2.315  15.159  0.1032  0.3933  0.5608
 8602SOL    HW237443   1.470   2.419  15.120  0.0821 -2.0687  1.3847
 8603SOL     OW37444   0.359   1.660   1.329 -0.6072 -0.4397 -0.4121
 8603SOL    HW137445   0.342   1.592   1.395  3.2129  0.2408  1.2449
 8603SOL    HW237446   0.342   1.733   1.390  0.2703 -0.8065  0.2646
 8604SOL     OW37447   1.397   2.819   5.683  0.6560  0.4829 -0.0963
 8604SOL    HW137448   1.445   2.892   5.645 -0.3399  1.5802  0.7207
 8604SOL    HW237449   1.399   2.844   5.776 -0.3796 -0.6461  0.2329
 8605SOL     OW37450   2.877   3.217   2.112  0.3299 -0.1154 -0.4784
 8605SOL    HW137451   2.913   3.305   2.103 -0.4858  0.2512 -0.1872
 8605SOL    HW237452   2.837   3.213   2.199 -2.8056  0.0889 -1.9438
 8606SOL     OW37453   0.323   3.928  14.314 -0.0785 -0.2011  0.1063
 8606SOL    HW137454   0.228   3.916  14.312 -0.3306  1.5879  1.6728
 8606SOL    HW237455   0.338   3.971  14.230  0.5300 -0.1267  0.2525
 8607SOL     OW37456   1.383   4.326  14.333  0.1483  0.3702 -0.5745
 8607SOL    HW137457   1.367   4.371  14.250  2.6174  1.4481 -0.4706
 8607SOL    HW237458   1.303   4.349  14.382 -0.0181 -1.7822  0.1820
 8608SOL     OW37459   1.110   2.110  11.916 -0.8293  0.2580  0.1219
 8608SOL    HW137460   1.195   2.127  11.958 -0.4043  0.3646 -0.7690
 8608SOL    HW237461   1.136   2.055  11.842  1.1641  3.5852 -1.6728
 8609SOL     OW37462   2.402   0.827   3.629 -0.5522 -0.3249  0.0771
 8609SOL    HW137463   2.392   0.847   3.722  1.2259 -1.4429  0.4983
 8609SOL    HW237464   2.490   0.854   3.605  0.2854 -4.9930 -2.1212
 8610SOL     OW37465   0.902   3.181   3.987  0.4041 -0.4124 -0.2740
 8610SOL    HW137466   0.991   3.166   4.019 -0.3626 -3.3489  0.4970
 8610SOL    HW237467   0.849   3.141   4.057  0.8726 -0.9157 -0.2028
 8611SOL     OW37468   4.052   4.154   7.620  0.2670  0.6197 -0.4098
 8611SOL    HW137469   4.034   4.071   7.574  2.2942  0.1051 -0.2894
 8611SOL    HW237470   4.119   4.183   7.558  1.7377 -0.6892  0.5523
 8612SOL     OW37471   2.083   0.745  15.019 -0.2925  1.1092  0.3031
 8612SOL    HW137472   2.178   0.728  15.018 -0.1252  2.2816 -1.7776
 8612SOL    HW237473   2.057   0.721  14.931  0.6507  1.5383 -0.0948
 8613SOL     OW37474   1.700   2.277   6.974 -0.2399 -0.3538  0.1782
 8613SOL    HW137475   1.645   2.315   7.042  0.8558 -0.6919  1.2392
 8613SOL    HW237476   1.690   2.342   6.904  0.4477 -0.3208  0.1154
 8614SOL     OW37477   3.471   2.999   8.230 -0.1650  0.2135 -0.0946
 8614SOL    HW137478   3.492   2.965   8.143  0.2138 -2.8952  1.2196
 8614SOL    HW237479   3.426   2.927   8.273  0.5040 -0.0032  0.2548
 8615SOL     OW37480   1.787   2.559   3.126  0.4473  0.6319  0.0451
 8615SOL    HW137481   1.857   2.614   3.091  1.1731 -0.2354  0.1103
 8615SOL    HW237482   1.733   2.534   3.051 -2.5385 -1.0703  2.7838
 8616SOL     OW37483   3.008   3.586   6.403 -0.7277 -0.4425 -0.0844
 8616SOL    HW137484   2.919   3.610   6.431 -0.9826 -0.7223 -0.6692
 8616SOL    HW237485   3.061   3.594   6.483  0.7284 -0.4116 -1.0572
 8617SOL     OW37486   1.234   4.242   7.132  0.3272  0.1874 -0.1869
 8617SOL    HW137487   1.311   4.259   7.187  0.1379 -1.9824  0.7432
 8617SOL    HW237488   1.280   4.201   7.058 -0.8336 -0.6946 -0.4152
 8618SOL     OW37489   3.211   3.919   7.338  0.2792  0.4306 -0.6724
 8618SOL    HW137490   3.294   3.942   7.380 -0.0607 -1.7828  1.1997
 8618SOL    HW237491   3.228   3.961   7.253  1.3940 -0.8339 -1.0811
 8619SOL     OW37492   0.163   2.582   8.541  0.0454  0.0431 -0.5466
 8619SOL    HW137493   0.120   2.508   8.584 -0.2883  1.6438  1.8871
 8619SOL    HW237494   0.246   2.579   8.589 -0.4224  0.7822  0.3008
 8620SOL     OW37495   0.169   0.726   5.559  0.1656  0.3348  0.1221
 8620SOL    HW137496   0.099   0.670   5.527  0.5607 -1.5450  2.5147
 8620SOL    HW237497   0.179   0.677   5.641 -1.0307 -0.9570 -0.5115
 8621SOL     OW37498   3.810   0.630   0.762 -0.0335 -0.3220 -0.3840
 8621SOL    HW137499   3.756   0.617   0.684  1.7627  1.7405 -1.9841
 8621SOL    HW237500   3.871   0.702   0.745  1.4997 -1.1583  1.5219
 8622SOL     OW37501   1.945   4.435   5.764 -0.0508 -0.4258 -0.5284
 8622SOL    HW137502   1.940   4.422   5.669 -0.7550  1.2389 -0.7196
 8622SOL    HW237503   1.959   4.348   5.802  0.9743 -0.3377 -0.7210
 8623SOL     OW37504   3.680   0.212   1.768 -0.3775  0.5401  0.1883
 8623SOL    HW137505   3.761   0.175   1.803 -0.3268 -0.3052 -0.8448
 8623SOL    HW237506   3.661   0.277   1.836 -1.3648 -0.7427  1.1474
 8624SOL     OW37507   0.792   1.129   2.588  0.3709  0.7298  0.0662
 8624SOL    HW137508   0.757   1.107   2.674  0.5019  1.4214  0.2997
 8624SOL    HW237509   0.732   1.087   2.527  1.0683  0.1126 -0.2031
 8625SOL     OW37510   3.884   1.314   0.867  0.1512 -0.0503 -0.1800
 8625SOL    HW137511   3.793   1.332   0.890  0.0624  1.4142 -1.6107
 8625SOL    HW237512   3.874   1.253   0.794  0.7153 -1.2187  0.7288
 8626SOL     OW37513   2.371   2.887   7.744  0.0796 -0.9062 -0.4810
 8626SOL    HW137514   2.433   2.838   7.689  1.4419  1.6586 -1.2331
 8626SOL    HW237515   2.291   2.881   7.693  0.4045  3.9255 -1.5361
 8627SOL     OW37516   3.787   3.708   3.923 -0.4450 -0.2663 -0.7156
 8627SOL    HW137517   3.808   3.740   4.011  0.1376 -1.6563 -0.3445
 8627SOL    HW237518   3.740   3.782   3.886 -0.1549 -0.9838 -2.5243
 8628SOL     OW37519   3.029   2.393   3.645 -0.5658 -0.1573 -0.0940
 8628SOL    HW137520   3.039   2.368   3.553  3.2496  0.1800  0.2185
 8628SOL    HW237521   2.962   2.330   3.670 -2.8172  2.2305 -0.0593
 8629SOL     OW37522   1.033   1.025   3.365  0.3728  0.6434  0.4080
 8629SOL    HW137523   1.109   1.020   3.421 -0.0214 -0.8006  0.8118
 8629SOL    HW237524   1.041   0.935   3.333 -2.5434 -0.1804  2.0106
 8630SOL     OW37525   1.954   1.489   6.589 -0.0506 -0.1047  0.0975
 8630SOL    HW137526   1.879   1.545   6.572  0.0063 -0.3750 -1.0495
 8630SOL    HW237527   1.947   1.418   6.524 -2.5528  0.4968 -0.2801
 8631SOL     OW37528   2.603   4.432  10.166 -0.2352  0.0283  0.4535
 8631SOL    HW137529   2.694   4.435  10.196 -0.6672  0.3598  1.7244
 8631SOL    HW237530   2.599   4.516  10.120 -1.1732 -0.3711 -0.1882
 8632SOL     OW37531   1.254   1.761   9.837  0.5096  0.1054  0.1231
 8632SOL    HW137532   1.339   1.771   9.795 -0.0992  1.8279 -0.7384
 8632SOL    HW237533   1.210   1.725   9.760  1.0495  1.5925 -0.8869
 8633SOL     OW37534   4.070   3.605   0.436  0.0396 -0.0789  0.1383
 8633SOL    HW137535   4.155   3.599   0.480  0.5856 -0.3532 -0.9603
 8633SOL    HW237536   4.012   3.625   0.510 -1.1016  0.7471 -0.9990
 8634SOL     OW37537   0.924   3.804   5.771 -0.0345  0.1493 -0.3030
 8634SOL    HW137538   0.936   3.893   5.737  0.1305 -0.8459 -2.9032
 8634SOL    HW237539   0.864   3.830   5.841  0.6373 -4.3944  1.9760
 8635SOL     OW37540   1.673   3.183   2.839 -0.2434 -0.0551 -0.4308
 8635SOL    HW137541   1.621   3.244   2.892  0.1344  0.7566 -0.9918
 8635SOL    HW237542   1.621   3.181   2.758  0.4731  1.2438 -0.9126
 8636SOL     OW37543   4.355   4.213   6.004 -0.0208 -0.3488  0.3472
 8636SOL    HW137544   4.421   4.154   5.967  2.2929  2.3457  0.1817
 8636SOL    HW237545   4.389   4.225   6.092  1.3952  0.0531 -0.2543
 8637SOL     OW37546   2.833   1.645   5.857 -0.1143  0.2137  0.0648
 8637SOL    HW137547   2.743   1.631   5.826  0.1358 -1.3586  0.0578
 8637SOL    HW237548   2.836   1.735   5.889  0.9333 -1.0322  3.4558
 8638SOL     OW37549   1.665   4.647   1.036  0.5472  0.3512 -0.0142
 8638SOL    HW137550   1.628   4.593   1.107 -2.1426  1.1712 -0.7685
 8638SOL    HW237551   1.724   4.702   1.087 -1.0249  0.7390  1.3936
 8639SOL     OW37552   1.662   3.999   6.177  0.1905 -0.0030  0.0902
 8639SOL    HW137553   1.663   3.922   6.234 -2.8019 -0.5657 -0.6665
 8639SOL    HW237554   1.589   3.982   6.118  0.8512 -0.6191 -0.5513
 8640SOL     OW37555   1.212   1.341   3.545  0.3463  0.0067 -0.3309
 8640SOL    HW137556   1.307   1.326   3.546  0.1984 -0.9101 -0.0354
 8640SOL    HW237557   1.203   1.319   3.453  0.3895  1.5206 -0.6864
 8641SOL     OW37558   4.474   3.048  16.359  0.2720  0.8012  0.0663
 8641SOL    HW137559   4.559   3.004  16.364  0.4546  1.3260  1.5715
 8641SOL    HW237560   4.444   3.031  16.449 -0.2048 -1.8771 -0.5911
 8642SOL     OW37561   3.295   1.900   7.218  0.3662  0.6302  0.0418
 8642SOL    HW137562   3.291   1.928   7.127  1.4847 -0.2377 -0.2686
 8642SOL    HW237563   3.374   1.950   7.241  1.1004 -1.0995  1.3529
 8643SOL     OW37564   4.140   1.432  10.944 -0.4039 -0.2474 -0.0236
 8643SOL    HW137565   4.232   1.454  10.963 -0.6312  0.2974  0.4448
 8643SOL    HW237566   4.155   1.339  10.924  0.9758  0.1080 -0.6577
 8644SOL     OW37567   3.333   3.309  12.493 -0.8482 -0.1386  0.3716
 8644SOL    HW137568   3.331   3.385  12.551  3.1553  1.1788 -1.2031
 8644SOL    HW237569   3.325   3.367  12.417 -1.1739 -0.0434  0.4782
 8645SOL     OW37570   4.294   4.041  16.258 -0.1915  0.1533 -0.1050
 8645SOL    HW137571   4.278   3.981  16.331  0.6053 -0.9852 -0.8589
 8645SOL    HW237572   4.233   4.004  16.195 -0.9189  2.1177 -0.5450
 8646SOL     OW37573   1.457   0.339   7.766 -0.2023  0.1512 -0.4333
 8646SOL    HW137574   1.512   0.302   7.698  2.7319  2.7649  0.4933
 8646SOL    HW237575   1.536   0.368   7.812 -1.1820  2.3052 -0.0709
 8647SOL     OW37576   2.135   3.422   3.782 -0.9619  0.3692 -0.8737
 8647SOL    HW137577   2.125   3.458   3.694  2.5663  0.3409 -1.2846
 8647SOL    HW237578   2.134   3.328   3.769  1.2514  0.2881 -0.4550
 8648SOL     OW37579   1.440   3.420  14.795  0.0268 -0.1724 -0.4075
 8648SOL    HW137580   1.399   3.466  14.721 -2.2363 -0.9106  0.4015
 8648SOL    HW237581   1.461   3.337  14.752 -2.5108 -2.2919  2.5208
 8649SOL     OW37582   0.711   3.836   0.324 -0.0023  0.2128 -0.2358
 8649SOL    HW137583   0.625   3.855   0.361 -0.8110 -1.5596 -1.1625
 8649SOL    HW237584   0.714   3.906   0.259 -2.3696  0.5988  0.0646
 8650SOL     OW37585   2.485   0.456   3.134 -0.3997 -0.1179 -0.4371
 8650SOL    HW137586   2.468   0.367   3.105 -0.9222 -0.4341  0.8686
 8650SOL    HW237587   2.396   0.491   3.124 -0.1677  0.8212  0.8357
 8651SOL     OW37588   3.184   2.064   2.873  0.1264  0.8083  0.0901
 8651SOL    HW137589   3.251   2.104   2.819 -0.2204  0.3298 -0.6892
 8651SOL    HW237590   3.105   2.052   2.821 -0.6416 -1.4289  1.7273
 8652SOL     OW37591   2.345   3.074   0.642 -0.3561 -0.7396  0.6570
 8652SOL    HW137592   2.307   2.997   0.601  3.0379 -0.3797 -3.1595
 8652SOL    HW237593   2.432   3.075   0.601 -0.9466 -0.0088 -0.5559
 8653SOL     OW37594   3.131   1.674  15.028 -0.3345  0.3574 -0.1527
 8653SOL    HW137595   3.152   1.765  15.008  1.9470  0.1648  1.2860
 8653SOL    HW237596   3.111   1.640  14.940  1.1307 -3.1967  0.8845
 8654SOL     OW37597   3.100   3.179  15.570 -0.3015  0.3520 -0.0196
 8654SOL    HW137598   3.050   3.119  15.626  1.1051  0.3301  1.2025
 8654SOL    HW237599   3.172   3.190  15.633 -0.5388 -1.5797  0.5744
 8655SOL     OW37600   0.281   3.842   6.528 -0.2471  0.1931 -0.4423
 8655SOL    HW137601   0.231   3.866   6.606  2.3281 -0.3946  1.3733
 8655SOL    HW237602   0.347   3.911   6.533  1.1763 -1.1647 -0.6789
 8656SOL     OW37603   1.344   0.181  10.551 -0.3331  0.2956  0.6620
 8656SOL    HW137604   1.282   0.224  10.491  0.1639 -1.3659 -1.0367
 8656SOL    HW237605   1.356   0.097  10.505 -1.2369  0.1126  0.7593
 8657SOL     OW37606   0.265   4.366   9.185  0.0567 -0.1434 -0.9371
 8657SOL    HW137607   0.272   4.448   9.234  0.8232 -0.6199 -0.2296
 8657SOL    HW237608   0.179   4.376   9.144 -1.1993 -2.1327  1.2069
 8658SOL     OW37609   4.531   1.893   2.989 -0.2291 -1.0342 -0.5273
 8658SOL    HW137610   4.492   1.969   2.945  3.5208  1.4538  0.4952
 8658SOL    HW237611   4.533   1.902   3.084  0.9102 -0.1947 -0.6450
 8659SOL     OW37612   2.194   1.569   4.164 -0.4615 -0.0545 -0.3634
 8659SOL    HW137613   2.201   1.627   4.240  1.5287 -1.8567  0.8298
 8659SOL    HW237614   2.261   1.502   4.177 -0.0421  0.2874 -0.7593
 8660SOL     OW37615   3.739   3.654  12.379  0.0677 -0.0606  0.4030
 8660SOL    HW137616   3.828   3.688  12.387  0.4044 -0.9029  0.2877
 8660SOL    HW237617   3.746   3.595  12.304 -0.2661 -0.1438  0.4396
 8661SOL     OW37618   0.650   0.572   0.332 -0.5374  0.3595  0.6513
 8661SOL    HW137619   0.666   0.545   0.422  0.7253  0.1438  0.3594
 8661SOL    HW237620   0.569   0.623   0.332 -2.2284 -2.2652 -3.3739
 8662SOL     OW37621   2.554   3.904   3.033  0.3185  0.3150 -0.1353
 8662SOL    HW137622   2.544   3.821   2.987 -1.7235 -1.4225  3.4264
 8662SOL    HW237623   2.553   3.875   3.125 -0.7979  0.9001  0.0378
 8663SOL     OW37624   3.925   2.369  10.150 -0.3028  0.1172  1.1207
 8663SOL    HW137625   3.875   2.427  10.208 -1.3146 -0.0657  0.4317
 8663SOL    HW237626   3.869   2.293  10.137  0.3266  0.0095 -0.9222
 8664SOL     OW37627   1.029   4.178   3.318  0.0007  1.2339  0.1115
 8664SOL    HW137628   0.935   4.185   3.331  0.0760  0.6733  0.9734
 8664SOL    HW237629   1.037   4.083   3.329 -0.0939  1.1460 -0.6018
 8665SOL     OW37630   3.563   2.773   6.120 -0.5286  0.0840 -0.8366
 8665SOL    HW137631   3.593   2.849   6.171  0.5428 -1.2512  0.5269
 8665SOL    HW237632   3.640   2.718   6.109  0.6385  1.3800  0.9157
 8666SOL     OW37633   4.044   0.547   1.694 -0.5519  0.5492  0.6268
 8666SOL    HW137634   4.009   0.512   1.612  3.5366 -0.5067 -0.6282
 8666SOL    HW237635   4.017   0.490   1.766  0.0848  0.3221  0.6827
 8667SOL     OW37636   4.606   0.515   7.719 -0.0397  0.0770  0.0961
 8667SOL    HW137637   4.592   0.548   7.630 -0.8449  0.1519  0.2498
 8667SOL    HW237638   4.583   0.594   7.769 -1.5598  0.7637 -1.6617
 8668SOL     OW37639   2.017   3.759   8.321  0.0870 -0.0345  0.0557
 8668SOL    HW137640   1.984   3.809   8.246 -1.5119  1.8061  1.9701
 8668SOL    HW237641   1.986   3.671   8.298  0.2999 -0.2847  0.7216
 8669SOL     OW37642   0.587   2.849  11.285  0.3291  0.0249  0.4119
 8669SOL    HW137643   0.518   2.894  11.333 -0.7502  0.9424 -2.0037
 8669SOL    HW237644   0.555   2.759  11.277  1.5496 -0.5286  1.7002
 8670SOL     OW37645   1.162   3.445   2.231  0.2435  0.1594  1.0714
 8670SOL    HW137646   1.198   3.362   2.262  0.9480 -0.6092 -1.8510
 8670SOL    HW237647   1.170   3.451   2.136 -2.6519  0.8516  0.8723
 8671SOL     OW37648   0.086   2.441   7.458 -0.3623 -0.0753 -0.0608
 8671SOL    HW137649   0.106   2.388   7.535 -0.6119  1.2840  0.9483
 8671SOL    HW237650   0.152   2.510   7.464 -0.2554 -0.2075  0.2790
 8672SOL     OW37651   4.460   2.220   5.477 -0.9455  0.0093 -0.0207
 8672SOL    HW137652   4.525   2.289   5.484 -1.3079  0.1466  2.0047
 8672SOL    HW237653   4.488   2.183   5.393  1.5615 -0.3951  0.9826
 8673SOL     OW37654   4.540   0.452   5.226 -0.2973 -0.5420  0.5012
 8673SOL    HW137655   4.561   0.398   5.149 -1.5799 -0.4462  0.0761
 8673SOL    HW237656   4.527   0.540   5.190 -0.8396 -1.7601 -2.2840
 8674SOL     OW37657   4.646   0.999  16.818 -1.2103 -0.0250  0.5236
 8674SOL    HW137658   4.726   1.041  16.786 -0.6855 -1.0464  0.5148
 8674SOL    HW237659   4.666   0.973  16.908  1.7742 -0.8134 -0.3651
 8675SOL     OW37660   0.488   0.628   7.649 -0.4317  0.3775 -0.5064
 8675SOL    HW137661   0.399   0.661   7.659 -0.9129 -1.5502  1.6133
 8675SOL    HW237662   0.531   0.701   7.605  2.7293 -1.4745 -0.4741
 8676SOL     OW37663   3.794   1.988   6.785  0.2635  0.8853  0.4042
 8676SOL    HW137664   3.833   1.924   6.725 -0.5047  0.8784 -0.0819
 8676SOL    HW237665   3.734   2.034   6.727  0.7328 -0.3665 -1.0824
 8677SOL     OW37666   0.945   3.356   8.534  0.5882 -0.4319 -0.1862
 8677SOL    HW137667   0.906   3.271   8.512  0.2497  0.3457 -2.5202
 8677SOL    HW237668   1.039   3.339   8.536  0.3354 -1.8684 -0.3908
 8678SOL     OW37669   3.933   2.528   9.242 -0.8032  0.0087 -0.4271
 8678SOL    HW137670   3.929   2.473   9.164  0.9841 -0.9736  0.1904
 8678SOL    HW237671   3.956   2.615   9.210  1.1213  0.3379  1.8495
 8679SOL     OW37672   2.127   4.492  10.690 -0.7098 -0.6607 -0.3350
 8679SOL    HW137673   2.207   4.441  10.697  0.2044  1.3381  4.1969
 8679SOL    HW237674   2.144   4.555  10.619  0.1129 -2.8388 -2.0539
 8680SOL     OW37675   1.389   2.372   2.503 -0.5171  0.3056 -0.3366
 8680SOL    HW137676   1.387   2.444   2.440 -2.2122 -0.4048 -1.1244
 8680SOL    HW237677   1.428   2.299   2.455  1.2484  0.4161  0.9563
 8681SOL     OW37678   3.423   2.778   2.651 -0.1714 -0.0759  0.7879
 8681SOL    HW137679   3.386   2.716   2.588  2.9452  0.3611 -1.4358
 8681SOL    HW237680   3.341   2.826   2.662 -0.9381 -1.1793 -0.1278
 8682SOL     OW37681   1.590   1.010  10.400  0.0006 -0.2139  0.3855
 8682SOL    HW137682   1.592   1.093  10.446 -0.6451  0.0336 -0.0214
 8682SOL    HW237683   1.513   0.969  10.440  0.5766 -0.7614  0.9306
 8683SOL     OW37684   3.123   1.444   3.746  0.0600  0.3519  0.1638
 8683SOL    HW137685   3.145   1.521   3.797 -0.5468 -0.0183  0.9871
 8683SOL    HW237686   3.178   1.456   3.668  2.2069  0.0129  1.6219
 8684SOL     OW37687   0.980   2.314   6.132 -0.0476 -0.0611  0.4482
 8684SOL    HW137688   1.031   2.254   6.078  1.0649  0.0666  1.3549
 8684SOL    HW237689   1.046   2.336   6.198  0.4925 -0.2636 -0.0188
 8685SOL     OW37690   2.539   1.991   6.999  0.4457 -0.3114 -0.3814
 8685SOL    HW137691   2.610   2.041   6.959 -1.9025  2.0529 -1.6291
 8685SOL    HW237692   2.464   2.032   6.955  0.8281 -1.0557 -1.7073
 8686SOL     OW37693   1.508   3.538   7.991  0.1168  0.4478 -0.6547
 8686SOL    HW137694   1.544   3.482   8.059  1.1159 -0.1190 -1.6593
 8686SOL    HW237695   1.455   3.483   7.934 -1.1801  0.7020  0.2885
 8687SOL     OW37696   4.439   1.364   7.204 -0.1870  0.4865 -0.4002
 8687SOL    HW137697   4.379   1.369   7.129 -0.1720  0.1440 -0.4343
 8687SOL    HW237698   4.377   1.364   7.277 -2.4414  1.0402 -2.2755
 8688SOL     OW37699   4.623   0.275   8.475  0.1073 -0.4144 -0.0571
 8688SOL    HW137700   4.627   0.216   8.550  1.5928  0.6391  0.7029
 8688SOL    HW237701   4.564   0.347   8.498  3.3672  2.5701 -0.8712
 8689SOL     OW37702   2.496   3.624   3.602  0.3710 -0.3282 -0.3086
 8689SOL    HW137703   2.485   3.664   3.688  1.2470  0.5976 -0.6231
 8689SOL    HW237704   2.465   3.694   3.544  1.6289 -0.6055 -1.3260
 8690SOL     OW37705   0.796   4.372   6.374 -0.4212 -0.4032 -0.0472
 8690SOL    HW137706   0.728   4.402   6.313  0.4998 -0.3037 -1.0239
 8690SOL    HW237707   0.768   4.397   6.462  0.8684  1.3523 -0.1422
 8691SOL     OW37708   2.554   0.858   7.127  0.0961 -0.4890 -0.4324
 8691SOL    HW137709   2.486   0.846   7.060  0.2956 -2.9241 -0.2311
 8691SOL    HW237710   2.613   0.801   7.077  0.6569 -0.7321  0.5161
 8692SOL     OW37711   1.305   2.992  10.498  0.3244 -0.1746 -0.2792
 8692SOL    HW137712   1.352   2.908  10.502  3.1079  1.4510  1.3509
 8692SOL    HW237713   1.371   3.049  10.537 -0.6668 -0.5633  1.9716
 8693SOL     OW37714   0.441   3.029   1.359 -0.2173 -0.1346 -0.0735
 8693SOL    HW137715   0.400   3.089   1.295 -0.7644  1.0432  1.3853
 8693SOL    HW237716   0.473   2.953   1.311  3.2465  0.7176  0.9097
 8694SOL     OW37717   4.242   1.111   0.028 -0.1167 -0.1615  0.1725
 8694SOL    HW137718   4.307   1.049   0.060 -0.0189 -0.5693 -0.8161
 8694SOL    HW237719   4.192   1.119   0.109  1.1067  0.1414  0.8936
 8695SOL     OW37720   0.914   3.446   6.786 -0.4265 -0.7004  0.0591
 8695SOL    HW137721   0.833   3.409   6.820  0.2047 -2.4781 -0.3829
 8695SOL    HW237722   0.954   3.364   6.757 -0.2923 -0.4749 -0.3998
 8696SOL     OW37723   0.138   4.468  13.405 -0.0216  0.0709 -0.3740
 8696SOL    HW137724   0.125   4.550  13.452 -0.2592  0.2886 -0.8295
 8696SOL    HW237725   0.054   4.425  13.417  0.9915 -1.8077  0.0987
 8697SOL     OW37726   3.243   4.352   3.419 -0.1673 -0.4359 -0.2999
 8697SOL    HW137727   3.230   4.375   3.511  1.7750 -1.5466  0.2377
 8697SOL    HW237728   3.157   4.380   3.388  1.2152  4.2588  0.1551
 8698SOL     OW37729   3.836   2.286   8.156  0.2895  0.3186  0.2825
 8698SOL    HW137730   3.810   2.200   8.188  1.0217  0.2041  0.5704
 8698SOL    HW237731   3.861   2.330   8.237  1.5884 -0.5801  0.3617
 8699SOL     OW37732   0.556   4.175   2.725  0.3519  0.0096 -0.1716
 8699SOL    HW137733   0.605   4.182   2.807 -2.6542  0.2867  1.5911
 8699SOL    HW237734   0.503   4.095   2.725  0.6028 -0.1587 -0.2775
 8700SOL     OW37735   0.215   2.085   5.046 -0.5322 -0.5735 -0.3469
 8700SOL    HW137736   0.170   2.001   5.039 -2.7757  0.7641 -1.9875
 8700SOL    HW237737   0.189   2.103   5.136  0.6795  0.6752 -0.2414
 8701SOL     OW37738   0.168   4.297   4.042  0.0357 -0.0042  1.0513
 8701SOL    HW137739   0.161   4.314   4.135 -1.6360 -2.4484  1.3773
 8701SOL    HW237740   0.255   4.256   4.036 -0.7269 -1.6849  1.3913
 8702SOL     OW37741   3.544   0.971   1.401  0.1610 -0.0439 -0.2859
 8702SOL    HW137742   3.621   0.920   1.426  1.4442  1.8780 -0.3862
 8702SOL    HW237743   3.580   1.041   1.346  2.1411 -2.3614 -1.9660
 8703SOL     OW37744   0.905   3.345   5.512  0.1886  0.5437  0.0075
 8703SOL    HW137745   0.862   3.260   5.522 -0.3252  0.9233  1.0782
 8703SOL    HW237746   0.985   3.319   5.467  0.1400 -1.2869  0.9874
 8704SOL     OW37747   2.238   1.261   2.289  0.3857 -0.4812  0.0080
 8704SOL    HW137748   2.308   1.272   2.353  1.1129 -1.2507 -0.6702
 8704SOL    HW237749   2.199   1.181   2.323  0.5539 -1.1062 -1.2739
 8705SOL     OW37750   4.585   3.063   4.749  0.6919  0.0763 -0.0283
 8705SOL    HW137751   4.670   3.021   4.742  0.5373 -0.7556  3.1125
 8705SOL    HW237752   4.533   3.019   4.681  1.6257 -1.4434  0.2441
 8706SOL     OW37753   0.886   3.931  13.222 -0.0773  0.0828 -0.0508
 8706SOL    HW137754   0.792   3.915  13.207  0.1198 -1.9839  0.8945
 8706SOL    HW237755   0.912   3.859  13.279 -1.7385 -0.8336 -0.4428
 8707SOL     OW37756   3.956   3.665  16.546 -0.0731 -0.1611 -0.0071
 8707SOL    HW137757   3.895   3.596  16.520 -1.0581  0.7407 -0.0730
 8707SOL    HW237758   4.035   3.615  16.525 -0.4675 -0.3846 -0.9544
 8708SOL     OW37759   3.497   3.115   5.142 -0.5435  0.4092 -0.6389
 8708SOL    HW137760   3.481   3.114   5.048  1.0147 -2.1578 -0.8871
 8708SOL    HW237761   3.586   3.147   5.157 -0.6054 -0.6792  2.1583
 8709SOL     OW37762   0.549   2.602   1.713  0.5754  0.0308  0.4424
 8709SOL    HW137763   0.526   2.526   1.660 -1.3412  0.5433  0.5239
 8709SOL    HW237764   0.611   2.652   1.661  1.0193 -1.5752 -0.5369
 8710SOL     OW37765   3.554   1.760   9.225 -0.0276 -0.3510 -0.1753
 8710SOL    HW137766   3.635   1.811   9.235 -0.8195  1.2211 -1.8339
 8710SOL    HW237767   3.540   1.722   9.312 -1.9018 -0.2524 -0.4467
 8711SOL     OW37768   2.442   0.742  15.314  0.2180  0.2326  0.0665
 8711SOL    HW137769   2.447   0.837  15.302 -1.0868  0.3861  0.7420
 8711SOL    HW237770   2.360   0.747  15.364  2.0204  1.4286  2.8188
 8712SOL     OW37771   2.261   1.541  11.021 -0.0326 -0.3513 -0.2879
 8712SOL    HW137772   2.313   1.594  10.960 -1.7434  1.6036 -0.0415
 8712SOL    HW237773   2.170   1.555  10.995 -0.5114 -1.2255  0.9459
 8713SOL     OW37774   2.838   4.231   4.093 -0.0114 -0.1254  0.2099
 8713SOL    HW137775   2.841   4.156   4.032 -0.3616  0.3032 -0.3269
 8713SOL    HW237776   2.813   4.298   4.030 -1.8032  1.5552  2.7383
 8714SOL     OW37777   4.727   2.604   3.809 -0.3052 -0.1741 -0.6270
 8714SOL    HW137778   4.678   2.627   3.888 -1.4382  1.9603 -1.9666
 8714SOL    HW237779   4.677   2.524   3.791  0.0259 -0.4941 -0.1433
 8715SOL     OW37780   0.534   1.043   9.864  0.4225  0.1203 -0.3450
 8715SOL    HW137781   0.530   0.987   9.787 -1.4558  1.6468 -1.3745
 8715SOL    HW237782   0.508   0.979   9.930  0.6295  0.4559  0.0648
 8716SOL     OW37783   3.402   1.746   6.877  0.3327  0.0050 -0.5057
 8716SOL    HW137784   3.435   1.699   6.800 -0.4153 -1.3851  0.0208
 8716SOL    HW237785   3.482   1.785   6.912 -1.2393  1.0602  1.8928
 8717SOL     OW37786   2.513   1.065   8.027  0.0956 -0.0364  0.4862
 8717SOL    HW137787   2.577   1.001   7.998  1.1539  1.5766 -0.7123
 8717SOL    HW237788   2.573   1.138   8.043  0.7502 -0.1632 -1.5034
 8718SOL     OW37789   1.240   2.431   3.524  0.0585 -0.1669 -0.2524
 8718SOL    HW137790   1.299   2.468   3.458  1.5892 -0.7508  0.7842
 8718SOL    HW237791   1.297   2.360   3.555  0.8598  0.7711  0.4007
 8719SOL     OW37792   0.013   3.091   7.863 -0.3118 -0.4900  0.3664
 8719SOL    HW137793   0.010   3.111   7.956  0.4226 -1.5778  0.6226
 8719SOL    HW237794   4.726   2.998   7.857 -2.3956  0.1274 -1.5505
 8720SOL     OW37795   4.388   4.180   8.011 -0.6091 -0.0942  0.0722
 8720SOL    HW137796   4.319   4.208   7.951  0.8847  0.6038 -1.3240
 8720SOL    HW237797   4.348   4.094   8.026 -1.0295  0.2525  0.9157
 8721SOL     OW37798   2.171   3.738   2.411 -0.6880 -0.3185 -0.4388
 8721SOL    HW137799   2.267   3.743   2.408 -0.7273  0.5690 -0.1158
 8721SOL    HW237800   2.162   3.659   2.465  1.3133 -0.2734 -0.0320
 8722SOL     OW37801   0.214   2.208   3.426 -0.7682 -0.1233  0.0191
 8722SOL    HW137802   0.201   2.203   3.332 -0.0201  0.1588 -0.0984
 8722SOL    HW237803   0.212   2.303   3.437 -0.0431 -0.2202  1.0751
 8723SOL     OW37804   2.497   1.835  13.908  0.7084 -0.1913 -0.1728
 8723SOL    HW137805   2.471   1.747  13.881 -1.5148  0.5065 -0.2562
 8723SOL    HW237806   2.429   1.886  13.865  0.6927 -2.0058 -2.2837
 8724SOL     OW37807   4.676   0.342  16.973 -0.4053 -0.4125 -0.4328
 8724SOL    HW137808   4.633   0.426  16.959  0.7674  0.1282 -0.7944
 8724SOL    HW237809   4.623   0.308  17.045  0.0606  0.2182  0.2057
 8725SOL     OW37810   2.715   1.211   9.216  0.4438  0.2793 -0.5287
 8725SOL    HW137811   2.806   1.237   9.197  0.6162 -0.0184 -0.1182
 8725SOL    HW237812   2.724   1.122   9.252  2.6100  0.2214 -1.2238
 8726SOL     OW37813   4.514   0.008  15.037 -0.0295  0.5778 -0.2239
 8726SOL    HW137814   4.550   0.097  15.047  0.5218  0.4371 -0.9333
 8726SOL    HW237815   4.549   4.719  14.951  0.7474  0.2759  0.1775
 8727SOL     OW37816   0.345   2.576   5.807 -0.4171 -0.2459 -0.6832
 8727SOL    HW137817   0.369   2.665   5.780 -0.2805  0.1724  0.8465
 8727SOL    HW237818   0.388   2.534   5.732  1.0056 -1.9949  1.0987
 8728SOL     OW37819   1.031   1.622   6.539  0.5056  0.7707 -0.2139
 8728SOL    HW137820   1.051   1.624   6.633 -1.0421 -1.9481  0.1835
 8728SOL    HW237821   1.073   1.703   6.512  0.8216  0.2715 -1.2210
 8729SOL     OW37822   1.656   0.211  10.367 -0.5892 -0.0151  0.1812
 8729SOL    HW137823   1.663   0.165  10.451 -0.2459 -0.3804 -0.0435
 8729SOL    HW237824   1.743   0.251  10.371  0.1580 -1.4879 -1.2947
 8730SOL     OW37825   0.356   3.221   4.259  0.1967 -0.0879 -0.1614
 8730SOL    HW137826   0.406   3.229   4.340  1.4945  1.0171 -1.0923
 8730SOL    HW237827   0.419   3.254   4.195 -0.0597 -0.5956 -0.6806
 8731SOL     OW37828   1.062   1.905   2.304  0.2574  0.4836 -0.2006
 8731SOL    HW137829   1.103   1.989   2.326  2.1691 -0.8571  1.3309
 8731SOL    HW237830   0.992   1.934   2.246  1.6844  1.2386 -1.5345
 8732SOL     OW37831   2.707   3.744   7.003 -0.4709  0.0597  0.0551
 8732SOL    HW137832   2.760   3.824   6.998  1.6471 -1.3189  0.4607
 8732SOL    HW237833   2.769   3.677   6.972  0.1945  0.4575  0.5335
 8733SOL     OW37834   3.422   4.727  14.309 -0.5191  0.3450  0.1610
 8733SOL    HW137835   3.477   4.678  14.248  1.1939  1.8095  0.5256
 8733SOL    HW237836   3.372   0.028  14.236 -0.5770 -1.3527 -0.6598
 8734SOL     OW37837   1.181   1.938   1.361 -0.1892 -0.5797 -0.1321
 8734SOL    HW137838   1.093   1.913   1.333 -0.4599  1.1915 -0.8296
 8734SOL    HW237839   1.185   1.903   1.450  1.6008 -0.0842 -0.0150
 8735SOL     OW37840   3.241   0.253   4.555 -0.6415  0.2088 -0.2695
 8735SOL    HW137841   3.304   0.233   4.486  2.4167 -0.2423  2.6686
 8735SOL    HW237842   3.271   0.341   4.579  1.4848 -0.2034 -1.4587
 8736SOL     OW37843   1.807   0.068   4.105 -0.6590 -0.2160 -0.3260
 8736SOL    HW137844   1.728   0.111   4.073 -0.8171 -0.1568  0.1410
 8736SOL    HW237845   1.868   0.142   4.109 -0.1498 -0.6614  0.2270
 8737SOL     OW37846   0.251   3.866   4.770  0.4631  0.2591  0.1098
 8737SOL    HW137847   0.240   3.893   4.861 -1.9569  1.1028 -0.4157
 8737SOL    HW237848   0.159   3.863   4.741  0.4143  0.6272  0.2259
 8738SOL     OW37849   3.011   1.238  12.156  0.1302  0.6750  0.1769
 8738SOL    HW137850   2.939   1.263  12.214 -1.1635  0.6772 -1.4404
 8738SOL    HW237851   3.088   1.252  12.212 -0.2580  2.4790  0.2510
 8739SOL     OW37852   0.569   4.146   1.715  0.4128 -0.1288  0.0949
 8739SOL    HW137853   0.591   4.088   1.642 -0.4505 -2.4579  1.7083
 8739SOL    HW237854   0.556   4.082   1.785 -0.8504  0.8026  0.7288
 8740SOL     OW37855   3.128   3.361   3.567 -0.2881  0.4233  0.5769
 8740SOL    HW137856   3.041   3.329   3.541 -0.0444 -0.8203  1.3238
 8740SOL    HW237857   3.166   3.361   3.479  0.5127  0.4757  0.9268
 8741SOL     OW37858   4.611   3.025   2.616  0.2106 -0.6794 -0.0430
 8741SOL    HW137859   4.611   2.992   2.706 -0.6456 -0.0836  0.1724
 8741SOL    HW237860   4.574   3.111   2.635 -0.6976 -0.8255 -1.1052
 8742SOL     OW37861   4.219   1.178  10.873  0.9168 -0.0850 -0.5151
 8742SOL    HW137862   4.210   1.117  10.946 -0.0462  2.9327  1.9115
 8742SOL    HW237863   4.307   1.203  10.901  1.4759 -2.2003 -0.3585
 8743SOL     OW37864   2.740   0.164   4.061  0.8876  0.1864 -1.1081
 8743SOL    HW137865   2.730   0.252   4.025  1.9942  0.7983  0.0692
 8743SOL    HW237866   2.665   0.124   4.016  0.2241 -0.7357  0.8204
 8744SOL     OW37867   1.574   1.018   5.303  0.3365  0.3004 -0.8798
 8744SOL    HW137868   1.527   1.101   5.313 -0.3096 -0.3896  1.6333
 8744SOL    HW237869   1.664   1.050   5.304  0.2120  0.7086 -3.0811
 8745SOL     OW37870   1.355   1.179   9.253  1.1723 -0.0196 -0.3409
 8745SOL    HW137871   1.330   1.119   9.324 -1.7675  0.5220 -0.9075
 8745SOL    HW237872   1.269   1.207   9.221  1.5416  2.5145  0.9459
 8746SOL     OW37873   0.537   1.653  11.432 -0.4351 -0.5846 -0.5161
 8746SOL    HW137874   0.442   1.648  11.448 -0.3952 -0.4598 -0.2469
 8746SOL    HW237875   0.561   1.571  11.474  0.4841 -0.6270 -1.1344
 8747SOL     OW37876   3.663   2.877   3.062 -0.7593 -0.1859 -0.2642
 8747SOL    HW137877   3.704   2.918   2.986  0.7178  3.1308  2.3312
 8747SOL    HW237878   3.627   2.956   3.103 -0.1468 -0.8663  1.5922
 8748SOL     OW37879   2.196   2.728  13.921  0.0276  0.5521  0.1046
 8748SOL    HW137880   2.203   2.712  14.016 -3.0182 -0.4032  0.1461
 8748SOL    HW237881   2.214   2.822  13.928 -0.1132  0.6219 -0.5598
 8749SOL     OW37882   0.195   2.201  14.744 -0.6714  0.7669  0.7556
 8749SOL    HW137883   0.102   2.212  14.725 -0.5217  0.0122 -0.4749
 8749SOL    HW237884   0.200   2.166  14.833  2.1465 -0.4886  0.1133
 8750SOL     OW37885   3.702   1.773   0.490  0.1354  0.2256  0.2557
 8750SOL    HW137886   3.645   1.846   0.512  1.1677  0.8319  0.9049
 8750SOL    HW237887   3.647   1.698   0.513  1.9671 -1.1631  0.1473
 8751SOL     OW37888   1.511   0.016   3.950  0.0166 -0.0512  0.1277
 8751SOL    HW137889   1.440   0.054   3.898 -0.1876 -0.0039  0.4416
 8751SOL    HW237890   1.466   0.029   4.033 -2.1379  2.2655 -1.4004
 8752SOL     OW37891   2.035   1.585   8.420 -0.4640  0.4617  1.3829
 8752SOL    HW137892   1.950   1.572   8.377  0.0373 -0.1541  0.5653
 8752SOL    HW237893   2.048   1.680   8.414  1.9429  0.0690  0.3071
 8753SOL     OW37894   3.657   4.301   7.923  0.4489  0.0509 -0.0234
 8753SOL    HW137895   3.663   4.259   7.838  0.3576  0.9564 -0.4772
 8753SOL    HW237896   3.686   4.223   7.972  0.8067  0.7717  0.9258
 8754SOL     OW37897   0.989   2.903   7.248  0.1161 -0.5233  0.4080
 8754SOL    HW137898   1.063   2.925   7.305 -0.6744 -0.4566  1.4045
 8754SOL    HW237899   0.981   2.979   7.192  0.8267 -0.3985  0.4704
 8755SOL     OW37900   0.862   0.392   5.341  0.4155 -0.0958 -0.2379
 8755SOL    HW137901   0.834   0.474   5.299 -0.0803  0.1212  0.5260
 8755SOL    HW237902   0.860   0.343   5.259 -0.3129 -0.9975  0.3272
 8756SOL     OW37903   2.576   1.657  12.543 -0.0678  0.1441 -0.3017
 8756SOL    HW137904   2.647   1.622  12.490  0.2562  0.1385  0.1405
 8756SOL    HW237905   2.592   1.619  12.629  0.3952  0.0088 -0.4481
 8757SOL     OW37906   1.427   0.077  17.236 -0.1608 -0.1227  0.4154
 8757SOL    HW137907   1.339   0.104  17.210  1.6359  3.9422 -1.4143
 8757SOL    HW237908   1.407   4.722  17.255 -1.5221  0.5585  2.1845
 8758SOL     OW37909   1.654   0.941   6.971 -0.5148 -0.5070 -0.3954
 8758SOL    HW137910   1.659   0.994   6.892  4.9968 -0.6192 -0.1367
 8758SOL    HW237911   1.701   0.997   7.033 -0.8625 -0.9030  0.2244
 8759SOL     OW37912   3.393   1.925   3.293  0.3002  0.0929 -0.3460
 8759SOL    HW137913   3.390   1.998   3.231 -0.5579  0.6693  0.3792
 8759SOL    HW237914   3.487   1.913   3.281 -0.0556 -3.1733  0.0606
 8760SOL     OW37915   1.672   2.994   9.732 -0.0368 -0.4908  0.5470
 8760SOL    HW137916   1.588   2.953   9.755  0.3232 -1.3531  0.3222
 8760SOL    HW237917   1.732   2.922   9.750 -0.8555 -1.3334 -0.0687
 8761SOL     OW37918   2.751   0.254   3.121  0.5681  0.0689 -0.1784
 8761SOL    HW137919   2.664   0.282   3.147  0.1475 -1.5390  0.1578
 8761SOL    HW237920   2.744   0.240   3.027 -1.2849  2.4907 -0.3855
 8762SOL     OW37921   2.976   2.742  12.731  0.1607 -0.7861 -0.0122
 8762SOL    HW137922   2.934   2.816  12.686 -2.3211 -0.4346  2.9116
 8762SOL    HW237923   3.062   2.781  12.747  0.0224 -0.1235 -0.8610
 8763SOL     OW37924   3.235   1.968   6.958  0.3183  0.0770 -0.6000
 8763SOL    HW137925   3.151   1.930   6.983  0.2909  0.5619  0.0557
 8763SOL    HW237926   3.288   1.899   6.918 -0.5654  0.3432 -2.1956
 8764SOL     OW37927   3.172   4.406   7.779 -0.5990  0.4541 -0.2101
 8764SOL    HW137928   3.230   4.454   7.838 -1.0494  0.1425  0.4943
 8764SOL    HW237929   3.097   4.385   7.835 -0.1302 -1.7402 -0.3978
 8765SOL     OW37930   3.642   0.315  11.095 -0.5010 -0.2050 -0.2177
 8765SOL    HW137931   3.641   0.410  11.108  0.2152 -0.4408  1.6224
 8765SOL    HW237932   3.677   0.307  11.006  1.2841  0.2201  0.4412
 8766SOL     OW37933   3.403   2.342  10.924  0.1581 -0.5495  0.3702
 8766SOL    HW137934   3.430   2.424  10.966  1.0786  1.4338 -4.1034
 8766SOL    HW237935   3.469   2.277  10.947  1.5565  0.2586 -1.3527
 8767SOL     OW37936   4.477   3.684  14.982 -0.0754 -0.0811 -0.2547
 8767SOL    HW137937   4.564   3.721  14.970 -1.8088  3.7608 -0.8725
 8767SOL    HW237938   4.425   3.764  14.982 -1.4495 -0.9603  2.9576
 8768SOL     OW37939   3.859   0.552  11.647  0.3527 -0.9576 -0.1255
 8768SOL    HW137940   3.925   0.621  11.640  0.0009 -0.6646 -0.5677
 8768SOL    HW237941   3.849   0.519  11.558 -1.9544 -1.2874  0.2502
 8769SOL     OW37942   2.834   2.241   8.523  0.2933  0.6360  0.3832
 8769SOL    HW137943   2.811   2.149   8.531 -1.5988  1.1126  0.4642
 8769SOL    HW237944   2.824   2.260   8.429 -0.3936  3.6883  1.0562
 8770SOL     OW37945   3.472   0.669   6.284  0.1563 -0.1763 -0.2979
 8770SOL    HW137946   3.408   0.722   6.236 -0.5793 -0.7510  0.0577
 8770SOL    HW237947   3.421   0.652   6.363  1.0262  0.0593  0.3199
 8771SOL     OW37948   0.665   1.131  14.708  0.6924 -0.2065  0.2432
 8771SOL    HW137949   0.737   1.106  14.650  0.2031  2.2724 -1.4214
 8771SOL    HW237950   0.595   1.067  14.694 -2.3571  2.9467  0.8749
 8772SOL     OW37951   1.841   4.099  10.241 -0.6026  0.0329 -0.4402
 8772SOL    HW137952   1.816   4.189  10.219 -2.2637 -1.2771 -3.8572
 8772SOL    HW237953   1.862   4.064  10.154  2.4464 -2.1221  1.1819
 8773SOL     OW37954   3.533   3.496   5.032  0.4717 -0.8989 -0.8014
 8773SOL    HW137955   3.561   3.417   4.985  1.5140 -0.7614 -0.4119
 8773SOL    HW237956   3.489   3.535   4.957 -0.6922 -2.6566 -1.0441
 8774SOL     OW37957   3.625   1.945   5.736  0.3715  0.3305 -0.1270
 8774SOL    HW137958   3.681   2.003   5.788  0.4472  0.3401 -0.2209
 8774SOL    HW237959   3.552   2.005   5.719  1.1890  1.2889 -0.2536
 8775SOL     OW37960   2.044   3.358   6.791 -0.5679  0.2464  0.0068
 8775SOL    HW137961   1.989   3.282   6.773  0.3144 -0.2524 -0.5828
 8775SOL    HW237962   2.035   3.369   6.885  0.9935  0.4827  0.1383
 8776SOL     OW37963   2.611   3.888  13.195 -0.6245  0.2458  0.0660
 8776SOL    HW137964   2.517   3.886  13.214 -0.8225 -0.7827 -0.9573
 8776SOL    HW237965   2.609   3.835  13.114 -2.1967 -0.0635  0.3072
 8777SOL     OW37966   3.858   1.224   2.342 -0.2141 -0.0250  0.6198
 8777SOL    HW137967   3.943   1.197   2.307 -0.0978  2.7817 -1.2310
 8777SOL    HW237968   3.798   1.149   2.345 -3.8446  2.8041 -1.5765
 8778SOL     OW37969   2.865   4.683   7.107 -0.7171  0.4092 -0.0228
 8778SOL    HW137970   2.909   0.022   7.067 -1.0347  1.1322  0.9877
 8778SOL    HW237971   2.800   0.001   7.151  1.6751  1.5202  2.1278
 8779SOL     OW37972   2.746   3.612   7.686 -0.3137 -0.0905 -0.2734
 8779SOL    HW137973   2.703   3.693   7.715  0.4486  0.0265  0.5761
 8779SOL    HW237974   2.686   3.554   7.732 -0.9548  1.7017  1.1559
 8780SOL     OW37975   2.174   3.555   2.630 -0.9880  0.5200  0.4054
 8780SOL    HW137976   2.134   3.521   2.709 -0.7950  0.6598  0.5634
 8780SOL    HW237977   2.181   3.472   2.583 -0.9100  0.5440  0.3737
 8781SOL     OW37978   2.433   4.365   9.801  0.1004  0.7918 -0.1698
 8781SOL    HW137979   2.497   4.436   9.812 -0.1804  0.7433  1.8229
 8781SOL    HW237980   2.408   4.394   9.713 -0.5130  0.5515 -0.0742
 8782SOL     OW37981   3.228   0.456   5.736  0.1922 -0.1312 -0.2467
 8782SOL    HW137982   3.205   0.397   5.665  0.9927 -0.7264 -0.0127
 8782SOL    HW237983   3.208   0.544   5.704  0.0104 -0.2371 -0.4187
 8783SOL     OW37984   1.697   3.360   7.588  0.3014 -0.5374  0.1170
 8783SOL    HW137985   1.744   3.286   7.551  1.6779 -0.2502  1.3142
 8783SOL    HW237986   1.770   3.419   7.603 -0.1037  0.0339 -0.1262
 8784SOL     OW37987   4.328   4.117   5.016  0.0801  0.1493  0.4535
 8784SOL    HW137988   4.359   4.180   5.080  1.4338  0.6876 -0.7276
 8784SOL    HW237989   4.254   4.078   5.061 -0.7606 -0.8179 -1.7396
 8785SOL     OW37990   1.794   0.984   6.398 -0.0008 -0.5535 -0.1147
 8785SOL    HW137991   1.790   0.985   6.302 -2.2442  2.6522  0.0040
 8785SOL    HW237992   1.701   0.961   6.405  0.3682 -2.1082 -0.2234
 8786SOL     OW37993   3.185   4.730  12.928 -0.3967  0.5515 -0.4453
 8786SOL    HW137994   3.137   4.647  12.927  0.3727  0.1309 -1.9530
 8786SOL    HW237995   3.117   0.057  12.953  0.6565  1.8146 -0.7499
 8787SOL     OW37996   3.998   0.423   5.054  0.3813  0.2016  0.4008
 8787SOL    HW137997   4.030   0.510   5.077 -0.3298  0.4845  0.3214
 8787SOL    HW237998   3.908   0.418   5.084 -0.3063 -1.9645 -2.0572
 8788SOL     OW37999   2.535   2.769   1.879  0.3490  0.1529 -0.2044
 8788SOL    HW138000   2.588   2.839   1.916  5.3134 -2.0577 -3.1166
 8788SOL    HW238001   2.586   2.742   1.803  0.4597 -2.5614  0.8395
 8789SOL     OW38002   0.715   4.441  11.919  0.3331 -0.2440 -0.1427
 8789SOL    HW138003   0.691   4.518  11.970 -0.6803  0.3526 -1.5185
 8789SOL    HW238004   0.805   4.467  11.899 -0.0137  0.2257 -1.1062
 8790SOL     OW38005   3.865   4.585  14.465  0.3880  0.2119 -0.3057
 8790SOL    HW138006   3.845   4.521  14.397 -0.8362 -0.0992  0.3470
 8790SOL    HW238007   3.772   4.585  14.490  0.4814 -0.6965  0.0377
 8791SOL     OW38008   0.895   1.391   4.400  0.7393 -0.3478  0.2117
 8791SOL    HW138009   0.945   1.435   4.469  2.1680 -0.3541 -0.8275
 8791SOL    HW238010   0.956   1.374   4.328  1.2256 -0.4545  0.6536
 8792SOL     OW38011   1.286   4.040  14.813 -0.1465  0.4828 -0.5534
 8792SOL    HW138012   1.274   4.027  14.719  3.2676  0.8566 -1.0523
 8792SOL    HW238013   1.317   3.953  14.838 -1.2683  0.1262 -0.3953
 8793SOL     OW38014   1.599   1.168   3.981 -0.6553 -0.6551 -0.1654
 8793SOL    HW138015   1.592   1.258   3.949  1.0364  0.3664  2.2538
 8793SOL    HW238016   1.511   1.132   3.966 -1.7034  0.4411  3.2470
 8794SOL     OW38017   0.361   0.094   0.489 -0.1116 -0.6304  0.3200
 8794SOL    HW138018   0.342   0.147   0.412 -0.6565 -0.7121  0.4011
 8794SOL    HW238019   0.403   0.165   0.539  0.5961 -0.2014 -0.8799
 8795SOL     OW38020   3.237   1.827   6.479 -0.0978  0.6199  0.2476
 8795SOL    HW138021   3.229   1.760   6.546  1.4811  1.5936  1.4236
 8795SOL    HW238022   3.231   1.904   6.536 -1.6019  0.9830 -0.4279
 8796SOL     OW38023   4.478   3.491   3.698 -0.0907  0.1848  0.1391
 8796SOL    HW138024   4.450   3.555   3.633  0.6438 -0.4126 -0.7590
 8796SOL    HW238025   4.423   3.516   3.773  0.6936  2.2021  0.0435
 8797SOL     OW38026   2.954   2.841  11.905  0.2822 -0.0173  0.2766
 8797SOL    HW138027   2.940   2.787  11.828 -3.7928  0.7816  0.4845
 8797SOL    HW238028   2.946   2.775  11.974 -1.7864  0.6577  0.6707
 8798SOL     OW38029   0.906   3.607   2.010 -0.5928 -0.0988 -0.0300
 8798SOL    HW138030   0.877   3.518   2.028 -0.7058  0.2044  1.2645
 8798SOL    HW238031   0.998   3.583   2.000 -0.0586  1.1404  1.9305
 8799SOL     OW38032   2.207   4.206   5.923 -0.5596  0.1284 -0.6376
 8799SOL    HW138033   2.237   4.122   5.889 -1.9885 -1.2267  1.4767
 8799SOL    HW238034   2.274   4.267   5.893 -0.0193  0.5263  1.4063
 8800SOL     OW38035   4.050   0.358   8.551  0.0985  0.3195 -0.2368
 8800SOL    HW138036   4.069   0.286   8.492  0.7910  1.5789 -1.5442
 8800SOL    HW238037   4.132   0.361   8.602 -0.3739  0.1361  0.5349
 8801SOL     OW38038   2.511   1.751  11.049  0.3626  0.3808 -0.3811
 8801SOL    HW138039   2.492   1.702  10.969  0.2519  0.5631 -0.4666
 8801SOL    HW238040   2.423   1.785  11.069 -0.4095 -0.6769 -2.0655
 8802SOL     OW38041   2.112   0.623  12.223 -0.4820 -0.3445  0.0774
 8802SOL    HW138042   2.175   0.552  12.233  0.4243  0.3029 -1.0588
 8802SOL    HW238043   2.116   0.627  12.128 -0.1238 -2.0204  0.0320
 8803SOL     OW38044   0.504   2.220  12.364 -0.1893 -0.0635  0.7877
 8803SOL    HW138045   0.579   2.168  12.336 -0.8436 -0.0126 -1.0379
 8803SOL    HW238046   0.424   2.185  12.325  1.1087  0.7996 -2.5942
 8804SOL     OW38047   2.248   1.855   8.133  0.0330  0.0825  0.6431
 8804SOL    HW138048   2.288   1.849   8.046 -0.2286  1.3114  0.4417
 8804SOL    HW238049   2.307   1.793   8.176  0.3340 -0.7694 -1.0035
 8805SOL     OW38050   3.155   2.936   9.907 -0.4641 -0.1790  0.0937
 8805SOL    HW138051   3.143   2.864   9.846 -1.3995 -0.1826  0.2824
 8805SOL    HW238052   3.197   2.888   9.978  2.5544  0.6615 -1.1399
 8806SOL     OW38053   0.102   4.148  15.171  0.0445 -0.3045  0.0684
 8806SOL    HW138054   0.076   4.202  15.245  2.4975 -1.6370  1.9128
 8806SOL    HW238055   0.194   4.174  15.178 -0.3190  0.3613  2.1771
 8807SOL     OW38056   2.579   3.786   3.295 -0.2186 -0.0624 -0.1865
 8807SOL    HW138057   2.666   3.771   3.259 -0.3869 -2.8030  0.5238
 8807SOL    HW238058   2.594   3.866   3.346  1.3012  0.1346 -0.9441
 8808SOL     OW38059   4.603   4.187   3.650 -1.1118 -0.8670  0.7517
 8808SOL    HW138060   4.646   4.259   3.696  0.9574 -0.9390 -1.0195
 8808SOL    HW238061   4.513   4.218   3.647 -0.6175  0.5221  0.1055
 8809SOL     OW38062   4.045   2.424  16.769  0.0832 -0.4915  0.3020
 8809SOL    HW138063   3.974   2.404  16.831  0.5914 -0.0859  1.0140
 8809SOL    HW238064   4.040   2.347  16.712 -0.8326  0.6219 -1.1197
 8810SOL     OW38065   1.306   4.197   5.378  0.8797  0.4565  0.1723
 8810SOL    HW138066   1.375   4.203   5.445  0.8487 -2.3675  0.4517
 8810SOL    HW238067   1.261   4.117   5.405  0.4247  0.1667 -1.4551
 8811SOL     OW38068   0.573   3.902   7.235  0.3277  0.5300  0.2030
 8811SOL    HW138069   0.604   3.992   7.231  0.7451  0.3566 -0.5697
 8811SOL    HW238070   0.487   3.921   7.272 -0.6169 -2.2365 -0.5754
 8812SOL     OW38071   3.348   1.376   8.845 -0.4746 -0.4050 -0.3607
 8812SOL    HW138072   3.253   1.379   8.855 -0.4752  0.8559 -0.7965
 8812SOL    HW238073   3.369   1.283   8.859 -1.2072 -0.4010  0.7507
 8813SOL     OW38074   2.819   3.234  11.773  0.0931  0.1799  0.2031
 8813SOL    HW138075   2.866   3.184  11.840  0.7148  0.5129  0.0201
 8813SOL    HW238076   2.752   3.168  11.759 -1.2853  1.7579 -0.5799
 8814SOL     OW38077   3.950   0.541  14.644 -0.3580 -0.0768 -0.1188
 8814SOL    HW138078   3.933   0.615  14.586  0.0561 -0.3963 -0.6428
 8814SOL    HW238079   4.011   0.589  14.701  1.9452 -0.1802 -2.5067
 8815SOL     OW38080   4.676   0.900   8.628  0.3869 -0.8349 -0.6548
 8815SOL    HW138081   4.695   0.821   8.678  0.8586 -0.1239  0.2856
 8815SOL    HW238082   4.662   0.881   8.535 -0.6144 -1.9273 -0.2811
 8816SOL     OW38083   4.215   3.091   1.509  0.6354 -0.4120  0.0451
 8816SOL    HW138084   4.211   3.166   1.569 -0.9962 -1.5611  1.3843
 8816SOL    HW238085   4.180   3.130   1.430 -0.9612 -1.4950  0.2256
 8817SOL     OW38086   0.657   4.470   4.918 -0.0064  0.2710  0.2270
 8817SOL    HW138087   0.611   4.421   4.849 -2.2504  0.9833  1.2105
 8817SOL    HW238088   0.603   4.444   4.993 -1.7492  1.8812 -0.4695
 8818SOL     OW38089   1.467   2.762   5.966  0.5223  0.0103 -0.2124
 8818SOL    HW138090   1.471   2.677   5.922  0.5310  0.4550 -1.0899
 8818SOL    HW238091   1.398   2.743   6.029  0.5728 -2.0570 -0.7628
 8819SOL     OW38092   0.440   0.576   4.325  0.2569 -0.0618  0.5744
 8819SOL    HW138093   0.470   0.666   4.337 -1.6950  0.4983  1.3089
 8819SOL    HW238094   0.347   0.573   4.346 -0.2152  0.5872 -1.4588
 8820SOL     OW38095   2.050   2.808   9.068  0.5307  0.2789  0.2755
 8820SOL    HW138096   2.021   2.864   9.140  0.6387 -0.9679  1.2944
 8820SOL    HW238097   2.071   2.724   9.109 -0.7436 -0.3338 -0.3203
 8821SOL     OW38098   2.009   1.452   8.078 -0.2606  0.1805  0.3510
 8821SOL    HW138099   1.997   1.533   8.030  1.0879  0.2981  0.2167
 8821SOL    HW238100   2.103   1.455   8.095 -0.0274 -0.0419 -0.9387
 8822SOL     OW38101   1.257   1.767   6.490 -0.0990 -0.2656 -0.5308
 8822SOL    HW138102   1.309   1.732   6.562  0.0244 -1.2637 -1.1103
 8822SOL    HW238103   1.270   1.716   6.410  0.8402 -0.6945 -0.0969
 8823SOL     OW38104   3.905   0.375   3.311  0.2534  0.3346 -0.0815
 8823SOL    HW138105   3.921   0.468   3.293  0.6432  0.5739  1.5710
 8823SOL    HW238106   3.976   0.354   3.371 -1.6470  0.8622  2.3444
 8824SOL     OW38107   3.687   3.183   5.369 -0.4231  0.1512 -0.0786
 8824SOL    HW138108   3.717   3.097   5.339  0.2089  1.2378 -2.5652
 8824SOL    HW238109   3.762   3.238   5.348 -0.7443 -0.3449 -2.4422
 8825SOL     OW38110   2.093   1.290   4.441  0.1113  0.5577 -0.0012
 8825SOL    HW138111   2.113   1.264   4.351 -3.7433  0.5968 -0.8884
 8825SOL    HW238112   2.008   1.331   4.424  0.1171  0.7001  0.3144
 8826SOL     OW38113   3.456   2.954   5.811  0.4618 -0.0368  0.2592
 8826SOL    HW138114   3.507   2.926   5.735 -0.7520  0.7448 -0.8502
 8826SOL    HW238115   3.409   3.025   5.767 -1.6112 -1.9431 -0.6038
 8827SOL     OW38116   0.364   4.266   6.089 -0.0127  0.5593  0.3251
 8827SOL    HW138117   0.300   4.337   6.097  1.3234  1.6005  1.5660
 8827SOL    HW238118   0.415   4.266   6.170 -1.5563  0.1308  1.2921
 8828SOL     OW38119   2.917   3.196   8.398 -0.1651  0.3818  0.3041
 8828SOL    HW138120   2.893   3.172   8.488  0.1382 -0.4699  0.1632
 8828SOL    HW238121   2.837   3.170   8.353 -0.2228 -0.9076  1.1457
 8829SOL     OW38122   0.834   3.076   5.492  0.0891 -0.0105  0.2179
 8829SOL    HW138123   0.765   3.027   5.537 -1.1398  1.9395  0.4512
 8829SOL    HW238124   0.882   3.012   5.439  0.2822  0.5197 -0.2389
 8830SOL     OW38125   1.495   0.949   6.476  0.1716 -0.4608  0.4207
 8830SOL    HW138126   1.439   0.879   6.509  0.6849 -1.0375  0.0697
 8830SOL    HW238127   1.449   0.963   6.392 -0.6027 -0.4251  0.8506
 8831SOL     OW38128   4.432   2.041   5.204  0.5109 -0.3991  0.1452
 8831SOL    HW138129   4.500   2.109   5.201 -0.9578  1.0492 -0.4151
 8831SOL    HW238130   4.356   2.099   5.197  1.1075  0.2105 -1.3648
 8832SOL     OW38131   1.121   3.168   3.392  0.0540  0.1231 -0.3575
 8832SOL    HW138132   1.092   3.255   3.420  2.1852  0.8720 -0.4475
 8832SOL    HW238133   1.060   3.153   3.320 -0.8650  0.9299  0.2571
 8833SOL     OW38134   0.357   0.769   4.639 -0.0899  0.3412  0.1300
 8833SOL    HW138135   0.280   0.713   4.642  0.0843  0.0552 -0.8253
 8833SOL    HW238136   0.385   0.781   4.730 -0.1872 -1.3499  0.3805
 8834SOL     OW38137   2.448   0.222  15.677 -0.1060 -0.1029  0.0481
 8834SOL    HW138138   2.523   0.226  15.617 -0.9279 -1.8252 -1.1005
 8834SOL    HW238139   2.437   0.317  15.686  0.1473 -0.0778  0.0968
 8835SOL     OW38140   1.894   1.497   9.139  0.2496 -0.3269  0.2619
 8835SOL    HW138141   1.972   1.552   9.141 -1.6492  2.3513  0.9750
 8835SOL    HW238142   1.882   1.493   9.234 -1.9497 -0.1469  0.0082
 8836SOL     OW38143   1.657   0.606   8.305  0.5108 -0.5993  0.1961
 8836SOL    HW138144   1.602   0.634   8.232 -1.1936  1.7020  2.3045
 8836SOL    HW238145   1.620   0.661   8.375 -0.0308  1.4549 -1.7069
 8837SOL     OW38146   3.791   4.722   1.146  0.2600 -0.0020 -0.0196
 8837SOL    HW138147   3.727   4.658   1.115  0.1978 -1.2599  2.6447
 8837SOL    HW238148   3.852   4.658   1.184  0.7869  0.8335  0.5512
 8838SOL     OW38149   0.686   4.145   5.735  0.1620 -0.1797  0.1375
 8838SOL    HW138150   0.664   4.055   5.714  0.1684  0.0362 -0.7934
 8838SOL    HW238151   0.614   4.193   5.694 -0.3560  0.2845  1.5861
 8839SOL     OW38152   4.343   2.096  15.452 -0.1264 -0.4000 -0.2438
 8839SOL    HW138153   4.371   2.152  15.379 -1.2429 -0.7921 -0.9570
 8839SOL    HW238154   4.269   2.152  15.475  0.6719 -0.0743  1.5349
 8840SOL     OW38155   4.349   4.384   2.651  0.0265  0.2058  0.4138
 8840SOL    HW138156   4.368   4.310   2.708  2.6012  0.9458  0.5295
 8840SOL    HW238157   4.395   4.348   2.574 -2.4564  2.3205 -2.0587
 8841SOL     OW38158   3.519   2.102   1.672 -0.4984  0.3946  0.0528
 8841SOL    HW138159   3.531   2.187   1.629  1.5873  0.6521  1.1960
 8841SOL    HW238160   3.428   2.119   1.696 -0.4592  1.9870 -0.8759
 8842SOL     OW38161   3.166   2.868   2.235  0.1000  0.2795 -0.1446
 8842SOL    HW138162   3.254   2.832   2.243 -0.0679 -0.1281 -0.1229
 8842SOL    HW238163   3.114   2.827   2.304 -1.3406  1.2070 -0.6850
 8843SOL     OW38164   3.992   0.705   3.043  0.3886  0.1278 -0.1607
 8843SOL    HW138165   3.994   0.693   3.137  0.0863 -1.6483 -0.3840
 8843SOL    HW238166   4.082   0.692   3.013 -0.0563 -0.7247 -1.1286
 8844SOL     OW38167   2.808   1.536  14.563  0.3023  0.5467  0.4547
 8844SOL    HW138168   2.833   1.614  14.514 -0.9932  0.1935 -0.7868
 8844SOL    HW238169   2.829   1.473  14.494  2.4973  1.7522  0.0381
 8845SOL     OW38170   2.434   0.763   4.229 -0.2284 -0.0370 -0.0361
 8845SOL    HW138171   2.512   0.761   4.174  0.3292  0.3079  0.7296
 8845SOL    HW238172   2.430   0.672   4.260  1.2740 -0.7461 -1.9248
 8846SOL     OW38173   4.266   4.352   4.236 -0.3563 -0.1996 -0.1152
 8846SOL    HW138174   4.201   4.285   4.257 -0.6233  0.1344  0.1250
 8846SOL    HW238175   4.225   4.431   4.270 -0.1840  0.3734 -1.2666
 8847SOL     OW38176   0.610   3.331   3.810  0.3843 -0.3314  0.1558
 8847SOL    HW138177   0.612   3.240   3.780  1.8506  0.3020 -1.6978
 8847SOL    HW238178   0.700   3.355   3.790 -0.0568  2.5720  1.5791
 8848SOL     OW38179   4.570   0.545   0.151 -0.1398 -0.1765 -0.0013
 8848SOL    HW138180   4.596   0.594   0.230  2.7336 -0.8494 -0.5184
 8848SOL    HW238181   4.488   0.505   0.181 -0.0096  0.0603  0.6839
 8849SOL     OW38182   3.902   1.850   1.593 -0.4598  0.0726 -0.0832
 8849SOL    HW138183   3.908   1.915   1.524 -0.5727  0.5626  0.3683
 8849SOL    HW238184   3.893   1.902   1.673 -1.3885 -0.0305 -0.1138
 8850SOL     OW38185   0.922   3.830   5.093 -0.0343  0.4510  0.2392
 8850SOL    HW138186   0.953   3.745   5.122 -0.2206 -0.0834 -1.1398
 8850SOL    HW238187   0.991   3.888   5.125  0.7991 -1.0276  1.0654
 8851SOL     OW38188   0.946   4.040  14.533  0.3138  0.2490 -0.6048
 8851SOL    HW138189   1.036   4.061  14.557  0.7186 -0.3616 -1.5964
 8851SOL    HW238190   0.936   3.953  14.571 -1.6514  0.3499 -0.9072
 8852SOL     OW38191   3.802   4.148   8.097  0.1543 -0.0855 -0.4386
 8852SOL    HW138192   3.819   4.227   8.148  0.0312  0.4809 -1.2771
 8852SOL    HW238193   3.839   4.076   8.148 -0.8691  1.2808  2.2214
 8853SOL     OW38194   1.186   4.156  10.434  0.2400 -0.3923 -0.2256
 8853SOL    HW138195   1.148   4.242  10.417  1.2862  0.0621 -0.2581
 8853SOL    HW238196   1.272   4.186  10.461 -1.1132  1.8396  1.6059
 8854SOL     OW38197   0.426   0.928   7.510  0.2313 -0.6046 -0.0468
 8854SOL    HW138198   0.346   0.951   7.463  0.2117 -1.9654 -0.6820
 8854SOL    HW238199   0.456   0.858   7.452  0.7148 -0.2459 -0.2313
 8855SOL     OW38200   4.580   1.906   3.271  0.1443 -0.4938 -0.0119
 8855SOL    HW138201   4.610   1.814   3.272 -1.3320 -0.9434  1.4577
 8855SOL    HW238202   4.666   1.949   3.277  0.2458 -0.7201  0.1717
 8856SOL     OW38203   4.389   3.929   9.583 -0.0986 -1.1967 -0.3422
 8856SOL    HW138204   4.461   3.935   9.646 -0.4866 -0.4166  0.0264
 8856SOL    HW238205   4.320   3.984   9.617  1.9647  1.6971 -0.8647
 8857SOL     OW38206   2.687   2.347  12.959  0.5386  0.0363  0.0426
 8857SOL    HW138207   2.708   2.421  12.903  0.7845 -0.1451 -0.1066
 8857SOL    HW238208   2.608   2.373  13.007  0.9140  1.1174  0.0722
 8858SOL     OW38209   0.704   3.388   2.931 -0.0183 -0.8742  0.1370
 8858SOL    HW138210   0.681   3.472   2.890  1.5964  0.4271  1.8638
 8858SOL    HW238211   0.756   3.414   3.008  0.2775 -1.2440  0.0582
 8859SOL     OW38212   3.976   1.548   9.578 -0.0834 -0.1593 -0.3367
 8859SOL    HW138213   4.057   1.528   9.533  0.6760 -0.0614  0.9984
 8859SOL    HW238214   4.005   1.566   9.667 -0.5714 -0.6088 -0.0867
 8860SOL     OW38215   0.130   0.055   9.828 -0.0380  0.2549  0.0070
 8860SOL    HW138216   0.058   0.091   9.880 -0.0434  0.9645 -0.5115
 8860SOL    HW238217   0.168   4.723   9.884 -0.4068 -0.8492 -1.0885
 8861SOL     OW38218   2.653   2.824  17.266  0.1923 -0.1337  0.0592
 8861SOL    HW138219   2.632   2.904  17.218  0.5072 -0.6882 -1.0175
 8861SOL    HW238220   2.715   2.790  17.201 -0.2840 -0.4621 -0.2265
 8862SOL     OW38221   0.340   3.803  10.910 -0.0334 -0.1114  0.1260
 8862SOL    HW138222   0.253   3.843  10.910 -0.9089 -2.0394 -1.6505
 8862SOL    HW238223   0.346   3.783  10.817 -1.8040 -1.6980  0.3576
 8863SOL     OW38224   1.017   3.507   8.118 -0.1123 -0.6906  0.6134
 8863SOL    HW138225   1.010   3.529   8.025 -0.7425  1.1962  1.1075
 8863SOL    HW238226   1.036   3.595   8.153  0.1486 -0.5070  0.0200
 8864SOL     OW38227   4.533   0.160   1.394  0.2567  0.4457 -0.0480
 8864SOL    HW138228   4.500   0.186   1.308  1.2784 -0.4202 -0.7123
 8864SOL    HW238229   4.625   0.185   1.383  0.4350 -0.5955 -0.8883
 8865SOL     OW38230   0.110   3.137   2.834 -0.1949 -0.2558 -0.0809
 8865SOL    HW138231   0.154   3.096   2.758  0.1955 -0.4976  0.2738
 8865SOL    HW238232   0.052   3.199   2.790 -0.3146  1.2106  2.1498
 8866SOL     OW38233   1.327   3.263   8.232  0.0838  0.7428 -0.0394
 8866SOL    HW138234   1.318   3.354   8.260  0.0164  0.4456  0.9279
 8866SOL    HW238235   1.239   3.246   8.200  0.9797 -0.2183 -2.0054
 8867SOL     OW38236   0.353   4.681  15.153  0.2149 -0.3854 -0.1619
 8867SOL    HW138237   0.285   4.622  15.120  0.5151 -1.3001  0.8696
 8867SOL    HW238238   0.399   4.618  15.209  0.0855  0.1894  0.5870
 8868SOL     OW38239   3.709   3.813   8.841  0.1339  0.2711 -0.1996
 8868SOL    HW138240   3.715   3.752   8.768  1.5874 -0.3389  0.4205
 8868SOL    HW238241   3.637   3.772   8.888 -0.0385  0.9793  0.1605
 8869SOL     OW38242   0.042   4.097   3.016 -0.0331 -0.6846  0.1025
 8869SOL    HW138243   4.713   4.033   3.045 -1.4683  1.2404  1.1527
 8869SOL    HW238244   0.008   4.106   2.927  0.7533 -2.3365 -0.3560
 8870SOL     OW38245   2.147   0.266   1.800  0.4768  0.1571 -0.1072
 8870SOL    HW138246   2.085   0.193   1.797  2.0730 -1.1891 -0.1532
 8870SOL    HW238247   2.097   0.343   1.828  0.3993 -0.6918  2.1640
 8871SOL     OW38248   2.383   2.678   4.525 -0.4293 -0.0335 -0.3586
 8871SOL    HW138249   2.318   2.652   4.460  3.6503 -0.1729 -4.3923
 8871SOL    HW238250   2.442   2.720   4.463  1.0648 -1.1496  0.2802
 8872SOL     OW38251   1.534   0.838   8.883  0.4123  0.5137 -0.3368
 8872SOL    HW138252   1.515   0.909   8.945  0.8274 -0.6295  1.1016
 8872SOL    HW238253   1.492   0.876   8.806 -0.2896 -0.6218 -0.5194
 8873SOL     OW38254   4.080   3.388   5.938 -0.3489  0.2099  0.0149
 8873SOL    HW138255   3.994   3.357   5.908 -0.9487  0.3340  1.6299
 8873SOL    HW238256   4.109   3.459   5.880 -1.6275  0.4327 -0.3468
 8874SOL     OW38257   0.067   1.315   4.202 -0.1860  0.0170 -0.3718
 8874SOL    HW138258   0.055   1.388   4.263  3.2410 -0.1077  0.4298
 8874SOL    HW238259   4.710   1.293   4.195  0.0208 -1.0555  0.2994
 8875SOL     OW38260   2.685   0.464   0.527  0.1367 -0.6666 -0.4385
 8875SOL    HW138261   2.690   0.408   0.604  0.4862  1.9146  1.4438
 8875SOL    HW238262   2.755   0.527   0.544  0.1896 -1.5336  2.4458
 8876SOL     OW38263   4.332   3.870  11.140  0.6307  0.5993  0.2101
 8876SOL    HW138264   4.307   3.962  11.150  1.4207  0.7415  0.9102
 8876SOL    HW238265   4.245   3.830  11.130  0.8347  0.3746 -0.6552
 8877SOL     OW38266   0.615   3.259   8.597  0.0193 -0.3970  0.5730
 8877SOL    HW138267   0.566   3.209   8.663 -1.1571 -0.3789 -0.2758
 8877SOL    HW238268   0.640   3.340   8.640 -1.2640  1.8807 -3.0163
 8878SOL     OW38269   0.232   0.905   1.206 -0.0372 -0.1590 -0.4691
 8878SOL    HW138270   0.238   0.979   1.146  0.1850 -0.0643 -0.3298
 8878SOL    HW238271   0.321   0.872   1.211 -0.6435 -1.9604 -1.4131
 8879SOL     OW38272   2.583   3.919   4.728 -0.1652  0.5625 -0.0004
 8879SOL    HW138273   2.547   3.982   4.791  0.6006  1.2783 -0.2805
 8879SOL    HW238274   2.524   3.844   4.728 -0.3086  0.6742 -1.4742
 8880SOL     OW38275   0.338   3.531   2.254  0.1588 -0.1609  0.4279
 8880SOL    HW138276   0.336   3.607   2.196  2.2586 -1.0406 -0.7955
 8880SOL    HW238277   0.267   3.557   2.313 -0.2150 -1.0166  0.3670
 8881SOL     OW38278   4.629   0.755   2.512 -0.1388 -0.3406 -0.3990
 8881SOL    HW138279   4.668   0.842   2.510 -0.8974  0.0320  0.9156
 8881SOL    HW238280   4.578   0.766   2.432 -0.3011 -0.1652 -0.2713
 8882SOL     OW38281   1.248   4.168  16.459  0.4731  0.4921 -0.4243
 8882SOL    HW138282   1.226   4.144  16.549  1.9218  0.5251 -0.0531
 8882SOL    HW238283   1.182   4.118  16.412 -0.8921  2.6866 -0.8568
 8883SOL     OW38284   0.318   1.682  14.895  0.8312  0.0032  0.1597
 8883SOL    HW138285   0.330   1.771  14.928 -3.5990  0.7179 -0.2449
 8883SOL    HW238286   0.386   1.643  14.951  0.0087  1.2344  1.9927
 8884SOL     OW38287   1.009   2.125  16.316 -0.1472 -0.1049  0.6469
 8884SOL    HW138288   1.098   2.134  16.351 -0.9480  0.7390  2.4576
 8884SOL    HW238289   0.957   2.176  16.378 -0.9570 -0.8999  0.6216
 8885SOL     OW38290   4.280   4.624   2.775 -0.4482  0.9498 -0.4210
 8885SOL    HW138291   4.287   4.531   2.751 -0.0462  0.0580  3.2589
 8885SOL    HW238292   4.307   4.668   2.694  2.3608  0.8569  0.4852
 8886SOL     OW38293   3.068   2.461   2.494 -0.2540  0.2629  0.6081
 8886SOL    HW138294   3.066   2.373   2.458 -1.3213 -0.4672  2.4463
 8886SOL    HW238295   2.978   2.490   2.474 -0.6803 -0.4245  1.5401
 8887SOL     OW38296   3.179   1.666   2.684  0.0073 -0.0129 -0.4056
 8887SOL    HW138297   3.223   1.702   2.762  1.0756 -2.7618  0.2629
 8887SOL    HW238298   3.119   1.739   2.669 -2.0059 -1.2391  1.8376
 8888SOL     OW38299   1.359   0.348  17.182 -0.4577 -0.2913 -0.3765
 8888SOL    HW138300   1.425   0.281  17.202 -1.2374 -1.3753 -1.3799
 8888SOL    HW238301   1.285   0.312  17.231  3.0141 -1.7740  3.7445
 8889SOL     OW38302   4.237   0.415  10.779  0.1042 -0.1821 -0.1104
 8889SOL    HW138303   4.294   0.478  10.734 -0.0637 -1.0496 -1.5335
 8889SOL    HW238304   4.241   0.335  10.726 -0.0834 -0.7047  0.6609
 8890SOL     OW38305   4.560   0.112   8.231 -0.2190 -0.9771 -0.6055
 8890SOL    HW138306   4.491   0.167   8.269  0.2803  1.0696 -2.6800
 8890SOL    HW238307   4.630   0.139   8.291  0.2692 -1.2088 -1.0724
 8891SOL     OW38308   1.749   1.230   2.802  0.3882 -0.7078 -0.6142
 8891SOL    HW138309   1.785   1.147   2.771 -0.0160 -1.0051 -0.2923
 8891SOL    HW238310   1.761   1.283   2.723 -0.3237  0.9257  0.3777
 8892SOL     OW38311   0.723   1.599   2.493 -0.0500 -0.0852 -0.3057
 8892SOL    HW138312   0.813   1.633   2.494 -0.4251  0.7206  3.9374
 8892SOL    HW238313   0.692   1.653   2.420 -0.6240 -2.5291 -1.8670
 8893SOL     OW38314   4.721   4.380   1.876 -0.3947  0.1814 -0.2565
 8893SOL    HW138315   4.735   4.429   1.794 -0.8401  0.0182 -0.4263
 8893SOL    HW238316   4.693   4.295   1.842 -0.3547 -0.1996  0.6812
 8894SOL     OW38317   2.989   0.167   5.370  0.1679 -0.0280  0.5437
 8894SOL    HW138318   2.911   0.112   5.359 -0.0879  0.8485 -2.0048
 8894SOL    HW238319   3.030   0.151   5.286  1.4554  0.9012  0.9884
 8895SOL     OW38320   4.043   4.322   4.052  0.1945 -0.5048  0.0378
 8895SOL    HW138321   4.028   4.255   3.985 -0.0434 -0.2449 -0.1687
 8895SOL    HW238322   4.023   4.287   4.139  1.1545  0.5642  0.6978
 8896SOL     OW38323   2.460   4.214   8.024 -0.4919 -0.3312 -0.4380
 8896SOL    HW138324   2.376   4.254   8.047  0.0307 -0.2687  1.3181
 8896SOL    HW238325   2.430   4.141   7.971 -1.4216  1.7271 -2.7833
 8897SOL     OW38326   4.100   1.888  13.013  0.4626 -0.2361  0.0474
 8897SOL    HW138327   4.081   1.866  13.104  0.1851 -0.7755 -0.1383
 8897SOL    HW238328   4.170   1.823  13.002  0.5594 -0.1184 -0.0388
 8898SOL     OW38329   0.770   3.953   9.123  0.0229 -0.0917 -0.1646
 8898SOL    HW138330   0.786   3.920   9.035 -2.2878  1.1966 -1.0645
 8898SOL    HW238331   0.838   3.905   9.171 -2.1038 -1.4668  1.5043
 8899SOL     OW38332   0.743   2.284   3.317 -0.4021 -0.2528 -0.1175
 8899SOL    HW138333   0.757   2.271   3.223 -0.0669  2.7916 -0.4771
 8899SOL    HW238334   0.830   2.320   3.337  0.3546 -1.2563 -1.5709
 8900SOL     OW38335   2.206   1.159   0.579 -0.2665  0.0826  0.0782
 8900SOL    HW138336   2.263   1.168   0.502 -0.2732 -0.3192  0.0267
 8900SOL    HW238337   2.272   1.168   0.648 -0.1278  0.4483 -0.0988
 8901SOL     OW38338   4.106   4.112   8.113 -0.2286 -0.4134 -0.5733
 8901SOL    HW138339   4.046   4.092   8.041 -1.3788  0.4467  0.1534
 8901SOL    HW238340   4.106   4.023   8.149 -0.3978 -0.1847 -0.0226
 8902SOL     OW38341   0.766   3.301  14.291  0.0867  0.6362  0.4009
 8902SOL    HW138342   0.672   3.299  14.307  0.1491  0.5126  0.7665
 8902SOL    HW238343   0.764   3.311  14.196  3.0184  0.0666  0.2703
 8903SOL     OW38344   3.533   0.035   5.483  0.7467  0.2895  0.1639
 8903SOL    HW138345   3.522   4.705   5.415  2.1283 -0.5686  0.7654
 8903SOL    HW238346   3.510   4.716   5.558  1.8156  0.7863  0.8547
 8904SOL     OW38347   4.463   3.444   5.951 -0.2463 -0.3925  0.1767
 8904SOL    HW138348   4.511   3.367   5.982  1.0558 -0.3662 -1.7701
 8904SOL    HW238349   4.380   3.426   5.995  0.8738 -0.6676  2.1993
 8905SOL     OW38350   0.372   3.941   4.391  0.9002 -0.5310  0.0420
 8905SOL    HW138351   0.333   4.015   4.437 -0.7125  0.1477 -2.4047
 8905SOL    HW238352   0.348   3.865   4.444  1.0424  0.2740  1.2650
 8906SOL     OW38353   0.798   1.062   5.360  0.1209  0.2501 -0.4967
 8906SOL    HW138354   0.731   1.105   5.307  1.6977  0.7547 -2.0792
 8906SOL    HW238355   0.746   1.030   5.434 -3.2433 -2.0387 -3.8618
 8907SOL     OW38356   1.652   4.060  14.482 -0.0052 -0.1143 -0.0459
 8907SOL    HW138357   1.672   4.033  14.572  0.9838  0.3407 -0.1288
 8907SOL    HW238358   1.740   4.058  14.443 -0.4309 -2.5543 -0.8372
 8908SOL     OW38359   4.310   2.112   6.142  0.1241 -0.3638 -0.1339
 8908SOL    HW138360   4.280   2.111   6.233  1.5169 -0.2078  0.3244
 8908SOL    HW238361   4.405   2.118   6.138  0.0328  0.6723 -0.8544
 8909SOL     OW38362   2.292   0.091  15.840 -0.3077  0.0516  0.3099
 8909SOL    HW138363   2.355   0.125  15.778  0.2009 -0.0649  0.7661
 8909SOL    HW238364   2.324   0.121  15.924  0.8387  3.6402 -1.4457
 8910SOL     OW38365   3.966   1.037   9.226 -0.2541  0.1026  0.1037
 8910SOL    HW138366   3.967   1.055   9.132  0.0884 -1.7182 -0.2360
 8910SOL    HW238367   3.871   1.042   9.236 -0.1293  0.2840  1.1647
 8911SOL     OW38368   3.148   4.251   6.704 -1.1286 -0.0788  0.3490
 8911SOL    HW138369   3.117   4.273   6.617 -1.4918  1.7781  0.9379
 8911SOL    HW238370   3.190   4.335   6.726 -2.4471  0.3630  1.1872
 8912SOL     OW38371   3.519   4.658   6.873  0.1459  0.1429 -0.2380
 8912SOL    HW138372   3.584   4.721   6.902 -1.2683  1.1124  0.8237
 8912SOL    HW238373   3.463   4.665   6.950 -0.1283  0.3090 -0.4509
 8913SOL     OW38374   4.650   1.167   7.143  0.0690  0.0988  0.1046
 8913SOL    HW138375   4.614   1.122   7.066  0.1545 -0.6127  0.4848
 8913SOL    HW238376   4.572   1.210   7.178 -1.2480  0.4019 -3.1113
 8914SOL     OW38377   3.412   2.757   3.794 -0.3398 -0.6303  0.4674
 8914SOL    HW138378   3.358   2.756   3.873 -0.6242  2.3397  0.2984
 8914SOL    HW238379   3.362   2.696   3.740 -2.0625  1.1138  0.1243
 8915SOL     OW38380   3.437   4.045  15.647 -0.0393 -0.0361 -0.1442
 8915SOL    HW138381   3.368   4.068  15.585 -0.9392 -2.0971  0.0944
 8915SOL    HW238382   3.394   4.006  15.724 -1.1425 -1.4162 -1.4712
 8916SOL     OW38383   4.119   1.558   3.363 -0.7530 -0.8243  0.2161
 8916SOL    HW138384   4.076   1.521   3.440 -0.9509 -0.0579  0.4659
 8916SOL    HW238385   4.080   1.644   3.353  2.3821  0.1034 -3.7398
 8917SOL     OW38386   2.497   1.374  14.242 -0.3563  0.0595 -0.1573
 8917SOL    HW138387   2.532   1.348  14.327  0.9862  0.4932 -0.5691
 8917SOL    HW238388   2.515   1.468  14.250 -1.8802  0.3957 -0.7715
 8918SOL     OW38389   1.089   0.368   9.602 -0.0827 -0.3836  0.0083
 8918SOL    HW138390   1.057   0.281   9.628  1.0575 -0.1068  2.3657
 8918SOL    HW238391   1.077   0.358   9.508 -0.8166 -2.9217  0.3650
 8919SOL     OW38392   1.841   3.134  15.371  0.6912  0.3262 -0.2245
 8919SOL    HW138393   1.802   3.199  15.313  0.0636  0.6844  0.6057
 8919SOL    HW238394   1.930   3.169  15.368  0.9732 -0.6103 -3.2195
 8920SOL     OW38395   1.066   3.677   2.291 -0.1034  0.6265 -0.1492
 8920SOL    HW138396   1.108   3.595   2.266 -2.1292 -0.0325 -1.3536
 8920SOL    HW238397   0.996   3.647   2.349  0.3497 -0.4194 -0.1514
 8921SOL     OW38398   1.799   2.473  16.573 -0.4537  0.1099  0.0968
 8921SOL    HW138399   1.853   2.412  16.523 -0.3143 -1.4540  2.1938
 8921SOL    HW238400   1.720   2.429  16.540 -0.1823 -0.1048 -0.2680
 8922SOL     OW38401   3.813   3.513  15.358  0.7959 -0.1143 -0.0308
 8922SOL    HW138402   3.880   3.475  15.414  0.0171 -2.2966 -0.5975
 8922SOL    HW238403   3.739   3.499  15.417  0.0503  1.4308 -0.6050
 8923SOL     OW38404   4.635   3.453   5.704 -0.4528  0.0721 -0.0054
 8923SOL    HW138405   4.602   3.467   5.793  0.0271 -1.8051  0.4677
 8923SOL    HW238406   4.560   3.476   5.648 -1.7649  1.9853  2.5253
 8924SOL     OW38407   2.216   3.182   7.406  0.0375  0.7321  0.8523
 8924SOL    HW138408   2.302   3.140   7.411 -0.0254  0.7103  1.7541
 8924SOL    HW238409   2.240   3.242   7.335 -1.7734  1.0576  0.5115
 8925SOL     OW38410   4.470   1.098   9.300 -0.3448  0.4076 -0.9476
 8925SOL    HW138411   4.499   1.188   9.315  0.4065 -0.3481  2.1187
 8925SOL    HW238412   4.552   1.056   9.273 -0.8846 -0.6815 -0.9162
 8926SOL     OW38413   2.206   1.587   3.664 -0.0060  0.3657  0.4812
 8926SOL    HW138414   2.162   1.600   3.580  0.3650 -2.1649 -0.1010
 8926SOL    HW238415   2.285   1.537   3.646  0.3957  0.4156  2.0597
 8927SOL     OW38416   2.670   2.562   2.660  0.0367 -0.3890 -0.2326
 8927SOL    HW138417   2.749   2.558   2.715 -0.4830  1.2901  0.6226
 8927SOL    HW238418   2.605   2.530   2.722 -1.2639  0.6306 -1.0841
 8928SOL     OW38419   0.882   3.497   8.880 -0.1005  0.1714 -0.0310
 8928SOL    HW138420   0.796   3.475   8.844  0.7567 -1.4949 -1.0881
 8928SOL    HW238421   0.915   3.542   8.802 -0.6667 -1.3340 -1.1481
 8929SOL     OW38422   2.226   2.669   9.530  0.1494  0.2923  0.2000
 8929SOL    HW138423   2.309   2.716   9.529  0.2321  0.0816 -2.3477
 8929SOL    HW238424   2.264   2.581   9.523 -1.3708 -0.4604  1.4495
 8930SOL     OW38425   2.565   4.452   8.784 -0.4430  0.2202 -0.3126
 8930SOL    HW138426   2.469   4.444   8.781 -0.4806  0.4680  0.1764
 8930SOL    HW238427   2.598   4.456   8.694 -1.9737 -0.0496 -0.8924
 8931SOL     OW38428   3.392   3.596   8.147  0.4759 -0.1608 -0.2104
 8931SOL    HW138429   3.338   3.606   8.069  1.5841 -4.1493 -1.4643
 8931SOL    HW238430   3.446   3.672   8.125  0.6202 -1.0693 -2.9449
 8932SOL     OW38431   1.986   1.619   7.674 -0.1420  0.1996  0.1576
 8932SOL    HW138432   1.970   1.654   7.762  0.8969 -2.0336  1.2178
 8932SOL    HW238433   2.070   1.658   7.653  0.5528 -0.0845  2.4286
 8933SOL     OW38434   1.780   0.554   4.987  0.9347  0.2418  0.2846
 8933SOL    HW138435   1.721   0.596   4.924 -0.3393 -0.8432  0.7620
 8933SOL    HW238436   1.804   0.632   5.038 -0.6472  0.8967  0.0230
 8934SOL     OW38437   4.428   2.694  11.244  0.4138 -0.1422  0.5075
 8934SOL    HW138438   4.465   2.757  11.306 -0.9551 -0.6788  1.8638
 8934SOL    HW238439   4.396   2.751  11.174 -2.1199 -0.4446  1.4068
 8935SOL     OW38440   1.529   1.418   3.920 -0.4697  0.1148  0.2853
 8935SOL    HW138441   1.480   1.497   3.896  0.2172  0.8389  1.2493
 8935SOL    HW238442   1.534   1.436   4.014  0.7683 -3.3008  0.8687
 8936SOL     OW38443   4.490   3.248  17.319  0.3607 -0.0639 -0.0775
 8936SOL    HW138444   4.572   3.264  17.367 -0.7857  2.1011  1.1667
 8936SOL    HW238445   4.497   3.318  17.254  0.5314  0.8680  0.9433
 8937SOL     OW38446   1.100   3.079   5.675 -0.6228  0.2456 -0.4684
 8937SOL    HW138447   1.048   3.150   5.637 -0.7013  0.2238 -0.3987
 8937SOL    HW238448   1.029   3.027   5.711 -0.1623 -0.6667 -0.8694
 8938SOL     OW38449   1.172   2.983  13.330  0.2722  0.3795  0.1898
 8938SOL    HW138450   1.203   3.073  13.343 -2.3202  1.6049 -1.9642
 8938SOL    HW238451   1.198   2.940  13.411 -0.7376  1.4751  1.1119
 8939SOL     OW38452   3.007   3.174   7.017 -0.5221  0.4005 -0.3564
 8939SOL    HW138453   3.002   3.184   6.922  1.4801 -0.2744 -0.5435
 8939SOL    HW238454   2.921   3.208   7.041 -1.5877 -0.5356 -2.8534
 8940SOL     OW38455   4.396   2.028   3.431  0.5487  0.1097 -0.6896
 8940SOL    HW138456   4.329   1.963   3.409  1.7694 -1.1522 -0.6684
 8940SOL    HW238457   4.473   1.986   3.395  0.3541 -0.7761 -0.0870
 8941SOL     OW38458   1.020   1.641   7.954 -0.4253 -0.5830 -0.7361
 8941SOL    HW138459   1.002   1.548   7.940 -2.8149 -0.0375 -1.4089
 8941SOL    HW238460   1.062   1.666   7.871 -0.9389 -0.7846 -1.0592
 8942SOL     OW38461   4.384   2.621   0.359 -0.1266  0.1958  0.2350
 8942SOL    HW138462   4.432   2.669   0.426 -1.6587  1.2907  0.5472
 8942SOL    HW238463   4.334   2.694   0.323 -1.9521 -1.7320 -1.1974
 8943SOL     OW38464   0.987   1.459   2.654  0.0867 -0.3394 -0.2447
 8943SOL    HW138465   1.010   1.366   2.645  1.2499 -0.1588  0.7871
 8943SOL    HW238466   0.991   1.493   2.565 -0.2487 -0.1494 -0.1855
 8944SOL     OW38467   1.756   3.370  14.738  0.0827  0.3912  0.0451
 8944SOL    HW138468   1.798   3.375  14.824 -2.6087  2.3563  1.2285
 8944SOL    HW238469   1.694   3.301  14.759 -0.4520  0.5161 -1.1443
 8945SOL     OW38470   2.894   1.937   4.899 -0.5790  0.1645 -0.2879
 8945SOL    HW138471   2.838   1.950   4.975 -0.2417  2.0586 -0.3849
 8945SOL    HW238472   2.827   1.892   4.847 -0.0500  0.1723 -0.9771
 8946SOL     OW38473   4.335   1.786   7.732 -0.1509  0.5206  0.1349
 8946SOL    HW138474   4.289   1.844   7.792  0.8635  0.7050  0.7457
 8946SOL    HW238475   4.399   1.847   7.695  0.8478 -1.0048 -0.6670
 8947SOL     OW38476   3.222   2.171   5.803  0.6502  0.2541  0.8149
 8947SOL    HW138477   3.214   2.242   5.866  1.1039  1.6626 -0.7250
 8947SOL    HW238478   3.141   2.121   5.800 -0.8133  2.5894  2.3492
 8948SOL     OW38479   3.560   3.887  13.223  0.0538 -0.3425 -0.0000
 8948SOL    HW138480   3.563   3.917  13.132 -1.4014  0.8592  0.3479
 8948SOL    HW238481   3.526   3.966  13.264  0.5619 -0.2727  0.2831
 8949SOL     OW38482   1.287   2.586   9.274  0.5117 -0.0552  0.3432
 8949SOL    HW138483   1.351   2.651   9.249 -0.3947 -0.1523 -2.1560
 8949SOL    HW238484   1.344   2.512   9.296  0.5607 -0.8889 -2.6312
 8950SOL     OW38485   3.504   0.852   3.181 -0.2250 -0.1621  0.3611
 8950SOL    HW138486   3.481   0.809   3.098  0.7888  0.4544 -0.2322
 8950SOL    HW238487   3.596   0.876   3.175 -1.0578  2.9516  0.1751
 8951SOL     OW38488   0.312   0.926   5.461  0.6196  0.0050  0.3933
 8951SOL    HW138489   0.260   1.000   5.491  2.1280  0.0272  2.9581
 8951SOL    HW238490   0.261   0.855   5.499 -1.2582  0.9822 -0.3474
 8952SOL     OW38491   4.450   0.457  11.932  0.3789 -0.3549 -0.1841
 8952SOL    HW138492   4.416   0.367  11.926  0.3760 -0.4353  0.9810
 8952SOL    HW238493   4.509   0.460  11.857  1.1762 -3.8941  0.3063
 8953SOL     OW38494   2.970   3.132  17.369 -0.3186 -0.4632 -0.2285
 8953SOL    HW138495   2.909   3.193  17.326 -0.8419 -1.8808 -1.5242
 8953SOL    HW238496   3.042   3.122  17.307 -0.7806  0.0904 -0.8614
 8954SOL     OW38497   1.879   3.845   2.837 -0.4691  0.6613  0.2610
 8954SOL    HW138498   1.932   3.881   2.766 -1.1888  1.7126  0.2600
 8954SOL    HW238499   1.953   3.802   2.880 -0.3003  1.0833  0.4034
 8955SOL     OW38500   0.473   0.138  16.492 -0.0881  0.0650 -0.0374
 8955SOL    HW138501   0.488   0.167  16.402 -1.0162 -0.4596 -0.3620
 8955SOL    HW238502   0.561   0.117  16.524 -0.9574 -1.0865  1.5655
 8956SOL     OW38503   3.017   4.387  17.153 -0.1814 -0.0279 -0.0644
 8956SOL    HW138504   2.989   4.301  17.121  1.3246 -0.5884  0.1306
 8956SOL    HW238505   3.050   4.371  17.241  0.0157 -3.2265 -0.7341
 8957SOL     OW38506   3.136   1.358   6.957 -0.1011 -0.6021  0.0316
 8957SOL    HW138507   3.214   1.343   6.903  1.6735  1.5542  1.9406
 8957SOL    HW238508   3.076   1.315   6.897 -1.5751  1.6826 -0.1365
 8958SOL     OW38509   1.360   4.449   4.513  0.7092 -0.0186  0.2949
 8958SOL    HW138510   1.317   4.419   4.433  1.2956  0.6313 -0.2664
 8958SOL    HW238511   1.453   4.460   4.491  0.3230  0.2617 -1.2149
 8959SOL     OW38512   1.273   3.527   5.265 -0.0046 -0.1205  0.3867
 8959SOL    HW138513   1.309   3.598   5.212 -1.4934  1.0452  0.9339
 8959SOL    HW238514   1.329   3.452   5.244 -0.7088 -0.9188  1.3379
 8960SOL     OW38515   3.749   4.482  11.397 -0.7124 -0.2645  0.0077
 8960SOL    HW138516   3.787   4.403  11.435  0.4077 -0.7795 -2.1517
 8960SOL    HW238517   3.787   4.478  11.309 -0.7529  1.2232 -0.0714
 8961SOL     OW38518   3.488   1.083   8.118  0.8951 -0.3385  0.1965
 8961SOL    HW138519   3.562   1.137   8.090  2.0196 -1.5453  0.8659
 8961SOL    HW238520   3.478   1.009   8.058  0.5953 -1.3778  1.5387
 8962SOL     OW38521   3.815   3.385  16.022 -0.1877  0.5849  0.1374
 8962SOL    HW138522   3.904   3.386  16.057 -0.4177  1.9906  0.6848
 8962SOL    HW238523   3.823   3.437  15.942 -2.5198 -1.1845 -1.2585
 8963SOL     OW38524   0.622   2.713   2.718  0.6267 -0.6677  0.2522
 8963SOL    HW138525   0.626   2.659   2.796  0.4168  2.4782  2.4216
 8963SOL    HW238526   0.530   2.738   2.727  1.7107  2.4410  2.6399
 8964SOL     OW38527   0.746   2.098   8.403 -0.4068 -0.1098  0.4696
 8964SOL    HW138528   0.750   2.192   8.420  0.3576  0.1391 -1.0044
 8964SOL    HW238529   0.758   2.101   8.308 -1.5694 -2.8743  0.2299
 8965SOL     OW38530   1.177   2.219   9.993 -0.1687 -0.8154  0.6496
 8965SOL    HW138531   1.194   2.205  10.086  2.1056 -0.3933  0.2957
 8965SOL    HW238532   1.229   2.298   9.978 -1.2418 -0.3494 -0.7416
 8966SOL     OW38533   1.384   1.021   2.039 -0.2662  0.9238 -0.0004
 8966SOL    HW138534   1.417   1.105   2.008  0.8990  0.3830 -0.2537
 8966SOL    HW238535   1.460   0.980   2.082  1.2707  2.4951 -1.2544
 8967SOL     OW38536   3.500   0.930   1.930 -0.1230  0.1818  0.1601
 8967SOL    HW138537   3.466   1.005   1.881  1.0077  0.9345  0.5339
 8967SOL    HW238538   3.586   0.957   1.961  0.8627 -0.7211 -1.7873
 8968SOL     OW38539   0.892   1.517  17.542  0.3088 -0.0954  0.8213
 8968SOL    HW138540   0.819   1.579  17.547  0.8612  0.8206 -2.5143
 8968SOL    HW238541   0.953   1.563  17.484 -0.5187  0.1086  0.1142
 8969SOL     OW38542   3.464   3.441   7.834  0.1143 -0.3335  0.0925
 8969SOL    HW138543   3.475   3.426   7.740  0.2770  1.7538 -0.2394
 8969SOL    HW238544   3.426   3.529   7.833 -2.8206 -1.6011 -0.4889
 8970SOL     OW38545   0.984   1.799  13.320 -0.3215  0.6164 -0.1732
 8970SOL    HW138546   1.055   1.825  13.262  0.2305 -1.4861 -0.4027
 8970SOL    HW238547   0.978   1.709  13.290  1.2755  0.3965  0.2103
 8971SOL     OW38548   1.176   0.581  14.770  0.6021 -0.3312 -0.0909
 8971SOL    HW138549   1.147   0.584  14.861 -2.9305 -2.2867 -1.1448
 8971SOL    HW238550   1.089   0.566  14.734  0.7202  3.1913 -1.8193
 8972SOL     OW38551   4.095   2.910  16.097 -0.3180 -0.1073 -0.6248
 8972SOL    HW138552   4.108   2.977  16.164 -1.3851  0.3409 -0.8640
 8972SOL    HW238553   4.168   2.925  16.036  0.1868 -1.9042 -0.4736
 8973SOL     OW38554   0.240   1.702   2.585 -0.0767 -0.4186 -0.2805
 8973SOL    HW138555   0.162   1.743   2.621  0.4773 -0.4936  0.9954
 8973SOL    HW238556   0.213   1.610   2.584  0.6583 -0.6378 -0.4685
 8974SOL     OW38557   3.338   4.085   6.162  0.1110  0.2108 -0.0514
 8974SOL    HW138558   3.387   4.004   6.171  0.4708  0.4643  0.2535
 8974SOL    HW238559   3.250   4.060   6.132  0.6320 -0.2839 -1.1388
 8975SOL     OW38560   0.660   1.879   5.441 -0.5412 -0.0114 -0.2132
 8975SOL    HW138561   0.716   1.822   5.494  0.1359  0.1068 -0.8092
 8975SOL    HW238562   0.708   1.961   5.435 -0.2168 -0.2043 -0.2534
 8976SOL     OW38563   0.833   0.710   3.247 -0.1013 -0.4805  0.1273
 8976SOL    HW138564   0.911   0.678   3.292 -2.3118 -1.1313  3.4643
 8976SOL    HW238565   0.767   0.705   3.316 -0.7147  3.2310 -0.1996
 8977SOL     OW38566   2.823   2.739   4.081  0.1972  0.0822  0.1915
 8977SOL    HW138567   2.895   2.773   4.135  0.1508 -0.3071  0.5000
 8977SOL    HW238568   2.882   2.666   4.060  2.0680  1.9226 -1.0149
 8978SOL     OW38569   3.045   0.906  11.785  0.1366  0.1125 -0.2434
 8978SOL    HW138570   3.088   0.892  11.700  0.7723 -0.1960  0.1239
 8978SOL    HW238571   3.041   1.001  11.794 -0.6163 -0.1690  2.3270
 8979SOL     OW38572   4.293   1.117   9.594  0.3691  0.0879 -0.1653
 8979SOL    HW138573   4.323   1.193   9.543  0.4557  1.3290  1.7407
 8979SOL    HW238574   4.226   1.079   9.538  1.9530 -1.4434 -1.0075
 8980SOL     OW38575   0.453   2.952   5.903 -0.7668 -0.1214  0.1801
 8980SOL    HW138576   0.471   2.900   5.825 -0.1050 -0.4477  0.5456
 8980SOL    HW238577   0.405   3.022   5.860 -1.0069 -0.5026 -0.1723
 8981SOL     OW38578   1.764   2.715   7.788  0.4394  0.0357 -0.3944
 8981SOL    HW138579   1.760   2.660   7.866 -2.1850 -2.1419 -2.0798
 8981SOL    HW238580   1.722   2.647   7.736 -0.2139 -0.2081  0.4572
 8982SOL     OW38581   3.530   4.490   7.357 -0.0518  0.2437 -0.4244
 8982SOL    HW138582   3.449   4.508   7.310 -1.3456 -2.5161  0.7741
 8982SOL    HW238583   3.521   4.395   7.367 -1.6859  0.4354 -0.0724
 8983SOL     OW38584   3.186   2.436   1.609  0.5515  0.0300 -0.2298
 8983SOL    HW138585   3.226   2.486   1.680  0.8991  0.8783 -1.0194
 8983SOL    HW238586   3.255   2.373   1.590  1.7257  0.7136  1.7512
 8984SOL     OW38587   2.573   1.747   8.804 -0.6236 -0.2998 -0.1555
 8984SOL    HW138588   2.600   1.655   8.797  1.5350  0.3183  0.0756
 8984SOL    HW238589   2.654   1.791   8.830 -1.2229  1.3431 -1.0450
 8985SOL     OW38590   4.171   3.097   9.462  0.4437  0.0433 -0.3086
 8985SOL    HW138591   4.152   3.108   9.555 -1.4041 -0.3810 -0.6307
 8985SOL    HW238592   4.161   3.188   9.433 -2.6649 -0.7104 -1.5468
 8986SOL     OW38593   0.976   2.098   5.718  0.3302  0.3659 -0.5144
 8986SOL    HW138594   0.907   2.135   5.772 -0.4406  0.6560 -1.6899
 8986SOL    HW238595   0.929   2.076   5.637  1.0768  0.2891 -0.9302
 8987SOL     OW38596   4.178   0.840  10.040  0.1074  0.5315 -0.7022
 8987SOL    HW138597   4.224   0.768  10.083 -0.5022  0.1839 -0.6270
 8987SOL    HW238598   4.185   0.901  10.114  1.5124 -0.9970  0.4012
 8988SOL     OW38599   2.274   4.702   1.898  0.8062  0.5119  0.3904
 8988SOL    HW138600   2.281   0.030   1.968  2.3392  0.2226  0.4986
 8988SOL    HW238601   2.202   4.653   1.937  0.2150  1.7549  0.8552
 8989SOL     OW38602   0.996   1.937   6.697  0.3022 -0.5044  0.3501
 8989SOL    HW138603   0.963   1.889   6.773 -0.4416  1.6602  1.4047
 8989SOL    HW238604   1.060   1.995   6.738 -1.5311  1.0358  1.0632
 8990SOL     OW38605   2.424   0.289   7.210 -0.2020 -0.4811  0.6273
 8990SOL    HW138606   2.378   0.228   7.152 -0.1431 -0.7059  0.8133
 8990SOL    HW238607   2.472   0.343   7.148 -1.8893  0.5549  0.2460
 8991SOL     OW38608   4.198   0.804   7.260 -0.3740 -0.2033 -0.5279
 8991SOL    HW138609   4.154   0.730   7.218 -1.1231  0.2481 -0.5160
 8991SOL    HW238610   4.146   0.879   7.233 -1.3326  0.1913  2.3706
 8992SOL     OW38611   4.339   4.567   7.076  0.3353  0.1701  0.0299
 8992SOL    HW138612   4.342   4.643   7.135 -2.4556  0.7184 -0.5358
 8992SOL    HW238613   4.381   4.499   7.130 -1.1754 -0.5603  0.2638
 8993SOL     OW38614   1.828   1.321   4.389  0.5099  0.0169 -0.0184
 8993SOL    HW138615   1.786   1.248   4.343  1.0806 -0.3182 -0.0109
 8993SOL    HW238616   1.753   1.338   4.446 -1.2558 -3.0567 -1.4079
 8994SOL     OW38617   4.198   4.318   7.846  0.8500  0.6570 -0.7388
 8994SOL    HW138618   4.122   4.278   7.804 -0.8403  0.8349  2.1187
 8994SOL    HW238619   4.169   4.402   7.882  2.4032  0.9451 -0.1696
 8995SOL     OW38620   3.429   2.333   9.263  0.2667  0.1253 -0.5385
 8995SOL    HW138621   3.382   2.250   9.274  2.3190 -1.3032 -2.3667
 8995SOL    HW238622   3.514   2.303   9.230  0.6317  1.4064 -0.7640
 8996SOL     OW38623   2.870   2.491   4.227 -0.0211  0.3207 -0.6619
 8996SOL    HW138624   2.797   2.430   4.219 -0.4873  0.6887  0.9106
 8996SOL    HW238625   2.831   2.565   4.273  0.1773  0.2655 -0.4025
 8997SOL     OW38626   1.993   4.709  10.298 -0.7158  0.5121 -0.0315
 8997SOL    HW138627   1.950   0.058  10.304  1.4149  1.5951 -0.1624
 8997SOL    HW238628   2.014   4.696  10.206 -0.6684 -1.0572  0.1940
 8998SOL     OW38629   0.996   0.002   9.062  0.8418  0.3263  0.1633
 8998SOL    HW138630   0.956   4.653   9.048 -0.9571  1.2405 -0.2679
 8998SOL    HW238631   0.987   0.005   9.157 -1.1559  2.5465 -0.0818
 8999SOL     OW38632   0.270   2.659  13.545  0.0185  0.0103  0.3577
 8999SOL    HW138633   0.312   2.586  13.591  1.0181  0.3295 -0.0536
 8999SOL    HW238634   0.252   2.630  13.456 -0.3916 -0.0844  0.4707
 9000SOL     OW38635   0.583   0.572   3.744 -0.0848 -0.2394  0.2836
 9000SOL    HW138636   0.558   0.483   3.722  1.2075 -0.9746  1.8401
 9000SOL    HW238637   0.512   0.590   3.806 -0.1696 -3.3025  1.0744
 9001SOL     OW38638   4.690   1.286   2.406  0.1088 -0.4161  0.0295
 9001SOL    HW138639   4.709   1.248   2.491 -4.1563  0.3778  1.3315
 9001SOL    HW238640   0.039   1.278   2.362  0.8910 -1.4178  1.7303
 9002SOL     OW38641   1.001   0.118   3.718  0.1668  0.6194 -0.1858
 9002SOL    HW138642   1.028   0.136   3.629 -0.0907 -2.0358 -0.8023
 9002SOL    HW238643   0.938   0.046   3.704  0.9777 -0.0438 -0.4136
 9003SOL     OW38644   2.442   0.731   1.050  0.0603  0.4440 -0.5598
 9003SOL    HW138645   2.534   0.733   1.075  0.4548 -0.8959 -1.9280
 9003SOL    HW238646   2.394   0.715   1.131  0.1598 -2.0435 -0.9990
 9004SOL     OW38647   1.062   4.692   8.679  0.1334 -0.1725  0.0353
 9004SOL    HW138648   0.991   4.630   8.698  2.2904 -2.7190 -0.1567
 9004SOL    HW238649   1.136   4.632   8.694 -0.9022 -1.3778  0.3582
 9005SOL     OW38650   0.533   1.939   0.433 -0.6577  0.2010 -0.2259
 9005SOL    HW138651   0.525   2.034   0.431  0.8068  0.2408 -3.7349
 9005SOL    HW238652   0.544   1.917   0.341  4.0588 -0.5486  0.5084
 9006SOL     OW38653   0.427   0.195   5.942 -0.1198  0.5451  0.2334
 9006SOL    HW138654   0.490   0.133   5.905 -0.7750  1.2644 -2.1300
 9006SOL    HW238655   0.363   0.202   5.871 -0.2849 -0.4544  0.2819
 9007SOL     OW38656   4.327   1.239  12.267  0.2301  0.0441  0.0106
 9007SOL    HW138657   4.331   1.229  12.363 -0.2451  1.1585  0.1391
 9007SOL    HW238658   4.242   1.281  12.257  0.0319  0.1817  2.1867
 9008SOL     OW38659   0.967   3.774  13.403  0.3356 -0.0130  0.0893
 9008SOL    HW138660   0.945   3.793  13.494 -2.9778 -0.2397 -0.6803
 9008SOL    HW238661   0.914   3.695  13.395 -2.1975  1.6663  0.1863
 9009SOL     OW38662   1.645   4.179   4.258  0.2731  0.2294 -0.2908
 9009SOL    HW138663   1.710   4.143   4.197 -1.4987 -1.4925 -1.1501
 9009SOL    HW238664   1.678   4.269   4.266  1.0840 -0.2508  1.7724
 9010SOL     OW38665   3.067   4.653   9.621  0.1993 -0.0973  0.9473
 9010SOL    HW138666   3.032   4.732   9.663 -0.5547 -0.3656  0.8196
 9010SOL    HW238667   3.005   4.586   9.650  2.1189 -1.7381  1.2589
 9011SOL     OW38668   3.353   3.524   9.678 -0.1574 -0.0597  0.5067
 9011SOL    HW138669   3.269   3.534   9.633  0.0562 -0.9590 -0.0960
 9011SOL    HW238670   3.324   3.547   9.766 -2.4223 -1.0438  0.0234
 9012SOL     OW38671   2.572   0.179   5.753  0.5241 -0.0680  0.0016
 9012SOL    HW138672   2.621   0.118   5.808 -0.2156  0.0037  0.7264
 9012SOL    HW238673   2.484   0.147   5.771 -0.3585  1.5184 -1.4861
 9013SOL     OW38674   2.171   2.114   1.750 -0.1058  0.9830  0.3004
 9013SOL    HW138675   2.176   2.093   1.843  0.5270  0.1317  0.0825
 9013SOL    HW238676   2.087   2.072   1.730  0.0932  1.1396 -0.8987
 9014SOL     OW38677   4.326   1.026  11.794 -0.1570  0.3983 -0.4931
 9014SOL    HW138678   4.309   0.945  11.842  0.3773 -0.6995 -2.1436
 9014SOL    HW238679   4.315   1.092  11.862 -0.6112 -0.9703  0.7565
 9015SOL     OW38680   3.171   4.068   4.166 -0.8650 -0.1408 -0.1026
 9015SOL    HW138681   3.081   4.100   4.162 -2.0849 -3.3330  1.6785
 9015SOL    HW238682   3.174   4.009   4.241 -0.5811 -0.6531 -0.5181
 9016SOL     OW38683   2.864   1.583   1.871 -0.1055 -0.3555 -0.1659
 9016SOL    HW138684   2.797   1.584   1.804  0.6058  0.6375 -0.8710
 9016SOL    HW238685   2.914   1.657   1.837 -2.0796  0.6704 -0.8217
 9017SOL     OW38686   2.275   3.304   4.517  0.5924 -0.0955  0.2641
 9017SOL    HW138687   2.251   3.225   4.469 -2.2169 -0.2078  1.8188
 9017SOL    HW238688   2.324   3.262   4.588  0.0120 -1.7653 -0.3096
 9018SOL     OW38689   4.547   1.637  17.161  0.0071 -0.4613  0.1825
 9018SOL    HW138690   4.632   1.667  17.129  1.0367 -0.6067  2.7812
 9018SOL    HW238691   4.566   1.543  17.161 -1.1956 -0.7067 -0.1001
 9019SOL     OW38692   1.074   2.628  13.469  0.1044 -0.1416  0.0235
 9019SOL    HW138693   1.049   2.716  13.499 -0.3120 -0.2813  0.0835
 9019SOL    HW238694   1.046   2.615  13.379 -1.5338  1.1345  0.3335
 9020SOL     OW38695   1.433   4.699   2.601 -0.0350 -0.1327 -0.5603
 9020SOL    HW138696   1.445   0.058   2.593  0.1045 -0.0528  0.6108
 9020SOL    HW238697   1.503   4.676   2.540 -0.4995 -0.7668 -0.8581
 9021SOL     OW38698   0.786   4.229   7.378 -0.1404  0.4555  0.1049
 9021SOL    HW138699   0.754   4.317   7.359  0.7378  0.8937  0.6423
 9021SOL    HW238700   0.703   4.190   7.408  0.7820 -0.0077  2.0370
 9022SOL     OW38701   4.522   0.405  10.634  0.2926 -0.4257 -0.6445
 9022SOL    HW138702   4.521   0.457  10.554  1.2011  2.3102  1.1104
 9022SOL    HW238703   4.454   0.339  10.618 -0.1809 -0.2950  0.8710
 9023SOL     OW38704   0.405   2.558   5.249 -0.3219  0.1468  0.1723
 9023SOL    HW138705   0.348   2.627   5.283 -1.6098 -0.0708 -1.5817
 9023SOL    HW238706   0.351   2.482   5.270 -1.9885  0.9294 -1.3114
 9024SOL     OW38707   3.324   1.084   6.892  0.1878  0.2422 -0.5747
 9024SOL    HW138708   3.370   1.168   6.883  0.7392  0.0454  0.4025
 9024SOL    HW238709   3.375   1.024   6.839 -0.8585 -1.5923  0.5134
 9025SOL     OW38710   3.291   0.564   3.077 -0.3010  0.0310  1.0631
 9025SOL    HW138711   3.383   0.539   3.067 -0.4352 -0.0059 -0.0398
 9025SOL    HW238712   3.300   0.647   3.030  1.4806 -0.5216  0.4325
 9026SOL     OW38713   1.484   0.544   6.754 -0.1987 -0.1162  0.4332
 9026SOL    HW138714   1.439   0.502   6.827 -0.7415  0.1957  0.2819
 9026SOL    HW238715   1.529   0.615   6.800  1.7223 -1.0895  0.0632
 9027SOL     OW38716   1.033   0.177   4.284  0.1263 -0.0032 -0.6343
 9027SOL    HW138717   1.088   0.100   4.271 -0.9555 -1.0115  0.7052
 9027SOL    HW238718   0.948   0.139   4.264 -0.7673  1.7475 -0.2078
 9028SOL     OW38719   1.353   3.087   3.108  0.2619 -0.1061 -0.0018
 9028SOL    HW138720   1.442   3.087   3.142  0.4488 -1.4706 -0.4997
 9028SOL    HW238721   1.317   3.170   3.141 -1.6673 -1.3185  0.9560
 9029SOL     OW38722   2.007   0.377   7.824 -0.3956 -0.2701 -0.0735
 9029SOL    HW138723   2.086   0.419   7.858 -0.1809 -0.1134 -0.7711
 9029SOL    HW238724   2.042   0.301   7.779 -1.0440 -0.9746  0.6045
 9030SOL     OW38725   1.345   0.741   6.296  0.5521 -0.2769 -0.3384
 9030SOL    HW138726   1.339   0.832   6.265 -0.8971 -0.3330 -0.2521
 9030SOL    HW238727   1.295   0.747   6.377  2.5922 -0.3090  0.9144
 9031SOL     OW38728   1.430   1.321   0.283 -0.6312  0.5406  0.3316
 9031SOL    HW138729   1.466   1.307   0.195  0.1792  1.8766  0.4487
 9031SOL    HW238730   1.375   1.244   0.291 -2.4477  1.9048  1.0397
 9032SOL     OW38731   3.505   1.458   6.151 -0.3832 -0.3803  0.2911
 9032SOL    HW138732   3.445   1.469   6.078 -0.2482 -3.8700 -0.3138
 9032SOL    HW238733   3.469   1.529   6.206 -0.9793 -0.4566  0.0022
 9033SOL     OW38734   2.014   4.011   1.536 -0.2782  0.0053 -0.1272
 9033SOL    HW138735   2.078   3.991   1.467  1.9014  3.1205  0.9801
 9033SOL    HW238736   1.988   4.099   1.509 -0.5150 -0.0205  0.0183
 9034SOL     OW38737   2.376   1.681  12.883  0.0582  0.6247 -0.0920
 9034SOL    HW138738   2.427   1.762  12.879  0.0577  0.5774 -0.9953
 9034SOL    HW238739   2.450   1.622  12.871  2.6955  3.8080  0.8007
 9035SOL     OW38740   0.495   0.884   2.742  0.2338 -0.2593  0.2156
 9035SOL    HW138741   0.429   0.883   2.811  0.2430  4.1176  0.2756
 9035SOL    HW238742   0.451   0.833   2.673 -1.3435  1.5929 -0.1422
 9036SOL     OW38743   0.260   0.555   1.529  0.3438 -0.3345  0.0710
 9036SOL    HW138744   0.293   0.633   1.573 -0.6812  0.8576 -1.2769
 9036SOL    HW238745   0.179   0.545   1.580  2.0893  1.6916  3.2665
 9037SOL     OW38746   2.535   2.560   5.064 -0.3591 -0.5531 -0.3613
 9037SOL    HW138747   2.570   2.507   5.136  4.1706  1.2126 -1.2324
 9037SOL    HW238748   2.586   2.518   4.994  0.7487  1.5099 -0.8030
 9038SOL     OW38749   3.466   2.629   5.721  0.4728  0.0317  0.0775
 9038SOL    HW138750   3.520   2.580   5.782 -0.4440  1.7697  2.2780
 9038SOL    HW238751   3.530   2.677   5.668 -0.1894  1.1022  0.2467
 9039SOL     OW38752   4.495   3.252  16.194 -0.3815  0.0803  0.2922
 9039SOL    HW138753   4.489   3.182  16.260  1.7071 -0.4202 -0.0360
 9039SOL    HW238754   4.528   3.325  16.246 -0.7482 -0.0191  0.6576
 9040SOL     OW38755   1.512   3.788   3.438  0.2864  0.4957 -0.1926
 9040SOL    HW138756   1.475   3.704   3.466 -2.0645  0.8489 -2.2380
 9040SOL    HW238757   1.453   3.847   3.485  1.1415  2.1793 -1.2497
 9041SOL     OW38758   0.161   1.645   3.628 -0.0508  0.0871  0.2192
 9041SOL    HW138759   0.230   1.654   3.694 -0.5211  0.9753  0.5910
 9041SOL    HW238760   0.174   1.563   3.581 -1.5198 -0.4949  0.8114
 9042SOL     OW38761   2.202   0.264   8.800 -0.0675  0.3206  0.1822
 9042SOL    HW138762   2.282   0.262   8.853 -0.6670 -1.1807  1.0053
 9042SOL    HW238763   2.219   0.181   8.756  0.8669  1.3229 -1.4022
 9043SOL     OW38764   2.122   1.980   7.584 -0.0326  0.8099  0.1498
 9043SOL    HW138765   2.054   1.956   7.521  2.7137 -2.0756 -1.7300
 9043SOL    HW238766   2.084   2.051   7.636  0.3851  1.9190 -1.0812
 9044SOL     OW38767   3.901   0.800   1.687  0.2910 -0.1316  0.4910
 9044SOL    HW138768   3.932   0.807   1.777 -2.8127  1.6242  1.4065
 9044SOL    HW238769   3.968   0.748   1.643  1.5465  1.7346  0.1531
 9045SOL     OW38770   2.592   0.487   2.271  0.8543 -0.6350 -0.3099
 9045SOL    HW138771   2.656   0.558   2.269 -0.3615  0.4072 -1.9535
 9045SOL    HW238772   2.610   0.449   2.186  0.9802 -0.5380 -0.3262
 9046SOL     OW38773   4.547   1.708   8.534  0.6254  0.5377 -0.0126
 9046SOL    HW138774   4.534   1.735   8.442  0.3303  0.6078  0.0479
 9046SOL    HW238775   4.595   1.787   8.559  1.6278 -0.7925  2.2182
 9047SOL     OW38776   2.083   1.419   0.702 -0.0906 -0.2093  0.2904
 9047SOL    HW138777   2.102   1.327   0.683  0.6881  0.2925 -1.3803
 9047SOL    HW238778   2.049   1.458   0.621 -2.7259 -1.9116  0.5734
 9048SOL     OW38779   2.207   0.753   7.569  0.2669 -0.1890 -0.3654
 9048SOL    HW138780   2.285   0.763   7.515  0.4997  2.4014  0.4620
 9048SOL    HW238781   2.183   0.662   7.553 -1.0687 -0.4892  3.3965
 9049SOL     OW38782   2.994   3.861   5.265 -0.5571  0.3401  0.1795
 9049SOL    HW138783   2.974   3.839   5.356 -1.7232 -0.2232 -0.2136
 9049SOL    HW238784   2.975   3.954   5.264 -0.0958  0.4287 -0.7768
 9050SOL     OW38785   2.124   3.464   8.764 -0.1292  0.2094  0.3087
 9050SOL    HW138786   2.056   3.498   8.707 -1.4478 -1.0166  1.1573
 9050SOL    HW238787   2.117   3.532   8.831  2.1507  0.8938 -0.1365
 9051SOL     OW38788   1.847   3.304   9.593 -0.0633 -0.3709  0.2091
 9051SOL    HW138789   1.852   3.210   9.578 -1.4488 -0.4967  0.5506
 9051SOL    HW238790   1.910   3.304   9.665  0.1246  3.1443  0.0619
 9052SOL     OW38791   2.714   2.280   7.961  0.0332  0.1207 -0.1490
 9052SOL    HW138792   2.779   2.222   7.922 -0.4086  0.0098 -0.7193
 9052SOL    HW238793   2.754   2.283   8.048  0.3112  0.4609 -0.2882
 9053SOL     OW38794   2.516   0.482   5.777  0.6196  0.7470 -0.0016
 9053SOL    HW138795   2.558   0.554   5.824 -0.9625  1.2590  0.6474
 9053SOL    HW238796   2.582   0.413   5.777 -0.1521  0.0016 -0.6006
 9054SOL     OW38797   2.116   0.809  15.308 -0.4816  0.4646  0.4637
 9054SOL    HW138798   2.110   0.770  15.221  0.5002 -1.3413  1.2075
 9054SOL    HW238799   2.029   0.812  15.348 -0.8645  0.1715 -0.3477
 9055SOL     OW38800   1.068   0.588  12.366 -0.2386 -0.0626 -0.0596
 9055SOL    HW138801   0.997   0.541  12.411  0.6308 -1.6606 -0.3376
 9055SOL    HW238802   1.014   0.644  12.312 -0.9600 -0.1515  0.5603
 9056SOL     OW38803   2.599   4.709  16.336 -0.0200 -0.2935 -0.1856
 9056SOL    HW138804   2.689   4.734  16.355 -0.8375  0.9451  2.0626
 9056SOL    HW238805   2.603   4.674  16.247  0.6150 -0.2546 -0.1697
 9057SOL     OW38806   1.594   0.798   7.826 -0.0049  0.0543 -0.1085
 9057SOL    HW138807   1.553   0.884   7.836  1.7457  0.8048  0.5710
 9057SOL    HW238808   1.611   0.793   7.732 -1.8379 -0.5625 -0.4184
 9058SOL     OW38809   1.787   0.092  11.767 -0.6326  0.9704  0.5391
 9058SOL    HW138810   1.733   0.022  11.729 -1.6206  2.5756 -1.0012
 9058SOL    HW238811   1.742   0.091  11.851  0.2884  3.1945  1.0405
 9059SOL     OW38812   4.140   4.085   1.012 -0.0217 -0.6613  0.3087
 9059SOL    HW138813   4.184   4.155   1.060 -0.6372 -0.9305  1.2806
 9059SOL    HW238814   4.136   4.022   1.085  1.4481 -1.0511  0.0606
 9060SOL     OW38815   3.693   4.614   8.265  0.1540 -0.2359  0.6253
 9060SOL    HW138816   3.684   4.582   8.175  0.4650 -1.2477  0.9618
 9060SOL    HW238817   3.786   4.609   8.286 -0.1953  0.5494  2.3130
 9061SOL     OW38818   3.114   3.879  14.813 -0.8173 -0.0034  0.1369
 9061SOL    HW138819   3.194   3.888  14.761 -1.7161 -1.7945 -1.5765
 9061SOL    HW238820   3.062   3.824  14.754 -0.6720  1.2476 -1.1535
 9062SOL     OW38821   4.390   4.621   0.421  0.0739  0.4607  0.1446
 9062SOL    HW138822   4.307   4.664   0.400 -0.7718 -1.7795 -1.1175
 9062SOL    HW238823   4.387   4.544   0.364  2.5471  1.0412 -0.7693
 9063SOL     OW38824   2.991   4.130   9.600 -0.0905  0.2344  0.0109
 9063SOL    HW138825   3.034   4.211   9.626  0.8693  0.1575 -1.3176
 9063SOL    HW238826   3.063   4.072   9.577 -1.9111 -0.8343 -2.9827
 9064SOL     OW38827   2.911   3.999   4.871  0.4640  0.2152  0.9736
 9064SOL    HW138828   2.837   3.980   4.929 -0.0351 -0.6127  0.0532
 9064SOL    HW238829   2.972   3.926   4.878  1.9077  1.5503  2.2480
 9065SOL     OW38830   1.054   2.959   4.304  0.5185 -0.5299 -0.4885
 9065SOL    HW138831   1.053   3.009   4.386  1.0094  0.2065 -0.9348
 9065SOL    HW238832   0.964   2.926   4.299  1.0522 -1.9898 -0.4310
 9066SOL     OW38833   0.259   0.450   4.816  0.3519  0.6152  0.3111
 9066SOL    HW138834   0.312   0.370   4.818 -1.2821 -0.4320  0.9769
 9066SOL    HW238835   0.243   0.453   4.910 -0.0449 -2.6812  0.3517
 9067SOL     OW38836   1.377   0.095   3.321 -0.1732 -0.0575 -0.2172
 9067SOL    HW138837   1.422   0.018   3.287  1.0291 -0.8382  3.2018
 9067SOL    HW238838   1.342   0.122   3.236 -0.4288  1.8527  0.4904
 9068SOL     OW38839   2.385   1.681  16.128 -0.5125 -0.2638 -0.1672
 9068SOL    HW138840   2.318   1.684  16.196 -1.1310  0.3277 -0.8125
 9068SOL    HW238841   2.418   1.770  16.111  1.1839 -0.9563 -0.5447
 9069SOL     OW38842   3.906   1.970   3.324  0.5584  0.2246 -0.0672
 9069SOL    HW138843   3.838   1.987   3.388 -0.5364  0.3819 -1.2807
 9069SOL    HW238844   3.983   1.997   3.375 -0.9062  1.8611  1.2795
 9070SOL     OW38845   0.406   0.976   6.422  0.3468  0.4941  0.7433
 9070SOL    HW138846   0.382   1.018   6.339 -1.8377  0.8632  1.5631
 9070SOL    HW238847   0.501   0.980   6.412  0.3090  1.0726  0.6100
 9071SOL     OW38848   0.567   3.772  15.570  0.2565 -0.4385  0.1662
 9071SOL    HW138849   0.597   3.712  15.502  3.0148  2.1529 -0.9138
 9071SOL    HW238850   0.473   3.773  15.548  0.3599 -2.3878 -0.3187
 9072SOL     OW38851   4.036   4.002   8.895  0.6112  0.2533 -0.0457
 9072SOL    HW138852   4.027   3.910   8.869  2.2390 -1.3033  4.8561
 9072SOL    HW238853   4.117   4.012   8.944  2.1762 -1.9665 -2.1626
 9073SOL     OW38854   4.697   2.840   3.238  0.4142  0.3374  0.2586
 9073SOL    HW138855   0.028   2.843   3.307 -1.2234 -0.3969  1.8610
 9073SOL    HW238856   4.646   2.764   3.265 -0.8058  0.7245 -1.0191
 9074SOL     OW38857   2.941   4.642   5.557 -0.3238  0.0185 -0.3939
 9074SOL    HW138858   2.958   4.551   5.531  1.9717  0.9894 -2.2455
 9074SOL    HW238859   3.024   4.687   5.577 -0.8926  1.5771 -1.5628
 9075SOL     OW38860   0.790   3.083   9.853 -0.2070  0.0234  0.3969
 9075SOL    HW138861   0.884   3.067   9.844 -0.2579  0.8058 -1.5288
 9075SOL    HW238862   0.790   3.158   9.911  1.8003  0.1571  0.2432
 9076SOL     OW38863   3.501   4.388   3.387  0.5576  0.0015  0.7880
 9076SOL    HW138864   3.409   4.374   3.410  0.4910  0.8379  1.0153
 9076SOL    HW238865   3.514   4.483   3.390  1.7586 -0.1454  0.2581
 9077SOL     OW38866   0.051   4.417   4.270  0.0333 -0.3779  0.0594
 9077SOL    HW138867   0.018   4.439   4.357 -3.4595  1.3592 -1.6946
 9077SOL    HW238868   4.703   4.394   4.229  0.0879  0.3058 -0.4293
 9078SOL     OW38869   1.271   4.095  15.681 -0.2663  0.5346 -0.7604
 9078SOL    HW138870   1.313   4.173  15.645 -2.0808  1.7263 -0.2944
 9078SOL    HW238871   1.343   4.040  15.711 -0.7448  0.5997  0.5249
 9079SOL     OW38872   2.297   1.696  12.456 -0.0025  0.7075  0.2396
 9079SOL    HW138873   2.250   1.679  12.538  0.4724  0.6953  0.5078
 9079SOL    HW238874   2.384   1.658  12.471  0.2778  0.1187 -2.7530
 9080SOL     OW38875   0.583   1.813   9.046  0.5002  0.0480 -0.4023
 9080SOL    HW138876   0.670   1.787   9.077  0.8575  1.3651 -0.2804
 9080SOL    HW238877   0.535   1.738   9.080 -0.1026  0.5733 -0.0826
 9081SOL     OW38878   2.541   0.796   2.568 -0.5265 -0.6330  0.3322
 9081SOL    HW138879   2.598   0.800   2.492  1.4582 -1.9041  1.7727
 9081SOL    HW238880   2.602   0.780   2.640 -2.0648 -0.2542  1.7282
 9082SOL     OW38881   2.972   2.314   7.661 -0.0026  0.2800 -0.0500
 9082SOL    HW138882   2.981   2.248   7.730  0.5376  1.4198  0.9533
 9082SOL    HW238883   2.943   2.388   7.713  1.1729  0.9371 -0.3593
 9083SOL     OW38884   1.237   4.530   1.438  0.1580 -0.2296 -0.2245
 9083SOL    HW138885   1.291   4.600   1.401 -1.3788  0.5988 -0.9192
 9083SOL    HW238886   1.284   4.523   1.521  1.1727  1.1264 -0.6788
 9084SOL     OW38887   3.419   2.602   0.730  0.1535 -0.0349 -0.1737
 9084SOL    HW138888   3.490   2.661   0.709 -0.7643  0.2160 -2.6020
 9084SOL    HW238889   3.391   2.627   0.818  2.3167 -0.5408  0.6500
 9085SOL     OW38890   4.505   4.653  11.029 -0.3137 -0.2236  0.8092
 9085SOL    HW138891   4.487   4.567  10.993 -1.9025  0.6432 -0.4988
 9085SOL    HW238892   4.594   4.640  11.062 -0.9015 -0.3396  2.3702
 9086SOL     OW38893   2.038   1.334   2.986 -0.3341 -0.4029  0.2135
 9086SOL    HW138894   2.100   1.329   3.058 -1.2077 -1.6845  0.8873
 9086SOL    HW238895   2.083   1.272   2.930 -1.2140 -1.8611  1.1330
 9087SOL     OW38896   4.124   3.265   5.125 -0.2769 -0.0043  0.2402
 9087SOL    HW138897   4.116   3.305   5.212  0.5078 -0.1565  0.3837
 9087SOL    HW238898   4.034   3.236   5.112  0.3959 -1.5946 -0.7966
 9088SOL     OW38899   4.307   0.877   7.894 -0.3456 -0.6056 -0.1215
 9088SOL    HW138900   4.236   0.853   7.954 -0.3309 -0.1390  0.0860
 9088SOL    HW238901   4.289   0.968   7.870  0.9421 -0.6632 -1.3047
 9089SOL     OW38902   3.362   2.841  14.445 -0.6287 -0.1289 -0.4894
 9089SOL    HW138903   3.380   2.826  14.538 -0.8036  3.0306  0.0629
 9089SOL    HW238904   3.273   2.876  14.451 -0.1256  1.2130 -0.9547
 9090SOL     OW38905   0.759   3.296   0.227 -0.6313  0.0958  0.5258
 9090SOL    HW138906   0.766   3.390   0.243 -1.9551  0.3880 -0.6042
 9090SOL    HW238907   0.847   3.284   0.262 -0.2685  1.4302  0.1031
 9091SOL     OW38908   1.857   4.499  10.404  0.5118  0.3995 -0.2985
 9091SOL    HW138909   1.908   4.573  10.370  2.4997 -0.4655  0.8341
 9091SOL    HW238910   1.798   4.488  10.329  2.1484 -3.7623 -0.9687
 9092SOL     OW38911   1.353   1.186   0.556 -0.0609  0.2428 -0.4256
 9092SOL    HW138912   1.383   1.096   0.568 -0.4864 -0.2582 -3.0735
 9092SOL    HW238913   1.289   1.161   0.489 -2.8222 -0.4028  2.5000
 9093SOL     OW38914   4.732   1.637  12.807  0.6268  0.2544 -0.3646
 9093SOL    HW138915   4.698   1.548  12.808  1.0130  0.1131  0.0705
 9093SOL    HW238916   0.065   1.622  12.743  0.7545  1.5227 -0.5378
 9094SOL     OW38917   4.650   0.543  14.733 -0.0391  0.3450  0.4276
 9094SOL    HW138918   4.723   0.481  14.729  0.0805  0.6940 -2.5241
 9094SOL    HW238919   4.590   0.500  14.672  0.8768  1.0724 -0.9897
 9095SOL     OW38920   2.736   0.698   7.034 -0.3602  0.3419 -0.1434
 9095SOL    HW138921   2.764   0.711   7.125  1.2475  3.3112 -1.0790
 9095SOL    HW238922   2.807   0.639   7.009  0.7446  1.6390 -0.0714
 9096SOL     OW38923   4.635   4.712   2.331  0.2805 -0.2592  0.3933
 9096SOL    HW138924   4.709   0.004   2.277  1.9537 -1.2307  2.1804
 9096SOL    HW238925   4.602   4.647   2.269  0.7792  0.4258 -0.5897
 9097SOL     OW38926   1.317   3.748   4.695  0.1118 -0.0278 -0.0284
 9097SOL    HW138927   1.241   3.766   4.638 -0.3980 -2.1112 -0.0231
 9097SOL    HW238928   1.314   3.826   4.749  1.3843 -0.8717  1.2532
 9098SOL     OW38929   3.887   0.069   3.289  0.2155 -0.6445  0.0144
 9098SOL    HW138930   3.973   0.063   3.330  0.5792 -2.6825 -1.0582
 9098SOL    HW238931   3.878   0.164   3.302 -2.2707 -1.1796  2.1941
 9099SOL     OW38932   4.251   2.553  14.303  0.0305 -0.4548  0.3607
 9099SOL    HW138933   4.160   2.525  14.294 -0.2278  0.2230  0.8880
 9099SOL    HW238934   4.230   2.644  14.322 -1.7609 -0.9899  0.9249
 9100SOL     OW38935   4.325   1.831  11.422 -0.0111 -0.1173 -0.4070
 9100SOL    HW138936   4.331   1.777  11.501 -1.0674 -1.5912 -1.3394
 9100SOL    HW238937   4.409   1.809  11.381  0.9032  0.4299  1.1591
 9101SOL     OW38938   2.566   4.696  10.107 -0.4692  0.0878 -0.5631
 9101SOL    HW138939   2.657   4.720  10.090 -0.1902  1.6019  3.0787
 9101SOL    HW238940   2.554   0.016  10.184 -1.5860  0.0163 -0.6759
 9102SOL     OW38941   0.862   2.887   2.658  0.1579 -0.1758  0.9439
 9102SOL    HW138942   0.776   2.850   2.675 -0.2708  0.0278 -0.8074
 9102SOL    HW238943   0.850   2.952   2.588 -3.0370  0.0200  1.6719
 9103SOL     OW38944   4.645   1.644   8.081 -0.1363 -0.5959  0.3065
 9103SOL    HW138945   4.715   1.708   8.070 -2.6167  1.6491 -2.4194
 9103SOL    HW238946   4.629   1.600   7.998 -1.3287  0.7219 -0.1839
 9104SOL     OW38947   0.348   2.226   7.065  0.5267  0.2548 -0.0996
 9104SOL    HW138948   0.290   2.302   7.066 -0.3445 -0.4031 -0.2221
 9104SOL    HW238949   0.364   2.198   6.974  2.4540  1.3349 -0.0949
 9105SOL     OW38950   0.631   4.052   4.323 -0.0763  0.2607 -0.2427
 9105SOL    HW138951   0.553   3.997   4.326 -0.5960  0.9112 -1.8225
 9105SOL    HW238952   0.590   4.134   4.351 -2.9109 -1.1335 -0.2901
 9106SOL     OW38953   1.480   4.263   8.135 -0.1086  0.4368 -0.2985
 9106SOL    HW138954   1.565   4.306   8.133  0.9568 -1.6863 -1.5858
 9106SOL    HW238955   1.414   4.327   8.161 -1.0995  0.0280 -1.7707
 9107SOL     OW38956   0.876   4.279  15.763  0.0912  0.1020  0.8161
 9107SOL    HW138957   0.921   4.226  15.828  0.9071 -0.9584 -0.6121
 9107SOL    HW238958   0.800   4.222  15.753  1.3905 -2.1612  4.0353
 9108SOL     OW38959   3.169   0.146   7.202  0.5633 -0.0435 -0.3808
 9108SOL    HW138960   3.091   0.142   7.257  1.3244 -0.4629  0.6686
 9108SOL    HW238961   3.195   0.233   7.234 -3.0273  0.5486  0.9251
 9109SOL     OW38962   1.916   2.587   6.768 -0.1200  0.0359  0.3082
 9109SOL    HW138963   1.990   2.580   6.829 -0.8838 -2.3916  0.9589
 9109SOL    HW238964   1.894   2.677   6.792 -1.3136  0.0625 -0.8752
 9110SOL     OW38965   2.534   0.893   2.157 -0.5236  0.2909  0.4399
 9110SOL    HW138966   2.481   0.813   2.163  0.2278 -0.1714  0.8999
 9110SOL    HW238967   2.475   0.946   2.104  0.6989 -0.6133 -1.8056
 9111SOL     OW38968   2.452   3.441   1.107  0.0960  0.3078  0.3875
 9111SOL    HW138969   2.385   3.375   1.126  0.4042 -0.2392 -0.4377
 9111SOL    HW238970   2.471   3.414   1.017 -0.5574  2.0206 -0.2583
 9112SOL     OW38971   1.360   0.045   5.379 -0.1063 -0.1169  0.3942
 9112SOL    HW138972   1.421   4.717   5.342  1.2566 -0.3927  3.1345
 9112SOL    HW238973   1.399   0.051   5.466 -2.2565  0.3214  1.3209
 9113SOL     OW38974   3.479   0.340   6.765  0.4022 -0.0321  0.3885
 9113SOL    HW138975   3.431   0.401   6.822  0.3245 -0.8645  1.2108
 9113SOL    HW238976   3.407   0.278   6.764  1.5500 -1.3640  1.9097
 9114SOL     OW38977   2.787   3.459   5.643 -0.3429  0.0426 -0.2883
 9114SOL    HW138978   2.786   3.514   5.565  0.7430  1.9625  1.0731
 9114SOL    HW238979   2.769   3.526   5.709  1.3095 -0.4192  0.6243
 9115SOL     OW38980   2.361   2.303   6.356 -0.3875  0.4926 -0.9878
 9115SOL    HW138981   2.299   2.331   6.424  0.8268  2.1479 -0.5721
 9115SOL    HW238982   2.402   2.389   6.348  0.5350  0.3239  1.7511
 9116SOL     OW38983   1.358   4.235   6.280  0.4035 -0.6699 -0.3649
 9116SOL    HW138984   1.332   4.179   6.352  0.8195 -2.0250 -1.2628
 9116SOL    HW238985   1.454   4.235   6.284  0.4391 -1.3349 -1.0884
 9117SOL     OW38986   2.670   0.469  11.571  0.1529 -0.1359 -0.4088
 9117SOL    HW138987   2.610   0.513  11.511  2.4244  1.7878 -1.2508
 9117SOL    HW238988   2.653   0.524  11.648 -0.9001  0.1370 -0.8420
 9118SOL     OW38989   3.779   4.405   7.450 -0.5052  0.0904  0.1900
 9118SOL    HW138990   3.836   4.476   7.479 -0.4908 -1.3461  3.7215
 9118SOL    HW238991   3.704   4.449   7.410 -0.8195 -0.5197  0.1031
 9119SOL     OW38992   3.417   3.671   0.146  0.1783  0.2656 -0.6668
 9119SOL    HW138993   3.423   3.612   0.221  2.2181  0.9852 -0.2575
 9119SOL    HW238994   3.510   3.695   0.141 -0.3486  2.5753  0.2217
 9120SOL     OW38995   0.329   1.047  11.145  0.1604 -0.0448 -0.3289
 9120SOL    HW138996   0.242   1.079  11.120  0.1925  0.1955 -0.1383
 9120SOL    HW238997   0.353   1.116  11.207 -2.6011 -0.1246  0.8080
 9121SOL     OW38998   3.068   2.314   4.280 -0.5648 -0.1434  0.4937
 9121SOL    HW138999   3.082   2.262   4.201 -2.4459 -0.2350  0.2396
 9121SOL    HW239000   2.993   2.365   4.252 -0.9271 -0.9653 -0.0411
 9122SOL     OW39001   0.026   2.799  15.658 -0.2026 -0.5160 -0.1032
 9122SOL    HW139002   0.114   2.790  15.623  0.8507  0.4480  2.2806
 9122SOL    HW239003   4.706   2.795  15.581 -1.1057  1.2659  0.4391
 9123SOL     OW39004   4.123   0.762   4.691 -1.1537  0.0687  0.2381
 9123SOL    HW139005   4.078   0.761   4.607  1.5143  2.6659 -1.1978
 9123SOL    HW239006   4.090   0.680   4.730  1.2202 -0.7433  0.5297
 9124SOL     OW39007   1.643   4.705  15.446 -0.3047  0.0540  0.5655
 9124SOL    HW139008   1.694   4.661  15.378 -0.9881 -1.2489  0.8995
 9124SOL    HW239009   1.700   4.705  15.523 -1.3347  0.3401  1.3313
 9125SOL     OW39010   1.352   4.502  11.915 -0.1661  0.3515  0.2098
 9125SOL    HW139011   1.380   4.452  11.838  0.0667  0.6651  0.0932
 9125SOL    HW239012   1.358   4.588  11.875 -0.4530  0.3862  0.2412
 9126SOL     OW39013   4.020   3.741   3.358  0.0768 -0.6303 -0.5358
 9126SOL    HW139014   4.086   3.805   3.384 -0.6634  0.6899 -1.8648
 9126SOL    HW239015   3.974   3.803   3.301 -0.1408  1.0803  1.5185
 9127SOL     OW39016   3.839   4.411   5.377  0.3474  0.4850 -0.0988
 9127SOL    HW139017   3.925   4.388   5.413  0.2219 -1.8738 -1.3065
 9127SOL    HW239018   3.840   4.505   5.396  0.6048  0.5191 -0.2723
 9128SOL     OW39019   1.623   0.168   2.237  0.1867 -0.2599 -0.3549
 9128SOL    HW139020   1.603   0.262   2.243  0.7438  0.0333 -3.1068
 9128SOL    HW239021   1.716   0.163   2.259 -0.2186 -1.9318  0.9603
 9129SOL     OW39022   3.629   1.954  16.317  0.3302 -0.1576  0.8827
 9129SOL    HW139023   3.553   2.013  16.323 -0.2441 -0.7773 -0.2154
 9129SOL    HW239024   3.636   1.918  16.405 -0.0404 -0.9344  0.5938
 9130SOL     OW39025   0.258   4.040  16.503 -0.0965 -0.3816 -0.2511
 9130SOL    HW139026   0.200   4.112  16.527 -0.5562 -0.4222 -1.2279
 9130SOL    HW239027   0.326   4.033  16.570 -1.1491 -1.7529  0.6614
 9131SOL     OW39028   2.117   1.671   0.786 -0.0506  0.3062  0.2443
 9131SOL    HW139029   2.070   1.589   0.803 -0.4001  0.0791 -1.7546
 9131SOL    HW239030   2.209   1.645   0.783  0.0541  0.8915 -2.3243
 9132SOL     OW39031   1.093   3.794   4.504 -0.0497 -0.2618  0.2371
 9132SOL    HW139032   1.030   3.833   4.564 -0.5858  0.7802 -0.9892
 9132SOL    HW239033   1.046   3.713   4.486  1.9304 -1.8491  2.1079
 9133SOL     OW39034   3.988   1.507   6.989  0.5097 -0.2710  0.6398
 9133SOL    HW139035   4.067   1.529   6.940  1.5365  0.3065  2.5452
 9133SOL    HW239036   3.944   1.589   6.964 -1.6709 -1.9191 -1.0062
 9134SOL     OW39037   0.183   1.244   2.257 -0.7963  0.0376 -0.1515
 9134SOL    HW139038   0.263   1.292   2.276 -0.2841 -0.1050 -1.9454
 9134SOL    HW239039   0.221   1.157   2.254 -0.3778  0.2492 -1.0473
 9135SOL     OW39040   3.840   0.488   2.738  0.2605 -0.7704  0.0630
 9135SOL    HW139041   3.746   0.470   2.736  0.7656 -3.3735 -0.2194
 9135SOL    HW239042   3.889   0.445   2.669  0.0790  0.1007 -0.6099
 9136SOL     OW39043   3.563   3.248   2.831  0.6628 -0.4565 -0.0298
 9136SOL    HW139044   3.608   3.165   2.812  0.7756 -0.1340 -1.1780
 9136SOL    HW239045   3.477   3.246   2.788  0.3319  0.1353  0.6149
 9137SOL     OW39046   0.332   1.097   5.086 -0.3489 -0.0927  0.3522
 9137SOL    HW139047   0.310   1.007   5.109 -0.6139  0.4901  2.3721
 9137SOL    HW239048   0.258   1.134   5.134 -0.2272 -0.8119  1.0893
 9138SOL     OW39049   3.210   3.123   1.770  0.4177  0.5353 -0.4002
 9138SOL    HW139050   3.305   3.117   1.771  0.4833  1.5040 -2.8356
 9138SOL    HW239051   3.192   3.089   1.858 -1.2410 -1.0667 -1.3426
 9139SOL     OW39052   3.580   1.001   5.432 -0.3567  0.4551 -0.5408
 9139SOL    HW139053   3.554   0.918   5.392 -0.6692 -0.1479  0.8953
 9139SOL    HW239054   3.668   0.982   5.464  0.0607  1.8456 -0.8963
 9140SOL     OW39055   2.350   4.355   3.437  0.3346 -0.0856 -0.0659
 9140SOL    HW139056   2.376   4.365   3.345 -0.9236  1.3036 -0.2856
 9140SOL    HW239057   2.257   4.330   3.433  0.6237 -0.8517 -1.9358
 9141SOL     OW39058   0.899   3.402   3.809 -0.4024 -0.1290 -0.1346
 9141SOL    HW139059   0.874   3.335   3.873 -0.1777  0.8000  0.9205
 9141SOL    HW239060   0.992   3.379   3.804  0.2825  2.1571  2.3581
 9142SOL     OW39061   3.303   1.729   6.047 -0.5238  0.2059  0.1022
 9142SOL    HW139062   3.335   1.810   6.007 -0.3052  0.3819  0.6321
 9142SOL    HW239063   3.328   1.658   5.987 -0.7004  0.1800  0.0605
 9143SOL     OW39064   3.785   1.168   0.109  0.0044 -0.0383 -0.2263
 9143SOL    HW139065   3.761   1.198   0.021  1.0234  0.5473 -0.3044
 9143SOL    HW239066   3.845   1.097   0.086  0.0078 -1.0125  2.7608
 9144SOL     OW39067   0.603   4.507   2.469 -0.0858  0.3997 -0.2500
 9144SOL    HW139068   0.618   4.580   2.530  0.0098 -0.5364  0.8579
 9144SOL    HW239069   0.668   4.451   2.510 -1.4539 -1.1366 -0.1945
 9145SOL     OW39070   4.511   0.074   5.251  0.4351  0.1271  0.0466
 9145SOL    HW139071   4.419   0.081   5.224  1.3376  1.1862 -2.6808
 9145SOL    HW239072   4.527   4.718   5.267 -0.5447 -0.0102  0.2433
 9146SOL     OW39073   2.000   1.617   9.823 -0.5760 -0.6390 -0.0662
 9146SOL    HW139074   1.941   1.692   9.833 -1.0262 -0.9725 -0.2338
 9146SOL    HW239075   1.986   1.581   9.910  0.1648 -0.9572 -0.0819
 9147SOL     OW39076   3.854   4.619   7.619  0.1158  0.3829  0.4288
 9147SOL    HW139077   3.809   4.542   7.655  0.0741  0.9783  1.6407
 9147SOL    HW239078   3.798   4.695   7.601 -0.1948  0.4606  1.6755
 9148SOL     OW39079   1.420   4.068  14.363  0.6461 -0.1073  0.3344
 9148SOL    HW139080   1.512   4.065  14.391  0.6665  0.3116  0.3093
 9148SOL    HW239081   1.405   4.161  14.349 -0.4514 -0.3796 -0.2635
 9149SOL     OW39082   1.799   1.358   2.570 -0.0401  0.0752 -0.4989
 9149SOL    HW139083   1.865   1.424   2.551  0.8116 -1.7143 -3.7201
 9149SOL    HW239084   1.724   1.393   2.522  1.1510  1.1301 -1.5803
 9150SOL     OW39085   1.873   0.596   6.191 -0.4227 -0.0093 -0.4921
 9150SOL    HW139086   1.803   0.626   6.249  0.5183 -2.7096  2.0921
 9150SOL    HW239087   1.919   0.678   6.176  0.3698 -0.3064  0.2424
 9151SOL     OW39088   1.751   1.605   8.340  0.1344 -0.2661  0.0777
 9151SOL    HW139089   1.707   1.648   8.412  1.5674  0.3264  0.5979
 9151SOL    HW239090   1.754   1.672   8.271 -0.0165  0.6577  0.9776
 9152SOL     OW39091   2.568   2.730  12.975 -0.5119 -0.3280 -0.2247
 9152SOL    HW139092   2.556   2.823  12.954  0.0997 -0.5298 -1.4306
 9152SOL    HW239093   2.661   2.728  12.997 -0.7786  0.6830  1.0600
 9153SOL     OW39094   1.643   4.468   9.449 -0.6103 -0.1243  0.1633
 9153SOL    HW139095   1.552   4.443   9.431 -0.6130  0.0743 -0.1055
 9153SOL    HW239096   1.633   4.564   9.452  1.1727  0.0321  0.9507
 9154SOL     OW39097   4.159   1.979   6.724  0.2779  0.0258  0.1096
 9154SOL    HW139098   4.131   1.964   6.814 -0.6935 -1.0172 -0.3603
 9154SOL    HW239099   4.223   2.048   6.740  0.5119  0.3701 -2.2426
 9155SOL     OW39100   2.799   3.400   1.541 -1.0873 -0.4699 -0.0281
 9155SOL    HW139101   2.879   3.372   1.586  0.0108  0.1907 -1.5625
 9155SOL    HW239102   2.829   3.452   1.467 -0.1721 -1.0246 -0.0503
 9156SOL     OW39103   1.826   4.082   4.090  0.0461 -0.1143 -0.0343
 9156SOL    HW139104   1.877   4.001   4.096  0.2037  0.0548  0.8983
 9156SOL    HW239105   1.890   4.140   4.049  0.1796 -0.1787  0.0842
 9157SOL     OW39106   0.590   1.733   0.903 -0.5579 -0.0881  0.2201
 9157SOL    HW139107   0.651   1.806   0.914  0.9145 -1.0907 -1.4816
 9157SOL    HW239108   0.515   1.773   0.948 -0.5149 -0.8671  0.9758
 9158SOL     OW39109   0.780   4.731   2.379 -0.2694  0.4921 -0.8076
 9158SOL    HW139110   0.844   0.011   2.310  0.0821  0.1764 -0.5557
 9158SOL    HW239111   0.705   4.704   2.326 -2.1071  0.7804  1.6522
 9159SOL     OW39112   3.271   4.375  14.277 -0.0528  0.0119 -0.7817
 9159SOL    HW139113   3.302   4.350  14.191 -0.8789  1.1856 -1.4241
 9159SOL    HW239114   3.352   4.398  14.323 -1.8497  2.2231  1.2871
 9160SOL     OW39115   0.845   4.453  13.564 -0.8840 -0.6394  0.0393
 9160SOL    HW139116   0.908   4.474  13.495 -1.3653  0.0473 -0.1844
 9160SOL    HW239117   0.801   4.537  13.573 -0.0953 -0.2002 -0.2199
 9161SOL     OW39118   0.990   1.837   3.928  0.1165 -0.5974 -0.4147
 9161SOL    HW139119   0.996   1.846   4.024 -0.9278 -1.5559 -0.2574
 9161SOL    HW239120   0.899   1.817   3.908 -0.0790 -0.9513  0.7970
 9162SOL     OW39121   3.354   0.437   9.620  0.2253 -0.6015  0.1572
 9162SOL    HW139122   3.435   0.484   9.639 -0.1287 -1.0488  2.8091
 9162SOL    HW239123   3.323   0.481   9.541  0.3695 -1.5361 -0.4228
 9163SOL     OW39124   0.457   1.424  10.572  0.3427 -0.7779 -0.5381
 9163SOL    HW139125   0.400   1.450  10.644  1.5673  0.9065 -0.1795
 9163SOL    HW239126   0.538   1.470  10.594 -0.1268  0.5142 -1.5985
 9164SOL     OW39127   2.476   0.209  16.392 -0.1562  0.5260  0.0555
 9164SOL    HW139128   2.508   0.123  16.366 -1.6898 -0.1976  0.5699
 9164SOL    HW239129   2.546   0.253  16.440 -0.3898 -0.4344  1.2628
 9165SOL     OW39130   1.792   2.716  11.176  0.2379  0.2746  0.1288
 9165SOL    HW139131   1.788   2.808  11.203 -0.3496 -0.5201  2.7367
 9165SOL    HW239132   1.876   2.682  11.208 -0.1010 -0.5403  0.1419
 9166SOL     OW39133   0.315   3.879   4.108  0.0845 -0.5765 -0.1355
 9166SOL    HW139134   0.247   3.812   4.111 -1.1010  0.5851 -1.3785
 9166SOL    HW239135   0.330   3.894   4.201  0.5794 -2.1417  0.0479
 9167SOL     OW39136   4.674   2.869  16.712 -0.1108  0.5138  0.2122
 9167SOL    HW139137   4.703   2.931  16.646 -2.5450  1.5439  0.1078
 9167SOL    HW239138   0.017   2.868  16.765  0.6514  0.2306 -0.9299
 9168SOL     OW39139   2.630   1.014   7.322 -0.6184 -0.0690  0.4045
 9168SOL    HW139140   2.660   0.943   7.379 -0.7004 -1.0827 -0.8085
 9168SOL    HW239141   2.591   0.972   7.245  1.5370 -0.5250 -0.4395
 9169SOL     OW39142   2.118   0.486   4.027 -0.2579 -0.1066  0.1187
 9169SOL    HW139143   2.128   0.511   4.119 -1.1974  3.9888 -0.9208
 9169SOL    HW239144   2.210   0.470   4.006 -0.8246 -1.0996 -1.5924
 9170SOL     OW39145   2.334   2.872   6.158 -0.2512 -0.6047 -0.6459
 9170SOL    HW139146   2.306   2.807   6.093  0.2180 -1.2276 -0.2176
 9170SOL    HW239147   2.255   2.927   6.168 -0.2591 -0.8786  0.7262
 9171SOL     OW39148   3.573   0.765   7.659  0.6051  0.1744 -0.2253
 9171SOL    HW139149   3.613   0.726   7.736  0.5198 -0.2648 -0.4032
 9171SOL    HW239150   3.591   0.702   7.589  0.0391  0.7096 -0.8601
 9172SOL     OW39151   2.407   3.639  15.424  0.6079  0.0111 -0.0092
 9172SOL    HW139152   2.484   3.583  15.413 -0.6633 -1.8014  0.2958
 9172SOL    HW239153   2.402   3.689  15.343 -0.3445 -0.0662  0.0013
 9173SOL     OW39154   3.858   3.802   2.093 -0.7891 -0.2117 -0.3374
 9173SOL    HW139155   3.953   3.803   2.091 -0.7768 -2.0765 -0.7100
 9173SOL    HW239156   3.843   3.844   2.177  2.7871  0.5573 -0.0859
 9174SOL     OW39157   3.300   3.104   7.384  0.1564  0.4874  0.1894
 9174SOL    HW139158   3.268   3.145   7.303 -0.4005 -0.7151 -0.2066
 9174SOL    HW239159   3.239   3.133   7.452  0.3873  0.7802  0.2709
 9175SOL     OW39160   3.293   1.606  14.210  0.0880 -0.0287 -0.0373
 9175SOL    HW139161   3.277   1.700  14.221 -0.7490 -0.0292 -1.2349
 9175SOL    HW239162   3.388   1.596  14.205 -0.2057 -2.1692 -1.1529
 9176SOL     OW39163   2.743   4.518   2.123  0.1385 -0.2047 -0.1732
 9176SOL    HW139164   2.798   4.539   2.047  0.9770  0.0931  0.5115
 9176SOL    HW239165   2.808   4.522   2.193 -2.1946  1.9499  1.8320
 9177SOL     OW39166   3.154   4.161   1.507  0.4564  0.6327 -0.4824
 9177SOL    HW139167   3.133   4.090   1.568 -0.3053 -0.3233 -1.8464
 9177SOL    HW239168   3.216   4.216   1.555  0.9144  0.2842 -0.6796
 9178SOL     OW39169   4.296   2.467   6.542  0.0501  0.8827 -0.0241
 9178SOL    HW139170   4.368   2.529   6.552 -0.5264  1.5447  0.1064
 9178SOL    HW239171   4.252   2.466   6.628  1.8830 -2.2457  0.8464
 9179SOL     OW39172   0.349   3.686   9.719  0.0422  0.5537  0.1897
 9179SOL    HW139173   0.380   3.597   9.703 -1.1491 -0.0366  1.1938
 9179SOL    HW239174   0.433   3.707   9.758  1.7855 -3.3215 -1.4483
 9180SOL     OW39175   1.299   0.418   6.988  0.0354  0.2137  0.5380
 9180SOL    HW139176   1.273   0.364   6.914  1.7981 -0.8377  0.6910
 9180SOL    HW239177   1.214   0.447   7.023 -0.2709 -1.0792  0.8493
 9181SOL     OW39178   3.512   0.062   8.194 -0.1079 -0.7004 -0.4656
 9181SOL    HW139179   3.573   0.104   8.133 -1.1023 -0.1548 -1.0800
 9181SOL    HW239180   3.573   0.005   8.241 -1.1218 -1.5077 -0.1314
 9182SOL     OW39181   1.916   1.021  12.842 -0.2357 -0.2379 -1.0084
 9182SOL    HW139182   1.869   0.955  12.791 -3.2506  2.4852 -1.7534
 9182SOL    HW239183   1.880   1.020  12.930  0.0106  1.4072 -0.8957
 9183SOL     OW39184   0.159   2.268  10.159  0.1359  0.1668  0.2200
 9183SOL    HW139185   0.065   2.289  10.162  0.8745  3.6654 -1.2846
 9183SOL    HW239186   0.141   2.182  10.120  0.9701  0.8282 -1.6303
 9184SOL     OW39187   4.561   3.797  11.015 -0.4447  0.7051 -0.6443
 9184SOL    HW139188   4.474   3.834  11.027 -1.3480 -1.5964 -0.1344
 9184SOL    HW239189   4.573   3.740  11.091 -1.7831  1.1992 -0.0646
 9185SOL     OW39190   3.696   4.560   3.750  0.0544  0.1429 -0.0450
 9185SOL    HW139191   3.643   4.592   3.677 -1.8784 -2.3902  0.2628
 9185SOL    HW239192   3.636   4.513   3.807  0.9411 -1.1190 -0.1642
 9186SOL     OW39193   2.545   4.610   9.826 -0.7404  0.7321  0.2459
 9186SOL    HW139194   2.570   4.635   9.915  0.3319  2.6823 -0.6128
 9186SOL    HW239195   2.595   4.675   9.777  0.6024 -0.8395 -0.4603
 9187SOL     OW39196   0.284   2.358  13.843 -0.0614  0.0853  0.2603
 9187SOL    HW139197   0.294   2.392  13.932  0.5555 -1.3897  0.7543
 9187SOL    HW239198   0.272   2.267  13.871  0.2165 -0.3040 -0.8918
 9188SOL     OW39199   2.681   0.070   5.447 -0.0628 -0.0701  0.5953
 9188SOL    HW139200   2.696   0.105   5.535  2.9249  1.0230 -0.3198
 9188SOL    HW239201   2.647   0.150   5.407  0.7299 -1.1345 -2.1897
 9189SOL     OW39202   3.871   3.411   5.647  0.7594 -0.7647  0.7543
 9189SOL    HW139203   3.863   3.363   5.565 -1.6934  0.6796  0.1347
 9189SOL    HW239204   3.938   3.478   5.635 -0.4000  0.0787 -0.9512
 9190SOL     OW39205   3.515   0.934   8.366  0.0438 -0.5587  0.5390
 9190SOL    HW139206   3.519   1.008   8.426  1.4380  0.8998 -1.3667
 9190SOL    HW239207   3.506   0.971   8.279  0.2061  1.3777  1.3512
 9191SOL     OW39208   2.931   0.316   7.126  0.4315  0.5488  0.4567
 9191SOL    HW139209   2.981   0.251   7.077 -0.5728 -1.6333  2.3047
 9191SOL    HW239210   2.920   0.379   7.055 -2.9737  0.8480  1.2617
 9192SOL     OW39211   3.323   2.286   9.554  0.2773  0.0146 -0.1501
 9192SOL    HW139212   3.315   2.309   9.646  3.6284  1.0868 -0.1048
 9192SOL    HW239213   3.416   2.282   9.532  0.7308  1.1055  1.6058
 9193SOL     OW39214   0.255   3.827   2.890  0.0200  0.2578 -0.5602
 9193SOL    HW139215   0.256   3.858   2.981 -2.3127 -0.5147 -0.2622
 9193SOL    HW239216   0.225   3.904   2.840  2.0361  2.4876  1.6675
 9194SOL     OW39217   1.742   1.733   1.972  0.5307  0.1261  0.0465
 9194SOL    HW139218   1.795   1.654   1.966 -1.3209 -1.1724  0.7724
 9194SOL    HW239219   1.775   1.774   2.051  1.2096 -2.0593  0.8906
 9195SOL     OW39220   2.888   2.525   1.782  0.1803 -0.0125  0.1095
 9195SOL    HW139221   2.962   2.505   1.725  1.4651  2.3301  0.9178
 9195SOL    HW239222   2.911   2.618   1.780  0.3338 -0.0996 -1.7246
 9196SOL     OW39223   4.664   1.543   2.300 -0.2563  0.4912  0.1678
 9196SOL    HW139224   4.668   1.460   2.349  0.6341  2.3551  3.2675
 9196SOL    HW239225   0.022   1.561   2.298  0.6799 -4.3113 -1.1574
 9197SOL     OW39226   3.571   1.342   5.265 -0.3237  0.2001  0.4643
 9197SOL    HW139227   3.615   1.270   5.221 -0.0044  0.5757  0.1621
 9197SOL    HW239228   3.485   1.304   5.278 -0.0126 -0.8229 -0.5703
 9198SOL     OW39229   1.832   0.820   2.058 -0.1517 -0.0654  0.1460
 9198SOL    HW139230   1.819   0.739   2.108  1.1144 -0.2463  0.1729
 9198SOL    HW239231   1.835   0.780   1.971  0.1217 -0.9389  0.5609
 9199SOL     OW39232   2.257   3.441  12.712 -0.0458 -0.2075 -0.4671
 9199SOL    HW139233   2.265   3.378  12.784  1.2295 -0.7979 -1.1293
 9199SOL    HW239234   2.168   3.425  12.681  0.4313 -1.0940 -1.3771
 9200SOL     OW39235   1.901   0.048   6.555  0.5337 -0.2671  0.4532
 9200SOL    HW139236   1.922   0.107   6.628 -3.2970  0.1408  1.2158
 9200SOL    HW239237   1.895   0.113   6.485 -1.1829 -0.6420  0.2509
 9201SOL     OW39238   0.384   1.287   7.006  0.0881 -0.0577  0.0872
 9201SOL    HW139239   0.300   1.322   6.976 -0.6148 -0.2866  1.7643
 9201SOL    HW239240   0.358   1.243   7.088 -0.7628  1.4948  0.6583
 9202SOL     OW39241   1.928   2.561  16.989  0.2529  0.2567  0.1865
 9202SOL    HW139242   1.930   2.504  16.912 -1.0244  0.3453  0.0959
 9202SOL    HW239243   1.855   2.516  17.032  1.6940 -0.4765  1.8800
 9203SOL     OW39244   2.829   3.022  13.738  0.0705 -0.2128  0.5139
 9203SOL    HW139245   2.800   2.998  13.826 -1.3847 -0.4343 -0.0142
 9203SOL    HW239246   2.742   3.037  13.699  1.1191  0.6340 -1.5153
 9204SOL     OW39247   1.102   1.156   7.163 -0.0927 -0.2099  0.0987
 9204SOL    HW139248   1.081   1.191   7.076 -0.4894 -0.4992  0.0753
 9204SOL    HW239249   1.194   1.183   7.161 -0.2859  0.3890 -1.1107
 9205SOL     OW39250   3.075   0.986   7.833  0.2858 -0.1242 -0.5016
 9205SOL    HW139251   3.109   0.907   7.877 -0.6723 -0.0256  0.4007
 9205SOL    HW239252   3.099   1.045   7.905  2.8571 -2.7516  0.8160
 9206SOL     OW39253   0.802   4.270   9.830  0.0973 -0.7232 -0.0709
 9206SOL    HW139254   0.878   4.306   9.785  0.8391 -0.1672  1.6125
 9206SOL    HW239255   0.839   4.249   9.915  0.8204  0.7254 -0.0305
 9207SOL     OW39256   2.824   2.219   4.659  0.4473 -0.3372  0.3051
 9207SOL    HW139257   2.869   2.270   4.727  1.8711  0.5146 -1.2806
 9207SOL    HW239258   2.793   2.290   4.602 -0.8255 -0.9610  0.2304
 9208SOL     OW39259   2.967   4.438  15.380  0.2594 -0.2368 -0.1326
 9208SOL    HW139260   2.974   4.382  15.303  1.8195  0.1953 -0.3060
 9208SOL    HW239261   2.926   4.381  15.445  0.1873  0.3831  0.3766
 9209SOL     OW39262   2.623   3.456   5.925  0.1982  0.2293 -0.2266
 9209SOL    HW139263   2.679   3.437   6.000  0.0112 -2.1784 -0.7094
 9209SOL    HW239264   2.605   3.367   5.895  1.4841 -0.1631  0.1804
 9210SOL     OW39265   1.754   4.616   4.889  0.4836  0.2377 -0.7710
 9210SOL    HW139266   1.704   4.694   4.864  0.3471  0.1908 -0.6414
 9210SOL    HW239267   1.713   4.551   4.832  0.5343  0.7971 -1.4489
 9211SOL     OW39268   3.511   3.302   7.569  0.4814  0.1186 -0.1160
 9211SOL    HW139269   3.558   3.373   7.526  0.4960 -0.2539 -0.7153
 9211SOL    HW239270   3.491   3.244   7.496 -2.3125  1.3913 -0.3301
 9212SOL     OW39271   3.410   4.020   2.188  0.1765 -0.4971  0.6244
 9212SOL    HW139272   3.324   4.054   2.166  1.7084  4.1664  1.9339
 9212SOL    HW239273   3.443   3.970   2.113  0.0545 -0.5354  0.5959
 9213SOL     OW39274   0.454   2.833   1.554 -0.0913 -0.3932  0.7960
 9213SOL    HW139275   0.444   2.920   1.516 -3.8476  0.4467  3.6536
 9213SOL    HW239276   0.538   2.800   1.522  0.2344 -0.7616  2.0266
 9214SOL     OW39277   4.422   0.856   2.102  0.3621 -0.1437  1.0142
 9214SOL    HW139278   4.370   0.936   2.099 -0.2292 -0.4745  2.3394
 9214SOL    HW239279   4.498   0.874   2.046  0.0663  0.5187  0.8179
 9215SOL     OW39280   2.327   4.547   6.202 -0.2426  0.2125 -0.7261
 9215SOL    HW139281   2.387   4.588   6.265  1.4176 -2.9087 -0.2762
 9215SOL    HW239282   2.367   4.575   6.119  2.6055 -0.0489  0.5433
 9216SOL     OW39283   2.613   2.258   6.701  0.6109 -0.4004  0.6142
 9216SOL    HW139284   2.565   2.189   6.654  0.5573  0.3376 -0.4202
 9216SOL    HW239285   2.554   2.333   6.700  2.7915  1.3210  1.3920
 9217SOL     OW39286   0.193   1.625   1.755  0.7982 -0.8131  0.3554
 9217SOL    HW139287   0.209   1.637   1.848  0.5814 -2.3565  0.6002
 9217SOL    HW239288   0.242   1.542   1.756 -1.1414 -1.9957 -1.1560
 9218SOL     OW39289   2.614   1.145  15.142 -0.6335 -0.2412 -0.4057
 9218SOL    HW139290   2.632   1.054  15.165 -2.7037 -1.2197 -2.6494
 9218SOL    HW239291   2.519   1.135  15.134 -0.9161 -0.2812  2.8931
 9219SOL     OW39292   4.729   4.474  15.311 -0.6613  0.1516  0.0255
 9219SOL    HW139293   4.734   4.505  15.402  0.5188 -0.2697  0.1062
 9219SOL    HW239294   4.668   4.403  15.331 -0.7046  0.3028  0.4379
 9220SOL     OW39295   3.654   0.786  16.613  0.4610  1.3673 -0.3388
 9220SOL    HW139296   3.737   0.739  16.613  0.5525  1.5241  1.3155
 9220SOL    HW239297   3.612   0.742  16.539  1.6771  1.7601 -1.2708
 9221SOL     OW39298   0.781   2.625  11.202 -0.0928 -0.1258  0.6608
 9221SOL    HW139299   0.866   2.593  11.172  0.3228  0.5036  1.1562
 9221SOL    HW239300   0.741   2.619  11.115  1.6309  0.3026 -0.1524
 9222SOL     OW39301   2.463   4.106   2.234  0.3830  0.1611 -0.1611
 9222SOL    HW139302   2.464   4.016   2.268 -0.3715  0.9935  2.0292
 9222SOL    HW239303   2.551   4.122   2.199 -0.7279  2.6439 -1.7843
 9223SOL     OW39304   4.333   2.848  10.354 -0.0884 -0.4730  0.4223
 9223SOL    HW139305   4.384   2.839  10.274 -1.6102 -0.7971 -0.5196
 9223SOL    HW239306   4.370   2.774  10.403  0.8802 -0.2793 -0.0212
 9224SOL     OW39307   0.162   3.422   1.195 -0.0131  0.0921 -0.4871
 9224SOL    HW139308   0.157   3.491   1.261 -2.9308 -0.1043 -0.5332
 9224SOL    HW239309   0.164   3.477   1.117 -1.8479 -1.3335 -1.5295
 9225SOL     OW39310   0.416   1.722   5.901 -0.2936 -0.1259  0.0343
 9225SOL    HW139311   0.461   1.650   5.857  0.4022 -0.0884  0.6698
 9225SOL    HW239312   0.457   1.801   5.866  1.5114 -0.7572  0.7184
 9226SOL     OW39313   0.906   3.356   7.118 -0.3030  0.1408 -0.3647
 9226SOL    HW139314   0.840   3.377   7.052 -1.8852 -0.5007  0.9692
 9226SOL    HW239315   0.950   3.439   7.133 -1.9762  1.3483 -2.1732
 9227SOL     OW39316   3.024   0.548   7.530 -0.0571  0.4271 -0.4291
 9227SOL    HW139317   2.953   0.522   7.471 -1.1729  0.3823  0.9402
 9227SOL    HW239318   3.017   0.480   7.597 -0.0361 -0.0895 -0.9518
 9228SOL     OW39319   4.677   3.599  17.570  0.0554  0.0067 -0.1689
 9228SOL    HW139320   4.683   3.605  17.475  0.5911  0.4062 -0.1104
 9228SOL    HW239321   4.668   3.503  17.570 -1.5637  0.1732  3.1235
 9229SOL     OW39322   0.515   1.389  12.494 -0.2842 -0.6223 -0.2052
 9229SOL    HW139323   0.495   1.296  12.499  2.1010 -1.0595  1.1389
 9229SOL    HW239324   0.532   1.404  12.401 -0.9053  3.0797  0.2493
 9230SOL     OW39325   2.054   0.026   3.197 -0.0422 -0.3314 -0.4601
 9230SOL    HW139326   1.991   0.019   3.125 -1.0747  1.9511  0.2215
 9230SOL    HW239327   2.033   0.118   3.213 -1.4741 -0.7858  0.2215
 9231SOL     OW39328   2.797   3.010  15.368 -0.3348  0.0124 -0.0462
 9231SOL    HW139329   2.722   2.982  15.315  0.0213 -0.2278 -0.4188
 9231SOL    HW239330   2.878   2.984  15.325  0.5539  2.8233 -0.1133
 9232SOL     OW39331   1.971   1.053   7.849  0.3295 -0.0931  0.0419
 9232SOL    HW139332   1.991   1.126   7.908  1.8115  0.1453 -0.7476
 9232SOL    HW239333   2.056   1.038   7.806  1.5214 -0.4043  2.4902
 9233SOL     OW39334   0.278   3.210   6.502 -0.1733  0.0032  0.5357
 9233SOL    HW139335   0.226   3.140   6.543 -2.0029  0.5295 -0.8418
 9233SOL    HW239336   0.351   3.170   6.454 -1.0145 -0.3922 -0.4405
 9234SOL     OW39337   2.153   4.420   6.997  0.1960 -0.8237 -0.1475
 9234SOL    HW139338   2.219   4.454   7.058 -2.1063  0.9071  1.3735
 9234SOL    HW239339   2.174   4.480   6.926 -0.6574  0.6243  0.8251
 9235SOL     OW39340   2.453   1.603  17.293  0.1301 -0.2293 -0.3194
 9235SOL    HW139341   2.514   1.554  17.348 -1.2744 -2.5729 -0.8436
 9235SOL    HW239342   2.369   1.592  17.338  0.7804 -2.1070  0.4339
 9236SOL     OW39343   4.359   1.759   6.996 -0.5693 -0.3361 -0.5504
 9236SOL    HW139344   4.445   1.795   6.974 -0.9828  1.3094  0.5166
 9236SOL    HW239345   4.304   1.837   7.002 -1.3439 -0.8619 -0.7914
 9237SOL     OW39346   4.130   0.005  14.007  0.3002 -0.1136  0.7179
 9237SOL    HW139347   4.093   4.702  14.086  0.4214  0.4759  1.0704
 9237SOL    HW239348   4.219   0.027  14.033  0.6509  1.5492 -1.8287
 9238SOL     OW39349   3.323   0.819   7.346  0.0994  0.1272 -0.0794
 9238SOL    HW139350   3.317   0.847   7.438 -0.8759  1.4223 -0.5367
 9238SOL    HW239351   3.398   0.875   7.326  0.0333  0.7818  1.4222
 9239SOL     OW39352   3.750   1.168   1.437 -0.2439  0.0226  0.2709
 9239SOL    HW139353   3.786   1.227   1.371 -0.9884 -0.6800 -0.7508
 9239SOL    HW239354   3.807   1.093   1.420  0.2417  0.9488 -2.1344
 9240SOL     OW39355   2.291   1.921  13.742 -0.5117 -0.1219 -0.0087
 9240SOL    HW139356   2.223   1.856  13.764  0.9752 -1.2023  1.3963
 9240SOL    HW239357   2.248   1.986  13.686 -0.0508  1.0353  0.9634
 9241SOL     OW39358   0.672   2.605   4.112  0.1443 -0.4614  0.0821
 9241SOL    HW139359   0.707   2.577   4.028  1.2329  0.6845  0.1530
 9241SOL    HW239360   0.591   2.651   4.089  0.5549  0.1975 -0.0561
 9242SOL     OW39361   0.750   1.736   2.036  0.1430  0.0332 -0.6346
 9242SOL    HW139362   0.783   1.647   2.044  2.2827  1.0061  1.3124
 9242SOL    HW239363   0.829   1.791   2.033  1.0769 -1.2933 -0.3792
 9243SOL     OW39364   0.746   0.135  11.027 -0.4432 -0.1520 -0.3963
 9243SOL    HW139365   0.744   0.199  11.098  1.8948  0.0829 -0.5457
 9243SOL    HW239366   0.674   0.082  11.062  0.9659 -1.5901  0.3586
 9244SOL     OW39367   3.624   4.565  16.470  0.5426 -0.2947 -0.1061
 9244SOL    HW139368   3.540   4.547  16.428 -0.0369 -0.8065  1.2568
 9244SOL    HW239369   3.619   4.509  16.547  1.9331 -0.2051  0.0520
 9245SOL     OW39370   3.498   2.830   6.595 -0.4159 -0.2897 -0.1798
 9245SOL    HW139371   3.498   2.855   6.687 -3.0141 -0.5112 -0.1254
 9245SOL    HW239372   3.589   2.804   6.581 -1.0853 -2.6964 -0.1367
 9246SOL     OW39373   1.589   0.200   3.450  0.1506 -0.1265 -0.6810
 9246SOL    HW139374   1.581   0.295   3.436 -2.4726 -0.2331 -0.0064
 9246SOL    HW239375   1.503   0.166   3.425  0.2169  0.9611 -2.4223
 9247SOL     OW39376   0.074   0.862   1.636  0.5320 -0.4383 -0.7247
 9247SOL    HW139377   0.060   0.860   1.541 -3.5039  1.2900 -0.1579
 9247SOL    HW239378   0.005   0.805   1.669 -1.2452  3.0977  1.7084
 9248SOL     OW39379   3.763   0.864  12.075  0.7902 -0.1915  0.1384
 9248SOL    HW139380   3.672   0.851  12.047  0.8199 -0.1874  0.0423
 9248SOL    HW239381   3.761   0.959  12.088  0.5642  0.0951 -2.0422
 9249SOL     OW39382   1.647   1.421   6.696 -0.7431  0.2910  0.0256
 9249SOL    HW139383   1.694   1.389   6.619  1.9453  3.2426  0.4508
 9249SOL    HW239384   1.555   1.404   6.673 -0.9900  1.8760 -0.1654
 9250SOL     OW39385   0.191   2.694   5.348  0.0122  0.2994  0.2534
 9250SOL    HW139386   0.160   2.647   5.425 -0.7217  0.3307 -0.0185
 9250SOL    HW239387   0.119   2.685   5.285 -0.8202  1.5438  1.0472
 9251SOL     OW39388   2.868   2.297   6.421  0.5113 -0.0722 -0.2306
 9251SOL    HW139389   2.845   2.210   6.386 -1.9372  0.9707 -1.2310
 9251SOL    HW239390   2.798   2.319   6.483  0.2608 -1.7095  0.0711
 9252SOL     OW39391   2.873   3.412   5.004 -0.2127 -0.4636 -0.3488
 9252SOL    HW139392   2.859   3.443   5.094  2.1832  0.4371 -0.3059
 9252SOL    HW239393   2.950   3.464   4.981  1.0339 -0.9471  2.6962
 9253SOL     OW39394   3.164   3.213   7.895 -0.9532 -0.2195  0.5624
 9253SOL    HW139395   3.098   3.203   7.964 -2.2915  1.8051 -0.4216
 9253SOL    HW239396   3.130   3.297   7.864  2.3973  0.1278 -2.1378
 9254SOL     OW39397   4.545   2.398  15.424 -0.5235 -0.0422 -0.7928
 9254SOL    HW139398   4.566   2.384  15.516  1.1715  1.9403 -0.8915
 9254SOL    HW239399   4.451   2.405  15.441 -0.1638  1.4680  0.5799
 9255SOL     OW39400   4.430   3.543  11.512 -0.0345  0.2344  0.0125
 9255SOL    HW139401   4.437   3.537  11.608 -3.6326  0.2378  0.2703
 9255SOL    HW239402   4.463   3.458  11.482  0.8233  0.1033  1.3342
 9256SOL     OW39403   4.096   2.400  13.005  0.2342  0.2708  0.6541
 9256SOL    HW139404   4.091   2.306  12.988 -1.4061  0.4707  0.0899
 9256SOL    HW239405   4.191   2.412  13.001  0.4135 -1.0966  0.8767
 9257SOL     OW39406   1.712   4.351   8.663  0.1581  0.3112 -0.4080
 9257SOL    HW139407   1.685   4.357   8.754 -1.8688 -2.2536 -0.8226
 9257SOL    HW239408   1.641   4.406   8.632  0.1918  0.6231  0.0820
 9258SOL     OW39409   0.549   0.956   6.861  0.3799  0.6278  0.2089
 9258SOL    HW139410   0.462   0.984   6.832 -0.7326 -0.8419  2.1227
 9258SOL    HW239411   0.542   0.862   6.878  0.9421  0.0417 -2.9032
 9259SOL     OW39412   0.957   0.874  14.800 -0.2407 -0.0580  0.5698
 9259SOL    HW139413   0.907   0.931  14.858 -1.0900 -0.9055  0.6753
 9259SOL    HW239414   0.895   0.817  14.754  0.9120 -0.3229 -0.6221
 9260SOL     OW39415   1.902   1.729  14.061 -0.1769 -0.1247  0.0190
 9260SOL    HW139416   1.951   1.802  14.099 -2.3513  2.3760 -1.9302
 9260SOL    HW239417   1.894   1.671  14.136  0.6017  0.6811  0.7240
 9261SOL     OW39418   2.372   4.715   3.461 -0.2320 -1.2909 -0.3676
 9261SOL    HW139419   2.415   4.635   3.429 -0.6506 -0.3969 -3.2006
 9261SOL    HW239420   2.279   4.702   3.443 -0.0626 -0.0729 -2.0713
 9262SOL     OW39421   1.498   1.523   7.308 -0.2302 -0.0020 -0.0072
 9262SOL    HW139422   1.569   1.494   7.251 -0.7284 -0.8599 -0.2059
 9262SOL    HW239423   1.463   1.587   7.246 -1.2802 -2.0713 -1.5740
 9263SOL     OW39424   3.941   0.933   0.025  0.0022 -0.6506  0.1094
 9263SOL    HW139425   3.858   0.922  17.721 -1.0523  2.2871  1.2822
 9263SOL    HW239426   4.007   0.887  17.714  0.8791 -1.7649  2.1522
 9264SOL     OW39427   0.831   4.521   7.021 -0.3109  0.0521  1.0062
 9264SOL    HW139428   0.840   4.443   7.077 -1.1866 -0.6295  0.1871
 9264SOL    HW239429   0.921   4.511   6.990  0.2650 -1.4619  3.1114
 9265SOL     OW39430   3.464   0.826  11.190  0.4164 -0.3380 -0.6542
 9265SOL    HW139431   3.488   0.851  11.279 -0.2396 -2.0796  0.0029
 9265SOL    HW239432   3.409   0.901  11.167 -0.3972 -0.2741  1.5508
 9266SOL     OW39433   3.105   1.919   5.104  0.4595 -0.6999 -0.3159
 9266SOL    HW139434   3.047   1.938   5.030  0.4768  0.4285 -0.0369
 9266SOL    HW239435   3.174   1.984   5.094 -3.4572  3.2670 -1.4449
 9267SOL     OW39436   1.641   0.610   6.004  0.7673 -0.7226  0.4228
 9267SOL    HW139437   1.677   0.615   6.093 -1.2957  0.6932  1.1962
 9267SOL    HW239438   1.659   0.519   5.984 -0.3441 -1.1239  1.2352
 9268SOL     OW39439   2.562   2.392  15.508 -0.5030 -0.1323 -0.9671
 9268SOL    HW139440   2.530   2.472  15.551 -0.7683 -1.8293  2.0336
 9268SOL    HW239441   2.494   2.368  15.444 -2.2788  0.4399  0.6897
 9269SOL     OW39442   0.182   2.259  10.540  0.2845 -0.0369 -0.2285
 9269SOL    HW139443   0.173   2.334  10.481 -1.0601 -1.0607 -1.3382
 9269SOL    HW239444   0.182   2.189  10.475  1.0608 -1.3557  1.2194
 9270SOL     OW39445   1.065   1.205   9.206  0.6392  0.0157  0.2002
 9270SOL    HW139446   1.006   1.132   9.188  1.5621 -0.4895 -0.8129
 9270SOL    HW239447   1.110   1.212   9.122 -0.6911 -1.5867 -0.6397
 9271SOL     OW39448   3.502   4.329   8.173  0.6436  0.4194  0.4414
 9271SOL    HW139449   3.571   4.385   8.138  0.7952  0.1632  0.3376
 9271SOL    HW239450   3.546   4.315   8.257  1.2118  1.9652  0.4018
 9272SOL     OW39451   1.570   0.501  11.036 -0.5389  0.1150  0.3144
 9272SOL    HW139452   1.655   0.474  11.070  0.1523  0.6904 -0.9307
 9272SOL    HW239453   1.595   0.533  10.949 -2.9401 -0.4331 -0.5552
 9273SOL     OW39454   0.016   1.247  10.900 -0.6778 -0.3086 -0.5551
 9273SOL    HW139455   0.097   1.255  10.850 -0.3155 -1.4913 -0.1441
 9273SOL    HW239456   0.043   1.194  10.975 -1.7429 -0.5532 -0.3423
 9274SOL     OW39457   1.159   2.694  10.996 -0.4303 -0.4802  0.8556
 9274SOL    HW139458   1.079   2.729  10.957 -0.0665  1.1469  1.5473
 9274SOL    HW239459   1.197   2.755  11.060 -1.8393 -1.2479  2.4062
 9275SOL     OW39460   1.362   0.703   8.085  0.0531 -0.2752  0.3749
 9275SOL    HW139461   1.443   0.661   8.055  0.4897  0.8835 -0.0383
 9275SOL    HW239462   1.310   0.623   8.099 -1.1624  0.5097  0.3128
 9276SOL     OW39463   0.248   0.041   6.985  0.3212  0.8391  0.1273
 9276SOL    HW139464   0.210   0.094   7.055 -2.6947 -0.6808 -0.3142
 9276SOL    HW239465   0.163   0.023   6.945 -0.5340  2.4490  1.2086
 9277SOL     OW39466   0.350   2.990   5.078 -0.4738 -0.0376  0.2517
 9277SOL    HW139467   0.387   2.929   5.015 -0.8379  0.8043 -0.7803
 9277SOL    HW239468   0.273   3.030   5.037 -1.1675 -0.6406  0.9711
 9278SOL     OW39469   3.505   3.863   5.492  0.3439  0.2194  0.4712
 9278SOL    HW139470   3.514   3.768   5.502 -1.2293  0.0204  0.0362
 9278SOL    HW239471   3.562   3.881   5.417  1.3576 -0.2855  1.1244
 9279SOL     OW39472   3.038   3.696   2.547  0.4628 -0.6526 -0.1222
 9279SOL    HW139473   3.038   3.786   2.514  0.4687 -0.5188  0.2430
 9279SOL    HW239474   3.052   3.716   2.640  0.8496 -0.7197 -0.1649
 9280SOL     OW39475   3.184   1.943  14.957 -0.5274  0.0244 -0.6797
 9280SOL    HW139476   3.171   2.025  15.004  0.1956 -1.1660  1.5939
 9280SOL    HW239477   3.262   1.961  14.905 -0.2671  0.0479 -0.2856
 9281SOL     OW39478   2.071   3.800   5.422 -0.1113 -0.0548 -0.2707
 9281SOL    HW139479   2.079   3.706   5.404  1.8494 -0.0208  0.4195
 9281SOL    HW239480   1.982   3.813   5.391 -0.5390  0.6138  1.2331
 9282SOL     OW39481   0.439   0.110   9.153  0.1373 -0.4300 -0.2805
 9282SOL    HW139482   0.527   0.147   9.148  0.0932 -0.4504 -1.1847
 9282SOL    HW239483   0.419   0.137   9.242 -1.7505  1.6966 -1.3498
 9283SOL     OW39484   1.237   3.929   4.318 -0.3346 -0.5316 -0.4373
 9283SOL    HW139485   1.206   3.871   4.388  0.6196 -0.5825 -0.0584
 9283SOL    HW239486   1.326   3.897   4.308 -0.9765 -2.6343  0.4426
 9284SOL     OW39487   2.894   4.514  12.756 -0.3517 -0.0673  0.1906
 9284SOL    HW139488   2.927   4.428  12.728 -0.4589  0.4581 -1.5053
 9284SOL    HW239489   2.917   4.513  12.849 -2.2058  0.4747  0.6531
 9285SOL     OW39490   2.813   4.547  11.353 -0.1622 -0.4992  0.0131
 9285SOL    HW139491   2.763   4.466  11.365  0.5730 -0.9593  0.0110
 9285SOL    HW239492   2.803   4.568  11.260 -1.1158 -2.6693 -0.3767
 9286SOL     OW39493   3.153   1.365   1.818  0.0546 -0.1913  0.1417
 9286SOL    HW139494   3.159   1.335   1.727 -4.4430 -2.3311  0.5276
 9286SOL    HW239495   3.194   1.450   1.802 -0.0719 -0.4176 -1.4605
 9287SOL     OW39496   3.637   0.210   3.587 -0.0739 -0.7281 -0.0539
 9287SOL    HW139497   3.639   0.248   3.500 -2.5281  0.7076  0.5024
 9287SOL    HW239498   3.551   0.168   3.590  1.3378 -3.5557  0.1178
 9288SOL     OW39499   1.987   0.140  16.279  0.1255 -0.2240 -0.6026
 9288SOL    HW139500   1.914   0.079  16.288  0.5298 -0.7269 -0.8179
 9288SOL    HW239501   2.028   0.115  16.197  0.7592 -1.0292 -0.0406
 9289SOL     OW39502   4.425   4.025   8.886 -0.1674 -0.8307  0.1161
 9289SOL    HW139503   4.479   4.086   8.835 -2.3249  1.8240  1.0010
 9289SOL    HW239504   4.480   3.946   8.884  1.3692  0.1900  2.3471
 9290SOL     OW39505   0.972   0.743   7.605 -0.2852  0.1068 -0.1146
 9290SOL    HW139506   1.024   0.665   7.625 -0.1972  0.1464 -0.1908
 9290SOL    HW239507   1.008   0.819   7.652 -0.2837 -0.2690  0.4825
 9291SOL     OW39508   2.226   1.232   7.114  0.5127 -0.0609  0.0645
 9291SOL    HW139509   2.231   1.313   7.166  0.7733 -1.0342  1.5515
 9291SOL    HW239510   2.146   1.258   7.068  0.3787 -1.3783 -0.4267
 9292SOL     OW39511   2.592   3.344   4.536  0.1055  0.0351 -0.2150
 9292SOL    HW139512   2.547   3.408   4.481 -0.1599 -0.2174 -0.2852
 9292SOL    HW239513   2.535   3.327   4.611  1.3094  2.4455  1.2423
 9293SOL     OW39514   1.479   3.507   2.385 -0.0641 -0.3408 -0.0740
 9293SOL    HW139515   1.402   3.451   2.400 -0.5399  0.1074 -0.8496
 9293SOL    HW239516   1.446   3.558   2.311 -1.0430  1.1876  1.4151
 9294SOL     OW39517   0.822   1.541  12.176 -0.1918  0.3404  0.1471
 9294SOL    HW139518   0.880   1.488  12.231  2.2816  0.4423 -2.3983
 9294SOL    HW239519   0.827   1.507  12.087  0.7427  0.7357  0.0531
 9295SOL     OW39520   4.141   0.107   1.096  0.4070 -0.4212  0.4789
 9295SOL    HW139521   4.154   0.014   1.076 -0.5417 -0.1052 -1.5920
 9295SOL    HW239522   4.188   0.148   1.023  1.0718  1.6598  2.0809
 9296SOL     OW39523   1.123   3.580  13.112  0.2898  0.5992 -0.5273
 9296SOL    HW139524   1.212   3.606  13.136 -0.5104  2.2634  0.7199
 9296SOL    HW239525   1.082   3.667  13.113  1.9111  1.3627 -0.3309
 9297SOL     OW39526   1.787   3.224   6.428 -0.1057 -0.2097 -0.2229
 9297SOL    HW139527   1.764   3.301   6.481  2.4784  0.1660  0.3646
 9297SOL    HW239528   1.880   3.240   6.412 -0.3207  0.1909 -1.0698
 9298SOL     OW39529   1.637   2.816   8.663  0.9281  0.1997  0.2542
 9298SOL    HW139530   1.701   2.770   8.610  0.0177 -1.7319  0.8398
 9298SOL    HW239531   1.682   2.811   8.747 -3.2901 -0.1827  2.5343
 9299SOL     OW39532   2.065   4.136   9.115 -1.0149 -0.4430  0.1107
 9299SOL    HW139533   1.994   4.075   9.136 -0.5258 -1.7747 -2.1506
 9299SOL    HW239534   2.048   4.147   9.021 -0.7463 -3.1482 -0.2614
 9300SOL     OW39535   1.133   0.021   1.110  0.4273 -0.3890 -0.1311
 9300SOL    HW139536   1.079   4.693   1.157 -1.1669  1.4797  0.5850
 9300SOL    HW239537   1.122   0.102   1.159  2.4923 -0.8276  1.0500
 9301SOL     OW39538   0.594   4.514   3.967 -0.1125 -0.0678  0.1535
 9301SOL    HW139539   0.612   4.581   4.033 -0.6534 -0.3689  0.6002
 9301SOL    HW239540   0.512   4.474   3.995 -1.0962  0.5313 -1.8645
 9302SOL     OW39541   0.570   2.557   3.816 -0.0866  0.4972  0.6275
 9302SOL    HW139542   0.489   2.554   3.765 -0.8858  0.4686  1.9069
 9302SOL    HW239543   0.623   2.480   3.794 -0.3843 -0.2823  2.6360
 9303SOL     OW39544   1.517   0.256   1.935  0.4946  0.2085 -0.0892
 9303SOL    HW139545   1.608   0.279   1.916  0.9560 -0.2376  1.5836
 9303SOL    HW239546   1.470   0.310   1.872  1.5285  0.8518 -0.3223
 9304SOL     OW39547   1.668   2.914   6.885  0.4022  0.1160 -0.8282
 9304SOL    HW139548   1.754   2.892   6.849  1.0332  1.4406 -0.1389
 9304SOL    HW239549   1.612   2.903   6.808  0.8710 -1.9776 -0.8639
 9305SOL     OW39550   0.642   3.961   5.217 -0.1768  0.5506  0.0200
 9305SOL    HW139551   0.673   3.893   5.157 -2.8804 -0.4355 -0.2290
 9305SOL    HW239552   0.602   3.904   5.283  1.6768 -0.1599  0.5419
 9306SOL     OW39553   0.397   1.692   9.484 -0.5456 -0.3221 -0.0280
 9306SOL    HW139554   0.393   1.721   9.576 -0.0543 -1.9382  0.4990
 9306SOL    HW239555   0.404   1.600   9.507 -1.7110  0.1231  2.0991
 9307SOL     OW39556   0.607   2.440   0.616 -0.1951 -0.2861 -0.0933
 9307SOL    HW139557   0.592   2.480   0.701  1.6329 -0.8653  0.4920
 9307SOL    HW239558   0.696   2.405   0.619 -1.1159 -2.5716  0.2133
 9308SOL     OW39559   0.421   4.033  15.560 -0.7297 -0.4449 -0.2956
 9308SOL    HW139560   0.434   3.939  15.569  0.7050 -0.0910  1.4027
 9308SOL    HW239561   0.472   4.049  15.480 -0.9937  0.6584 -0.2438
 9309SOL     OW39562   0.303   3.735   9.122 -0.0508 -0.0477  0.1585
 9309SOL    HW139563   0.369   3.803   9.107  1.1644 -1.1008  0.6941
 9309SOL    HW239564   0.293   3.731   9.217 -2.6078 -2.3291 -0.1862
 9310SOL     OW39565   1.515   4.463   6.602 -0.3106 -0.2603 -0.2587
 9310SOL    HW139566   1.585   4.521   6.630 -1.3917  0.4810  0.8982
 9310SOL    HW239567   1.485   4.448   6.692 -0.8124 -0.3357 -0.4385
 9311SOL     OW39568   1.067   0.533  13.333 -0.3124  0.0020  0.3560
 9311SOL    HW139569   1.068   0.621  13.370 -1.5528  0.1821 -0.0257
 9311SOL    HW239570   0.983   0.524  13.287  0.5389 -3.3381 -0.6012
 9312SOL     OW39571   3.211   2.770   5.820 -0.0012  0.0345 -0.4901
 9312SOL    HW139572   3.279   2.731   5.765  1.9330 -2.2905  3.5514
 9312SOL    HW239573   3.229   2.734   5.907  0.2047  2.7420  0.5964
 9313SOL     OW39574   3.513   1.130   3.917 -0.0692  0.3966 -0.2152
 9313SOL    HW139575   3.472   1.103   3.835 -1.1353 -0.8544  0.7201
 9313SOL    HW239576   3.570   1.058   3.943  0.7732  1.1086 -0.1008
 9314SOL     OW39577   3.784   3.939  11.400 -0.5317  0.4359  0.2006
 9314SOL    HW139578   3.822   3.869  11.453 -0.8059  0.2077  0.0917
 9314SOL    HW239579   3.724   3.891  11.342  1.6499 -2.4181  0.2930
 9315SOL     OW39580   0.914   0.595   4.009  0.3998 -0.3363 -0.6238
 9315SOL    HW139581   0.933   0.666   4.070  0.3803  1.3218 -2.5346
 9315SOL    HW239582   0.866   0.644   3.942  1.9371 -1.0577 -2.2691
 9316SOL     OW39583   0.001   0.891  17.070  0.7531 -0.3583  0.1000
 9316SOL    HW139584   0.074   0.939  17.030  0.5803 -0.6215 -0.5402
 9316SOL    HW239585   0.043   0.848  17.145  0.0027 -1.8011 -0.3083
 9317SOL     OW39586   3.076   2.251   6.721 -0.3235  0.2176  0.1471
 9317SOL    HW139587   3.128   2.306   6.780  0.2390  0.1390 -0.2763
 9317SOL    HW239588   3.044   2.318   6.660  2.9430 -0.2588 -2.0447
 9318SOL     OW39589   1.674   1.559   7.986 -0.0771 -0.2326  0.2530
 9318SOL    HW139590   1.647   1.513   8.065 -0.1336  0.0218  0.3780
 9318SOL    HW239591   1.700   1.485   7.930  0.1082 -0.2518  0.3640
 9319SOL     OW39592   4.168   3.489  16.457 -0.7794 -0.6789  0.2678
 9319SOL    HW139593   4.219   3.437  16.519 -2.5813  0.0372  2.3355
 9319SOL    HW239594   4.200   3.460  16.371 -0.8072  0.5999 -0.1884
 9320SOL     OW39595   1.235   0.129   2.331  0.3099  0.2306  0.0111
 9320SOL    HW139596   1.286   0.205   2.302 -0.3689  0.0309 -1.7514
 9320SOL    HW239597   1.284   0.052   2.305 -1.8902 -0.7683 -1.1737
 9321SOL     OW39598   1.150   1.912  13.158  0.4588 -0.6518  0.2702
 9321SOL    HW139599   1.135   2.007  13.152  0.7096 -0.6601 -0.4327
 9321SOL    HW239600   1.245   1.904  13.158  0.2135 -3.4073  2.7051
 9322SOL     OW39601   0.169   0.519  17.315  0.2408  0.0293 -0.3681
 9322SOL    HW139602   0.076   0.534  17.298  0.1615  0.0671  0.0772
 9322SOL    HW239603   0.191   0.560  17.399 -3.1238  0.8017  0.1369
 9323SOL     OW39604   1.700   4.667   6.678 -0.4997  0.5456  0.2748
 9323SOL    HW139605   1.710   4.597   6.742  0.8412  0.5525  0.0680
 9323SOL    HW239606   1.787   4.700   6.656 -1.2815  2.7292  0.4124
 9324SOL     OW39607   1.191   3.811   1.973  0.1269  0.2089  0.1843
 9324SOL    HW139608   1.191   3.903   1.999  0.8565  0.4979 -0.8533
 9324SOL    HW239609   1.199   3.808   1.877 -0.2722 -0.2064  0.1617
 9325SOL     OW39610   0.966   4.455   3.284  0.5941  0.6319 -0.6300
 9325SOL    HW139611   0.999   4.376   3.327 -0.9268  0.4063  0.1140
 9325SOL    HW239612   0.923   4.417   3.207  1.7244 -2.3566  0.2287
 9326SOL     OW39613   4.566   2.146   0.239 -0.4625 -0.4077 -0.0360
 9326SOL    HW139614   4.591   2.232   0.271  0.0442 -0.3078 -0.6974
 9326SOL    HW239615   4.625   2.094   0.294  0.0392 -1.7098 -1.7931
 9327SOL     OW39616   2.009   2.286   0.314  0.3948 -0.1332 -0.8377
 9327SOL    HW139617   1.918   2.282   0.344  0.3154  2.2142 -0.7084
 9327SOL    HW239618   2.044   2.209   0.358 -1.0594 -0.1115  0.3524
 9328SOL     OW39619   3.989   1.596   4.089  0.5279  0.4750 -0.3161
 9328SOL    HW139620   4.060   1.534   4.103  0.7297  0.5480 -1.0486
 9328SOL    HW239621   4.001   1.668   4.151  1.2659 -0.4756  0.6420
 9329SOL     OW39622   2.940   2.394   6.112  0.2106 -0.4158  0.3508
 9329SOL    HW139623   2.856   2.351   6.130 -0.4936  0.4845 -0.8103
 9329SOL    HW239624   2.962   2.454   6.183  2.3804 -1.1702  0.3139
 9330SOL     OW39625   2.289   4.002   1.937  0.0398 -0.0198  0.1553
 9330SOL    HW139626   2.364   3.944   1.944 -0.5467 -0.4671  2.7869
 9330SOL    HW239627   2.327   4.082   1.902  1.2790 -0.2447  1.0219
 9331SOL     OW39628   0.457   4.406   6.387  0.4408 -0.0557 -0.2434
 9331SOL    HW139629   0.480   4.313   6.384 -0.8865 -0.4547  1.9116
 9331SOL    HW239630   0.491   4.438   6.304  0.1076 -0.1768 -0.4253
 9332SOL     OW39631   2.419   3.927  10.726  0.5368 -0.5673  0.6114
 9332SOL    HW139632   2.468   3.867  10.670 -0.6702  0.7505 -1.8636
 9332SOL    HW239633   2.477   4.003  10.728  2.8771 -2.3006 -0.4301
 9333SOL     OW39634   4.446   1.631  15.737 -0.1566  0.2874 -0.0137
 9333SOL    HW139635   4.474   1.654  15.826 -2.4803 -1.5650  1.1920
 9333SOL    HW239636   4.386   1.698  15.704 -1.5100 -0.7435  0.3596
 9334SOL     OW39637   4.404   4.590   3.649  0.5966 -0.7114  0.3829
 9334SOL    HW139638   4.409   4.664   3.587 -0.5760  1.0578  2.3930
 9334SOL    HW239639   4.371   4.516   3.598  0.9013 -0.8860  0.4406
 9335SOL     OW39640   3.608   2.026   0.491 -0.0300 -0.0107  0.0976
 9335SOL    HW139641   3.686   2.067   0.453  0.9843 -1.7766  0.2511
 9335SOL    HW239642   3.544   2.073   0.439  0.9801  3.4165  1.9670
 9336SOL     OW39643   2.042   2.391   7.920  0.4499  0.2787 -0.7039
 9336SOL    HW139644   2.134   2.399   7.947 -0.0252 -1.4692  1.3865
 9336SOL    HW239645   2.004   2.406   8.007 -1.2620 -0.7418 -1.2794
 9337SOL     OW39646   1.775   4.258   2.927  0.1323 -0.5003  0.0681
 9337SOL    HW139647   1.768   4.348   2.895  3.5119 -0.6032 -0.9021
 9337SOL    HW239648   1.705   4.209   2.883  1.5482 -1.5171 -1.0455
 9338SOL     OW39649   0.230   1.016   4.549 -0.0003 -0.5487  0.5356
 9338SOL    HW139650   0.279   0.943   4.588  0.8241 -0.4611 -0.3509
 9338SOL    HW239651   0.157   1.005   4.611 -1.3382  0.4410 -0.8567
 9339SOL     OW39652   3.147   4.389   9.984  0.3981  0.4337  0.1078
 9339SOL    HW139653   3.207   4.464   9.988  1.2998 -0.3648  1.5704
 9339SOL    HW239654   3.207   4.315   9.995  0.8919  0.6105 -1.3688
 9340SOL     OW39655   2.801   2.526   9.535  0.4039  0.8244  0.8299
 9340SOL    HW139656   2.820   2.471   9.612 -0.0659  0.2815  0.5616
 9340SOL    HW239657   2.737   2.592   9.562 -2.0099  0.1042 -3.0776
 9341SOL     OW39658   0.891   1.016   6.519 -0.0896  0.4438 -0.4288
 9341SOL    HW139659   0.946   0.979   6.588 -0.0790  0.2044 -0.5660
 9341SOL    HW239660   0.959   1.031   6.453 -0.0347  1.6183 -0.1139
 9342SOL     OW39661   1.060   3.468  16.847 -0.4275 -0.5897  0.7055
 9342SOL    HW139662   0.971   3.439  16.864 -0.9964 -0.8200 -2.5479
 9342SOL    HW239663   1.112   3.388  16.848  2.1280  1.0122 -2.3121
 9343SOL     OW39664   1.667   0.689   9.913  0.4111  0.1973 -0.0030
 9343SOL    HW139665   1.739   0.636   9.878  2.0358  2.1535  0.3776
 9343SOL    HW239666   1.595   0.627   9.905  0.1744  0.3370  0.9949
 9344SOL     OW39667   3.549   1.663   7.836  0.5990  0.2858  0.1503
 9344SOL    HW139668   3.618   1.603   7.864 -0.1868 -1.5115 -1.7763
 9344SOL    HW239669   3.533   1.642   7.744 -0.7780  2.7141 -0.1559
 9345SOL     OW39670   3.413   1.923   2.190  0.1015  0.3071  0.1809
 9345SOL    HW139671   3.348   1.923   2.119 -0.8210 -3.0251  1.0423
 9345SOL    HW239672   3.422   1.832   2.217  0.2779 -0.4705 -2.5070
 9346SOL     OW39673   0.992   2.685   3.340 -0.3001  0.3147  0.7396
 9346SOL    HW139674   0.940   2.732   3.405 -2.1786  0.3068 -0.7629
 9346SOL    HW239675   0.930   2.613   3.327 -0.4433 -0.2014  4.1453
 9347SOL     OW39676   3.668   4.555   8.007 -0.1232 -0.3874 -0.5646
 9347SOL    HW139677   3.659   4.610   7.929 -2.2993 -0.1824 -0.1700
 9347SOL    HW239678   3.682   4.470   7.964 -1.0952 -0.9503  0.2438
 9348SOL     OW39679   4.625   3.886   3.530  0.0074  0.3652 -0.4180
 9348SOL    HW139680   4.535   3.865   3.504  0.4362 -1.2433 -0.5686
 9348SOL    HW239681   4.606   3.911   3.621  2.5317 -1.3559  0.5871
 9349SOL     OW39682   3.592   0.305   4.212  0.0805 -0.3923 -0.1939
 9349SOL    HW139683   3.549   0.253   4.280  0.7319 -1.2233 -0.4142
 9349SOL    HW239684   3.528   0.312   4.141  1.8569 -0.3263 -1.8080
 9350SOL     OW39685   0.148   4.422   7.579  0.1184  0.3234 -0.7097
 9350SOL    HW139686   0.195   4.485   7.633  2.5501  1.2977 -3.9328
 9350SOL    HW239687   0.177   4.340   7.618 -0.5189 -0.8668 -2.6966
 9351SOL     OW39688   1.974   3.899   7.578 -0.3827  0.1643  0.0011
 9351SOL    HW139689   2.019   3.863   7.653 -3.5218 -2.4448  0.6186
 9351SOL    HW239690   1.889   3.906   7.622 -0.4976 -1.0818 -0.0452
 9352SOL     OW39691   1.382   4.358   0.560  0.1689  0.3600  0.2471
 9352SOL    HW139692   1.449   4.426   0.559  0.0490  0.4813  0.5152
 9352SOL    HW239693   1.307   4.417   0.562  1.0059  1.4131  0.3402
 9353SOL     OW39694   3.157   1.429   8.178 -0.1885 -0.0011  0.4819
 9353SOL    HW139695   3.176   1.509   8.227  0.6415  0.0299  0.1094
 9353SOL    HW239696   3.208   1.362   8.224 -0.4574  0.9461  2.1821
 9354SOL     OW39697   3.673   1.747   5.476 -1.0334 -0.4191  0.0243
 9354SOL    HW139698   3.586   1.709   5.478 -0.7177 -1.0878  1.3919
 9354SOL    HW239699   3.657   1.839   5.494  1.8277  0.2318 -0.6976
 9355SOL     OW39700   1.642   2.496   7.708 -0.2277 -0.3116  0.3571
 9355SOL    HW139701   1.570   2.467   7.765  0.4115  0.9610  1.7853
 9355SOL    HW239702   1.591   2.528   7.633  0.5343 -1.4849 -0.6677
 9356SOL     OW39703   0.064   3.537  14.878  0.9717  0.0460  0.2698
 9356SOL    HW139704   0.061   3.514  14.785  0.3313 -0.4024  0.4046
 9356SOL    HW239705   4.729   3.491  14.924  0.4701 -0.7189 -1.2723
 9357SOL     OW39706   4.191   1.301   9.939 -0.4302  0.4924 -0.0927
 9357SOL    HW139707   4.250   1.265  10.005  1.2105  0.5528 -1.5514
 9357SOL    HW239708   4.184   1.216   9.896 -2.7041  0.9376 -0.6527
 9358SOL     OW39709   2.674   2.004   3.156  0.0937  0.9805 -0.7178
 9358SOL    HW139710   2.764   2.036   3.160  0.4115 -0.3115  3.0737
 9358SOL    HW239711   2.686   1.911   3.138 -0.8348  0.8684 -0.7935
 9359SOL     OW39712   2.592   2.701   8.705  0.4110 -0.7375 -0.1149
 9359SOL    HW139713   2.550   2.735   8.784  1.3415 -2.2805  1.0513
 9359SOL    HW239714   2.652   2.635   8.740  0.1065 -0.5945  0.6719
 9360SOL     OW39715   4.575   2.627   4.487  0.2654 -0.5208  0.7025
 9360SOL    HW139716   4.546   2.542   4.456  1.2703 -0.6016 -0.0287
 9360SOL    HW239717   4.636   2.651   4.417 -0.6088 -0.9094 -0.1887
 9361SOL     OW39718   3.087   0.052   6.049 -0.4957 -0.4276  0.7522
 9361SOL    HW139719   3.105   0.101   6.128  1.6843  1.6393 -1.0275
 9361SOL    HW239720   3.084   0.123   5.985 -0.0193 -1.9779 -1.0285
 9362SOL     OW39721   2.357   3.401   9.043 -0.0926  0.2668 -0.4424
 9362SOL    HW139722   2.438   3.437   9.079 -0.8213  0.9857  0.4748
 9362SOL    HW239723   2.291   3.465   9.070  0.4920 -0.0698  1.7322
 9363SOL     OW39724   0.463   2.177   7.320 -0.1270  0.0416  0.5354
 9363SOL    HW139725   0.458   2.272   7.333 -2.3000 -0.4447  3.1761
 9363SOL    HW239726   0.435   2.175   7.228 -1.2820  1.5322  0.8462
 9364SOL     OW39727   3.322   4.724   6.523  0.4496  0.4651 -0.1567
 9364SOL    HW139728   3.363   4.661   6.464 -1.5213 -0.1220 -0.8851
 9364SOL    HW239729   3.229   4.707   6.512  0.3853  0.3827  0.5153
 9365SOL     OW39730   1.791   2.294   4.607 -0.4499 -0.4628 -0.0555
 9365SOL    HW139731   1.821   2.329   4.691 -0.6125 -0.5896  0.0560
 9365SOL    HW239732   1.700   2.270   4.624 -0.3712 -1.4591 -1.0381
 9366SOL     OW39733   3.112   2.435   5.357 -0.0234  0.2048 -0.4177
 9366SOL    HW139734   3.111   2.530   5.349  1.6801  0.0629 -2.3750
 9366SOL    HW239735   3.175   2.421   5.427  1.9295 -0.9696 -2.3924
 9367SOL     OW39736   1.983   1.874  13.758 -0.0395 -0.4490  0.2099
 9367SOL    HW139737   2.000   1.780  13.770 -0.4245 -0.6264 -0.6409
 9367SOL    HW239738   1.988   1.891  13.852 -1.5615 -1.1922  0.4278
 9368SOL     OW39739   0.602   2.588   9.837 -0.0377  0.5451  0.2667
 9368SOL    HW139740   0.575   2.525   9.770 -0.5568 -0.0757  1.0700
 9368SOL    HW239741   0.697   2.594   9.833 -0.2465  1.6571 -3.4019
 9369SOL     OW39742   4.548   2.487   5.572  0.0590  0.0509  0.3012
 9369SOL    HW139743   4.581   2.576   5.586 -1.7318  0.4915  1.6553
 9369SOL    HW239744   4.521   2.470   5.663 -1.6047 -0.1577 -0.2291
 9370SOL     OW39745   1.031   3.595   7.131 -0.0636  0.1064  0.2552
 9370SOL    HW139746   1.012   3.619   7.040  0.4157 -1.1024 -0.1643
 9370SOL    HW239747   1.015   3.683   7.165  1.6636  0.1468  0.9677
 9371SOL     OW39748   3.378   4.724   6.050  0.1429  0.1528 -0.2177
 9371SOL    HW139749   3.312   0.046   6.011  0.3192  0.1564 -0.5170
 9371SOL    HW239750   3.328   4.657   6.096  1.2714 -1.5736 -1.5034
 9372SOL     OW39751   1.544   4.607   5.286  0.1723 -0.2830 -0.4282
 9372SOL    HW139752   1.633   4.574   5.272  0.4655  0.5622 -0.5254
 9372SOL    HW239753   1.495   4.562   5.217  0.3823 -0.1265 -0.6797
 9373SOL     OW39754   2.922   0.617   0.472  0.1348 -0.8016  0.3878
 9373SOL    HW139755   2.919   0.556   0.397 -0.1413  3.5521 -3.1103
 9373SOL    HW239756   2.990   0.678   0.446 -1.4090  0.9471  0.4748
 9374SOL     OW39757   3.249   4.172  17.005 -0.6543  0.3958  0.2515
 9374SOL    HW139758   3.222   4.112  17.075 -1.3770  1.0334  0.5286
 9374SOL    HW239759   3.168   4.201  16.964 -1.8366 -0.8753  1.6885
 9375SOL     OW39760   1.514   2.715   9.206  0.2019 -0.1478 -0.5368
 9375SOL    HW139761   1.535   2.809   9.206  1.4721 -0.4210 -1.1603
 9375SOL    HW239762   1.558   2.695   9.123  0.5851 -0.7827 -0.1844
 9376SOL     OW39763   2.084   1.150   8.142  0.1370 -0.0281  0.4129
 9376SOL    HW139764   2.107   1.194   8.060 -0.5037  1.0149  0.8002
 9376SOL    HW239765   2.118   1.216   8.202 -1.1446  0.0793  1.0125
 9377SOL     OW39766   2.377   4.429   9.517 -0.1329  0.3978 -0.4292
 9377SOL    HW139767   2.407   4.401   9.430 -0.7128 -0.0551 -0.4906
 9377SOL    HW239768   2.282   4.427   9.501 -0.6828  0.1156  2.8247
 9378SOL     OW39769   3.335   2.405   6.556 -0.4460 -0.2861 -0.5182
 9378SOL    HW139770   3.268   2.438   6.496 -0.0782  0.1280 -0.6947
 9378SOL    HW239771   3.292   2.373   6.635  1.2855 -1.8505 -0.2177
 9379SOL     OW39772   2.844   3.198  15.053 -0.0694 -0.6849 -0.1307
 9379SOL    HW139773   2.800   3.119  15.022 -0.9902 -0.9094  1.7302
 9379SOL    HW239774   2.778   3.224  15.118  0.3281  0.7193 -0.2823
 9380SOL     OW39775   3.263   2.561  15.753  0.2583 -0.2749 -0.6607
 9380SOL    HW139776   3.179   2.553  15.709  1.0174  1.0674 -2.3709
 9380SOL    HW239777   3.276   2.656  15.761  0.2466 -0.2921 -0.4454
 9381SOL     OW39778   2.845   3.969  12.510 -0.2032  0.2429  0.3146
 9381SOL    HW139779   2.843   3.897  12.447  2.6401 -0.5309  1.1295
 9381SOL    HW239780   2.845   4.043  12.449 -1.4185  0.9412  1.1678
 9382SOL     OW39781   4.615   4.346  14.588 -0.0338  0.3713 -0.1633
 9382SOL    HW139782   4.594   4.278  14.652 -0.2674  1.5995  1.0742
 9382SOL    HW239783   4.692   4.302  14.552 -0.1138 -0.1371  0.2834
 9383SOL     OW39784   2.213   0.701   7.961  0.4966  0.2769  0.3853
 9383SOL    HW139785   2.140   0.754   7.929 -0.7047 -1.5856  0.0381
 9383SOL    HW239786   2.250   0.772   8.012 -3.1553  0.5379  2.6270
 9384SOL     OW39787   1.523   3.769  14.501  0.7520 -0.5602  0.1230
 9384SOL    HW139788   1.560   3.753  14.414 -1.8713  2.8773 -1.6313
 9384SOL    HW239789   1.553   3.858  14.515 -0.0457 -0.3867  0.7485
 9385SOL     OW39790   3.260   1.576   9.021 -0.0002  0.4039  0.3687
 9385SOL    HW139791   3.350   1.543   9.015 -0.6588 -0.8497 -2.5299
 9385SOL    HW239792   3.256   1.596   9.115 -2.7624 -0.4502  0.4296
 9386SOL     OW39793   1.284   3.820   8.844 -0.2346  0.3112 -0.0640
 9386SOL    HW139794   1.214   3.826   8.909 -1.3161  1.2556 -1.3114
 9386SOL    HW239795   1.247   3.876   8.776 -0.7607 -3.2332 -2.7356
 9387SOL     OW39796   1.912   1.912   6.532  0.4642 -0.4612 -0.2679
 9387SOL    HW139797   1.863   1.991   6.552  2.8500  0.9087  0.2040
 9387SOL    HW239798   1.996   1.933   6.573 -0.7507  3.0802  0.3258
 9388SOL     OW39799   1.143   0.049   4.958  0.1045 -0.0104  0.8205
 9388SOL    HW139800   1.227   0.023   4.921  0.4153  0.7995  0.9590
 9388SOL    HW239801   1.104   4.698   4.963 -1.4678  0.6929  0.6099
 9389SOL     OW39802   2.509   1.312   5.005 -0.0454 -0.5386  0.3892
 9389SOL    HW139803   2.477   1.311   5.095  0.4754  1.8155  0.5888
 9389SOL    HW239804   2.428   1.311   4.955  0.8866 -2.7811 -1.0816
 9390SOL     OW39805   1.022   4.460   2.174  0.1937  0.1901  0.5877
 9390SOL    HW139806   0.977   4.469   2.258  0.1099 -1.6107  0.7258
 9390SOL    HW239807   1.110   4.492   2.194  0.3126  0.5471 -0.4664
 9391SOL     OW39808   4.204   2.429   5.773  0.3531  0.0334 -0.4261
 9391SOL    HW139809   4.277   2.449   5.831 -0.0246  0.9824 -0.2686
 9391SOL    HW239810   4.165   2.348   5.806 -1.3897  0.9376 -0.2744
 9392SOL     OW39811   0.486   1.057   4.819 -0.2700  0.0580 -0.0767
 9392SOL    HW139812   0.415   1.080   4.878 -1.3932  0.5842 -1.6426
 9392SOL    HW239813   0.545   1.130   4.838  1.0761 -1.5647  2.0539
 9393SOL     OW39814   0.497   4.163  16.031 -0.4280 -0.0983  0.3178
 9393SOL    HW139815   0.473   4.185  15.941 -0.8348 -0.2256  0.3917
 9393SOL    HW239816   0.541   4.246  16.047 -0.2838  0.1681 -1.4708
 9394SOL     OW39817   4.674   1.520   5.421  0.3704  0.1565  0.0007
 9394SOL    HW139818   4.628   1.575   5.484  0.5402  1.5575 -1.0937
 9394SOL    HW239819   0.022   1.508   5.465  0.4558  2.0118  0.3547
 9395SOL     OW39820   0.317   1.032   6.678  0.0384 -0.0522  0.0389
 9395SOL    HW139821   0.332   1.016   6.585 -2.0607  1.2100 -0.5060
 9395SOL    HW239822   0.226   1.002   6.680 -0.0768  0.2288 -1.4113
 9396SOL     OW39823   1.077   0.094   8.016 -0.1965  0.0709 -0.0309
 9396SOL    HW139824   1.160   0.136   7.994  0.4980 -1.7997 -1.0241
 9396SOL    HW239825   1.093   0.004   7.987 -1.9246  0.0322 -0.8966
 9397SOL     OW39826   3.045   0.950   9.367  0.5422  0.2075  0.2278
 9397SOL    HW139827   3.042   1.030   9.419 -0.2242 -0.1861  0.7947
 9397SOL    HW239828   2.956   0.952   9.332 -0.4478  3.3100  2.9176
 9398SOL     OW39829   2.431   0.207   2.242 -0.3140 -0.0890  0.1310
 9398SOL    HW139830   2.464   0.123   2.208 -1.1810 -1.6776  3.2617
 9398SOL    HW239831   2.464   0.210   2.332 -0.6246 -1.0899  0.2798
 9399SOL     OW39832   4.317   3.960   9.938  0.0550  0.3060  0.4010
 9399SOL    HW139833   4.328   3.879   9.889  2.1447  0.5283  0.5022
 9399SOL    HW239834   4.304   4.020   9.865  0.3302  0.6386  0.6235
 9400SOL     OW39835   1.589   3.508  11.416 -0.1113  0.8399 -0.4604
 9400SOL    HW139836   1.499   3.511  11.384  1.0061  1.4568 -3.5360
 9400SOL    HW239837   1.634   3.477  11.337 -0.1506 -0.4366  0.0163
 9401SOL     OW39838   3.455   1.670   2.277 -0.2471 -0.0564  0.1538
 9401SOL    HW139839   3.416   1.645   2.360 -1.7668 -0.6923 -0.7440
 9401SOL    HW239840   3.537   1.622   2.288 -1.1302 -0.9898  2.6100
 9402SOL     OW39841   1.146   1.069  12.975  0.0312  0.5668 -0.6460
 9402SOL    HW139842   1.095   1.050  13.053  2.3627  0.8172  0.9405
 9402SOL    HW239843   1.232   1.086  13.013 -0.5390  1.2015  0.3727
 9403SOL     OW39844   0.977   3.877   2.989  1.1344  0.5939  0.5470
 9403SOL    HW139845   1.064   3.894   3.024  1.1503  0.4680  0.5702
 9403SOL    HW239846   0.922   3.951   3.015 -0.4904  0.3019 -2.1147
 9404SOL     OW39847   2.803   4.405   6.665 -0.5493 -0.2045 -0.9732
 9404SOL    HW139848   2.830   4.377   6.753 -0.1383  0.6687 -0.8155
 9404SOL    HW239849   2.715   4.429   6.694  0.0723  2.2846 -1.1122
 9405SOL     OW39850   3.331   0.183   3.621 -0.2254  0.1464  0.3461
 9405SOL    HW139851   3.356   0.111   3.679  0.4231  1.4864  1.7344
 9405SOL    HW239852   3.295   0.129   3.551  2.4291  0.2201 -1.0972
 9406SOL     OW39853   1.346   4.042   3.475  0.0160 -0.2310 -0.2288
 9406SOL    HW139854   1.351   4.115   3.413  0.3664  0.5792  0.7657
 9406SOL    HW239855   1.285   4.083   3.537  0.9123 -0.4447  0.7939
 9407SOL     OW39856   3.736   2.825  14.882  0.0110  0.1151  0.3838
 9407SOL    HW139857   3.706   2.825  14.791 -1.9620 -1.1104  1.0268
 9407SOL    HW239858   3.677   2.894  14.911 -1.9640 -1.1144 -0.6749
 9408SOL     OW39859   3.612   4.141   8.376  0.0685  0.1386 -0.0024
 9408SOL    HW139860   3.607   4.070   8.440 -2.4747  1.0840  0.8685
 9408SOL    HW239861   3.681   4.127   8.312  2.7733  1.2298  2.6779
 9409SOL     OW39862   0.757   3.109   8.426 -0.2784 -0.0451  0.0122
 9409SOL    HW139863   0.710   3.168   8.485 -1.4654 -0.3681 -0.5936
 9409SOL    HW239864   0.712   3.124   8.343  0.2345 -1.2440 -0.4761
 9410SOL     OW39865   3.887   0.086  15.552 -0.1592  0.1177 -0.1666
 9410SOL    HW139866   3.815   0.137  15.591 -0.8232  0.9646 -2.4937
 9410SOL    HW239867   3.936   0.154  15.506  3.5804 -1.4071  1.5339
 9411SOL     OW39868   3.025   0.929  11.273 -0.3274 -0.1643  0.4437
 9411SOL    HW139869   3.034   1.018  11.308 -1.8210 -0.1020  0.6683
 9411SOL    HW239870   2.938   0.900  11.300  0.5279 -0.5947  2.7756
 9412SOL     OW39871   3.292   3.244   8.490  0.5908  0.1609  0.2088
 9412SOL    HW139872   3.232   3.259   8.563  1.4669  0.7773  0.8053
 9412SOL    HW239873   3.329   3.324   8.455  3.2632 -0.5290  1.4270
 9413SOL     OW39874   0.110   4.204  15.465 -0.0010 -0.3407  0.2046
 9413SOL    HW139875   0.186   4.159  15.501 -0.7163 -2.3940 -0.8416
 9413SOL    HW239876   0.064   4.234  15.543  0.1906  0.6336 -0.0593
 9414SOL     OW39877   2.281   1.321  16.410 -0.5343  0.6958 -0.0737
 9414SOL    HW139878   2.267   1.415  16.415 -3.0502  0.4804 -3.2990
 9414SOL    HW239879   2.377   1.315  16.414 -0.6710  0.9737  4.1845
 9415SOL     OW39880   3.766   3.254  10.871  0.4415 -0.0520  0.4873
 9415SOL    HW139881   3.702   3.182  10.874 -0.8185  1.1124  1.5807
 9415SOL    HW239882   3.829   3.201  10.822  2.8978  0.5661  3.0349
 9416SOL     OW39883   1.871   3.891   4.574  0.2755  0.6939  0.0874
 9416SOL    HW139884   1.895   3.844   4.495 -2.7510 -0.9491  0.1510
 9416SOL    HW239885   1.800   3.936   4.529 -0.3991 -1.4707 -0.9903
 9417SOL     OW39886   2.645   3.685  15.010 -0.2412  0.5606 -0.1633
 9417SOL    HW139887   2.594   3.635  14.947  0.4467 -0.4612  0.0829
 9417SOL    HW239888   2.598   3.768  15.006 -1.2220 -0.0951 -2.2898
 9418SOL     OW39889   2.664   4.023   7.416  0.3299  0.6375  0.0441
 9418SOL    HW139890   2.758   4.022   7.435  0.1683 -1.5051  0.8396
 9418SOL    HW239891   2.659   3.997   7.324 -2.7989 -1.0212  0.6789
 9419SOL     OW39892   1.159   2.974   8.553 -0.5754  0.4646  0.0244
 9419SOL    HW139893   1.242   2.934   8.526 -1.3122 -0.1017 -1.3986
 9419SOL    HW239894   1.145   3.017   8.469 -1.5310  0.0123 -0.0395
 9420SOL     OW39895   1.011   2.430   4.328 -0.0332  0.1464 -0.3761
 9420SOL    HW139896   1.003   2.337   4.305  1.0667 -0.5973  2.2641
 9420SOL    HW239897   1.100   2.430   4.363  0.0490 -0.6923 -0.5754
 9421SOL     OW39898   0.868   2.788   8.837 -0.4816  0.3330  0.4020
 9421SOL    HW139899   0.861   2.758   8.927  1.3922 -0.4688  0.2842
 9421SOL    HW239900   0.854   2.883   8.841 -0.5897  0.4026 -1.3251
 9422SOL     OW39901   0.491   4.259   9.029 -0.5205 -0.2369 -0.0891
 9422SOL    HW139902   0.413   4.273   8.975 -0.3989 -0.8775 -0.4303
 9422SOL    HW239903   0.458   4.298   9.110  0.4163  1.8408 -0.7030
 9423SOL     OW39904   2.490   3.196   2.392  0.0640 -0.4238  0.3192
 9423SOL    HW139905   2.493   3.184   2.486  0.3329  0.6719  0.4513
 9423SOL    HW239906   2.404   3.156   2.380 -0.1059 -0.0164  0.1748
 9424SOL     OW39907   3.392   2.223   0.604 -0.0829  0.4145 -0.5856
 9424SOL    HW139908   3.337   2.279   0.549 -1.4288  0.1365  0.4764
 9424SOL    HW239909   3.443   2.183   0.534 -0.3177 -3.7595  1.6094
 9425SOL     OW39910   1.845   0.781   4.481 -0.1111  0.0141  0.2433
 9425SOL    HW139911   1.880   0.846   4.543  0.6181  0.1577 -0.3103
 9425SOL    HW239912   1.914   0.767   4.416  0.5482  0.9305  0.7348
 9426SOL     OW39913   4.093   2.881   7.521 -0.3186  0.7282 -0.2391
 9426SOL    HW139914   4.162   2.816   7.537 -0.7656 -0.1684 -2.0519
 9426SOL    HW239915   4.130   2.957   7.566  2.1885 -1.0059  0.6499
 9427SOL     OW39916   4.251   4.224   7.449  0.4028 -0.0323  0.3375
 9427SOL    HW139917   4.316   4.247   7.516 -0.3039  1.2552  0.5886
 9427SOL    HW239918   4.236   4.313   7.416  1.1126 -0.4700 -1.1530
 9428SOL     OW39919   1.159   4.658   4.178 -0.1078 -0.4199  0.0568
 9428SOL    HW139920   1.145   4.705   4.096  2.2548 -0.1322 -0.1848
 9428SOL    HW239921   1.108   4.581   4.151 -1.9664 -0.1444  2.8016
 9429SOL     OW39922   2.538   1.986   5.405  0.6765 -0.1504 -0.5289
 9429SOL    HW139923   2.628   2.016   5.392  0.5368  0.7231  0.5515
 9429SOL    HW239924   2.548   1.909   5.462 -0.0398 -2.1276 -3.0460
 9430SOL     OW39925   3.805   4.471   8.549  0.3016  0.7395  0.5636
 9430SOL    HW139926   3.848   4.536   8.605  0.1173  0.9495  0.4627
 9430SOL    HW239927   3.768   4.404   8.607  1.5421 -0.9302 -0.5704
 9431SOL     OW39928   4.125   2.299   8.654  0.1746  0.7335 -0.7195
 9431SOL    HW139929   4.080   2.215   8.645 -0.5187  0.9916  0.2906
 9431SOL    HW239930   4.057   2.360   8.683 -0.1383 -0.3923  0.9116
 9432SOL     OW39931   0.288   0.952   8.413 -0.6373 -0.7714  0.1267
 9432SOL    HW139932   0.369   0.914   8.447  0.1517  0.9119  0.1145
 9432SOL    HW239933   0.238   0.988   8.486  0.5891 -1.2267  1.1745
 9433SOL     OW39934   4.220   1.074   5.337  0.2912  0.2271 -0.0667
 9433SOL    HW139935   4.194   1.078   5.429 -0.2042  0.0293 -0.1960
 9433SOL    HW239936   4.253   1.163   5.326 -2.3611  0.8718 -2.7948
 9434SOL     OW39937   2.612   0.450   5.030  0.2285  0.1240 -0.1778
 9434SOL    HW139938   2.629   0.512   4.959 -0.1931  2.2427  1.6096
 9434SOL    HW239939   2.526   0.412   5.009  0.5885  0.2973 -1.9838
 9435SOL     OW39940   0.511   2.071   8.688  0.1830  0.2652  0.0053
 9435SOL    HW139941   0.544   2.158   8.666 -0.7413  1.3760  2.9616
 9435SOL    HW239942   0.489   2.079   8.781 -1.5484 -1.6049 -0.2636
 9436SOL     OW39943   0.446   4.431   7.912  0.0076 -0.2509  0.1801
 9436SOL    HW139944   0.453   4.337   7.900  0.3268 -0.0654 -1.1448
 9436SOL    HW239945   0.403   4.440   7.997  0.5502 -0.0523  0.4287
 9437SOL     OW39946   2.856   2.284  16.563  0.1203 -0.2038 -0.6759
 9437SOL    HW139947   2.847   2.332  16.645  0.5550 -0.5615 -0.4193
 9437SOL    HW239948   2.762   2.271  16.545 -0.6859  3.6635  0.8069
 9438SOL     OW39949   3.117   4.342  11.319 -0.2511  0.1429 -0.2724
 9438SOL    HW139950   3.158   4.341  11.232 -1.0204 -0.7227 -0.6209
 9438SOL    HW239951   3.067   4.260  11.323  0.7970 -0.6469 -3.1288
 9439SOL     OW39952   0.809   4.181   0.533 -0.5587  0.8227  0.7955
 9439SOL    HW139953   0.852   4.169   0.449  1.8036 -2.4532  2.5052
 9439SOL    HW239954   0.875   4.134   0.584  1.2224  1.3013 -1.0869
 9440SOL     OW39955   3.330   3.821  15.445  0.0740 -0.5217  0.0415
 9440SOL    HW139956   3.375   3.819  15.361 -2.8008  0.1543 -1.5166
 9440SOL    HW239957   3.302   3.912  15.456  2.0104  0.2017 -1.0204
 9441SOL     OW39958   0.661   1.214   3.599  0.5658  0.1269 -0.2650
 9441SOL    HW139959   0.673   1.121   3.620  0.0674  0.0657 -0.2396
 9441SOL    HW239960   0.706   1.252   3.675 -0.8516 -0.2500  0.7671
 9442SOL     OW39961   0.985   2.272   6.679 -0.0459 -0.0373 -0.0282
 9442SOL    HW139962   0.891   2.289   6.672  0.0672 -0.4479 -2.4447
 9442SOL    HW239963   0.974   2.216   6.756  0.3923  2.7692  2.0776
 9443SOL     OW39964   0.249   2.099   4.562  0.2387  0.1792 -0.0097
 9443SOL    HW139965   0.207   2.168   4.613  1.3153  1.3264 -0.6806
 9443SOL    HW239966   0.334   2.102   4.605 -0.5460  2.8265  1.3402
 9444SOL     OW39967   1.016   2.779   2.968 -0.3843 -0.2223 -0.0774
 9444SOL    HW139968   1.100   2.770   3.014  0.5992  2.8900 -1.2483
 9444SOL    HW239969   1.018   2.875   2.965 -0.3036 -0.1175  2.6158
 9445SOL     OW39970   3.881   3.367   8.689 -0.3671  0.0911 -0.4367
 9445SOL    HW139971   3.919   3.440   8.641  1.2253 -1.6193 -1.7648
 9445SOL    HW239972   3.948   3.301   8.673 -0.5537 -0.1734 -0.1359
 9446SOL     OW39973   2.711   1.884   7.497 -0.0942  0.1227 -0.2010
 9446SOL    HW139974   2.723   1.977   7.516 -2.5750  0.3525  0.2390
 9446SOL    HW239975   2.692   1.894   7.403 -1.7716  1.6048  0.3058
 9447SOL     OW39976   1.186   0.890   5.531 -0.1851  0.1469 -0.1234
 9447SOL    HW139977   1.095   0.889   5.499 -1.2283  2.3200  2.7115
 9447SOL    HW239978   1.223   0.908   5.445 -0.7225 -2.5076 -0.9087
 9448SOL     OW39979   2.261   4.030  13.652 -0.0174 -0.6755 -0.4023
 9448SOL    HW139980   2.306   4.036  13.567  0.3646 -1.7850 -0.2710
 9448SOL    HW239981   2.334   4.001  13.706  1.4825  3.7424 -0.0468
 9449SOL     OW39982   2.644   3.328   6.373 -0.2380  0.1579 -0.4920
 9449SOL    HW139983   2.686   3.407   6.338  0.1306 -0.4973 -1.5538
 9449SOL    HW239984   2.666   3.262   6.307  2.4305  0.7722 -0.2373
 9450SOL     OW39985   3.812   0.385   8.478  0.0340  0.8299  0.2292
 9450SOL    HW139986   3.815   0.478   8.456  3.4835  0.9448  1.2447
 9450SOL    HW239987   3.901   0.367   8.509  0.3373 -0.1936 -1.2398
 9451SOL     OW39988   0.302   0.598  11.000  0.4170  0.2838 -0.1285
 9451SOL    HW139989   0.244   0.622  11.072  0.1087 -0.6912 -0.0480
 9451SOL    HW239990   0.289   0.503  11.001 -4.8446  1.0178  0.3998
 9452SOL     OW39991   2.554   3.357   1.380  0.2353  0.1309  0.2903
 9452SOL    HW139992   2.609   3.367   1.303 -0.2873 -0.1705 -0.1224
 9452SOL    HW239993   2.618   3.351   1.451  0.6385 -1.3640 -0.2203
 9453SOL     OW39994   0.481   4.319   3.612  0.4814  0.1214 -0.2480
 9453SOL    HW139995   0.567   4.346   3.579  0.1661  1.4279  0.0272
 9453SOL    HW239996   0.519   4.246   3.660  1.3856  0.5407 -0.3196
 9454SOL     OW39997   1.450   1.255   5.355 -0.1291  0.3679 -0.0824
 9454SOL    HW139998   1.404   1.321   5.407 -2.7036 -0.7207 -0.9538
 9454SOL    HW239999   1.401   1.272   5.275  0.9475 -2.2364 -1.2948
 9455SOL     OW40000   1.598   3.768   4.763 -0.6505  0.3360  0.1557
 9455SOL    HW140001   1.641   3.851   4.738  0.2436 -0.2687 -0.3351
 9455SOL    HW240002   1.511   3.790   4.729  0.7246  1.3969 -2.7252
 9456SOL     OW40003   3.488   1.638   0.125 -0.4482  0.2368 -0.2069
 9456SOL    HW140004   3.460   1.729   0.118  0.1551  0.6045  2.1634
 9456SOL    HW240005   3.576   1.630   0.089  0.3136  0.9701  1.4932
 9457SOL     OW40006   2.406   0.012   8.951  0.0154  0.2146  0.5680
 9457SOL    HW140007   2.392   4.687   9.023  2.0582 -1.5413 -0.5103
 9457SOL    HW240008   2.424   0.092   9.000 -1.8225  2.0282 -1.7244
 9458SOL     OW40009   3.566   3.660   3.514  0.2866  0.4900 -0.6923
 9458SOL    HW140010   3.546   3.584   3.459  1.8545  0.2438 -0.9122
 9458SOL    HW240011   3.552   3.628   3.603 -0.5072 -1.2991 -1.4494
 9459SOL     OW40012   0.572   3.992  17.637  0.2539  0.2910 -0.6046
 9459SOL    HW140013   0.505   3.931  17.670  1.1645 -2.1964 -3.3430
 9459SOL    HW240014   0.582   3.967  17.545 -0.7188 -1.3068 -0.2896
 9460SOL     OW40015   3.257   4.501   5.308 -0.0857  0.9368  0.1146
 9460SOL    HW140016   3.221   4.464   5.389  0.1896 -1.5786 -0.9306
 9460SOL    HW240017   3.196   4.479   5.238  2.8326 -1.2399 -1.7263
 9461SOL     OW40018   2.145   2.797   7.583 -1.1850  0.4295  0.3283
 9461SOL    HW140019   2.148   2.737   7.508  3.3164 -0.0836  0.9054
 9461SOL    HW240020   2.108   2.734   7.645 -2.6202  0.7403 -0.2120
 9462SOL     OW40021   4.466   1.508   6.919  0.2315  0.5470  0.2913
 9462SOL    HW140022   4.379   1.470   6.924  0.7646 -0.6307  0.4980
 9462SOL    HW240023   4.450   1.595   6.956 -2.3378 -1.0574  2.9121
 9463SOL     OW40024   0.604   1.412  11.515 -0.3595 -0.1997 -0.9474
 9463SOL    HW140025   0.688   1.367  11.514 -0.0835  0.3126 -0.1314
 9463SOL    HW240026   0.547   1.355  11.566 -0.6822  2.1585  1.3348
 9464SOL     OW40027   0.418   1.316  11.320 -0.5294  0.5305  0.2077
 9464SOL    HW140028   0.491   1.360  11.364  0.3376 -0.3483 -0.3514
 9464SOL    HW240029   0.392   1.388  11.262 -0.9797  0.1908 -0.0163
 9465SOL     OW40030   2.788   2.205  15.598  0.0330 -0.5162  0.0707
 9465SOL    HW140031   2.713   2.265  15.599  0.7480  0.3931 -0.1966
 9465SOL    HW240032   2.829   2.220  15.683 -1.8231 -0.2524  0.9391
 9466SOL     OW40033   1.300   2.852  11.162 -0.0874  0.1950  0.4525
 9466SOL    HW140034   1.389   2.818  11.174  0.0697 -0.6176 -3.1035
 9466SOL    HW240035   1.257   2.840  11.247 -0.0123  1.8471  0.7255
 9467SOL     OW40036   2.513   1.967   2.532 -0.2298  0.3237  0.6949
 9467SOL    HW140037   2.490   2.058   2.512  0.5388  0.3015 -0.3080
 9467SOL    HW240038   2.449   1.947   2.600  2.1628 -1.3438  2.4897
 9468SOL     OW40039   0.444   0.862   4.318 -0.2229  0.0760 -0.1705
 9468SOL    HW140040   0.512   0.917   4.357  1.6597 -1.6327 -0.9941
 9468SOL    HW240041   0.371   0.923   4.316 -0.9974 -0.8556  0.0137
 9469SOL     OW40042   0.528   2.586   2.092 -0.2836 -0.2038 -0.4252
 9469SOL    HW140043   0.502   2.524   2.024 -1.8463  0.2839 -0.2732
 9469SOL    HW240044   0.444   2.610   2.130 -0.5600 -0.5657 -0.8083
 9470SOL     OW40045   1.570   2.626  16.977 -0.3402 -0.5508 -0.1374
 9470SOL    HW140046   1.506   2.634  16.906 -2.3525  3.8611  2.1914
 9470SOL    HW240047   1.582   2.532  16.965 -0.4961 -0.5953  0.0581
 9471SOL     OW40048   2.761   0.569   6.299 -0.8882  0.1538  0.3972
 9471SOL    HW140049   2.757   0.662   6.322  0.4413  0.8130 -2.0508
 9471SOL    HW240050   2.842   0.571   6.249 -0.6427 -2.9386  0.6281
 9472SOL     OW40051   2.593   1.105   8.773 -0.4950 -0.2938 -0.2451
 9472SOL    HW140052   2.516   1.060   8.808  0.5677 -2.6590 -0.9635
 9472SOL    HW240053   2.651   1.051   8.826  1.2165  1.3720 -0.4390
 9473SOL     OW40054   0.795   2.548   6.739 -0.1953  0.4590 -0.0630
 9473SOL    HW140055   0.790   2.484   6.810  0.1507  0.6209  0.1057
 9473SOL    HW240056   0.890   2.539   6.733 -0.1687  1.2515 -0.8396
 9474SOL     OW40057   4.621   1.921  15.817  0.4703  0.2057  0.4521
 9474SOL    HW140058   4.530   1.934  15.791  0.4199 -1.0014  0.0311
 9474SOL    HW240059   4.618   1.869  15.898  0.5733  2.2476  1.7839
 9475SOL     OW40060   3.645   1.426   0.983  0.1281  0.0239  0.2158
 9475SOL    HW140061   3.616   1.417   0.892 -0.5743  3.0515  0.1475
 9475SOL    HW240062   3.589   1.498   1.013  0.5182 -0.1187  1.3080
 9476SOL     OW40063   1.107   0.530   7.150 -0.2340 -0.0780 -0.4097
 9476SOL    HW140064   1.134   0.597   7.214 -2.2957  0.9469 -0.6082
 9476SOL    HW240065   1.074   0.463   7.209 -0.9093 -0.3068 -1.0629
 9477SOL     OW40066   1.063   2.165  12.934 -0.3643 -0.3003  0.2436
 9477SOL    HW140067   1.073   2.170  13.029  1.0873  0.5791  0.0414
 9477SOL    HW240068   1.042   2.257  12.916 -1.4502 -0.4028  1.0603
 9478SOL     OW40069   2.459   3.407  11.632  0.0328  0.3518  0.1069
 9478SOL    HW140070   2.551   3.395  11.605  0.3323  0.4594  1.0620
 9478SOL    HW240071   2.462   3.501  11.650  3.8983  0.2934 -0.2213
 9479SOL     OW40072   4.470   0.190   6.419 -0.2698  0.2480  0.1931
 9479SOL    HW140073   4.517   0.193   6.335 -0.4711  1.4858  0.1176
 9479SOL    HW240074   4.537   0.232   6.474  1.0893 -0.5765 -0.8368
 9480SOL     OW40075   1.167   0.672   6.071  0.9398 -0.0297 -0.2461
 9480SOL    HW140076   1.138   0.763   6.066 -0.3303 -0.4554 -0.7204
 9480SOL    HW240077   1.246   0.680   6.124 -0.9989  0.2308  2.6523
 9481SOL     OW40078   0.042   4.349   3.782 -0.2800 -0.1996  0.6340
 9481SOL    HW140079   0.096   4.362   3.860 -0.3746 -1.6337  0.9292
 9481SOL    HW240080   4.697   4.397   3.800  0.1067  1.0373 -0.8985
 9482SOL     OW40081   1.993   0.967   8.311 -0.0194  0.9399 -0.2981
 9482SOL    HW140082   2.019   1.026   8.240  1.3672  2.2653  1.2949
 9482SOL    HW240083   1.944   0.904   8.259 -1.3116  3.0225 -1.5995
 9483SOL     OW40084   0.659   4.119   5.457  0.0673 -0.6581 -0.3625
 9483SOL    HW140085   0.577   4.118   5.506 -0.9424  0.0032 -2.0544
 9483SOL    HW240086   0.620   4.104   5.371 -1.4364  0.2929  0.1475
 9484SOL     OW40087   0.470   4.585   8.257 -1.3187 -0.9514 -0.2980
 9484SOL    HW140088   0.535   4.632   8.310 -1.5314 -0.6169 -0.3390
 9484SOL    HW240089   0.410   4.543   8.319 -1.0375 -0.1415  0.5244
 9485SOL     OW40090   1.911   0.006  16.015  0.0506  0.4303 -0.2551
 9485SOL    HW140091   1.972   4.670  16.033 -0.3236  0.1465 -0.1431
 9485SOL    HW240092   1.829   4.698  16.036  0.9163 -0.6419  0.8870
 9486SOL     OW40093   2.011   4.166   7.019 -0.6390 -0.2799  0.3060
 9486SOL    HW140094   2.053   4.170   7.105 -0.6949  1.5954  0.2502
 9486SOL    HW240095   2.043   4.250   6.985 -3.5442 -0.5299 -3.1073
 9487SOL     OW40096   4.528   3.209   6.115 -0.9070 -0.2679  0.1488
 9487SOL    HW140097   4.581   3.131   6.132 -0.2331  0.8438  3.1577
 9487SOL    HW240098   4.440   3.181   6.141 -0.3904 -1.5240  0.5539
 9488SOL     OW40099   0.682   3.390   1.847  0.1105 -0.1373  0.1115
 9488SOL    HW140100   0.669   3.299   1.822  2.8220 -0.2570 -0.8830
 9488SOL    HW240101   0.748   3.371   1.913 -1.1638 -0.4882  1.2716
 9489SOL     OW40102   4.045   0.352   2.966  0.1053 -0.0299 -0.0361
 9489SOL    HW140103   4.053   0.314   2.878  1.9249 -2.3677  1.1438
 9489SOL    HW240104   3.988   0.283   3.002  1.6496 -0.0378  2.3780
 9490SOL     OW40105   0.609   3.306   6.290 -0.4626  0.0389 -0.9964
 9490SOL    HW140106   0.644   3.350   6.369 -1.2906  0.0562 -0.6418
 9490SOL    HW240107   0.688   3.259   6.264 -0.5336 -0.5118 -0.2341
 9491SOL     OW40108   0.036   3.344  14.053  0.0381 -0.3504 -0.4290
 9491SOL    HW140109   4.697   3.318  13.999  0.9518 -0.4404 -1.6673
 9491SOL    HW240110   0.038   3.438  14.033 -1.3025 -0.1122  0.5504
 9492SOL     OW40111   2.921   0.612   9.348 -0.4565  0.1841 -0.3660
 9492SOL    HW140112   3.012   0.642   9.348 -0.2026 -0.5722  1.6017
 9492SOL    HW240113   2.909   0.572   9.434  2.9450 -0.9729 -0.4176
 9493SOL     OW40114   1.254   2.948   3.326 -0.3853  0.3417 -0.1564
 9493SOL    HW140115   1.287   2.979   3.241  1.6525 -1.9057 -0.1882
 9493SOL    HW240116   1.205   3.024   3.356  0.4458  1.0687 -0.6502
 9494SOL     OW40117   3.367   3.574   6.763 -0.0677 -0.0353  0.1933
 9494SOL    HW140118   3.461   3.590   6.774 -0.2058  0.1739  1.0247
 9494SOL    HW240119   3.347   3.631   6.689  1.6131 -2.0886 -1.8720
 9495SOL     OW40120   1.904   0.435   3.055 -0.4608  0.0361  0.0695
 9495SOL    HW140121   1.824   0.467   3.096  1.1016  1.8403  1.7709
 9495SOL    HW240122   1.903   0.478   2.969  2.3547  1.0892  0.5638
 9496SOL     OW40123   3.067   4.582  17.703 -0.1924 -0.4273 -0.0743
 9496SOL    HW140124   3.150   4.539  17.724  0.9924  1.2895 -1.2033
 9496SOL    HW240125   3.083   4.610  17.613  1.4165  0.1102  0.3756
 9497SOL     OW40126   4.582   3.356   4.321 -0.0953  1.0612  0.5374
 9497SOL    HW140127   4.581   3.444   4.357 -1.4200  1.4128 -0.3445
 9497SOL    HW240128   4.666   3.367   4.276  0.2488 -2.3991  0.3076
 9498SOL     OW40129   4.163   3.171   2.509  0.1641 -0.8335  0.3479
 9498SOL    HW140130   4.092   3.187   2.572 -0.0921  0.4342 -0.2661
 9498SOL    HW240131   4.188   3.093   2.558  1.9159  0.9305  2.3113
 9499SOL     OW40132   1.321   1.079  17.738  0.4019 -0.4340  0.0218
 9499SOL    HW140133   1.233   1.049  17.718  0.5511 -0.7220 -0.1991
 9499SOL    HW240134   1.379   1.016  17.695  2.1834  0.1160  1.6179
 9500SOL     OW40135   1.703   2.976   3.951  0.3624 -0.3255  0.3255
 9500SOL    HW140136   1.667   2.975   4.039 -1.7315  0.6554 -0.5169
 9500SOL    HW240137   1.642   3.033   3.904  0.8714 -0.2625 -0.2638
 9501SOL     OW40138   2.218   1.256   6.259  1.3159  0.2293  0.5715
 9501SOL    HW140139   2.222   1.177   6.312 -2.0819  0.2865  0.9337
 9501SOL    HW240140   2.286   1.306   6.303  1.8537  1.1196 -1.2670
 9502SOL     OW40141   0.520   1.635  11.765 -0.4547  0.2273  0.0796
 9502SOL    HW140142   0.547   1.653  11.675  3.3979 -1.6142  0.8880
 9502SOL    HW240143   0.440   1.582  11.766 -1.1187  1.2038 -0.9155
 9503SOL     OW40144   1.179   3.529   0.964 -0.4784  0.1752 -0.0868
 9503SOL    HW140145   1.212   3.516   1.053 -1.2528  1.1266  0.3353
 9503SOL    HW240146   1.237   3.600   0.935 -0.9469  0.4826 -0.2699
 9504SOL     OW40147   2.208   3.172  16.916 -0.1255  0.0600  0.6822
 9504SOL    HW140148   2.222   3.267  16.918  2.7122 -0.3590  1.5024
 9504SOL    HW240149   2.135   3.165  16.977  1.8441  3.2546  3.3932
 9505SOL     OW40150   1.068   1.243   0.302 -0.1351 -0.0667 -0.4415
 9505SOL    HW140151   1.137   1.180   0.324 -0.4627 -1.0161 -2.1553
 9505SOL    HW240152   1.088   1.276   0.215  1.0477 -1.0889 -0.5591
 9506SOL     OW40153   1.307   4.440   3.767 -0.0631  0.2502 -0.4748
 9506SOL    HW140154   1.250   4.491   3.824  0.8092 -0.3169  0.9082
 9506SOL    HW240155   1.344   4.509   3.712  0.0985 -1.6120 -2.7348
 9507SOL     OW40156   4.328   4.596   1.006 -0.1910  0.4645 -0.1916
 9507SOL    HW140157   4.375   4.515   1.025  0.2627  0.6447 -0.5354
 9507SOL    HW240158   4.403   4.637   0.963 -0.2915 -0.3967 -1.1722
 9508SOL     OW40159   1.224   0.444   2.565 -0.6374 -0.1365  0.0610
 9508SOL    HW140160   1.234   0.495   2.486 -1.1246  0.3760  0.3328
 9508SOL    HW240161   1.280   0.497   2.622  0.0369 -1.0874  0.2895
 9509SOL     OW40162   1.760   3.886   0.677  0.0092 -0.2085  0.0417
 9509SOL    HW140163   1.813   3.807   0.689  0.9216  0.0325 -2.4272
 9509SOL    HW240164   1.667   3.861   0.679  0.7326 -2.7242  1.6856
 9510SOL     OW40165   4.640   2.668   2.845  0.2431 -0.0107  0.0988
 9510SOL    HW140166   4.677   2.744   2.889 -0.2359 -0.4225  1.2072
 9510SOL    HW240167   4.611   2.604   2.909  0.6776  0.5478  0.8577
 9511SOL     OW40168   4.410   4.701   6.759  0.3396  0.0249  0.0680
 9511SOL    HW140169   4.326   4.733   6.728  1.6756  0.7939 -2.8112
 9511SOL    HW240170   4.387   4.615   6.792 -1.4402  1.6233  3.0329
 9512SOL     OW40171   1.985   3.567   9.496  0.1189 -0.2143 -0.3492
 9512SOL    HW140172   2.011   3.526   9.579 -0.9214  3.1899  1.6396
 9512SOL    HW240173   1.893   3.548   9.482  0.3666 -1.9440  0.3852
 9513SOL     OW40174   2.569   4.030   3.442  0.0557  0.7411 -0.3057
 9513SOL    HW140175   2.621   4.029   3.522  0.9138 -1.3679 -0.8869
 9513SOL    HW240176   2.478   4.030   3.470  0.5229 -0.7269  1.1831
 9514SOL     OW40177   0.184   2.204   8.582  0.4835  0.0209  0.5337
 9514SOL    HW140178   0.216   2.232   8.497  1.6366  0.5701  1.1552
 9514SOL    HW240179   0.130   2.129   8.559  0.1709  0.5331 -0.3791
 9515SOL     OW40180   2.333   1.939   9.704  0.4378 -0.9809  0.0290
 9515SOL    HW140181   2.245   1.975   9.702  1.5588  1.9100  1.5972
 9515SOL    HW240182   2.349   1.954   9.798  0.6568  1.3493 -0.3817
 9516SOL     OW40183   1.255   3.501   8.297 -0.6411  0.2075  0.2794
 9516SOL    HW140184   1.166   3.523   8.322 -1.3522  0.6495 -2.5859
 9516SOL    HW240185   1.274   3.573   8.237 -0.0693 -0.5531 -0.4571
 9517SOL     OW40186   1.818   3.222   3.109 -0.2182 -0.1366  0.0383
 9517SOL    HW140187   1.904   3.200   3.074 -0.5487  2.3672 -2.3738
 9517SOL    HW240188   1.772   3.254   3.031  1.2110 -1.1500 -1.2017
 9518SOL     OW40189   3.963   0.127   6.033 -0.1787 -0.2476  0.2167
 9518SOL    HW140190   3.902   0.196   6.010  2.0262  1.8068  0.5175
 9518SOL    HW240191   3.930   0.051   5.984  0.9429 -0.1288 -0.7523
 9519SOL     OW40192   3.854   1.192   0.633 -0.0841  0.0217  0.0500
 9519SOL    HW140193   3.934   1.140   0.630  0.1289  0.4863 -2.2558
 9519SOL    HW240194   3.842   1.197   0.538  0.2170 -0.8662 -0.0412
 9520SOL     OW40195   0.119   3.026   4.666  0.2889  0.3499 -0.3286
 9520SOL    HW140196   0.147   2.959   4.604  0.0618  1.3199 -1.4814
 9520SOL    HW240197   0.138   3.103   4.612 -2.0229  0.3667 -1.1338
 9521SOL     OW40198   2.502   0.276   9.304 -0.2112 -0.1591  0.5618
 9521SOL    HW140199   2.520   0.183   9.314  1.6081  0.3180  1.8000
 9521SOL    HW240200   2.586   0.311   9.277 -0.4814 -0.5059 -0.7140
 9522SOL     OW40201   1.931   2.637  10.380 -0.2926  0.3021 -0.1060
 9522SOL    HW140202   1.856   2.687  10.411  0.6917  1.2178  0.8101
 9522SOL    HW240203   1.888   2.557  10.352  1.2130 -0.8884  0.9496
 9523SOL     OW40204   4.301   2.178   0.155  0.5420 -0.1895  0.0058
 9523SOL    HW140205   4.278   2.095   0.199 -0.3167 -0.3506 -0.7492
 9523SOL    HW240206   4.395   2.174   0.170  0.1986 -1.3900  1.8848
 9524SOL     OW40207   1.188   1.901   5.687 -0.1235  0.0450 -0.1417
 9524SOL    HW140208   1.118   1.967   5.690  0.7847  0.9734  0.3091
 9524SOL    HW240209   1.239   1.911   5.767 -0.9541 -2.5445  0.7160
 9525SOL     OW40210   4.026   3.590   9.753 -0.1834  0.0598 -0.3733
 9525SOL    HW140211   3.952   3.649   9.769 -0.0944  0.6307 -2.0078
 9525SOL    HW240212   4.091   3.632   9.809 -1.4042 -0.3206  1.3027
 9526SOL     OW40213   0.283   4.323   8.869 -0.0090 -0.5149  0.1629
 9526SOL    HW140214   0.278   4.279   8.784  2.3117 -0.8402  0.1882
 9526SOL    HW240215   0.189   4.340   8.879  0.0595 -0.8152  1.3130
 9527SOL     OW40216   1.757   3.570   5.695 -0.0227  0.2458  0.8806
 9527SOL    HW140217   1.664   3.576   5.717  0.3906  0.0959  2.6322
 9527SOL    HW240218   1.796   3.606   5.775 -0.8043  2.7872  0.1128
 9528SOL     OW40219   4.557   0.519   2.186 -0.3031 -0.5185  0.5293
 9528SOL    HW140220   4.557   0.611   2.211  1.9618 -0.8417  1.6917
 9528SOL    HW240221   4.538   0.469   2.265 -1.1304 -0.3313  0.4588
 9529SOL     OW40222   4.101   0.739   6.715  0.0417  0.2938 -0.5161
 9529SOL    HW140223   4.044   0.755   6.640 -0.3186 -0.2202 -0.3491
 9529SOL    HW240224   4.095   0.647   6.740 -1.0030  1.4727  3.6582
 9530SOL     OW40225   4.022   0.048   0.590  0.1581  0.0575  0.0254
 9530SOL    HW140226   4.097   0.056   0.531  0.2578  0.0461  0.1518
 9530SOL    HW240227   4.050   4.708   0.640 -3.1436 -1.7942 -0.9240
 9531SOL     OW40228   0.160   2.762   4.571 -0.2239  0.0352 -0.0752
 9531SOL    HW140229   0.252   2.745   4.550 -0.0864  1.1506 -0.3449
 9531SOL    HW240230   0.129   2.720   4.491 -1.2396  0.5701  0.0383
 9532SOL     OW40231   0.221   1.227   3.796  0.6084  0.0198  0.5216
 9532SOL    HW140232   0.218   1.296   3.862  3.2481 -0.5838  1.2667
 9532SOL    HW240233   0.239   1.146   3.844  0.6415 -0.2628  0.0322
 9533SOL     OW40234   1.225   1.820   8.333  0.4240  0.3638  0.0821
 9533SOL    HW140235   1.168   1.823   8.256  1.2607  3.3398 -0.4514
 9533SOL    HW240236   1.279   1.745   8.308 -1.4368 -1.2358  0.9331
 9534SOL     OW40237   2.032   4.266   8.844 -0.1185 -0.1248 -0.3909
 9534SOL    HW140238   2.072   4.346   8.877  0.0513  0.6813 -2.5754
 9534SOL    HW240239   2.001   4.279   8.755  0.4971  1.7165 -0.3343
 9535SOL     OW40240   1.478   3.041   6.003  0.2126 -0.1579 -0.0439
 9535SOL    HW140241   1.409   3.071   5.943  0.3169 -0.1341 -0.1525
 9535SOL    HW240242   1.483   2.948   5.984  1.2959 -0.0799 -0.1541
 9536SOL     OW40243   3.676   2.684   2.579 -0.5390  0.2279  0.2757
 9536SOL    HW140244   3.693   2.714   2.490 -0.9898 -0.7866 -0.1546
 9536SOL    HW240245   3.605   2.740   2.610  0.1258  0.2620  1.7732
 9537SOL     OW40246   3.381   3.278   9.980  0.0741  0.2762 -0.9082
 9537SOL    HW140247   3.334   3.323  10.050  2.6494 -1.1378  1.7275
 9537SOL    HW240248   3.314   3.229   9.932  0.3836  0.1247 -1.1815
 9538SOL     OW40249   3.136   0.367   2.866 -0.1366 -0.1671 -0.2321
 9538SOL    HW140250   3.154   0.306   2.938 -1.3720 -0.0366  0.1932
 9538SOL    HW240251   3.188   0.442   2.893  0.4956 -0.6028 -0.2423
 9539SOL     OW40252   1.646   1.991   6.981 -0.0947 -0.7798 -0.2008
 9539SOL    HW140253   1.659   2.086   6.971 -3.8336 -0.2058  0.1105
 9539SOL    HW240254   1.671   1.986   7.073 -1.2355 -1.9882  0.0418
 9540SOL     OW40255   0.272   4.313   1.853 -0.5174  0.3494 -0.2276
 9540SOL    HW140256   0.317   4.301   1.936 -3.2176 -0.9640  1.0358
 9540SOL    HW240257   0.188   4.349   1.880  1.1962  4.7934 -0.9266
 9541SOL     OW40258   3.853   0.383   0.366 -0.2404  0.5091 -0.3081
 9541SOL    HW140259   3.770   0.409   0.405  0.3462  1.7403  0.1031
 9541SOL    HW240260   3.823   0.354   0.280 -1.5094  1.3660 -0.1510
 9542SOL     OW40261   1.863   0.814   8.146  0.3205 -0.5588  0.0184
 9542SOL    HW140262   1.850   0.726   8.181 -0.4844  0.3005  1.8494
 9542SOL    HW240263   1.878   0.800   8.052  0.4094 -0.2357 -0.0174
 9543SOL     OW40264   0.062   3.268   7.437 -0.0603  0.0239 -0.6446
 9543SOL    HW140265   0.048   3.186   7.390  0.7265 -0.3452 -0.2474
 9543SOL    HW240266   0.086   3.232   7.523  0.1162 -0.8903 -1.0784
 9544SOL     OW40267   3.319   1.843  17.208  0.2036  0.0089  0.0720
 9544SOL    HW140268   3.252   1.907  17.232 -0.1893 -0.1403 -0.6199
 9544SOL    HW240269   3.377   1.902  17.159  0.2418  1.1520  1.4709
 9545SOL     OW40270   2.216   1.307   9.607  0.6073 -0.1537  0.4554
 9545SOL    HW140271   2.125   1.332   9.594  0.7432 -0.6606 -1.5989
 9545SOL    HW240272   2.240   1.271   9.521  2.5484 -1.9101  1.7293
 9546SOL     OW40273   1.390   3.880  13.017 -0.7735  0.2460  0.0511
 9546SOL    HW140274   1.438   3.948  12.969  0.4812 -1.8728 -1.7021
 9546SOL    HW240275   1.307   3.915  13.048 -0.6880 -0.5439  1.1559
 9547SOL     OW40276   3.621   2.935   7.623  0.3419 -0.0888 -0.0021
 9547SOL    HW140277   3.693   2.916   7.564  0.5602 -0.5795  0.4257
 9547SOL    HW240278   3.556   2.879   7.581  1.1745  0.8495 -2.5457
 9548SOL     OW40279   3.903   3.580   7.128 -0.2721  0.4887 -1.0668
 9548SOL    HW140280   3.907   3.534   7.044 -0.7475 -2.5631  0.5619
 9548SOL    HW240281   3.879   3.663   7.089  2.4651  1.6602 -0.2313
 9549SOL     OW40282   3.880   3.979   8.316 -0.3988 -0.2904  0.0618
 9549SOL    HW140283   3.945   3.909   8.309 -0.9620 -0.8659  0.6819
 9549SOL    HW240284   3.808   3.929   8.354 -0.1396 -0.7297 -0.0226
 9550SOL     OW40285   0.382   2.766   2.779 -0.1170  0.3407  0.0067
 9550SOL    HW140286   0.335   2.683   2.781 -0.5545  0.5286 -2.5479
 9550SOL    HW240287   0.340   2.810   2.854  0.4584  0.7484  0.0915
 9551SOL     OW40288   1.959   4.290   6.344  0.1716 -0.0899 -0.3238
 9551SOL    HW140289   1.930   4.371   6.386 -1.2477 -0.4590 -0.5880
 9551SOL    HW240290   1.911   4.221   6.390 -1.3583 -0.4254 -2.4215
 9552SOL     OW40291   4.048   2.481   2.129  0.3049 -0.2503 -0.1208
 9552SOL    HW140292   4.138   2.504   2.104 -0.3123  1.3824 -0.8777
 9552SOL    HW240293   4.002   2.546   2.076  1.0532 -0.0371 -0.5070
 9553SOL     OW40294   3.537   2.967  15.028  0.0253  0.2928 -0.4584
 9553SOL    HW140295   3.560   2.924  15.110  2.1329  1.1580 -0.6085
 9553SOL    HW240296   3.473   3.032  15.057  1.7610  1.8646 -0.2338
 9554SOL     OW40297   3.096   1.392   0.346  0.0135  0.6944  0.4303
 9554SOL    HW140298   3.106   1.310   0.298 -1.4713  0.8651 -0.1902
 9554SOL    HW240299   3.171   1.443   0.317  0.5682 -0.7670 -0.7114
 9555SOL     OW40300   4.275   2.803   6.451 -0.3977 -0.8472  0.2050
 9555SOL    HW140301   4.367   2.777   6.444 -0.7721 -2.2261  0.3703
 9555SOL    HW240302   4.284   2.897   6.433 -1.1053 -1.2542 -2.2897
 9556SOL     OW40303   3.658   2.013   2.209  0.1598  0.4397  0.2178
 9556SOL    HW140304   3.572   1.971   2.213  0.9692 -1.0806  1.5162
 9556SOL    HW240305   3.654   2.057   2.293  1.1769  0.7448  0.1153
 9557SOL     OW40306   1.899   2.839  13.223 -0.1018  0.0476 -0.3015
 9557SOL    HW140307   1.931   2.928  13.238  1.5493 -1.1153  3.0862
 9557SOL    HW240308   1.892   2.845  13.128 -0.8322 -0.0723 -0.2515
 9558SOL     OW40309   0.425   1.985   5.681  0.1420  0.5203 -0.3052
 9558SOL    HW140310   0.436   2.009   5.773 -0.2274  1.0971 -0.4154
 9558SOL    HW240311   0.512   1.950   5.658 -0.2053 -0.5150 -0.0541
 9559SOL     OW40312   1.356   1.641  11.013 -0.6489  0.2074 -0.5927
 9559SOL    HW140313   1.435   1.587  11.019 -1.1654 -0.5106 -0.2512
 9559SOL    HW240314   1.365   1.684  10.928  1.5930  1.4423  0.2864
 9560SOL     OW40315   4.173   0.981  11.060 -0.2180 -0.2513  0.7014
 9560SOL    HW140316   4.194   0.980  11.154 -1.3191  3.9596  1.0258
 9560SOL    HW240317   4.245   0.934  11.018 -0.5314  0.8587 -1.0925
 9561SOL     OW40318   4.247   1.643   9.220  0.4222 -0.1260  0.5470
 9561SOL    HW140319   4.245   1.693   9.302 -1.5729  1.3369 -0.3937
 9561SOL    HW240320   4.337   1.610   9.226  1.5352  2.3339 -2.1240
 9562SOL     OW40321   2.136   2.922   3.147  0.0749  0.1152 -0.0134
 9562SOL    HW140322   2.206   2.927   3.212 -0.1254  0.1029  0.2036
 9562SOL    HW240323   2.070   2.971   3.196 -0.3176  0.9356 -1.3916
 9563SOL     OW40324   2.686   1.228   3.646  0.4423 -0.5045  0.2896
 9563SOL    HW140325   2.712   1.294   3.710  0.9799 -0.9150  0.4974
 9563SOL    HW240326   2.758   1.238   3.583 -0.0792 -0.0809 -0.2430
 9564SOL     OW40327   0.761   3.432   8.222 -0.6844  0.6428 -0.3024
 9564SOL    HW140328   0.848   3.456   8.189 -0.2569 -0.8575 -0.2323
 9564SOL    HW240329   0.784   3.439   8.315 -1.1311  0.1570 -0.1600
 9565SOL     OW40330   0.151   1.078   5.967 -0.1009 -0.5979  0.2374
 9565SOL    HW140331   0.124   1.005   5.911 -0.6258  1.8501 -2.6716
 9565SOL    HW240332   0.227   1.100   5.914 -2.0893 -0.8937 -2.7167
 9566SOL     OW40333   1.820   1.768   6.042 -0.2321 -0.0700 -0.1979
 9566SOL    HW140334   1.878   1.742   5.970  0.3783  0.0922  0.2421
 9566SOL    HW240335   1.796   1.683   6.079  1.9798  0.3129  2.0763
 9567SOL     OW40336   0.696   1.736  15.115  0.5250  0.1506  0.2215
 9567SOL    HW140337   0.725   1.646  15.133  1.0192  0.4563  0.9496
 9567SOL    HW240338   0.639   1.723  15.040 -0.1133  1.0469  0.5520
 9568SOL     OW40339   4.490   0.766   4.226  0.1280  0.3010  0.0102
 9568SOL    HW140340   4.545   0.715   4.166 -0.9212 -2.6060  1.5164
 9568SOL    HW240341   4.406   0.758   4.180  0.6081  0.6787 -0.9419
 9569SOL     OW40342   2.714   1.718  11.239  0.0362 -0.2900  0.0031
 9569SOL    HW140343   2.639   1.733  11.182  0.1165  1.7743  0.4323
 9569SOL    HW240344   2.753   1.804  11.221 -0.1261  0.1984  1.9293
   4.73604   4.73604  17.74275
