Membrane in water
40344
    1TMC1    C1    1   2.739   0.922  11.694  0.4326  0.6118  0.0755
    1TMC1    C2    2   2.650   1.019  11.738 -0.5971 -1.0033  0.4321
    1TMC1    C3    3   2.662   1.144  11.695  0.2063 -0.2417  0.6758
    1TMC1    C4    4   2.850   0.953  11.616  0.1309 -0.7920  0.2437
    1TMC1    C5    5   2.865   1.080  11.580  0.2672 -0.0271  0.4542
    1TMC1    C6    6   2.778   1.177  11.624 -0.0297  0.2840  0.0211
    1TMC1     C    7   2.721   0.791  11.753 -0.3109  0.0269 -0.0526
    1TMC1     O    8   2.649   0.782  11.846  0.1737  0.2896 -0.1955
    1TMC1     H    9   2.567   0.989  11.800 -1.8828  0.4272 -0.6104
    1TMC1    H1   10   2.935   0.889  11.593  0.0075  0.0768 -2.5698
    1TMC1    H2   11   2.783   1.283  11.600  0.7999  0.3616  0.5602
    1TMC1    C7   12   3.003   1.133  11.575  0.5657  0.3611  1.2575
    1TMC1    C8   13   2.585   1.261  11.737  0.4477  0.4346 -0.3338
    1TMC1    O1   14   3.094   1.078  11.632  0.6070  0.2681  0.9438
    1TMC1    O2   15   2.636   1.370  11.738 -0.4485 -0.4984 -0.6310
    1TMC1    O3   16   3.013   1.221  11.473 -0.1425 -0.3207  0.0670
    1TMC1    H3   17   2.922   1.227  11.436 -1.1009  0.9208  2.6321
    1TMC1    O5   18   2.459   1.227  11.780  0.6721  0.0361 -0.5702
    1TMC1    H5   19   2.440   1.132  11.767 -2.0712  0.5021 -0.0828
    2MPD2     C   20   2.792   0.287  11.772  0.1476  0.1907  0.1493
    2MPD2    C1   21   2.757   0.373  11.870 -0.6211 -0.5527  0.1273
    2MPD2    C2   22   2.761   0.513  11.847  0.1543 -0.5094  0.0616
    2MPD2    C3   23   2.801   0.555  11.725  0.5492 -0.1373  0.1429
    2MPD2    C4   24   2.842   0.463  11.627 -0.3052  0.4368  0.7555
    2MPD2    C5   25   2.841   0.329  11.656 -0.0776  0.4671 -0.3163
    2MPD2     H   26   2.740   0.577  11.932 -1.9741 -1.4438  0.2549
    2MPD2    H1   27   2.877   0.491  11.529  1.4166 -3.0079  0.3839
    2MPD2    H2   28   2.791   0.179  11.781 -0.9071  0.1310 -0.6679
    2MPD2    H3   29   2.893   0.264  11.586  0.9591 -0.5269  1.3529
    2MPD2     N   30   2.794   0.693  11.688 -0.9608 -0.8220  0.0390
    2MPD2    H5   31   2.832   0.717  11.597 -1.4799  2.3000  0.6549
    2MPD2    N1   32   2.713   0.327  11.993  0.2865 -0.1972  0.5477
    2MPD2    H7   33   2.677   0.406  12.047 -0.3237  0.3385 -0.6330
    3TMC1    C1   34   1.918   0.815  11.180  0.7523  0.1654  0.2827
    3TMC1    C2   35   2.026   0.739  11.204  0.0925  0.2152 -0.2292
    3TMC1    C3   36   2.130   0.740  11.111 -0.5987 -0.9626 -0.2239
    3TMC1    C4   37   1.902   0.892  11.068  0.6458 -0.0552  0.0647
    3TMC1    C5   38   2.008   0.886  10.978  0.0487  0.1181 -0.1578
    3TMC1    C6   39   2.127   0.818  10.999  0.2274  0.1428  0.3480
    3TMC1     C   40   1.801   0.793  11.269  0.2753 -0.0626  0.6717
    3TMC1     O   41   1.794   0.685  11.322  0.0937  0.1306  0.3611
    3TMC1     H   42   2.028   0.670  11.287  0.2445  0.6370  0.1141
    3TMC1    H1   43   1.813   0.954  11.058  1.7202  0.8852 -3.6045
    3TMC1    H2   44   2.199   0.820  10.918 -0.8968 -0.4663 -0.6656
    3TMC1    C7   45   1.993   0.945  10.848 -0.3115 -0.9310 -0.0909
    3TMC1    C8   46   2.184   0.605  11.098  0.1835  0.7152 -0.1980
    3TMC1    O1   47   2.088   0.985  10.778  0.8737 -0.7289  0.2382
    3TMC1    O2   48   2.122   0.502  11.115  0.2274  0.8236 -0.0648
    3TMC1    O3   49   1.866   0.913  10.810  0.8213  0.2182  0.6640
    3TMC1    H3   50   1.823   0.850  10.871  0.3304  1.9104  2.0675
    3TMC1    O5   51   2.319   0.604  11.084 -0.3819 -0.5457 -0.4739
    3TMC1    H5   52   2.352   0.695  11.072 -1.8595  0.0803  0.2783
    4MPD2     C   53   1.383   0.959  11.516  0.1100  0.4024  0.2225
    4MPD2    C1   54   1.437   1.069  11.455 -0.0417 -0.1106  0.0332
    4MPD2    C2   55   1.552   1.044  11.380  0.4583  0.3348 -0.1551
    4MPD2    C3   56   1.606   0.918  11.358 -0.3598  0.0237 -1.0360
    4MPD2    C4   57   1.550   0.807  11.416  0.5340 -0.4050 -0.0764
    4MPD2    C5   58   1.441   0.835  11.493  0.2555  0.1934  0.8463
    4MPD2     H   59   1.595   1.132  11.335  1.3909 -0.0393  0.0131
    4MPD2    H1   60   1.573   0.705  11.388  0.7246 -0.3207 -0.2287
    4MPD2    H2   61   1.311   0.962  11.596 -1.5007 -1.5561 -1.1604
    4MPD2    H3   62   1.380   0.755  11.536 -0.4855  0.2673 -0.0535
    4MPD2     N   63   1.728   0.908  11.282 -0.2570  0.7459 -0.0787
    4MPD2    H5   64   1.760   0.992  11.235  1.5553  0.9412  1.5250
    4MPD2    N1   65   1.409   1.203  11.480 -1.1349 -0.6579 -0.0373
    4MPD2    H7   66   1.463   1.279  11.440 -2.8911  2.4718  3.5497
    5TCq1    O1   67   3.058   2.411  11.772 -0.9364  0.1829  0.3965
    5TCq1    C1   68   2.947   2.449  11.834  0.8332  0.0776 -0.5096
    5TCq1    O2   69   2.940   2.471  11.953  0.3370 -0.5829 -0.2826
    5TCq1    C2   70   2.857   2.504  11.734 -0.3322  0.0614 -0.3131
    5TCq1    C3   71   2.765   2.590  11.789  0.4088 -0.7404 -0.3470
    5TCq1    C4   72   2.654   2.628  11.718  0.8116 -0.1912 -0.9207
    5TCq1    C5   73   2.639   2.587  11.590 -0.0175 -1.5622 -0.3178
    5TCq1    C6   74   2.735   2.508  11.543 -0.5293  0.7512  0.7234
    5TCq1    C7   75   2.840   2.449  11.615 -0.1927 -0.0408 -0.2680
    5TCq1    C8   76   2.742   2.489  11.403  0.0800  0.3730  0.0422
    5TCq1    O4   77   2.813   2.390  11.368  0.6806  0.5282  0.2445
    5TCq1    C9   78   2.549   2.701  11.783  0.0396  0.0836  0.4729
    5TCq1    O5   79   2.453   2.737  11.714 -0.4226  0.1453 -0.1018
    5TCq1    O6   80   2.583   2.753  11.893 -0.3927 -1.0540 -0.2507
    5TCq1    H1   81   3.062   2.427  11.676 -1.7761 -0.2165  0.2992
    5TCq1    H2   82   2.775   2.627  11.890  1.0489 -0.9168 -0.3461
    5TCq1    H3   83   2.559   2.628  11.530  0.5858  0.8457  0.4936
    5TCq1    H4   84   2.883   2.357  11.578 -0.0208  1.3406 -3.5343
    6MPD2     C   85   2.609   2.708  11.134 -0.4919 -0.2136 -0.0921
    6MPD2    C1   86   2.668   2.595  11.193  0.4726 -0.4525  0.0806
    6MPD2    C2   87   2.699   2.487  11.117 -0.0996  0.6720  0.4493
    6MPD2    C3   88   2.672   2.487  10.984  0.2470  0.2603  0.3908
    6MPD2    C4   89   2.626   2.599  10.924 -0.4111 -0.8797  0.3410
    6MPD2    C5   90   2.587   2.707  11.000  0.1746 -0.0301  0.2217
    6MPD2     H   91   2.739   2.399  11.166 -1.7932 -0.3842 -0.0490
    6MPD2    H1   92   2.605   2.604  10.817 -0.2334 -1.0123  0.3010
    6MPD2    H2   93   2.584   2.796  11.193  1.8793 -0.1523  0.8396
    6MPD2    H3   94   2.546   2.793  10.949  0.5751  1.0868  1.7841
    6MPD2     N   95   2.709   2.374  10.908 -0.8926 -0.7642 -0.4449
    6MPD2    H5   96   2.765   2.303  10.953  0.4605 -0.0331 -0.9867
    6MPD2    N1   97   2.686   2.592  11.333 -0.5864 -0.4021 -0.2013
    6MPD2    H7   98   2.667   2.675  11.388 -0.0915 -0.1579 -0.3916
    7TCq1    O1   99   4.311   2.172  13.228  0.1122 -0.5817 -0.2288
    7TCq1    C1  100   4.252   2.235  13.331  0.0135 -1.2581 -0.0136
    7TCq1    O2  101   4.140   2.208  13.381 -0.5398  0.4328  0.3834
    7TCq1    C2  102   4.333   2.347  13.374 -0.0767 -0.3734 -0.4146
    7TCq1    C3  103   4.429   2.411  13.293  0.0931  0.6196  0.4681
    7TCq1    C4  104   4.510   2.497  13.352  0.0854 -0.2198 -0.2996
    7TCq1    C5  105   4.514   2.519  13.486  0.0167  0.4094 -0.3661
    7TCq1    C6  106   4.415   2.457  13.560  0.4334 -1.0012 -0.9752
    7TCq1    C7  107   4.326   2.374  13.503 -0.0324  0.7084  0.5896
    7TCq1    C8  108   4.432   2.451  13.704  0.3792 -0.0662  0.5978
    7TCq1    O4  109   4.350   2.375  13.762  0.5053  0.0333  0.2179
    7TCq1    C9  110   4.592   2.574  13.263 -0.3298  0.8083  0.1895
    7TCq1    O5  111   4.609   2.534  13.142  0.1864  0.0360 -0.2156
    7TCq1    O6  112   4.661   2.662  13.319 -0.3843 -0.6833 -0.3269
    7TCq1    H1  113   4.406   2.184  13.211 -0.7351 -1.0097 -5.2995
    7TCq1    H2  114   4.418   2.405  13.185  3.7299  2.8705 -0.0027
    7TCq1    H3  115   4.585   2.579  13.542 -1.5983 -0.6381  2.8367
    7TCq1    H4  116   4.252   2.318  13.559 -0.7633  0.5060 -0.5806
    8MPD2     C  117   4.669   2.514  14.158 -0.0320 -0.3974 -0.3301
    8MPD2    C1  118   4.623   2.396  14.097  0.0386 -0.0172  0.6654
    8MPD2    C2  119   4.551   2.405  13.974  0.0071  0.0899  0.9966
    8MPD2    C3  120   4.555   2.527  13.905 -0.3885 -0.1768 -0.2236
    8MPD2    C4  121   4.607   2.645  13.964 -1.0775  0.0982  0.2800
    8MPD2    C5  122   4.662   2.637  14.094 -0.3682 -0.8731  0.2910
    8MPD2     H  123   4.516   2.313  13.929 -0.5027  0.4406  0.6760
    8MPD2    H1  124   4.603   2.741  13.914 -1.2296 -0.6487 -1.1528
    8MPD2    H2  125   4.723   2.510  14.251 -0.0925  0.0164 -0.2761
    8MPD2    H3  126   4.704   2.730  14.131 -0.0020 -0.5232 -0.9854
    8MPD2     N  127   4.511   2.542  13.769 -0.2740  0.1052  0.7079
    8MPD2    H5  128   4.544   2.623  13.718  1.4539 -0.3846  1.0595
    8MPD2    N1  129   4.656   2.276  14.163  0.1840  0.3078 -0.0908
    8MPD2    H7  130   4.728   2.281  14.235 -0.4463  1.0358  0.4763
    9TMC1    C1  131   2.200   1.426  11.641  0.5687  0.0052 -0.0084
    9TMC1    C2  132   2.144   1.302  11.637 -0.1087  0.2443  0.1724
    9TMC1    C3  133   2.160   1.222  11.526 -0.4808  0.1553 -0.0952
    9TMC1    C4  134   2.286   1.468  11.535  0.1815 -0.0144 -0.1370
    9TMC1    C5  135   2.295   1.386  11.425  0.6585  0.4794 -0.1012
    9TMC1    C6  136   2.234   1.267  11.416  0.3464 -0.2539  0.3304
    9TMC1     C  137   2.245   1.479  11.770 -0.3581  0.5632  0.0951
    9TMC1     O  138   2.286   1.593  11.769  0.1804 -0.1059  0.3927
    9TMC1     H  139   2.091   1.259  11.721  0.6842  1.6849  1.4220
    9TMC1    H1  140   2.338   1.563  11.534  0.0327  0.0819  1.2395
    9TMC1    H2  141   2.252   1.196  11.336 -1.8454  0.0202 -0.3794
    9TMC1    C7  142   2.331   1.465  11.306 -0.4758  0.1399 -0.3900
    9TMC1    C8  143   2.079   1.098  11.531 -0.7506 -0.1335  0.6267
    9TMC1    O1  144   2.250   1.548  11.267  0.1999  0.2464 -0.1472
    9TMC1    O2  145   2.020   1.069  11.634  0.2607 -0.5697  0.4447
    9TMC1    O3  146   2.381   1.374  11.218  0.0138 -0.1756  0.4285
    9TMC1    H3  147   2.451   1.322  11.262 -0.0381 -0.2500  0.4226
    9TMC1    O5  148   2.030   1.061  11.415 -0.3564 -0.2263  0.1351
    9TMC1    H5  149   2.067   1.099  11.332  1.0557 -1.1034  0.3589
   10MPD2     C  150   2.391   1.510  12.017  0.1433  0.2852 -0.0722
   10MPD2    C1  151   2.285   1.424  12.007  0.2678 -0.9524  0.3520
   10MPD2    C2  152   2.230   1.365  12.120 -0.5275 -0.4671 -0.2578
   10MPD2    C3  153   2.285   1.391  12.245 -0.1125  0.1346  0.4653
   10MPD2    C4  154   2.398   1.474  12.251  1.3183  0.0946 -0.3919
   10MPD2    C5  155   2.447   1.533  12.143 -0.5137 -0.1440  0.0965
   10MPD2     H  156   2.132   1.320  12.113 -0.7338  0.1062 -0.9652
   10MPD2    H1  157   2.450   1.489  12.344  2.2609 -2.4010 -0.5397
   10MPD2    H2  158   2.438   1.567  11.938 -0.4236  1.8853  0.7406
   10MPD2    H3  159   2.531   1.602  12.147  1.4029 -2.5620  1.3704
   10MPD2     N  160   2.233   1.338  12.367 -0.0768 -0.2522 -0.1754
   10MPD2    H5  161   2.275   1.372  12.453 -0.6759  0.9257 -0.3472
   10MPD2    N1  162   2.224   1.397  11.882  0.0898 -0.0038  0.0422
   10MPD2    H7  163   2.170   1.311  11.878 -0.8443  0.5172  1.4955
   11TCq1    O1  164   2.431   1.388  14.678  0.4708 -0.3281  0.1831
   11TCq1    C1  165   2.492   1.288  14.751  0.2512  0.5578 -0.2586
   11TCq1    O2  166   2.595   1.299  14.822  0.3385  0.1888  0.9887
   11TCq1    C2  167   2.418   1.169  14.744  0.0948 -0.6257 -0.6179
   11TCq1    C3  168   2.294   1.146  14.685 -0.3589  0.3125  0.0837
   11TCq1    C4  169   2.233   1.024  14.694  0.2265  0.4047 -0.2101
   11TCq1    C5  170   2.296   0.920  14.751 -0.2702 -0.0714 -0.4034
   11TCq1    C6  171   2.423   0.946  14.796  0.0072  0.6273  0.3278
   11TCq1    C7  172   2.485   1.066  14.796  0.0327 -0.1620 -0.1362
   11TCq1    C8  173   2.505   0.833  14.824  0.6163  0.3884  0.3468
   11TCq1    O4  174   2.590   0.866  14.905 -0.5396  0.0454  0.0372
   11TCq1    C9  175   2.095   1.007  14.656 -0.6372 -0.5636 -0.0491
   11TCq1    O5  176   2.051   1.098  14.577 -0.3872 -0.0080 -0.2713
   11TCq1    O6  177   2.026   0.924  14.717 -0.6338 -0.0101  0.1824
   11TCq1    H1  178   2.362   1.346  14.623  0.6655 -1.6855  0.9838
   11TCq1    H2  179   2.236   1.220  14.633 -0.0920 -0.3685 -1.1824
   11TCq1    H3  180   2.242   0.828  14.769 -0.5417  0.1017 -0.3446
   11TCq1    H4  181   2.586   1.085  14.831  0.9511 -1.4133 -2.0839
   12MPD2     C  182   2.627   0.578  14.875  0.1604 -0.7800  0.2308
   12MPD2    C1  183   2.558   0.603  14.760  0.2312  0.2365 -0.1846
   12MPD2    C2  184   2.562   0.516  14.655 -0.2407 -0.9308 -0.6887
   12MPD2    C3  185   2.646   0.409  14.665  0.4946  0.4404  0.7096
   12MPD2    C4  186   2.708   0.382  14.786 -0.1741  0.1712  0.4230
   12MPD2    C5  187   2.708   0.468  14.891 -1.0816  0.0115  0.3775
   12MPD2     H  188   2.499   0.537  14.569 -0.0826 -0.8948 -0.7971
   12MPD2    H1  189   2.777   0.300  14.799 -1.0051 -0.5766  0.1342
   12MPD2    H2  190   2.628   0.643  14.962 -0.7305  0.7311 -0.8777
   12MPD2    H3  191   2.763   0.437  14.979  1.2508 -0.4981 -1.2302
   12MPD2     N  192   2.660   0.315  14.556  0.1017  0.0859 -0.4566
   12MPD2    H5  193   2.700   0.224  14.579  0.5136 -0.1801 -2.2312
   12MPD2    N1  194   2.487   0.726  14.737  0.7061 -0.1031 -0.5100
   12MPD2    H7  195   2.430   0.736  14.653  0.4661  1.9756 -0.0882
   13TCq1    O1  196   2.918   0.768  11.221 -0.0261  0.2678 -0.2998
   13TCq1    C1  197   2.833   0.747  11.318  0.4054 -0.2454 -0.3002
   13TCq1    O2  198   2.870   0.725  11.434 -0.1086  0.0940 -0.0187
   13TCq1    C2  199   2.722   0.838  11.287 -0.4696 -0.5364 -0.2168
   13TCq1    C3  200   2.745   0.971  11.271  0.0953  0.0818  0.2716
   13TCq1    C4  201   2.640   1.055  11.296 -0.1496 -0.1462  0.3263
   13TCq1    C5  202   2.515   1.010  11.319 -0.5648  0.0006  0.5737
   13TCq1    C6  203   2.498   0.881  11.332  0.8667  0.3081  0.3486
   13TCq1    C7  204   2.602   0.795  11.323  0.0241  0.3938  0.2952
   13TCq1    C8  205   2.362   0.836  11.363 -0.0540  0.1916 -0.2452
   13TCq1    O4  206   2.267   0.910  11.339  0.3096 -0.2865 -0.0131
   13TCq1    C9  207   2.676   1.202  11.318 -0.5211  0.4154  0.2529
   13TCq1    O5  208   2.575   1.271  11.344 -0.0377  0.5558  0.3599
   13TCq1    O6  209   2.795   1.236  11.348 -0.3713 -0.3278 -0.2054
   13TCq1    H1  210   2.867   0.802  11.144  0.4124 -1.4206 -1.3337
   13TCq1    H2  211   2.845   1.008  11.248 -0.4512  1.8661  0.7297
   13TCq1    H3  212   2.440   1.086  11.341  0.6192  1.0565  0.9311
   13TCq1    H4  213   2.583   0.690  11.345 -3.5055  0.9739  0.1032
   14MPD2     C  214   2.232   0.533  11.536  0.1388  0.2654  0.5343
   14MPD2    C1  215   2.237   0.668  11.499 -0.1317  0.4933  0.2278
   14MPD2    C2  216   2.139   0.746  11.554  0.2773  0.2085  0.2719
   14MPD2    C3  217   2.033   0.701  11.626 -0.1561  0.2830 -0.5058
   14MPD2    C4  218   2.039   0.567  11.662 -0.3828 -0.3614 -0.5337
   14MPD2    C5  219   2.135   0.483  11.611  0.1073  0.0928 -0.1500
   14MPD2     H  220   2.145   0.852  11.528 -1.7796  0.3383  0.3633
   14MPD2    H1  221   1.968   0.523  11.732  0.1641 -0.4148 -0.0203
   14MPD2    H2  222   2.305   0.464  11.494 -0.1330  0.4858 -0.2947
   14MPD2    H3  223   2.140   0.376  11.631  0.4722  0.1563  0.1061
   14MPD2     N  224   1.939   0.792  11.677 -0.5927 -0.0595  0.2822
   14MPD2    H5  225   1.946   0.892  11.660  0.4534 -0.1839  0.0193
   14MPD2    N1  226   2.343   0.706  11.410 -0.1560  0.0520  0.9932
   14MPD2    H7  227   2.416   0.636  11.406  1.9216  2.3858 -1.9519
   15TCq1    O1  228   4.486   0.135   2.608 -0.0556 -0.0780 -0.2966
   15TCq1    C1  229   4.568   0.081   2.703  0.3515  0.6954 -0.1962
   15TCq1    O2  230   4.566   0.113   2.824 -0.2253 -0.3681  0.1369
   15TCq1    C2  231   4.597   4.683   2.661  0.1199  0.1622  0.2727
   15TCq1    C3  232   4.605   4.593   2.762  0.7848  0.7709 -0.0013
   15TCq1    C4  233   4.652   4.468   2.725 -0.1423  0.2800 -1.2292
   15TCq1    C5  234   4.697   4.441   2.598  0.1617 -0.2102  0.7669
   15TCq1    C6  235   4.688   4.540   2.503  0.3582  0.1676 -0.2228
   15TCq1    C7  236   4.636   4.663   2.534  0.1918  0.3245  0.6153
   15TCq1    C8  237   0.008   4.518   2.368  0.8315  0.3781 -0.9944
   15TCq1    O4  238   0.108   4.447   2.360  0.0793  0.2577 -0.2787
   15TCq1    C9  239   4.640   4.365   2.827 -0.1412  0.5891  0.0807
   15TCq1    O5  240   4.640   4.249   2.782 -0.4322  0.1066  0.7976
   15TCq1    O6  241   4.568   4.398   2.923  0.7498  0.5406 -0.2281
   15TCq1    H1  242   4.476   0.067   2.539  2.2232 -0.2731 -0.4112
   15TCq1    H2  243   4.579   4.611   2.866  1.2951 -1.5315  0.5071
   15TCq1    H3  244   0.006   4.345   2.570  0.6769 -0.4480  2.3840
   15TCq1    H4  245   4.641   0.008   2.459 -1.4514  1.0555  1.2667
   16MPD2     C  246   4.599   4.628   2.051 -0.2557  0.7125 -0.1214
   16MPD2    C1  247   4.692   4.567   2.129  0.3794  1.0857 -0.0813
   16MPD2    C2  248   0.070   4.509   2.075  0.3331 -0.2486 -1.3925
   16MPD2    C3  249   0.084   4.504   1.937  0.0341  0.0858  0.4054
   16MPD2    C4  250   4.716   4.559   1.860  0.0970  0.3473 -0.4812
   16MPD2    C5  251   4.608   4.622   1.915  0.4475  0.3991  0.0424
   16MPD2     H  252   0.162   4.482   2.127 -0.0921 -0.0365 -0.5357
   16MPD2    H1  253   4.703   4.550   1.753  0.3030  1.3771 -0.5965
   16MPD2    H2  254   4.520   4.693   2.087  0.7736  1.5810  0.5595
   16MPD2    H3  255   4.523   4.663   1.861 -0.2423 -0.8266  0.1793
   16MPD2     N  256   0.194   4.440   1.883  0.2207  0.1481  0.5150
   16MPD2    H5  257   0.259   4.393   1.945  0.9101  2.3999  1.5136
   16MPD2    N1  258   4.671   4.578   2.269  0.5382 -0.0670  0.7393
   16MPD2    H7  259   4.592   4.632   2.304  1.9636  3.0919 -0.9429
   17TMC1    C1  260   2.333   0.666  11.999 -0.0542  0.1844 -0.2711
   17TMC1    C2  261   2.299   0.749  11.893 -0.6591  0.1935  0.8508
   17TMC1    C3  262   2.277   0.878  11.925  0.2618  0.2541 -0.0162
   17TMC1    C4  263   2.358   0.711  12.121 -0.6274  0.2858 -0.1557
   17TMC1    C5  264   2.356   0.843  12.145 -0.3650  0.6768  0.0952
   17TMC1    C6  265   2.298   0.924  12.052  0.3502  0.2531 -1.0815
   17TMC1     C  266   2.366   0.520  11.973  0.1625 -0.2151  0.4338
   17TMC1     O  267   2.326   0.438  12.057 -0.3853  0.0043  0.0968
   17TMC1     H  268   2.276   0.701  11.799  1.0115 -0.5724  0.8438
   17TMC1    H1  269   2.403   0.652  12.201 -2.8102  1.8557  2.2242
   17TMC1    H2  270   2.267   1.020  12.091 -0.6427 -0.8174  0.7728
   17TMC1    C7  271   2.362   0.878  12.287  0.4698 -0.0774  0.7003
   17TMC1    C8  272   2.264   0.972  11.819  0.5514  0.7178 -0.2384
   17TMC1    O1  273   2.325   0.791  12.370 -0.2454  0.0059 -0.3152
   17TMC1    O2  274   2.353   0.986  11.741 -0.0117 -0.1685  0.3352
   17TMC1    O3  275   2.348   1.010  12.303  0.3501 -0.0075 -0.0129
   17TMC1    H3  276   2.382   1.043  12.217 -1.9253  0.5101 -0.7148
   17TMC1    O5  277   2.212   1.079  11.873 -0.2751 -0.3498 -0.0867
   17TMC1    H5  278   2.134   1.064  11.931 -2.3104  1.7742 -2.2565
   18MPD2     C  279   2.379   0.255  11.843  0.1441 -0.5568 -0.0210
   18MPD2    C1  280   2.421   0.372  11.783 -0.4196 -0.0015 -0.5419
   18MPD2    C2  281   2.484   0.366  11.655  0.6800 -0.0643 -0.1701
   18MPD2    C3  282   2.483   0.250  11.584 -0.0352 -0.0137 -0.3855
   18MPD2    C4  283   2.425   0.136  11.643 -0.1035 -0.6062  0.2983
   18MPD2    C5  284   2.382   0.144  11.772  0.2495  0.1532 -0.4707
   18MPD2     H  285   2.541   0.455  11.629  1.3090 -0.0046  1.4021
   18MPD2    H1  286   2.429   0.046  11.582 -0.3406 -0.8246  0.6044
   18MPD2    H2  287   2.346   0.248  11.946 -2.3109  0.9463 -0.7109
   18MPD2    H3  288   2.351   0.059  11.832 -0.7314  0.7552 -0.1383
   18MPD2     N  289   2.538   0.233  11.452 -0.7128 -0.8509 -0.6554
   18MPD2    H5  290   2.535   0.139  11.413 -0.5281 -1.1427  0.0297
   18MPD2    N1  291   2.414   0.498  11.849 -0.5586 -0.2851 -0.0067
   18MPD2    H7  292   2.431   0.587  11.802  1.6846  0.2099  1.7577
   19TMC2    C1  293   4.021   0.892  14.279 -0.1702  0.2868  0.0422
   19TMC2    C2  294   3.954   1.012  14.299 -1.0042  0.6211 -0.0679
   19TMC2    C3  295   3.854   1.013  14.388  0.0601 -0.1636 -0.0101
   19TMC2    C4  296   3.986   0.774  14.340 -0.6395 -0.3201  0.1730
   19TMC2    C5  297   3.874   0.777  14.413  0.0602 -0.3026  0.4419
   19TMC2    C6  298   3.805   0.893  14.438  0.1821  0.1866  0.2393
   19TMC2     C  299   4.141   0.900  14.200  0.2574 -0.3568 -0.0716
   19TMC2     O  300   4.151   0.991  14.124  0.0844 -0.0624  0.8025
   19TMC2     H  301   3.992   1.102  14.253  2.7157 -1.2401 -0.6012
   19TMC2    H1  302   4.027   0.683  14.299 -0.6674  0.3096 -1.2693
   19TMC2    H2  303   3.727   0.898  14.513 -0.5158  0.2927 -0.4983
   19TMC2    C7  304   3.804   0.650  14.425 -0.1821  0.6684  0.1370
   19TMC2    C8  305   3.808   1.142  14.426 -0.9477  0.3178 -0.1002
   19TMC2    O1  306   3.858   0.553  14.385  0.0183 -0.5376  0.0396
   19TMC2    O2  307   3.703   1.155  14.481 -0.4552 -0.4520 -0.1854
   19TMC2    O5  308   3.921   1.201  14.471  0.3423  0.1013 -0.0333
   19TMC2    H5  309   4.005   1.150  14.466  0.0513 -0.6904  2.7868
   20MPD2     C  310   4.397   0.827  14.049  0.6682 -0.7985  1.2221
   20MPD2    C1  311   4.359   0.778  14.170  0.4520  0.5054 -0.1069
   20MPD2    C2  312   4.462   0.716  14.241  0.5710  0.7446  0.2753
   20MPD2    C3  313   4.596   0.709  14.195  0.8441  0.7993 -0.5905
   20MPD2    C4  314   4.627   0.777  14.078  0.1324  0.2309  0.0316
   20MPD2    C5  315   4.526   0.841  14.008 -0.1072  0.7988 -0.5587
   20MPD2     H  316   4.441   0.673  14.338 -0.2401 -0.8520 -0.6129
   20MPD2    H1  317   4.726   0.768  14.033 -0.0549 -0.7716 -0.1642
   20MPD2    H2  318   4.322   0.861  13.979  0.7599  1.9401  2.4552
   20MPD2    H3  319   4.545   0.873  13.907  0.7896  1.0901 -0.3036
   20MPD2     N  320   4.703   0.648  14.258  0.1705  0.2573  0.0523
   20MPD2    H5  321   0.063   0.654  14.220  0.6011  0.4633  1.1512
   20MPD2    N1  322   4.230   0.796  14.232  0.0397  0.1956  0.3405
   20MPD2    H7  323   4.219   0.749  14.321  1.1698 -0.2012  0.2734
   21TMC2    C1  324   1.500   1.103  14.110  0.4111  0.3684 -0.2381
   21TMC2    C2  325   1.593   1.001  14.121  0.3879 -0.2030  0.0958
   21TMC2    C3  326   1.565   0.904  14.210  0.2896  0.4905 -0.0920
   21TMC2    C4  327   1.376   1.081  14.161  0.4381  0.6341  0.2223
   21TMC2    C5  328   1.356   0.983  14.250 -0.4966 -0.0274 -0.4116
   21TMC2    C6  329   1.448   0.895  14.285 -0.0253 -0.1134  0.0972
   21TMC2     C  330   1.515   1.201  14.005 -0.1246 -0.8208  0.2091
   21TMC2     O  331   1.539   1.161  13.892  0.7801  0.4364 -0.3632
   21TMC2     H  332   1.689   0.993  14.072 -0.5445 -1.4611 -1.5226
   21TMC2    H1  333   1.288   1.140  14.139 -0.1818 -0.3671  0.0565
   21TMC2    H2  334   1.437   0.826  14.368  2.2453 -1.7574 -0.9863
   21TMC2    C7  335   1.236   0.987  14.334  0.0635  0.1023 -0.3707
   21TMC2    C8  336   1.659   0.801  14.231  0.2715  0.2896 -0.4385
   21TMC2    O1  337   1.213   0.891  14.405  0.5527  0.1225  0.1370
   21TMC2    O2  338   1.737   0.767  14.141  0.3716  0.3487 -0.0221
   21TMC2    O5  339   1.664   0.759  14.365 -0.3249  0.4753  0.3782
   21TMC2    H5  340   1.599   0.801  14.426  0.9081  1.4747  1.0114
   22MPD2     C  341   1.456   1.515  14.409 -0.1674  1.1191  0.0128
   22MPD2    C1  342   1.527   1.396  14.394  0.1133 -0.2676 -0.5202
   22MPD2    C2  343   1.529   1.338  14.273 -0.2578 -0.5145  0.0690
   22MPD2    C3  344   1.453   1.384  14.165  0.3549  0.2402 -0.1260
   22MPD2    C4  345   1.386   1.506  14.185 -0.0419 -0.3722 -0.3603
   22MPD2    C5  346   1.387   1.570  14.302  0.9194  0.0549  0.3778
   22MPD2     H  347   1.601   1.259  14.253 -1.0626 -2.0433  3.1701
   22MPD2    H1  348   1.336   1.553  14.101 -1.1186 -1.0333 -0.0940
   22MPD2    H2  349   1.455   1.571  14.502  2.8273  1.1281  0.0507
   22MPD2    H3  350   1.324   1.656  14.319  0.7385 -0.1108  0.5498
   22MPD2     N  351   1.454   1.324  14.039  0.0504  0.7741 -0.9741
   22MPD2    H5  352   1.402   1.371  13.965 -0.7431  1.8169  0.2503
   22MPD2    N1  353   1.591   1.340  14.504 -0.5396 -0.1824 -0.0590
   22MPD2    H7  354   1.648   1.256  14.497  1.1652  0.9171  0.5265
   23TMC2    C1  355   2.924   2.038  14.676  0.1469  0.8044  0.5767
   23TMC2    C2  356   2.884   2.159  14.622 -0.0595  0.4313 -0.0140
   23TMC2    C3  357   2.780   2.155  14.536  0.8155 -0.1131  0.2346
   23TMC2    C4  358   2.854   1.919  14.645 -0.0527 -0.6089 -0.1784
   23TMC2    C5  359   2.756   1.920  14.552 -0.0883 -0.1855 -0.0873
   23TMC2    C6  360   2.711   2.040  14.502 -0.5720 -0.6038 -0.5589
   23TMC2     C  361   3.022   2.041  14.783  0.1552  0.5941  0.4456
   23TMC2     O  362   3.028   1.947  14.863  0.6020 -0.2793 -0.1560
   23TMC2     H  363   2.919   2.250  14.669  0.2895  0.6767 -0.7519
   23TMC2    H1  364   2.882   1.824  14.688 -0.3223 -1.8917 -2.8187
   23TMC2    H2  365   2.618   2.046  14.446 -1.4149 -0.6151  0.8187
   23TMC2    C7  366   2.670   1.800  14.536  0.6339  0.7320 -0.4114
   23TMC2    C8  367   2.725   2.275  14.479  0.1612  0.6592  0.2333
   23TMC2    O1  368   2.724   1.692  14.520  0.1959 -0.1801 -0.0105
   23TMC2    O2  369   2.607   2.284  14.444 -0.6421 -0.1778  0.0995
   23TMC2    O5  370   2.820   2.374  14.475  0.4764  0.1956  0.3604
   23TMC2    H5  371   2.912   2.343  14.487  0.0684 -1.2144 -0.2230
   24MPD2     C  372   3.395   2.296  15.011 -0.0965 -0.9698  0.2274
   24MPD2    C1  373   3.342   2.176  15.046 -0.4820 -0.4164  0.5116
   24MPD2    C2  374   3.254   2.118  14.956 -0.0056 -0.0746 -0.5229
   24MPD2    C3  375   3.211   2.186  14.843  0.4570 -0.2374 -0.7537
   24MPD2    C4  376   3.265   2.310  14.817 -0.4584 -0.0828 -0.2501
   24MPD2    C5  377   3.355   2.366  14.900 -0.0745  0.4625 -0.1009
   24MPD2     H  378   3.210   2.020  14.974  3.1673 -1.2176  0.9186
   24MPD2    H1  379   3.235   2.370  14.731 -0.6139  0.7295  0.3711
   24MPD2    H2  380   3.460   2.356  15.074 -2.9193  1.7420  0.5937
   24MPD2    H3  381   3.407   2.453  14.863  1.5738  0.2473  1.7597
   24MPD2     N  382   3.111   2.145  14.753  0.2041  0.0743  0.3590
   24MPD2    H5  383   3.091   2.189  14.664  2.7715 -0.9462 -0.7566
   24MPD2    N1  384   3.377   2.107  15.167 -0.0223 -0.0322 -0.1602
   24MPD2    H7  385   3.325   2.022  15.188 -1.1133  1.0066  1.3661
   25TMC2    C1  386   2.545   3.996  11.846  0.0329  0.2616 -0.2416
   25TMC2    C2  387   2.660   4.031  11.913  0.6710 -0.0650 -0.3861
   25TMC2    C3  388   2.650   4.102  12.028 -0.1799  0.1001  0.8883
   25TMC2    C4  389   2.424   4.032  11.890  0.4793  0.7795 -0.9911
   25TMC2    C5  390   2.416   4.102  12.010  0.3203  0.0536 -0.3134
   25TMC2    C6  391   2.530   4.138  12.079  0.3668  0.3044  0.9173
   25TMC2     C  392   2.561   3.936  11.715  0.1472 -0.5004 -0.3938
   25TMC2     O  393   2.672   3.890  11.693  0.2402  0.0560 -0.5829
   25TMC2     H  394   2.760   3.995  11.890  0.5409 -0.5947 -0.1367
   25TMC2    H1  395   2.340   3.989  11.836  1.2113 -0.9070 -0.7794
   25TMC2    H2  396   2.510   4.190  12.173  1.4592  0.9518  0.7949
   25TMC2    C7  397   2.283   4.143  12.054 -0.5161  0.0126 -0.3060
   25TMC2    C8  398   2.764   4.147  12.104  0.3431 -0.6239  0.2138
   25TMC2    O1  399   2.279   4.194  12.166  0.1283  0.8768 -0.5689
   25TMC2    O2  400   2.753   4.188  12.217  0.1587  0.2482  0.1106
   25TMC2    O5  401   2.864   4.173  12.015  0.0167 -0.2835  0.0806
   25TMC2    H5  402   2.856   4.156  11.919 -1.6571 -0.9373  0.3394
   26MPD2     C  403   2.356   3.753  11.276 -0.2973  0.2241 -0.1734
   26MPD2    C1  404   2.262   3.824  11.351 -0.1219 -0.1316  0.3255
   26MPD2    C2  405   2.297   3.894  11.468 -0.1244  0.2318  0.1693
   26MPD2    C3  406   2.429   3.884  11.514 -0.4335  0.1173 -0.1050
   26MPD2    C4  407   2.514   3.803  11.451 -0.3958 -0.3142  0.3020
   26MPD2    C5  408   2.481   3.747  11.326  0.1465  0.1836  0.2027
   26MPD2     H  409   2.228   3.961  11.517 -0.1864  1.4638 -1.5860
   26MPD2    H1  410   2.614   3.796  11.490  0.1868 -0.9154 -1.2959
   26MPD2    H2  411   2.329   3.716  11.178 -0.5942 -1.6588  0.6154
   26MPD2    H3  412   2.558   3.693  11.272  0.9104  1.2439  0.2465
   26MPD2     N  413   2.453   3.945  11.637  0.7374  0.0125  0.2828
   26MPD2    H5  414   2.385   4.007  11.681 -0.0734  0.2035 -1.2593
   26MPD2    N1  415   2.131   3.821  11.299 -0.3503  0.6146  0.0540
   26MPD2    H7  416   2.119   3.773  11.210 -1.2129 -2.8024  1.9847
   27TMC2    C1  417   0.253   2.059  12.091  0.2828  0.1613 -0.3417
   27TMC2    C2  418   0.289   2.071  11.959 -0.0813 -0.1376 -0.3955
   27TMC2    C3  419   0.376   2.177  11.925  0.3117  0.2257  0.7206
   27TMC2    C4  420   0.310   2.142  12.184 -0.7426 -0.2623  0.3816
   27TMC2    C5  421   0.415   2.223  12.151 -0.4730  0.0034  0.0050
   27TMC2    C6  422   0.434   2.259  12.020  0.5557 -0.1675  0.8429
   27TMC2     C  423   0.243   1.920  12.143  0.3018 -0.5539 -0.4295
   27TMC2     O  424   0.304   1.842  12.072  0.3174  0.5775  0.1001
   27TMC2     H  425   0.261   2.000  11.881  1.7455 -0.3629 -0.8441
   27TMC2    H1  426   0.300   2.117  12.289 -0.8491  0.0122  0.4367
   27TMC2    H2  427   0.510   2.334  12.000  0.3352 -0.1566  0.0517
   27TMC2    C7  428   0.490   2.297  12.250 -0.5171 -0.4645  1.3049
   27TMC2    C8  429   0.433   2.176  11.791 -0.4302 -1.2181  0.8483
   27TMC2    O1  430   0.533   2.402  12.211 -0.4830  0.4819 -0.6752
   27TMC2    O2  431   0.405   2.088  11.714 -0.0076  0.8099 -0.4468
   27TMC2    O5  432   0.495   2.291  11.764  0.0339  0.7120  0.2554
   27TMC2    H5  433   0.463   2.364  11.822  1.3793  0.1160  1.7445
   28MPD2     C  434   0.229   1.570  12.497  0.1688 -0.2835 -0.5024
   28MPD2    C1  435   0.169   1.679  12.554  0.2630  0.9225  0.0663
   28MPD2    C2  436   0.158   1.791  12.468  0.0011  0.0508 -0.2801
   28MPD2    C3  437   0.193   1.787  12.337  0.2044 -0.0272 -0.0623
   28MPD2    C4  438   0.244   1.673  12.286  0.6557  0.1533  0.6200
   28MPD2    C5  439   0.260   1.566  12.364  0.7721  0.2634  0.0252
   28MPD2     H  440   0.123   1.886  12.505  1.1076  0.0062  0.9023
   28MPD2    H1  441   0.278   1.655  12.184 -1.8225  0.3480 -0.2460
   28MPD2    H2  442   0.245   1.476  12.549 -1.1282  0.1745  0.7317
   28MPD2    H3  443   0.298   1.471  12.329  0.6389  0.6092 -1.0581
   28MPD2     N  444   0.194   1.906  12.265 -0.1970  0.2090 -0.1221
   28MPD2    H5  445   0.147   1.990  12.298  0.2291 -0.3755  1.9570
   28MPD2    N1  446   0.122   1.674  12.694 -0.0796  0.3255 -0.3733
   28MPD2    H7  447   0.123   1.583  12.739 -0.4418 -0.0188 -1.0535
   29TMC2    C1  448   0.455   4.299  14.619 -0.4131 -0.4619  0.1763
   29TMC2    C2  449   0.488   4.348  14.751 -0.5422  0.4884  0.3517
   29TMC2    C3  450   0.472   4.478  14.778  0.3197  0.3368  0.1059
   29TMC2    C4  451   0.423   4.384  14.515  0.5527 -0.3046  0.6969
   29TMC2    C5  452   0.412   4.517  14.551 -0.0312  0.1541 -0.1532
   29TMC2    C6  453   0.428   4.565  14.679  0.8233  0.0457  0.4486
   29TMC2     C  454   0.418   4.160  14.600  0.1351  0.0075  0.3916
   29TMC2     O  455   0.469   4.077  14.672 -0.9075  0.3538  0.2442
   29TMC2     H  456   0.493   4.273  14.830 -0.9162  0.7675  0.6440
   29TMC2    H1  457   0.420   4.363  14.409  0.9830  0.1744  0.5904
   29TMC2    H2  458   0.403   4.668  14.703  1.2090 -0.2520  2.1687
   29TMC2    C7  459   0.393   4.606  14.438  1.1184 -0.0525  0.1118
   29TMC2    C8  460   0.426   4.501  14.908  0.4976  0.3418  0.0288
   29TMC2    O1  461   0.355   4.551  14.334  0.5816 -0.1888  0.0429
   29TMC2    O2  462   0.344   4.423  14.955 -0.2371 -0.0981 -0.4105
   29TMC2    O5  463   0.453   4.626  14.951  0.2530 -0.1097 -0.2250
   29TMC2    H5  464   0.532   4.657  14.901 -0.6157  3.7726  0.7971
   30MPD2     C  465   0.171   3.790  14.349  0.8400  0.6466  0.1436
   30MPD2    C1  466   0.275   3.775  14.436  0.3482  0.3458 -0.4407
   30MPD2    C2  467   0.331   3.890  14.487 -0.5834 -0.5886 -0.6065
   30MPD2    C3  468   0.279   4.016  14.453 -0.3506 -0.2057 -0.1887
   30MPD2    C4  469   0.176   4.021  14.361  0.1548 -0.2648 -0.4670
   30MPD2    C5  470   0.126   3.909  14.308 -0.3729  0.2153 -0.3433
   30MPD2     H  471   0.419   3.878  14.550  0.2533 -0.1404 -1.6743
   30MPD2    H1  472   0.131   4.114  14.328  0.2188 -0.0860 -0.0509
   30MPD2    H2  473   0.125   3.707  14.296  2.6015 -1.6735  2.2303
   30MPD2    H3  474   0.035   3.910  14.250 -0.9357  0.4241  0.5306
   30MPD2     N  475   0.319   4.141  14.506  0.4859 -0.4762 -0.6995
   30MPD2    H5  476   0.271   4.221  14.467  0.8448 -0.2669 -0.7066
   30MPD2    N1  477   0.325   3.648  14.473 -0.2500  0.4682  0.2502
   30MPD2    H7  478   0.405   3.640  14.535 -0.6443 -1.0272  0.5541
   31TMC2    C1  479   3.260   2.525  15.374  0.8457 -0.0106  0.6155
   31TMC2    C2  480   3.200   2.434  15.296 -0.3259 -0.7125  0.1869
   31TMC2    C3  481   3.160   2.327  15.363 -0.6380 -0.5478  0.3334
   31TMC2    C4  482   3.277   2.514  15.509  0.5368  0.2233  0.4677
   31TMC2    C5  483   3.233   2.396  15.571  0.1280 -0.4856  0.3653
   31TMC2    C6  484   3.170   2.305  15.495 -0.0938  0.7954 -0.1541
   31TMC2     C  485   3.301   2.642  15.291  0.2217  0.0530 -0.9572
   31TMC2     O  486   3.262   2.637  15.176 -0.9168  0.1493  0.3664
   31TMC2     H  487   3.189   2.434  15.188  0.7438  1.4190  0.0653
   31TMC2    H1  488   3.340   2.584  15.564  1.2417  0.6398 -0.8639
   31TMC2    H2  489   3.114   2.223  15.541  1.0600  0.7548  1.1795
   31TMC2    C7  490   3.221   2.381  15.714  0.8796  0.1032  0.6958
   31TMC2    C8  491   3.058   2.258  15.278 -0.0963  0.1563  0.3688
   31TMC2    O1  492   3.198   2.269  15.761 -0.0886  0.6675 -0.6320
   31TMC2    O2  493   3.063   2.148  15.227 -0.0741 -0.0823  0.7575
   31TMC2    O5  494   2.947   2.333  15.291 -0.6519  0.3132  0.5833
   31TMC2    H5  495   2.981   2.413  15.336  1.1538  0.1156 -0.4360
   32MPD2     C  496   3.490   3.113  15.224 -0.2300 -0.1095 -0.2247
   32MPD2    C1  497   3.431   3.024  15.131  0.2322  0.2602  0.2656
   32MPD2    C2  498   3.402   2.899  15.171  0.0295 -0.5536  0.3979
   32MPD2    C3  499   3.417   2.866  15.302 -0.2627  0.2820  0.5248
   32MPD2    C4  500   3.481   2.949  15.388 -0.4294 -0.0885  0.0733
   32MPD2    C5  501   3.522   3.071  15.350  0.8181  0.3140 -0.0313
   32MPD2     H  502   3.362   2.829  15.099 -0.5190 -0.3104  0.4677
   32MPD2    H1  503   3.506   2.915  15.488 -0.3956 -0.8365 -0.1882
   32MPD2    H2  504   3.518   3.215  15.197 -0.4830 -0.1567 -0.6633
   32MPD2    H3  505   3.568   3.140  15.420 -0.1813  2.0494 -1.0639
   32MPD2     N  506   3.371   2.743  15.355 -0.2559 -0.1361 -0.0193
   32MPD2    H5  507   3.371   2.736  15.457 -0.8739  3.2547  0.2226
   32MPD2    N1  508   3.395   3.088  15.009  0.1329 -0.4354 -0.8761
   32MPD2    H7  509   3.414   3.188  15.010 -2.0615 -0.0235 -1.9778
   33TMC2    C1  510   2.741   1.013  10.553  0.0460 -0.6540  0.3777
   33TMC2    C2  511   2.616   1.060  10.564  0.2553 -0.0036  0.0619
   33TMC2    C3  512   2.589   1.174  10.503  0.1637  0.0542  0.0845
   33TMC2    C4  513   2.825   1.059  10.457 -0.4595  0.9857  0.0806
   33TMC2    C5  514   2.797   1.170  10.390  0.4437  0.1489 -0.3854
   33TMC2    C6  515   2.678   1.231  10.421  0.5739  0.0962 -0.2290
   33TMC2     C  516   2.783   0.911  10.642 -0.1836  0.1030  0.7653
   33TMC2     O  517   2.700   0.846  10.699  0.0627 -0.1891 -0.3037
   33TMC2     H  518   2.545   1.009  10.628  0.4968 -1.8527 -1.1445
   33TMC2    H1  519   2.927   1.025  10.446 -1.6524 -1.6328 -2.9635
   33TMC2    H2  520   2.666   1.333  10.386  0.9870 -0.1106 -0.9792
   33TMC2    C7  521   2.888   1.238  10.304 -0.3095 -0.0047  0.4971
   33TMC2    C8  522   2.458   1.231  10.524 -0.1906  0.5582  0.5531
   33TMC2    O1  523   3.005   1.258  10.333 -0.1350 -0.1687 -0.3820
   33TMC2    O2  524   2.367   1.172  10.577 -0.2232  0.6441  0.6776
   33TMC2    O5  525   2.465   1.367  10.510  0.4534 -0.1815 -0.4698
   33TMC2    H5  526   2.554   1.408  10.504  1.1605 -1.6769 -0.2604
   34MPD2     C  527   3.123   0.632  10.897 -0.1415  1.6138  0.6762
   34MPD2    C1  528   2.992   0.610  10.875 -0.1883 -0.0947  0.4700
   34MPD2    C2  529   2.927   0.684  10.786  1.1127 -0.3090 -0.2578
   34MPD2    C3  530   2.985   0.792  10.721 -0.2433 -0.0213  0.9835
   34MPD2    C4  531   3.114   0.808  10.743  0.3333  0.0165  0.2811
   34MPD2    C5  532   3.181   0.728  10.824  0.1142  0.1818  0.5128
   34MPD2     H  533   2.822   0.667  10.765  0.9618 -0.6181  0.7491
   34MPD2    H1  534   3.170   0.890  10.700  0.2281 -0.4155 -0.6950
   34MPD2    H2  535   3.190   0.586  10.969 -1.2963 -2.0951 -0.5815
   34MPD2    H3  536   3.285   0.745  10.848  0.9128 -1.0270 -2.1457
   34MPD2     N  537   2.919   0.895  10.648 -0.5342 -0.4373  0.3600
   34MPD2    H5  538   2.979   0.961  10.601 -0.8837 -0.1490  0.3179
   34MPD2    N1  539   2.932   0.503  10.949 -0.1356 -0.1593  0.0792
   34MPD2    H7  540   2.994   0.446  11.006 -0.2603 -0.6976 -0.3153
   35TMC2    C1  541   3.753   1.789  11.777 -0.4988 -0.9916 -0.6832
   35TMC2    C2  542   3.638   1.837  11.709  0.0382 -0.5261 -0.6733
   35TMC2    C3  543   3.533   1.753  11.714 -0.4889 -0.5210  0.5143
   35TMC2    C4  544   3.753   1.672  11.854 -0.0106 -0.6463  0.5757
   35TMC2    C5  545   3.636   1.600  11.853  0.1886  0.0532  0.7290
   35TMC2    C6  546   3.528   1.639  11.780  0.0439 -0.4574  1.1041
   35TMC2     C  547   3.877   1.854  11.745  0.9144  0.4814  0.3325
   35TMC2     O  548   3.867   1.942  11.657  0.6071 -0.3651 -0.5775
   35TMC2     H  549   3.646   1.918  11.636 -0.3322  0.2587  0.1603
   35TMC2    H1  550   3.843   1.621  11.887 -0.7429 -2.3034  0.0165
   35TMC2    H2  551   3.452   1.569  11.748  0.1607 -0.3843  0.6651
   35TMC2    C7  552   3.621   1.486  11.935  0.0726  0.3024  0.1735
   35TMC2    C8  553   3.433   1.775  11.613  0.1483  0.7943  0.2481
   35TMC2    O1  554   3.546   1.397  11.891 -0.4884  0.3220  0.0040
   35TMC2    O2  555   3.462   1.841  11.511  0.1682 -0.3334 -0.0849
   35TMC2    O5  556   3.318   1.768  11.675  0.0226 -0.1628 -0.1984
   35TMC2    H5  557   3.317   1.698  11.744  2.0026  0.9109  0.9208
   36MPD2     C  558   4.356   1.992  11.850  0.4062 -0.6189  0.0291
   36MPD2    C1  559   4.331   1.879  11.926  0.1272  0.0478 -0.0075
   36MPD2    C2  560   4.209   1.813  11.912 -0.0966 -0.6873  0.3377
   36MPD2    C3  561   4.110   1.857  11.821 -0.5429  0.2869  0.1207
   36MPD2    C4  562   4.143   1.962  11.733 -0.4383  0.0495  0.6540
   36MPD2    C5  563   4.264   2.030  11.759 -0.4099 -0.2628 -0.1164
   36MPD2     H  564   4.190   1.745  11.993  0.8964  1.2740  2.2220
   36MPD2    H1  565   4.071   1.990  11.657 -2.0335  0.4493  2.3123
   36MPD2    H2  566   4.443   2.053  11.873 -0.0425  0.2274 -0.5236
   36MPD2    H3  567   4.286   2.115  11.694  1.6844  0.1090  1.0794
   36MPD2     N  568   3.977   1.811  11.826  0.1257 -0.0350 -0.1872
   36MPD2    H5  569   3.950   1.745  11.898 -1.9323  0.4884 -0.4770
   36MPD2    N1  570   4.435   1.845  12.017  0.3548  0.5343  0.4361
   36MPD2    H7  571   4.509   1.914  12.009  0.2651  0.5296 -0.4377
   37TMC2    C1  572   1.593   2.026  11.985  0.4183  0.5191  0.2307
   37TMC2    C2  573   1.488   2.069  11.905 -0.0658 -0.2824  0.3454
   37TMC2    C3  574   1.499   2.067  11.770  0.0151 -0.5835 -0.4616
   37TMC2    C4  575   1.698   1.969  11.926 -0.2599 -0.2128 -0.3426
   37TMC2    C5  576   1.713   1.980  11.795  0.0929 -0.0364  0.1530
   37TMC2    C6  577   1.620   2.044  11.709  0.6172 -0.2273  0.1726
   37TMC2     C  578   1.566   1.990  12.124 -0.2279  0.4962 -0.3280
   37TMC2     O  579   1.450   2.002  12.157  0.3074  0.5989 -0.2401
   37TMC2     H  580   1.396   2.099  11.955 -0.4980  1.4228 -1.4718
   37TMC2    H1  581   1.779   1.922  11.981 -0.2067 -0.9369 -1.0414
   37TMC2    H2  582   1.636   2.060  11.603  2.3331 -1.4075  0.2464
   37TMC2    C7  583   1.849   1.963  11.750 -0.7848  0.6167  0.5477
   37TMC2    C8  584   1.371   2.086  11.698  0.0525  0.5580  0.2493
   37TMC2    O1  585   1.937   1.976  11.833 -0.1137 -0.0174  0.0374
   37TMC2    O2  586   1.280   2.165  11.723 -0.1873  0.4902  0.0996
   37TMC2    O5  587   1.381   2.014  11.585  0.0920  0.0800  0.5639
   37TMC2    H5  588   1.447   1.944  11.602 -0.6428 -0.4018  1.4468
   38MPD2     C  589   1.685   1.847  12.599  0.4956 -0.2078  0.4336
   38MPD2    C1  590   1.800   1.880  12.533  0.0360 -0.4962  0.1363
   38MPD2    C2  591   1.802   1.910  12.399 -0.2923  0.0015 -0.2272
   38MPD2    C3  592   1.674   1.920  12.339 -0.4452  0.1027  0.0513
   38MPD2    C4  593   1.555   1.888  12.401 -0.0350 -1.4289  0.6567
   38MPD2    C5  594   1.563   1.845  12.532 -0.8155 -0.1106  0.2112
   38MPD2     H  595   1.895   1.937  12.352  0.3777 -0.8145  0.6188
   38MPD2    H1  596   1.456   1.885  12.358  0.3449 -1.6018 -0.1961
   38MPD2    H2  597   1.678   1.817  12.703  0.5429  0.4615  0.6278
   38MPD2    H3  598   1.472   1.823  12.587 -0.0570  1.2160  2.0049
   38MPD2     N  599   1.675   1.969  12.203  0.2636  0.3358 -0.3334
   38MPD2    H5  600   1.765   1.989  12.159  0.6574 -1.9558 -0.5723
   38MPD2    N1  601   1.926   1.892  12.600  0.9109  0.5927  0.0298
   38MPD2    H7  602   2.010   1.882  12.544 -1.0025 -1.3549 -2.4478
   39TMC2    C1  603   0.529   4.391   2.245 -1.0200  0.2927  0.7405
   39TMC2    C2  604   0.451   4.477   2.311 -0.6663 -0.4919  0.1588
   39TMC2    C3  605   0.512   4.585   2.365  0.4878  0.7665 -0.3352
   39TMC2    C4  606   0.662   4.410   2.212 -0.0642 -0.6477  0.1825
   39TMC2    C5  607   0.713   4.529   2.259 -0.0474 -0.1536 -0.1876
   39TMC2    C6  608   0.639   4.618   2.332  0.1103 -0.9523  0.3755
   39TMC2     C  609   0.463   4.301   2.163  0.2525  0.2503 -0.6419
   39TMC2     O  610   0.349   4.328   2.139  0.2017 -0.0097 -0.2910
   39TMC2     H  611   0.344   4.462   2.320 -1.1431  2.1700 -1.0849
   39TMC2    H1  612   0.729   4.345   2.157  0.0936 -0.2683 -0.0754
   39TMC2    H2  613   0.696   4.701   2.373  0.0542 -1.5124  1.5977
   39TMC2    C7  614   0.853   4.559   2.227  0.3102  0.0855  0.8018
   39TMC2    C8  615   0.432   4.668   2.449  0.2719 -0.4935 -0.7696
   39TMC2    O1  616   0.910   4.628   2.308  0.5614  0.2059  0.2291
   39TMC2    O2  617   0.480   0.045   2.472  0.3371 -0.0388  0.6733
   39TMC2    O5  618   0.349   4.594   2.522 -0.1978  0.2409 -0.2816
   39TMC2    H5  619   0.360   4.497   2.506 -0.5975  0.0048  0.9111
   40MPD2     C  620   0.608   3.983   2.022  0.6935  1.0524 -0.0505
   40MPD2    C1  621   0.508   4.079   2.047 -0.5088 -1.0406 -0.0401
   40MPD2    C2  622   0.387   4.069   1.980 -0.4780 -0.3697 -0.3377
   40MPD2    C3  623   0.357   3.956   1.904 -0.3700 -0.6283 -0.2014
   40MPD2    C4  624   0.453   3.857   1.893  0.1538  0.9226  0.2246
   40MPD2    C5  625   0.578   3.878   1.946  0.4690  0.3344 -0.5297
   40MPD2     H  626   0.317   4.152   1.982 -0.2041 -0.1647  0.8563
   40MPD2    H1  627   0.440   3.775   1.824 -1.5889  2.3520 -1.1104
   40MPD2    H2  628   0.693   3.982   2.089  0.1658  2.0291  0.6399
   40MPD2    H3  629   0.653   3.801   1.932 -0.6994 -0.8872 -0.1143
   40MPD2     N  630   0.236   3.936   1.839  0.3960  0.1238  0.1614
   40MPD2    H5  631   0.239   3.886   1.751 -1.3380 -0.9804  0.7215
   40MPD2    N1  632   0.541   4.195   2.123  0.3128  0.3580 -0.3520
   40MPD2    H7  633   0.639   4.198   2.148  0.7410 -1.3022 -1.8330
   41TMC2    C1  634   3.268   2.397  13.868 -0.2570  0.0667  0.5332
   41TMC2    C2  635   3.147   2.343  13.906  0.6236  0.3408  0.0409
   41TMC2    C3  636   3.042   2.355  13.824 -0.2499 -0.2539  0.0342
   41TMC2    C4  637   3.286   2.460  13.743  0.1136  0.1563  0.2245
   41TMC2    C5  638   3.174   2.457  13.662 -0.1279  0.2664 -0.2473
   41TMC2    C6  639   3.056   2.409  13.700 -0.0767  0.2244 -0.4028
   41TMC2     C  640   3.378   2.410  13.965  0.7055  0.0032  0.7760
   41TMC2     O  641   3.458   2.492  13.926  0.3721  0.1679  0.8437
   41TMC2     H  642   3.131   2.302  14.005  0.0501  1.0787  0.2527
   41TMC2    H1  643   3.385   2.489  13.709  0.0733  1.0115  0.8247
   41TMC2    H2  644   2.983   2.387  13.622 -0.4917 -2.2197  0.6540
   41TMC2    C7  645   3.192   2.469  13.520  0.3621 -0.2741  0.2241
   41TMC2    C8  646   2.917   2.277  13.855  0.7306  0.1141  0.9695
   41TMC2    O1  647   3.091   2.489  13.454  0.1239 -0.5327 -0.1867
   41TMC2    O2  648   2.924   2.182  13.926  0.2641  0.1813  0.2936
   41TMC2    O5  649   2.807   2.302  13.774 -0.3831 -0.2113 -0.2681
   41TMC2    H5  650   2.814   2.385  13.723  0.3953 -1.1815 -1.7084
   42MPD2     C  651   3.580   2.408  14.173 -0.9518 -0.3356 -0.6109
   42MPD2    C1  652   3.477   2.317  14.171 -0.1921 -0.8853 -0.2108
   42MPD2    C2  653   3.463   2.238  14.284 -0.2462  0.1445 -0.1532
   42MPD2    C3  654   3.561   2.241  14.380  0.3835 -0.3281  0.2330
   42MPD2    C4  655   3.661   2.334  14.382  0.4178 -0.3994 -0.3256
   42MPD2    C5  656   3.672   2.420  14.273 -0.5490  0.3878  0.0913
   42MPD2     H  657   3.375   2.178  14.302 -1.8409  2.6772  0.5712
   42MPD2    H1  658   3.733   2.338  14.462 -0.2705  0.5112  0.2477
   42MPD2    H2  659   3.614   2.466  14.088  1.6372 -2.5316 -1.0396
   42MPD2    H3  660   3.749   2.496  14.269  1.1893 -1.4792 -2.4555
   42MPD2     N  661   3.561   2.164  14.494 -0.1055  0.4759  0.1634
   42MPD2    H5  662   3.621   2.189  14.572 -0.2499 -1.9199  1.0257
   42MPD2    N1  663   3.386   2.316  14.061 -0.5941  0.7506  0.3183
   42MPD2    H7  664   3.320   2.240  14.073 -1.0681  0.6675 -2.8311
   43TMC2    C1  665   0.520   0.350   1.718  0.3401 -0.0219 -1.2664
   43TMC2    C2  666   0.401   0.402   1.770 -0.1080 -0.6040 -0.7999
   43TMC2    C3  667   0.401   0.456   1.896  0.4288 -0.6439  0.0753
   43TMC2    C4  668   0.631   0.364   1.803 -0.4333  0.0589  0.8260
   43TMC2    C5  669   0.626   0.396   1.936  0.2570  0.2312  0.0430
   43TMC2    C6  670   0.504   0.442   1.985 -0.2878  0.4370 -0.1921
   43TMC2     C  671   0.536   0.280   1.599 -0.0826  0.5186 -0.0444
   43TMC2     O  672   0.647   0.275   1.552  0.1609 -0.1264  0.3480
   43TMC2     H  673   0.312   0.406   1.708  0.8525 -0.7411 -2.1895
   43TMC2    H1  674   0.725   0.335   1.758 -2.0017 -0.3495 -2.1486
   43TMC2    H2  675   0.497   0.480   2.086  0.8882 -0.8165  0.3627
   43TMC2    C7  676   0.736   0.374   2.020 -0.0709  0.0093  0.0121
   43TMC2    C8  677   0.279   0.521   1.953 -0.2084 -0.2651  0.0441
   43TMC2    O1  678   0.844   0.401   1.975 -0.1996  0.1815  0.1239
   43TMC2    O2  679   0.171   0.510   1.899 -0.5633  0.2529 -0.2358
   43TMC2    O5  680   0.321   0.634   2.017 -0.7142  0.2422 -0.1455
   43TMC2    H5  681   0.418   0.637   2.027 -0.7736  1.3314  0.1359
   44MPD2     C  682   0.388   0.033   1.167  0.6121  0.3064 -0.4217
   44MPD2    C1  683   0.510   0.084   1.208  0.5256  0.3843  0.4601
   44MPD2    C2  684   0.523   0.148   1.329  1.2794 -0.1374  0.3982
   44MPD2    C3  685   0.412   0.181   1.407 -0.2629  0.5042 -0.5810
   44MPD2    C4  686   0.289   0.142   1.357  1.2186  0.1439 -0.1344
   44MPD2    C5  687   0.278   0.067   1.246 -0.4406 -0.2688 -0.6333
   44MPD2     H  688   0.621   0.162   1.374  1.8465 -2.5740 -0.0590
   44MPD2    H1  689   0.196   0.167   1.407  1.3416 -1.8053  1.0898
   44MPD2    H2  690   0.369   4.715   1.073  0.9898  2.7174 -1.8524
   44MPD2    H3  691   0.183   0.024   1.218 -0.1612 -1.9923  1.0501
   44MPD2     N  692   0.416   0.252   1.534  0.6716 -0.1272  0.4141
   44MPD2    H5  693   0.330   0.271   1.583 -0.0521 -0.4066 -0.7411
   44MPD2    N1  694   0.630   0.064   1.135 -0.2507 -0.4807 -0.3681
   44MPD2    H7  695   0.715   0.077   1.189 -1.1105 -1.4568  1.2074
   45TMC2    C1  696   0.979   2.788   9.277  0.0871  0.0747 -0.3492
   45TMC2    C2  697   0.895   2.849   9.193 -0.3936 -0.5152  0.3048
   45TMC2    C3  698   0.881   2.982   9.202  0.1067  0.2672 -0.3862
   45TMC2    C4  699   1.048   2.866   9.366 -0.0015  0.5780  0.3633
   45TMC2    C5  700   1.023   3.001   9.380  0.3930 -0.2405  0.0452
   45TMC2    C6  701   0.928   3.061   9.302 -0.2574  1.3209  0.9133
   45TMC2     C  702   1.005   2.647   9.276 -0.5202 -0.6500 -0.5976
   45TMC2     O  703   1.086   2.601   9.357  0.1714  0.3059 -0.1877
   45TMC2     H  704   0.861   2.804   9.100 -0.4943 -2.0618  1.0949
   45TMC2    H1  705   1.118   2.824   9.437  0.0531 -0.1875 -0.1449
   45TMC2    H2  706   0.905   3.167   9.307 -0.2717  1.3256  0.7326
   45TMC2    C7  707   1.094   3.081   9.472  0.9665  0.4022 -0.2958
   45TMC2    C8  708   0.792   3.038   9.104 -0.6054  0.1812 -0.4517
   45TMC2    O1  709   1.141   3.019   9.565  0.2388 -0.1596 -0.1503
   45TMC2    O2  710   0.693   2.986   9.058 -0.3061  0.0582 -0.4112
   45TMC2    O5  711   0.863   3.128   9.031  0.3606  0.2048  0.3900
   45TMC2    H5  712   0.942   3.156   9.082 -1.1024  2.8525  1.1907
   46MPD2     C  713   1.020   2.350   9.233  0.0886 -0.2193 -0.0941
   46MPD2    C1  714   0.928   2.432   9.177 -0.0583  0.5061 -0.7990
   46MPD2    C2  715   0.836   2.373   9.095 -0.0459 -0.7131 -0.3755
   46MPD2    C3  716   0.839   2.241   9.064  0.5214 -0.2697 -0.6768
   46MPD2    C4  717   0.942   2.161   9.110 -0.0055  0.3764 -0.0465
   46MPD2    C5  718   1.026   2.219   9.200 -0.3859 -0.5966 -0.6698
   46MPD2     H  719   0.744   2.425   9.069 -0.6948 -1.1127  1.1061
   46MPD2    H1  720   0.959   2.056   9.092 -2.1512  0.0418 -0.0659
   46MPD2    H2  721   1.096   2.387   9.300 -2.8122  3.2336  1.2781
   46MPD2    H3  722   1.089   2.158   9.264  1.1991  0.7915 -0.8870
   46MPD2     N  723   0.737   2.196   8.982  0.1068 -0.1243  0.1335
   46MPD2    H5  724   0.657   2.255   8.960  0.8271  0.4526 -0.8863
   46MPD2    N1  725   0.924   2.571   9.197 -0.0807  0.2665  0.0137
   46MPD2    H7  726   0.848   2.616   9.147 -0.7341  0.4584  1.1690
   47TMC2    C1  727   2.950   3.422   9.157 -0.1286  0.5598  0.6483
   47TMC2    C2  728   2.957   3.309   9.078  0.1692 -1.1974  0.2516
   47TMC2    C3  729   2.836   3.277   9.018  0.5022 -0.0919 -0.1878
   47TMC2    C4  730   2.848   3.514   9.169 -0.1466  0.2473 -0.3208
   47TMC2    C5  731   2.739   3.485   9.090 -0.6334 -0.1226 -0.2087
   47TMC2    C6  732   2.729   3.366   9.020 -0.7175  0.0223 -0.7304
   47TMC2     C  733   3.079   3.464   9.220  0.2160  0.1984 -0.1891
   47TMC2     O  734   3.090   3.582   9.230 -0.4136  0.0233  0.0561
   47TMC2     H  735   3.048   3.250   9.074 -1.0155 -2.9412 -0.9194
   47TMC2    H1  736   2.856   3.601   9.233 -0.5043  1.0353 -1.3471
   47TMC2    H2  737   2.640   3.346   8.961  0.4553 -0.9616 -2.1530
   47TMC2    C7  738   2.622   3.564   9.107  0.2356 -0.1561  0.3585
   47TMC2    C8  739   2.837   3.189   8.906 -0.2469  0.2086 -0.3109
   47TMC2    O1  740   2.625   3.649   9.192  0.4062 -0.4941  0.4561
   47TMC2    O2  741   2.773   3.082   8.915  0.1457  0.5530 -0.0158
   47TMC2    O5  742   2.955   3.205   8.838 -0.3901  0.3040  0.0350
   47TMC2    H5  743   2.995   3.294   8.840 -1.2404  0.7100 -1.1715
   48MPD2     C  744   3.318   3.506   9.397 -0.1475  0.9284 -0.3921
   48MPD2    C1  745   3.270   3.382   9.365  0.1740  1.0087  0.4405
   48MPD2    C2  746   3.338   3.269   9.406  0.0253 -0.4282  0.4387
   48MPD2    C3  747   3.435   3.279   9.497  0.8356  0.0270  0.0209
   48MPD2    C4  748   3.477   3.402   9.546  0.6474 -0.8017 -0.2616
   48MPD2    C5  749   3.418   3.506   9.488  0.0557  0.0092 -0.0973
   48MPD2     H  750   3.307   3.175   9.362 -1.4983  0.4630 -0.3946
   48MPD2    H1  751   3.556   3.413   9.619 -0.7226 -1.4623  1.3204
   48MPD2    H2  752   3.275   3.598   9.359 -0.0455  0.9882 -0.3627
   48MPD2    H3  753   3.451   3.603   9.522 -0.5001 -0.6007  2.2231
   48MPD2     N  754   3.514   3.157   9.525 -0.7703 -0.2689  0.0640
   48MPD2    H5  755   3.489   3.077   9.468  0.7892 -0.2807 -0.5936
   48MPD2    N1  756   3.156   3.366   9.280  0.6728 -0.1984  0.1521
   48MPD2    H7  757   3.114   3.274   9.272  4.1877 -1.8734  1.0586
   49TMC2    C1  758   2.374   0.436  10.778 -0.2391 -0.4320 -0.3099
   49TMC2    C2  759   2.450   0.513  10.692  0.3082 -0.0979  0.0982
   49TMC2    C3  760   2.392   0.608  10.618  0.3139 -0.5530  0.6185
   49TMC2    C4  761   2.238   0.458  10.793 -0.5535 -0.0612 -0.6394
   49TMC2    C5  762   2.181   0.547  10.710  0.0666  0.2027  0.7326
   49TMC2    C6  763   2.253   0.628  10.624  0.3805  0.7819 -0.8117
   49TMC2     C  764   2.428   0.328  10.850  0.2641 -0.2620 -0.0574
   49TMC2     O  765   2.526   0.277  10.799  0.5483 -0.0076  0.8834
   49TMC2     H  766   2.552   0.488  10.665  0.6329  2.1733 -0.7557
   49TMC2    H1  767   2.181   0.405  10.868  1.0387 -1.8767 -0.7068
   49TMC2    H2  768   2.204   0.698  10.559  1.3010 -0.0790 -2.4346
   49TMC2    C7  769   2.041   0.572  10.718  0.0676 -0.2410 -0.0054
   49TMC2    C8  770   2.449   0.653  10.486 -0.2047 -0.7125  0.1427
   49TMC2    O1  771   1.985   0.629  10.622  0.0186  0.1526 -0.3832
   49TMC2    O2  772   2.519   0.586  10.410  0.4035 -0.0240 -0.4061
   49TMC2    O5  773   2.399   0.774  10.460 -0.2296  0.3694 -0.5501
   49TMC2    H5  774   2.389   0.822  10.545  2.6038 -0.8428  0.4799
   50MPD2     C  775   2.478   0.076  11.012  0.9935  0.3400 -0.0665
   50MPD2    C1  776   2.386   0.178  11.042 -0.5201  0.0786  0.2497
   50MPD2    C2  777   2.314   0.166  11.158 -0.2036  0.2518  0.0513
   50MPD2    C3  778   2.324   0.053  11.243 -0.1192 -1.2625 -0.9494
   50MPD2    C4  779   2.417   4.690  11.202 -0.0971 -0.2097  0.3278
   50MPD2    C5  780   2.494   4.705  11.096 -0.1601 -0.0205  0.3478
   50MPD2     H  781   2.255   0.250  11.192 -0.0285  0.8551 -1.1338
   50MPD2    H1  782   2.419   4.592  11.248  0.7245 -0.1245  0.4613
   50MPD2    H2  783   2.536   0.080  10.921 -1.1553 -0.9265 -1.4979
   50MPD2    H3  784   2.570   4.633  11.070  0.4347  0.9996 -0.7581
   50MPD2     N  785   2.254   0.033  11.362  0.1119 -0.4915 -0.1932
   50MPD2    H5  786   2.278   4.687  11.420  0.0719 -0.0962  0.3730
   50MPD2    N1  787   2.360   0.292  10.963 -0.4464 -0.0173 -0.4394
   50MPD2    H7  788   2.290   0.351  11.006 -0.2881  0.2575 -0.5589
   51TMC2    C1  789   2.382   3.335   2.382  0.2278 -0.1623 -0.0825
   51TMC2    C2  790   2.417   3.238   2.475  0.0039  0.5935 -0.0060
   51TMC2    C3  791   2.550   3.219   2.501  0.1958  0.2161 -0.5011
   51TMC2    C4  792   2.478   3.419   2.330 -0.4252 -0.1873 -0.2550
   51TMC2    C5  793   2.608   3.383   2.354  0.3383 -0.2531 -0.0642
   51TMC2    C6  794   2.651   3.296   2.447  0.1968  0.2737  0.9970
   51TMC2     C  795   2.246   3.350   2.325 -0.1997 -0.0273 -0.0944
   51TMC2     O  796   2.234   3.383   2.209  0.3296  0.2890  0.2284
   51TMC2     H  797   2.347   3.161   2.503  1.5077 -1.5071 -1.9678
   51TMC2    H1  798   2.454   3.495   2.256 -0.0178 -1.2663 -1.4847
   51TMC2    H2  799   2.754   3.271   2.467  0.2061  1.7290  2.7447
   51TMC2    C7  800   2.692   3.426   2.242 -0.0430 -0.2259 -0.8813
   51TMC2    C8  801   2.582   3.123   2.604 -0.1186  0.2537 -0.7006
   51TMC2    O1  802   2.645   3.486   2.143  0.8307 -0.2985 -0.1818
   51TMC2    O2  803   2.697   3.080   2.606  0.0117  0.1265 -0.1110
   51TMC2    O5  804   2.507   3.154   2.715  0.2640  0.2929 -0.0590
   51TMC2    H5  805   2.435   3.215   2.689 -1.2519 -2.3644 -2.1728
   52MPD2     C  806   1.754   3.240   2.314 -0.9951  0.0111 -0.0597
   52MPD2    C1  807   1.832   3.294   2.218 -0.1391  0.0439  0.6674
   52MPD2    C2  808   1.969   3.310   2.245 -0.0226 -0.3984  1.6887
   52MPD2    C3  809   2.014   3.290   2.377  0.2959 -0.7085  0.1445
   52MPD2    C4  810   1.929   3.236   2.470 -0.1965 -0.3641 -0.1767
   52MPD2    C5  811   1.796   3.213   2.441 -0.2494  0.5903 -0.5144
   52MPD2     H  812   2.032   3.361   2.174 -0.0543 -0.6366  1.4900
   52MPD2    H1  813   1.957   3.206   2.570  2.7020  0.8399 -0.6162
   52MPD2    H2  814   1.650   3.228   2.288 -1.0837 -1.0440  0.8357
   52MPD2    H3  815   1.726   3.164   2.507 -1.0220 -0.0427 -1.8075
   52MPD2     N  816   2.148   3.311   2.408 -0.7578  0.1905  1.1369
   52MPD2    H5  817   2.181   3.290   2.502 -0.3671 -1.3937  0.6544
   52MPD2    N1  818   1.781   3.336   2.090  0.3413 -0.1805 -0.1107
   52MPD2    H7  819   1.858   3.381   2.042 -1.5460  1.8542 -1.2108
   53TMC2    C1  820   2.528   1.846  11.700 -0.4308 -0.1382 -0.3668
   53TMC2    C2  821   2.645   1.776  11.719 -0.2949  0.6488  0.0870
   53TMC2    C3  822   2.691   1.771  11.846  0.6375 -0.1905  0.1819
   53TMC2    C4  823   2.466   1.917  11.796 -0.0044 -0.3874 -0.1987
   53TMC2    C5  824   2.510   1.904  11.927 -0.0224  0.1602 -0.0487
   53TMC2    C6  825   2.614   1.828  11.952 -0.0387  0.4001 -0.0159
   53TMC2     C  826   2.457   1.827  11.576  0.8012 -0.2071 -0.1729
   53TMC2     O  827   2.504   1.845  11.464  0.1851 -0.4100  0.3296
   53TMC2     H  828   2.682   1.715  11.638 -0.7711  0.7969 -0.2455
   53TMC2    H1  829   2.387   1.990  11.782  0.4959  0.0244 -0.8281
   53TMC2    H2  830   2.648   1.827  12.055  0.6509 -1.0987 -0.2625
   53TMC2    C7  831   2.430   1.950  12.035  0.4678  1.1946 -0.3715
   53TMC2    C8  832   2.752   1.645  11.887  0.2235 -0.0501 -0.2449
   53TMC2    O1  833   2.314   1.969  12.010  0.4065 -0.6296  0.4191
   53TMC2    O2  834   2.697   1.590  11.985 -0.6468  0.1414  0.1822
   53TMC2    O5  835   2.847   1.599  11.805  0.2634  0.3011  0.4281
   53TMC2    H5  836   2.873   1.654  11.728 -1.0784  2.1452  1.2837
   54MPD2     C  837   2.213   1.854  11.402  0.3852  0.4747 -0.4095
   54MPD2    C1  838   2.213   1.844  11.536 -0.6293 -0.4056 -0.4239
   54MPD2    C2  839   2.099   1.867  11.615 -0.6090 -0.3564  0.0913
   54MPD2    C3  840   1.984   1.906  11.549  0.1097  0.1462 -0.7152
   54MPD2    C4  841   1.982   1.911  11.408  0.3871 -0.4690 -0.1110
   54MPD2    C5  842   2.101   1.888  11.341  0.2420  0.4818 -0.0417
   54MPD2     H  843   2.090   1.859  11.722 -0.2070  0.4314  0.1835
   54MPD2    H1  844   1.890   1.943  11.359  0.4541  1.5757  1.0856
   54MPD2    H2  845   2.294   1.820  11.338  0.5011  1.6292 -0.8768
   54MPD2    H3  846   2.100   1.896  11.232  1.7509 -1.4058 -0.1856
   54MPD2     N  847   1.862   1.934  11.615  0.2103  0.5033 -0.0043
   54MPD2    H5  848   1.780   1.949  11.556  0.4268 -0.3536 -0.5172
   54MPD2    N1  849   2.326   1.816  11.615  0.3098  0.0085 -0.3791
   54MPD2    H7  850   2.313   1.793  11.713 -1.2106 -0.7004 -0.7457
   55TMC2    C1  851   3.582   0.047   0.254 -0.0781 -0.4273  0.3311
   55TMC2    C2  852   3.520   0.007   0.138 -0.1455 -0.4190  0.0210
   55TMC2    C3  853   3.487   4.611   0.123  0.3143  0.4120  0.4624
   55TMC2    C4  854   3.590   4.690   0.355  0.3991 -0.4387  0.3129
   55TMC2    C5  855   3.541   4.565   0.338  0.8159  0.2302  0.1944
   55TMC2    C6  856   3.492   4.523   0.219  0.3350  0.2482  0.1937
   55TMC2     C  857   3.587   0.194   0.279  0.0278 -0.2337  0.4707
   55TMC2     O  858   3.606   0.234   0.395 -0.4042 -0.3157  0.9352
   55TMC2     H  859   3.505   0.077   0.057  1.6171  0.4081  0.4138
   55TMC2    H1  860   3.637   4.711   0.450  0.7454  0.7296 -0.1071
   55TMC2    H2  861   3.437   4.430   0.211  0.0285  0.4670 -0.2333
   55TMC2    C7  862   3.527   4.469   0.452  0.7945  0.2830 -0.1797
   55TMC2    C8  863   3.439   4.563  17.730  0.1571 -0.1914 -0.2158
   55TMC2    O1  864   3.558   4.349   0.430 -0.1958  0.2317  0.6941
   55TMC2    O2  865   3.364   4.471  17.725 -0.1315  0.4435  0.7391
   55TMC2    O5  866   3.495   4.635  17.631  0.1686 -0.6809 -0.3024
   55TMC2    H5  867   3.572   4.687  17.664 -0.3830  0.0703 -0.1891
   56MPD2     C  868   3.642   0.450   0.025  0.5537  0.6013  0.1995
   56MPD2    C1  869   3.617   0.399   0.147  0.2579 -0.2432  0.6086
   56MPD2    C2  870   3.567   0.488   0.239 -0.4215  0.2420 -0.0532
   56MPD2    C3  871   3.532   0.619   0.208  0.5214  0.1458  0.3248
   56MPD2    C4  872   3.564   0.672   0.084 -0.7929 -0.1770 -0.1348
   56MPD2    C5  873   3.617   0.581  17.731 -0.3653  0.1155  0.8466
   56MPD2     H  874   3.547   0.452   0.339  0.9720  1.0362  0.5103
   56MPD2    H1  875   3.555   0.777   0.058  1.1761  0.1985  0.6861
   56MPD2    H2  876   3.672   0.379  17.684  1.9661 -1.0223  2.2585
   56MPD2    H3  877   3.645   0.615  17.631 -1.2928  0.0759  0.5737
   56MPD2     N  878   3.471   0.692   0.310 -0.1088  0.1307  0.3964
   56MPD2    H5  879   3.436   0.634   0.386 -1.4398 -0.4531 -0.6702
   56MPD2    N1  880   3.628   0.255   0.165  0.6920  0.7113 -0.2500
   56MPD2    H7  881   3.647   0.201   0.081 -0.2364  1.3059 -0.8514
   57TMC2    C1  882   2.654   0.891  14.113 -0.1179  0.2489  0.4049
   57TMC2    C2  883   2.669   0.815  14.231  0.7918 -0.0787  0.7490
   57TMC2    C3  884   2.782   0.739  14.240  0.0880 -0.9059 -0.0912
   57TMC2    C4  885   2.762   0.917  14.030  0.0925  0.1602 -0.3774
   57TMC2    C5  886   2.877   0.841  14.049 -0.3169  0.0230 -0.2562
   57TMC2    C6  887   2.889   0.752  14.153 -0.0667 -0.1353 -0.0901
   57TMC2     C  888   2.524   0.932  14.064  0.6466  0.3451 -0.5689
   57TMC2     O  889   2.528   1.002  13.965 -0.1082  0.0089  0.0306
   57TMC2     H  890   2.591   0.797  14.304 -0.6431 -1.7620 -1.1902
   57TMC2    H1  891   2.761   0.969  13.935 -2.5806 -0.9124 -0.9157
   57TMC2    H2  892   2.985   0.722  14.195  0.8824  0.2808 -1.9557
   57TMC2    C7  893   2.970   0.839  13.934  0.0420  0.0094 -0.5583
   57TMC2    C8  894   2.796   0.661  14.355  0.3966  0.0319 -0.4001
   57TMC2    O1  895   2.959   0.921  13.845 -0.3050 -0.6394  0.0301
   57TMC2    O2  896   2.761   0.687  14.465 -0.2561  0.0658 -0.0760
   57TMC2    O5  897   2.875   0.552  14.321 -0.0014 -0.5342  0.4819
   57TMC2    H5  898   2.875   0.529  14.226 -1.4420 -0.6985  0.5270
   58MPD2     C  899   2.029   1.029  14.154  0.5506  0.7727 -0.3479
   58MPD2    C1  900   2.120   1.093  14.068 -0.1493 -0.0192 -0.6969
   58MPD2    C2  901   2.244   1.047  14.055 -0.4109  0.7747 -0.0636
   58MPD2    C3  902   2.284   0.931  14.125  0.1576  0.2465  1.0278
   58MPD2    C4  903   2.198   0.860  14.205  0.1665  0.9445 -0.1297
   58MPD2    C5  904   2.066   0.910  14.208  0.4770  0.4021 -0.3853
   58MPD2     H  905   2.314   1.103  13.994  0.1100  1.8689  1.5123
   58MPD2    H1  906   2.226   0.769  14.256 -1.8219  0.9416  0.9822
   58MPD2    H2  907   1.932   1.075  14.171  0.0901 -0.4562  0.3535
   58MPD2    H3  908   1.990   0.862  14.268 -1.0284  0.3844 -2.3023
   58MPD2     N  909   2.419   0.891  14.140 -0.0348 -0.4055 -0.5021
   58MPD2    H5  910   2.430   0.813  14.205 -1.2802 -0.4314 -0.3099
   58MPD2    N1  911   2.082   1.208  13.998 -0.7452  0.3713  0.0281
   58MPD2    H7  912   2.162   1.248  13.950 -0.3155 -1.7504 -0.9955
   59TMC2    C1  913   4.522   0.948  13.141 -0.3107  0.4486  0.8211
   59TMC2    C2  914   4.429   0.852  13.137 -0.5468 -0.0838  0.4342
   59TMC2    C3  915   4.403   0.785  13.021  1.2989 -0.1899  0.5240
   59TMC2    C4  916   4.577   0.993  13.025  0.4622 -0.6921  0.2376
   59TMC2    C5  917   4.559   0.918  12.910 -0.6508  0.1520  0.4048
   59TMC2    C6  918   4.471   0.814  12.910 -0.6218  0.2330 -0.0310
   59TMC2     C  919   4.526   1.034  13.257 -0.0957  0.3422 -0.1896
   59TMC2     O  920   4.422   1.035  13.324 -0.0370 -0.1175 -0.2370
   59TMC2     H  921   4.385   0.820  13.231  0.6228 -0.1648  0.9575
   59TMC2    H1  922   4.648   1.074  13.038 -1.1705  0.7513  0.1988
   59TMC2    H2  923   4.474   0.744  12.826 -2.2671 -0.3681  0.4173
   59TMC2    C7  924   4.622   0.954  12.781 -0.5847  0.1659 -0.0548
   59TMC2    C8  925   4.282   0.705  13.013  0.2296  0.3114  0.3531
   59TMC2    O1  926   4.596   0.881  12.685  0.3454  1.0644  0.7770
   59TMC2    O2  927   4.256   0.643  12.913  0.9916 -0.0984  0.0058
   59TMC2    O5  928   4.181   0.758  13.086  0.6716 -0.2005  0.2322
   59TMC2    H5  929   4.216   0.822  13.152  1.4777 -0.0822 -0.3089
   60MPD2     C  930   4.549   1.291  13.419 -0.1378  0.2718  1.1239
   60MPD2    C1  931   4.650   1.220  13.353 -0.5722  0.0964 -0.4444
   60MPD2    C2  932   0.037   1.285  13.352 -0.1955  0.1000  0.3743
   60MPD2    C3  933   0.062   1.409  13.414 -0.1789 -0.4089  0.0538
   60MPD2    C4  934   4.702   1.462  13.492 -0.3461 -0.4073 -0.2837
   60MPD2    C5  935   4.577   1.405  13.487  0.8656  0.7930 -0.7623
   60MPD2     H  936   0.110   1.238  13.287 -1.5863 -1.6590  0.0997
   60MPD2    H1  937   4.730   1.553  13.543 -3.1195 -0.2968  1.0224
   60MPD2    H2  938   4.448   1.254  13.427 -0.9945  2.6061  1.0938
   60MPD2    H3  939   4.495   1.441  13.547  0.1646 -1.1556 -0.5598
   60MPD2     N  940   0.184   1.479  13.408  1.2481  0.1554 -0.1249
   60MPD2    H5  941   0.174   1.568  13.456  0.9870  0.1054 -0.0871
   60MPD2    N1  942   4.640   1.109  13.269 -0.9580  0.2238 -0.3077
   60MPD2    H7  943   4.723   1.080  13.218  0.3975  2.0983  0.8051
   61TMC2    C1  944   3.931   2.315  16.164  0.0250 -0.3672  0.7269
   61TMC2    C2  945   3.949   2.293  16.298 -0.1039  0.7551  0.0174
   61TMC2    C3  946   3.906   2.392  16.382 -0.1363 -0.0539  0.3741
   61TMC2    C4  947   3.892   2.440  16.118  0.2108 -0.2111 -0.3913
   61TMC2    C5  948   3.867   2.542  16.206 -0.2765  0.6322  0.3536
   61TMC2    C6  949   3.858   2.515  16.340 -0.1105 -0.7596  0.2521
   61TMC2     C  950   3.986   2.215  16.071  0.6928 -0.3074  0.7600
   61TMC2     O  951   4.009   2.102  16.109  0.0710  0.9075 -0.6895
   61TMC2     H  952   3.995   2.197  16.321  0.3905  1.0698  0.3450
   61TMC2    H1  953   3.895   2.461  16.012 -0.8477  0.9629 -0.1947
   61TMC2    H2  954   3.816   2.589  16.408  0.2734 -1.2824  1.0588
   61TMC2    C7  955   3.865   2.676  16.150 -0.3761  0.6568 -0.1343
   61TMC2    C8  956   3.915   2.381  16.524 -0.5807  0.7079 -0.3441
   61TMC2    O1  957   3.854   2.682  16.031  0.6377 -0.1378  0.8744
   61TMC2    O2  958   3.845   2.446  16.603  0.0560  0.3907  0.3143
   61TMC2    O5  959   3.987   2.275  16.554  0.0350  0.2271 -0.2846
   61TMC2    H5  960   4.038   2.229  16.484  1.2576  4.3555 -2.0680
   62MPD2     C  961   4.082   2.089  15.823  0.0427 -0.2745 -0.3344
   62MPD2    C1  962   4.097   2.225  15.855  0.1144 -0.1391  0.4341
   62MPD2    C2  963   4.160   2.315  15.769  0.3998  0.1631 -0.2185
   62MPD2    C3  964   4.195   2.274  15.642  0.0590 -0.6469 -0.3976
   62MPD2    C4  965   4.187   2.137  15.612 -0.0580 -0.0982 -0.3061
   62MPD2    C5  966   4.135   2.051  15.702 -0.3203 -0.0064 -0.2264
   62MPD2     H  967   4.167   2.418  15.802 -2.8920 -0.3059  1.9854
   62MPD2    H1  968   4.216   2.097  15.516 -1.6356  0.0642 -0.8517
   62MPD2    H2  969   4.041   2.016  15.891  1.8146 -1.1144 -0.1548
   62MPD2    H3  970   4.145   1.948  15.672  2.7369 -0.4031  2.1549
   62MPD2     N  971   4.256   2.361  15.543 -0.0060  0.3528  0.1512
   62MPD2    H5  972   4.274   2.329  15.449 -2.3561  2.1523 -0.9187
   62MPD2    N1  973   4.049   2.286  15.972  0.2001  0.1795 -1.1338
   62MPD2    H7  974   4.070   2.386  15.975 -1.5820  0.4910  1.0286
   63TMC2    C1  975   3.288   2.623  10.434 -0.3700  0.1861  0.2077
   63TMC2    C2  976   3.286   2.621  10.571 -0.4487 -0.0016  0.3716
   63TMC2    C3  977   3.317   2.736  10.639 -0.3275 -0.0016  0.7446
   63TMC2    C4  978   3.305   2.738  10.358 -0.5719 -0.2395  0.5452
   63TMC2    C5  979   3.342   2.846  10.430  0.1863  0.3050  0.6568
   63TMC2    C6  980   3.349   2.852  10.567 -0.0156 -0.2561  0.1730
   63TMC2     C  981   3.226   2.517  10.358 -0.5957 -0.0683  0.5984
   63TMC2     O  982   3.164   2.545  10.255  0.5603 -0.0315 -0.4796
   63TMC2     H  983   3.285   2.534  10.636  0.0955  0.5676  1.1417
   63TMC2    H1  984   3.296   2.728  10.250  0.2725 -0.2855  0.4728
   63TMC2    H2  985   3.380   2.938  10.625  2.4552 -0.8736 -0.2299
   63TMC2    C7  986   3.373   2.966  10.351  0.0312 -0.4845 -0.7264
   63TMC2    C8  987   3.345   2.731  10.777 -0.3253 -0.3338  0.4062
   63TMC2    O1  988   3.364   2.960  10.227  0.3314 -0.6366  0.3701
   63TMC2    O2  989   3.394   2.635  10.830  0.1641  0.7880 -0.0566
   63TMC2    O5  990   3.281   2.836  10.826 -0.2249  0.7852  0.4033
   63TMC2    H5  991   3.230   2.889  10.762  0.6717  1.4560  0.2349
   64MPD2     C  992   3.001   2.061  10.351 -0.2818 -1.2832 -0.2579
   64MPD2    C1  993   3.114   2.055  10.428  0.5754  0.6430 -0.6932
   64MPD2    C2  994   3.198   2.165  10.437  0.1045 -0.0992 -0.2631
   64MPD2    C3  995   3.164   2.284  10.386  0.0139  0.0015  0.2471
   64MPD2    C4  996   3.046   2.287  10.312  0.8128 -0.5246  0.3433
   64MPD2    C5  997   2.966   2.177  10.298 -0.3183  0.8481 -0.0223
   64MPD2     H  998   3.287   2.152  10.497 -1.6779  0.8238  2.6322
   64MPD2    H1  999   3.014   2.381  10.269  1.5202 -1.7678 -2.8792
   64MPD2    H2 1000   2.929   1.980  10.356 -1.2713 -0.6125 -4.2268
   64MPD2    H3 1001   2.875   2.188  10.241  0.1713 -0.0460 -0.9728
   64MPD2     N 1002   3.231   2.401  10.428 -0.0773  0.4378  0.1742
   64MPD2    H5 1003   3.301   2.391  10.501 -0.7183 -0.3930  0.6683
   64MPD2    N1 1004   3.161   1.933  10.486  0.2698  0.2296 -0.7411
   64MPD2    H7 1005   3.236   1.956  10.551 -0.0457  2.0293 -1.0103
   65TMC2    C1 1006   0.189   2.579  15.739 -0.1582 -0.0226 -0.0136
   65TMC2    C2 1007   0.185   2.525  15.609  0.9430 -0.4967 -0.4225
   65TMC2    C3 1008   0.169   2.619  15.513  0.7274  0.1761 -0.2391
   65TMC2    C4 1009   0.180   2.715  15.761 -0.7004 -0.0051  0.7704
   65TMC2    C5 1010   0.175   2.800  15.654 -0.1794  0.3059 -0.3657
   65TMC2    C6 1011   0.166   2.750  15.527  0.0252 -0.7543 -0.3909
   65TMC2     C 1012   0.198   2.494  15.858 -0.2071 -0.5545  0.0077
   65TMC2     O 1013   0.217   2.559  15.961  0.0242 -0.2610 -0.2527
   65TMC2     H 1014   0.180   2.418  15.594  0.4138 -0.6250  0.6893
   65TMC2    H1 1015   0.189   2.753  15.862  1.1978  0.5012  0.4112
   65TMC2    H2 1016   0.157   2.824  15.448  0.9562  1.0424  1.1883
   65TMC2    C7 1017   0.159   2.943  15.660  0.7817  0.4705  0.5507
   65TMC2    C8 1018   0.179   2.566  15.377  1.1014 -0.6477 -0.7854
   65TMC2    O1 1019   0.179   3.011  15.561 -0.5403  0.5827  0.4611
   65TMC2    O2 1020   0.130   2.616  15.275 -0.6037 -0.4051 -0.6536
   65TMC2    O5 1021   0.263   2.464  15.375  0.9265 -0.2491 -0.3179
   65TMC2    H5 1022   0.305   2.453  15.463 -1.7978 -1.5817  0.7997
   66MPD2     C 1023   0.118   2.289  16.075 -0.0029  0.1466  0.0004
   66MPD2    C1 1024   0.144   2.270  15.939 -0.0474  0.1454 -0.4289
   66MPD2    C2 1025   0.119   2.140  15.900 -0.5499 -0.0323 -0.1399
   66MPD2    C3 1026   0.064   2.040  15.984 -0.1749  0.0998  0.1684
   66MPD2    C4 1027   0.055   2.064  16.122  0.4267 -0.5250  0.2288
   66MPD2    C5 1028   0.078   2.192  16.163  0.1675  0.0557  0.3257
   66MPD2     H 1029   0.128   2.130  15.792 -0.4555 -0.7807 -0.0645
   66MPD2    H1 1030   0.000   1.997  16.187  2.1552 -2.2927 -0.1534
   66MPD2    H2 1031   0.123   2.390  16.114 -1.3506  0.2407 -0.0888
   66MPD2    H3 1032   0.049   2.222  16.263 -1.9668 -0.9491 -0.0075
   66MPD2     N 1033   0.019   1.909  15.953 -0.2147  0.5966  0.5733
   66MPD2    H5 1034   4.713   1.855  16.029  1.2596 -2.3241 -0.7045
   66MPD2    N1 1035   0.185   2.362  15.843  0.3055  0.0563 -0.4449
   66MPD2    H7 1036   0.190   2.319  15.751 -0.7795 -0.7872 -0.1143
   67TMC2    C1 1037   4.694   1.532  14.841 -0.2820 -0.0146 -0.2068
   67TMC2    C2 1038   4.579   1.568  14.899  0.2695 -0.0104  0.1917
   67TMC2    C3 1039   4.583   1.628  15.020  0.5582  0.6510 -0.1178
   67TMC2    C4 1040   0.083   1.546  14.904 -0.4107 -0.4634  0.0447
   67TMC2    C5 1041   0.075   1.601  15.035  0.2389  0.3015 -0.1747
   67TMC2    C6 1042   4.697   1.650  15.091 -0.5558 -0.3892 -0.0779
   67TMC2     C 1043   4.703   1.471  14.705  0.0407  0.0671  0.4403
   67TMC2     O 1044   0.047   1.372  14.696  0.0131 -0.3237 -0.3650
   67TMC2     H 1045   4.489   1.536  14.848 -1.1568  3.5330  0.5190
   67TMC2    H1 1046   0.174   1.513  14.856 -0.5188 -3.1329  1.6470
   67TMC2    H2 1047   4.702   1.719  15.174  1.5691 -2.2912  1.4017
   67TMC2    C7 1048   0.200   1.617  15.103 -0.0150  0.0748  0.2980
   67TMC2    C8 1049   4.463   1.681  15.082 -0.3987  0.5510  0.0021
   67TMC2    O1 1050   0.299   1.576  15.037 -0.0639 -0.1352 -0.2523
   67TMC2    O2 1051   4.471   1.723  15.198 -0.0067 -0.3739 -0.2186
   67TMC2    O5 1052   4.399   1.737  14.982 -0.3048 -0.0196 -0.0960
   67TMC2    H5 1053   4.433   1.707  14.895 -1.9345  0.6450 -0.9591
   68MPD2     C 1054   4.663   1.411  14.416  0.3654  0.2210  0.1466
   68MPD2    C1 1055   4.599   1.513  14.487  0.0438  0.1623  0.8186
   68MPD2    C2 1056   4.520   1.600  14.413 -0.1894 -0.4083 -0.0740
   68MPD2    C3 1057   4.495   1.580  14.276 -0.1359  0.0303  0.7456
   68MPD2    C4 1058   4.553   1.476  14.218  0.2394  0.2251  0.3527
   68MPD2    C5 1059   4.634   1.392  14.288 -0.4083  0.4066  0.2529
   68MPD2     H 1060   4.470   1.679  14.468  3.0217  0.2355  1.9805
   68MPD2    H1 1061   4.549   1.455  14.112 -2.6456  0.4295  0.4389
   68MPD2    H2 1062   0.004   1.346  14.459 -0.8888  0.2294  2.3195
   68MPD2    H3 1063   4.678   1.303  14.243 -0.6570  0.0019  0.8021
   68MPD2     N 1064   4.413   1.667  14.188 -0.1086  0.7405  0.5455
   68MPD2    H5 1065   4.422   1.642  14.090  2.0459  0.4515  0.8220
   68MPD2    N1 1066   4.615   1.532  14.622  0.3186  0.1685  0.2051
   68MPD2    H7 1067   4.566   1.612  14.660  1.4317  0.0469  1.8975
   69TMC2    C1 1068   2.423   2.484  12.358 -0.5067 -0.7320 -0.1075
   69TMC2    C2 1069   2.360   2.605  12.332 -0.9065 -0.2059 -0.3193
   69TMC2    C3 1070   2.367   2.643  12.196 -0.4171  0.4494 -0.7204
   69TMC2    C4 1071   2.487   2.412  12.258 -0.7669 -0.2580 -0.2674
   69TMC2    C5 1072   2.465   2.448  12.130  0.9261 -0.5153  0.0714
   69TMC2    C6 1073   2.411   2.566  12.094  0.0659 -0.0571  0.0397
   69TMC2     C 1074   2.449   2.448  12.494 -0.2454  0.2697  0.7504
   69TMC2     O 1075   2.361   2.461  12.581 -0.1336  0.4257  0.1522
   69TMC2     H 1076   2.334   2.664  12.419  0.9789 -0.5811  0.5069
   69TMC2    H1 1077   2.541   2.320  12.281  2.0355  1.5058  0.2256
   69TMC2    H2 1078   2.405   2.598  11.990 -0.0681  1.8065  0.6175
   69TMC2    C7 1079   2.534   2.363  12.039 -0.1301  0.1439  0.3986
   69TMC2    C8 1080   2.337   2.785  12.179  1.4575 -0.1211 -0.1280
   69TMC2    O1 1081   2.644   2.325  12.084  0.0270 -0.6759 -0.0772
   69TMC2    O2 1082   2.267   2.841  12.259 -0.1879 -0.3732 -0.0294
   69TMC2    O5 1083   2.409   2.840  12.073  0.0719 -0.3085  0.0646
   69TMC2    H5 1084   2.478   2.789  12.025 -1.4317  0.3194 -2.7359
   70MPD2     C 1085   2.795   2.406  12.627  0.1718 -0.0691 -0.7960
   70MPD2    C1 1086   2.655   2.392  12.635 -0.4199  0.6240  0.4291
   70MPD2    C2 1087   2.592   2.342  12.749 -0.3485 -0.0425 -0.7280
   70MPD2    C3 1088   2.659   2.314  12.864  0.7580 -0.5234 -0.5312
   70MPD2    C4 1089   2.790   2.337  12.864 -0.0607 -0.4796  0.0234
   70MPD2    C5 1090   2.861   2.373  12.743  0.2289  0.5524 -0.8055
   70MPD2     H 1091   2.485   2.327  12.739 -0.2390 -1.6496  0.6073
   70MPD2    H1 1092   2.847   2.304  12.950  2.7427  1.1319 -1.2020
   70MPD2    H2 1093   2.837   2.458  12.542  0.2490 -0.1770 -0.8235
   70MPD2    H3 1094   2.969   2.379  12.750  0.2768 -0.0351 -1.0436
   70MPD2     N 1095   2.601   2.263  12.979  0.6099 -0.7963 -0.5493
   70MPD2    H5 1096   2.662   2.244  13.059  2.1718  1.2364 -1.2555
   70MPD2    N1 1097   2.578   2.423  12.515 -0.1497 -0.3298  0.2848
   70MPD2    H7 1098   2.642   2.443  12.439 -1.9445 -0.2083 -1.2153
   71TMC2    C1 1099   0.017   3.720   2.095  0.2547 -0.5452  0.2299
   71TMC2    C2 1100   0.151   3.744   2.118 -0.1141 -0.1098  0.2913
   71TMC2    C3 1101   0.177   3.798   2.244 -0.3423 -0.5124  0.3017
   71TMC2    C4 1102   4.654   3.756   2.183 -0.0190  0.1914  0.4988
   71TMC2    C5 1103   4.686   3.805   2.304 -0.8821 -0.6796 -0.6810
   71TMC2    C6 1104   0.081   3.829   2.343 -0.5529  0.0924  0.2523
   71TMC2     C 1105   4.714   3.668   1.964 -1.1390  0.3086 -0.4851
   71TMC2     O 1106   0.063   3.687   1.875 -0.3518  0.1441  0.2783
   71TMC2     H 1107   0.232   3.725   2.049 -0.3402 -1.5336  0.4324
   71TMC2    H1 1108   4.552   3.739   2.150  0.7620 -2.3342 -0.5429
   71TMC2    H2 1109   0.110   3.860   2.442 -0.5583  0.0763  0.2589
   71TMC2    C7 1110   4.579   3.825   2.401 -0.4649  0.4161  0.2018
   71TMC2    C8 1111   0.318   3.810   2.281 -0.5597  0.2642  0.1931
   71TMC2    O1 1112   4.598   3.903   2.490  0.0695  0.5086 -0.0432
   71TMC2    O2 1113   0.408   3.741   2.244 -0.2875  0.2445 -0.1275
   71TMC2    O5 1114   0.327   3.933   2.333 -0.0510 -0.2420  0.0178
   71TMC2    H5 1115   0.249   3.992   2.336 -1.6683 -2.1712 -4.2177
   72MPD2     C 1116   4.392   3.478   1.618 -0.2622 -0.4878 -0.0430
   72MPD2    C1 1117   4.520   3.517   1.608  0.2878 -0.3990 -0.1803
   72MPD2    C2 1118   4.590   3.565   1.714 -0.5494 -0.0446 -0.1916
   72MPD2    C3 1119   4.528   3.569   1.836 -0.3954 -0.6080 -0.3169
   72MPD2    C4 1120   4.396   3.526   1.852 -0.3447  0.0864  0.1180
   72MPD2    C5 1121   4.327   3.491   1.739  0.8236 -0.3123 -0.4390
   72MPD2     H 1122   4.685   3.613   1.693  0.1901 -1.6954 -0.5642
   72MPD2    H1 1123   4.353   3.538   1.951  0.6615  1.4613  0.3929
   72MPD2    H2 1124   4.327   3.457   1.534  0.7729 -0.7873 -0.7721
   72MPD2    H3 1125   4.221   3.468   1.741  0.3551  1.9622  0.3767
   72MPD2     N 1126   4.587   3.605   1.955 -0.2634 -0.0851 -0.7716
   72MPD2    H5 1127   4.523   3.590   2.033 -0.5315 -1.1766 -1.2029
   72MPD2    N1 1128   4.583   3.522   1.480  0.6162 -0.0476 -0.6060
   72MPD2    H7 1129   4.676   3.561   1.476  0.5805  0.3618  3.3269
   73TMC2    C1 1130   4.089   0.189  14.335  0.8497 -0.1592  0.0117
   73TMC2    C2 1131   4.048   0.269  14.440  0.2026 -0.6826 -0.1434
   73TMC2    C3 1132   4.107   0.239  14.561 -0.4085  0.6392 -0.5305
   73TMC2    C4 1133   4.174   0.085  14.351 -0.2042  0.2140  0.5449
   73TMC2    C5 1134   4.238   0.070  14.469 -0.7448 -0.0149 -0.5949
   73TMC2    C6 1135   4.203   0.144  14.577  0.4705  0.3567  0.5505
   73TMC2     C 1136   4.089   0.237  14.193  0.1436 -0.3011 -0.3196
   73TMC2     O 1137   4.167   0.179  14.117 -0.2836  0.3405 -0.2795
   73TMC2     H 1138   3.967   0.340  14.434  2.5084  2.0130  0.7147
   73TMC2    H1 1139   4.195   0.016  14.271 -3.2504 -0.0817 -0.0130
   73TMC2    H2 1140   4.267   0.158  14.663  0.5648  1.3331  0.3290
   73TMC2    C7 1141   4.379   0.095  14.443 -0.0521  0.1830  0.3879
   73TMC2    C8 1142   4.061   0.315  14.672  0.3489  1.3437 -0.0682
   73TMC2    O1 1143   4.462   0.075  14.529 -0.5407  0.1139 -0.9785
   73TMC2    O2 1144   4.138   0.353  14.756 -0.1982  0.6142  0.3311
   73TMC2    O5 1145   3.930   0.286  14.677  0.0777 -0.0854 -0.0462
   73TMC2    H5 1146   3.898   0.235  14.600  0.7039 -0.8153  0.1744
   74MPD2     C 1147   4.060   0.641  13.884 -0.2330  1.0477  0.1255
   74MPD2    C1 1148   4.145   0.530  13.884  0.8023  0.1787 -0.4111
   74MPD2    C2 1149   4.122   0.431  13.980 -0.2268  0.8964 -0.4280
   74MPD2    C3 1150   4.013   0.440  14.069  0.0205 -0.3129  0.1320
   74MPD2    C4 1151   3.925   0.552  14.056  0.1878 -0.4299 -0.7691
   74MPD2    C5 1152   3.946   0.648  13.960 -0.4139  0.1532  0.0090
   74MPD2     H 1153   4.199   0.358  14.004  0.0229  1.2118 -0.2603
   74MPD2    H1 1154   3.848   0.573  14.129 -1.1257  0.4552 -2.4160
   74MPD2    H2 1155   4.082   0.724  13.818 -1.8861  0.3905 -1.2473
   74MPD2    H3 1156   3.882   0.735  13.953 -1.3725 -0.6052 -0.7560
   74MPD2     N 1157   4.014   0.353  14.183  0.6173  0.1531 -0.1905
   74MPD2    H5 1158   3.949   0.383  14.255  1.1224 -1.1648  0.8121
   74MPD2    N1 1159   4.257   0.541  13.799  0.2330  0.1460 -0.1906
   74MPD2    H7 1160   4.268   0.626  13.745 -0.1401 -0.0416 -0.5646
   75TMC2    C1 1161   4.281   1.846  14.119  0.1319  0.2745 -0.1744
   75TMC2    C2 1162   4.282   1.982  14.119  0.3621  0.6351 -0.0661
   75TMC2    C3 1163   4.235   2.040  14.006 -0.2420  0.0793  0.1527
   75TMC2    C4 1164   4.237   1.773  14.010  0.3155 -0.3246  0.5650
   75TMC2    C5 1165   4.179   1.843  13.912 -0.6511 -0.2814 -0.1462
   75TMC2    C6 1166   4.173   1.977  13.907 -0.2565  0.2473  0.6664
   75TMC2     C 1167   4.334   1.772  14.234 -0.1376  0.6803 -0.9249
   75TMC2     O 1168   4.330   1.828  14.343  0.7809 -0.3556  0.2933
   75TMC2     H 1169   4.312   2.039  14.207 -0.0330 -1.3001  1.3244
   75TMC2    H1 1170   4.233   1.665  14.018 -1.3137 -0.2365  1.0888
   75TMC2    H2 1171   4.133   2.033  13.823 -0.0785 -1.1349 -0.3451
   75TMC2    C7 1172   4.075   1.776  13.848  0.1582  0.6273 -0.0114
   75TMC2    C8 1173   4.221   2.181  14.001 -0.1806 -0.1348 -0.0865
   75TMC2    O1 1174   4.091   1.660  13.824 -0.2113  0.5689 -0.3738
   75TMC2    O2 1175   4.126   2.236  13.951 -0.0538  0.0499  0.0844
   75TMC2    O5 1176   4.306   2.240  14.078  0.4400 -0.0515 -0.2277
   75TMC2    H5 1177   4.390   2.190  14.077  0.0272 -0.7469 -0.0954
   76TMC2    C1 1178   3.456   1.444  12.332  0.7397  0.4916  0.2873
   76TMC2    C2 1179   3.396   1.326  12.301  0.3160 -0.6754  0.2851
   76TMC2    C3 1180   3.445   1.215  12.355 -0.1150  0.2111 -0.2773
   76TMC2    C4 1181   3.559   1.459  12.429 -0.3488 -0.3497 -0.5785
   76TMC2    C5 1182   3.597   1.337  12.480  0.2642 -0.3590 -0.5228
   76TMC2    C6 1183   3.542   1.215  12.447  0.0111 -0.0374  0.5486
   76TMC2     C 1184   3.429   1.557  12.249 -0.3472 -0.6916 -0.6082
   76TMC2     O 1185   3.330   1.544  12.179 -0.4525  0.5112 -0.3562
   76TMC2     H 1186   3.302   1.322  12.247 -0.1243  1.6181  0.9110
   76TMC2    H1 1187   3.600   1.555  12.461  0.1500 -0.4464 -0.9256
   76TMC2    H2 1188   3.586   1.131  12.500 -0.7636 -1.5950 -1.2619
   76TMC2    C7 1189   3.715   1.332  12.565  0.0370 -0.5489 -0.2567
   76TMC2    C8 1190   3.362   1.097  12.344 -0.4331 -0.3967 -0.0589
   76TMC2    O1 1191   3.769   1.224  12.557 -0.4965 -0.6121 -0.0134
   76TMC2    O2 1192   3.376   1.028  12.445  0.2632  0.1119  0.6461
   76TMC2    O5 1193   3.350   1.055  12.215 -0.3302 -0.6019 -0.3690
   76TMC2    H5 1194   3.359   1.126  12.148  1.4325 -1.9179 -1.5443
   77MPD2     C 1195   3.582   1.991  12.022 -0.2455 -0.4208  0.6436
   77MPD2    C1 1196   3.457   1.940  12.016  0.5129  0.6124  0.1186
   77MPD2    C2 1197   3.431   1.832  12.096  0.3080  1.1258  0.3934
   77MPD2    C3 1198   3.542   1.773  12.167 -0.4007 -0.0124 -0.0036
   77MPD2    C4 1199   3.674   1.822  12.164  1.1929 -0.1533 -0.0891
   77MPD2    C5 1200   3.686   1.932  12.088  0.3655  0.2987  0.0556
   77MPD2     H 1201   3.330   1.793  12.108  0.4420  0.3846 -0.9172
   77MPD2    H1 1202   3.759   1.786  12.220 -0.3977 -1.6370  1.3649
   77MPD2    H2 1203   3.606   2.082  11.967 -1.9279 -0.9338 -0.9450
   77MPD2    H3 1204   3.787   1.968  12.068  0.6136  0.3359  1.3855
   77MPD2     N 1205   3.535   1.649  12.241  0.0642 -0.4222 -0.8186
   77MPD2    H5 1206   3.620   1.620  12.289  0.7825  1.2974 -1.0558
   77MPD2    N1 1207   3.350   1.980  11.929  0.4086  1.0686  0.3225
   77MPD2    H7 1208   3.258   1.940  11.945  0.8942 -0.3322 -0.3864
   78TMC2    C1 1209   4.238   3.154   1.679  0.1877  0.4058 -0.2117
   78TMC2    C2 1210   4.154   3.149   1.571 -0.2419  0.4567 -0.6048
   78TMC2    C3 1211   4.214   3.134   1.449 -0.2162 -1.0010  0.2106
   78TMC2    C4 1212   4.379   3.163   1.667  0.2692 -0.1145  0.0139
   78TMC2    C5 1213   4.437   3.147   1.542 -0.0257  0.1088  0.0658
   78TMC2    C6 1214   4.352   3.128   1.434  0.0922 -0.8174  0.2240
   78TMC2     C 1215   4.204   3.123   1.810  0.4318 -0.4531  0.2589
   78TMC2     O 1216   4.272   3.165   1.905  0.0735 -0.0213  0.4699
   78TMC2     H 1217   4.046   3.153   1.576 -0.1731  1.2001  0.2284
   78TMC2    H1 1218   4.441   3.169   1.756  1.2259 -1.0082 -0.5983
   78TMC2    H2 1219   4.399   3.112   1.337  1.2394 -2.8713  1.1231
   78TMC2    C7 1220   4.576   3.175   1.518  0.2126  0.3982  0.2328
   78TMC2    C8 1221   4.156   3.082   1.333  0.2194 -0.0678  0.4336
   78TMC2    O1 1222   4.607   3.164   1.400 -0.4309 -0.1811  0.4533
   78TMC2    O2 1223   4.207   3.097   1.220 -0.0346  0.2829  0.6633
   78TMC2    O5 1224   4.041   3.017   1.363 -0.8367  0.3372  0.3361
   78TMC2    H5 1225   4.025   3.011   1.459 -0.9405  0.8790  0.3504
   79MPD1     C 1226   3.856   3.033   2.164 -0.3992 -0.4088  0.2643
   79MPD1    C1 1227   3.994   3.055   2.181  0.5863  0.1513 -0.1451
   79MPD1    C2 1228   4.071   3.053   2.069 -0.4858 -0.0017 -0.7949
   79MPD1    C3 1229   4.011   3.050   1.944 -0.5837  0.5733  0.5085
   79MPD1    C4 1230   3.878   3.030   1.930 -0.4059  0.3842 -0.6144
   79MPD1    C5 1231   3.799   3.017   2.039  0.1560 -0.7913 -0.5640
   79MPD1     H 1232   4.176   3.069   2.086 -0.7669  1.3397 -0.3224
   79MPD1    H1 1233   3.833   3.035   1.832 -2.4437  0.3018  0.3053
   79MPD1    H2 1234   3.792   3.017   2.249  0.4651 -2.7759  0.4779
   79MPD1    H3 1235   3.691   3.005   2.031  0.0171  0.1115 -0.1087
   79MPD1     N 1236   4.087   3.057   1.823 -0.6734  0.0860  0.0281
   79MPD1    H5 1237   4.041   3.030   1.737 -1.3865 -1.4377  0.8849
   79MPD1    N1 1238   4.048   3.066   2.314  0.1853  0.2366 -0.4883
   79MPD1    H6 1239   4.125   3.134   2.314 -1.1037  1.6873  1.6276
   79MPD1    H7 1240   3.983   3.102   2.383 -1.5837 -1.1341 -1.4632
   80TMC2    C1 1241   1.590   1.525  12.171 -1.1393  0.6193  0.2956
   80TMC2    C2 1242   1.501   1.481  12.075  0.7852 -0.1987 -1.2203
   80TMC2    C3 1243   1.366   1.498  12.096 -0.2437  0.1741 -1.0897
   80TMC2    C4 1244   1.551   1.562  12.295  0.2015  0.0875 -0.6874
   80TMC2    C5 1245   1.415   1.573  12.310  0.5438  0.6354 -0.4615
   80TMC2    C6 1246   1.324   1.545  12.215 -0.9578  0.0700 -0.0457
   80TMC2     C 1247   1.727   1.556  12.122 -0.3874 -0.3166  0.2505
   80TMC2     O 1248   1.747   1.545  11.999  0.6139 -0.0258 -0.3273
   80TMC2     H 1249   1.533   1.449  11.977 -1.0800 -5.8443  0.0099
   80TMC2    H1 1250   1.618   1.608  12.366 -0.9369  0.2466  0.2879
   80TMC2    H2 1251   1.219   1.541  12.242 -1.1098 -1.5736 -0.8295
   80TMC2    C7 1252   1.367   1.593  12.443 -0.4225  0.2542  0.0303
   80TMC2    C8 1253   1.275   1.464  11.988 -0.5739 -0.5488 -0.2714
   80TMC2    O1 1254   1.266   1.664  12.461 -0.6817  0.0569  0.1531
   80TMC2    O2 1255   1.319   1.401  11.891 -0.2131  0.2273 -0.4359
   80TMC2    O5 1256   1.155   1.529  12.002 -0.0933 -0.0028 -0.0454
   80TMC2    H5 1257   1.150   1.576  12.088  2.6812 -1.2237  0.7984
   81MPD2     C 1258   1.999   1.671  12.106 -0.6908 -0.7759  0.8611
   81MPD2    C1 1259   1.944   1.611  12.223 -0.3781 -0.7950 -0.4537
   81MPD2    C2 1260   2.020   1.607  12.345 -0.2755 -0.4193  1.2688
   81MPD2    C3 1261   2.147   1.676  12.349  0.2403  0.6653  0.8677
   81MPD2    C4 1262   2.186   1.739  12.228 -0.0534  0.1720  0.5719
   81MPD2    C5 1263   2.122   1.725  12.107  0.0362  0.4542 -0.7180
   81MPD2     H 1264   1.979   1.559  12.433 -1.7227  1.1401  1.4433
   81MPD2    H1 1265   2.285   1.784  12.227  0.4465 -0.8785  3.3597
   81MPD2    H2 1266   1.939   1.667  12.016 -1.1743 -2.6595  1.2805
   81MPD2    H3 1267   2.164   1.760  12.013 -0.5980 -1.1449 -1.6122
   81MPD2     N 1268   2.225   1.691  12.465 -0.1157  0.4042  0.5505
   81MPD2    H5 1269   2.313   1.739  12.450  0.5861 -1.1698 -0.3496
   81MPD2    N1 1270   1.811   1.569  12.226 -0.1524  0.6192 -0.1025
   81MPD2    H7 1271   1.774   1.539  12.316 -0.2588 -2.5807 -1.2062
   82TMC2    C1 1272   0.344   0.982  11.575 -0.8081  0.6494  1.2369
   82TMC2    C2 1273   0.274   1.078  11.652  0.3844 -0.2045 -0.3000
   82TMC2    C3 1274   0.241   1.029  11.776 -0.3234 -0.1436  0.6283
   82TMC2    C4 1275   0.381   0.856  11.617 -0.4048  0.5604 -0.0922
   82TMC2    C5 1276   0.341   0.819  11.736  0.2620 -0.1108  0.2276
   82TMC2    C6 1277   0.279   0.907  11.819 -0.1030 -0.4720 -0.1654
   82TMC2     C 1278   0.365   1.009  11.433  0.2823 -0.1640 -0.1175
   82TMC2     O 1279   0.413   0.927  11.356  0.0217  0.1281 -0.2792
   82TMC2     H 1280   0.259   1.183  11.628  3.6254  0.1041 -1.0248
   82TMC2    H1 1281   0.414   0.782  11.546  2.1826  2.5900 -1.0027
   82TMC2    H2 1282   0.264   0.880  11.923 -0.8415  0.0962 -0.1214
   82TMC2    C7 1283   0.380   0.698  11.800 -0.0165 -0.2830 -0.2462
   82TMC2    C8 1284   0.165   1.117  11.862  0.0555  0.7644 -0.2526
   82TMC2    O1 1285   0.401   0.698  11.921 -0.1140 -0.0547  0.1920
   82TMC2    O2 1286   0.153   1.102  11.982 -0.1008  0.6543  0.4828
   82TMC2    O5 1287   0.071   1.177  11.780 -0.3070  0.4343  0.1697
   82TMC2    H5 1288   0.084   1.138  11.691  1.8816 -0.8775  1.0675
   83MPD2     C 1289   0.286   1.313  11.028  0.0719  0.3933  0.1819
   83MPD2    C1 1290   0.270   1.176  11.040 -0.5514 -0.3277  0.0338
   83MPD2    C2 1291   0.303   1.120  11.158  0.0510 -0.3584 -0.2377
   83MPD2    C3 1292   0.327   1.195  11.276  0.3221 -0.3437 -0.0043
   83MPD2    C4 1293   0.346   1.335  11.259  0.0572  0.3257 -0.1746
   83MPD2    C5 1294   0.332   1.390  11.135 -0.2492  0.5192 -0.3328
   83MPD2     H 1295   0.299   1.011  11.162 -0.4326 -0.3108  0.7858
   83MPD2    H1 1296   0.371   1.393  11.347  1.3136  0.4850 -0.6294
   83MPD2    H2 1297   0.257   1.366  10.938 -0.3687  1.2888  0.8560
   83MPD2    H3 1298   0.356   1.492  11.108 -0.0600  0.4641 -0.3737
   83MPD2     N 1299   0.338   1.142  11.403  0.3843 -0.5222 -0.2938
   83MPD2    H5 1300   0.330   1.209  11.479  0.6993 -0.7943 -0.0268
   83MPD2    N1 1301   0.237   1.103  10.923 -0.5965  0.3208  0.1286
   83MPD2    H7 1302   0.215   1.161  10.843  0.4144 -0.1874 -0.5226
   84TMC2    C1 1303   1.953   0.119  11.718 -0.3139  0.3445  0.3850
   84TMC2    C2 1304   1.984   0.010  11.791 -0.0190 -0.2531  0.2049
   84TMC2    C3 1305   2.068   4.658  11.726 -0.1309  0.4264  0.1058
   84TMC2    C4 1306   1.997   0.145  11.589 -0.1530 -0.4457  0.0011
   84TMC2    C5 1307   2.091   0.068  11.537  0.6751  0.1995  1.2525
   84TMC2    C6 1308   2.122   4.685  11.601 -0.3104 -0.6310  0.7809
   84TMC2     C 1309   1.869   0.223  11.777 -0.5107  0.1412  0.0433
   84TMC2     O 1310   1.799   0.288  11.703 -0.0768 -0.1218 -0.2695
   84TMC2     H 1311   1.922   4.696  11.865  0.2222 -0.9942 -0.0716
   84TMC2    H1 1312   1.977   0.235  11.532 -0.8918  0.7103  2.1075
   84TMC2    H2 1313   2.189   4.615  11.554 -0.0501  0.9905 -1.2380
   84TMC2    C7 1314   2.152   0.112  11.411 -0.0694 -0.9159  0.1293
   84TMC2    C8 1315   2.129   4.547  11.799  0.3049  0.3609  0.0055
   84TMC2    O1 1316   2.103   0.210  11.354  0.4946 -0.3148 -0.0469
   84TMC2    O2 1317   2.197   4.462  11.737 -0.0361 -0.2378 -0.2614
   84TMC2    O5 1318   2.178   4.621  11.900 -0.1135  0.2189 -0.0778
   84TMC2    H5 1319   2.124   4.701  11.921 -0.3000  0.9642 -3.3753
   85TMC2    C1 1320   2.486   3.539  15.765 -0.1283  0.2620 -0.2823
   85TMC2    C2 1321   2.376   3.609  15.713  0.2858 -0.5865  0.5141
   85TMC2    C3 1322   2.374   3.632  15.577  0.3713  0.2418  1.0755
   85TMC2    C4 1323   2.575   3.478  15.681 -0.4872  0.1125  0.9144
   85TMC2    C5 1324   2.564   3.498  15.548 -0.5215  0.4674  0.0836
   85TMC2    C6 1325   2.465   3.577  15.496 -0.3818 -0.3228  0.4183
   85TMC2     C 1326   2.479   3.507  15.906 -0.3680 -0.1765 -0.2731
   85TMC2     O 1327   2.381   3.523  15.974 -0.8538  0.1449 -0.2558
   85TMC2     H 1328   2.289   3.627  15.775  0.3712 -2.4575  1.1864
   85TMC2    H1 1329   2.665   3.427  15.715 -0.8316  0.8660  2.9698
   85TMC2    H2 1330   2.465   3.606  15.392  1.0437  0.1896  0.5600
   85TMC2    C7 1331   2.636   3.403  15.467  0.5113  0.2951 -0.3066
   85TMC2    C8 1332   2.261   3.702  15.514  0.8370  0.7265  0.6321
   85TMC2    O1 1333   2.730   3.343  15.520 -0.5236 -0.1172  0.3639
   85TMC2    O2 1334   2.259   3.704  15.393  0.8369  0.2473  0.4643
   85TMC2    O5 1335   2.231   3.807  15.592  0.0905 -0.1450 -0.4795
   85TMC2    H5 1336   2.291   3.811  15.670 -0.2684  3.8737 -0.4179
   86MPD2     C 1337   2.698   3.196  16.238  0.6732  0.3414  0.0880
   86MPD2    C1 1338   2.565   3.215  16.206 -0.1519 -0.2880 -0.0003
   86MPD2    C2 1339   2.536   3.307  16.114  0.1637  0.6304  0.3836
   86MPD2    C3 1340   2.634   3.383  16.059 -1.3445 -0.7868  0.4187
   86MPD2    C4 1341   2.762   3.377  16.099 -0.0663  0.0691 -0.3486
   86MPD2    C5 1342   2.796   3.277  16.183 -0.3572  0.4512  0.1147
   86MPD2     H 1343   2.432   3.318  16.083  0.3578 -0.4523 -0.6620
   86MPD2    H1 1344   2.839   3.439  16.055  2.2863 -2.5815  0.0365
   86MPD2    H2 1345   2.725   3.118  16.309  1.1471 -1.0495 -1.6072
   86MPD2    H3 1346   2.902   3.264  16.199 -0.3877 -0.9485 -0.8745
   86MPD2     N 1347   2.605   3.466  15.952 -0.3083 -0.1288  0.2863
   86MPD2    H5 1348   2.684   3.499  15.896  1.1932  0.9166  3.0279
   86MPD2    N1 1349   2.460   3.133  16.255 -0.4208  0.2033  0.3051
   86MPD2    H7 1350   2.376   3.137  16.199  1.3995  0.3649 -2.4099
   87TMC2    C1 1351   0.177   1.090   1.097  0.1124  0.1352 -0.4774
   87TMC2    C2 1352   0.138   0.999   1.192 -0.0574 -0.2144  0.6084
   87TMC2    C3 1353   0.025   1.040   1.264  0.1455  0.3158  0.4287
   87TMC2    C4 1354   0.096   1.189   1.058  0.7344 -0.1816 -0.4973
   87TMC2    C5 1355   4.701   1.195   1.112 -0.6767 -0.2746 -0.2440
   87TMC2    C6 1356   4.669   1.132   1.224 -0.5480  0.5481  0.3967
   87TMC2     C 1357   0.284   1.073   1.000 -0.5366 -0.4694 -0.0945
   87TMC2     O 1358   0.330   1.177   0.948  0.2240 -0.3352 -0.6721
   87TMC2     H 1359   0.207   0.928   1.236  0.5843  0.1281  0.1411
   87TMC2    H1 1360   0.123   1.254   0.976  0.8647 -1.3266 -1.3625
   87TMC2    H2 1361   4.581   1.155   1.284 -1.5000  0.2518 -0.8665
   87TMC2    C7 1362   4.617   1.307   1.072  0.5322  0.2516  0.4112
   87TMC2    C8 1363   4.710   0.975   1.385 -0.2357 -0.0445  0.3076
   87TMC2    O1 1364   4.520   1.338   1.138  0.4156 -0.2699  0.6416
   87TMC2    O2 1365   4.648   1.030   1.472 -1.0761 -0.0537  0.0014
   87TMC2    O5 1366   0.042   0.858   1.410  0.4119  0.2576 -0.6202
   87TMC2    H5 1367   0.073   0.810   1.331 -0.2794 -0.1423 -0.6436
   88MPD2     C 1368   4.634   1.495   0.752 -0.0190  0.0486  0.8609
   88MPD2    C1 1369   4.595   1.471   0.885  1.1454  0.6488 -0.4137
   88MPD2    C2 1370   4.516   1.563   0.949  0.5076 -0.4936 -0.1350
   88MPD2    C3 1371   4.477   1.678   0.880 -0.2077  0.2950  1.0076
   88MPD2    C4 1372   4.521   1.701   0.756  0.0259 -0.6116 -0.1684
   88MPD2    C5 1373   4.597   1.613   0.692  0.5635  0.8721 -0.3653
   88MPD2     H 1374   4.487   1.561   1.053  0.3327  3.2159 -0.0984
   88MPD2    H1 1375   4.489   1.782   0.691 -1.2343  0.2112  1.4979
   88MPD2    H2 1376   4.704   1.430   0.703 -3.2441 -0.8171 -2.5776
   88MPD2    H3 1377   4.636   1.616   0.591 -0.1543  1.3909 -0.6241
   88MPD2     N 1378   4.391   1.780   0.940 -0.8721 -0.9300  0.4189
   88MPD2    H5 1379   4.368   1.852   0.873  1.1554 -1.0479 -0.4030
   88MPD2    N1 1380   4.646   1.354   0.947 -0.3016 -0.2947 -0.8992
   88MPD2    H7 1381   4.706   1.296   0.889  1.0148 -0.5806  0.7724
   89TMC2    C1 1382   1.310   4.680   1.577 -0.1306 -0.2276 -0.1706
   89TMC2    C2 1383   1.426   4.682   1.500  0.3665 -0.0113 -0.1287
   89TMC2    C3 1384   1.438   0.026   1.391  0.3609  0.4245 -0.5987
   89TMC2    C4 1385   1.207   0.031   1.545 -0.6145 -0.1832 -0.3449
   89TMC2    C5 1386   1.229   0.119   1.439  0.0348 -0.2644  0.2379
   89TMC2    C6 1387   1.342   0.116   1.358  0.0202 -0.4914 -0.5074
   89TMC2     C 1388   1.327   4.645   1.713 -0.2496  0.7641 -0.1848
   89TMC2     O 1389   1.440   4.639   1.759 -0.0088 -0.0552  0.2893
   89TMC2     H 1390   1.515   4.629   1.532  2.9159  3.3204 -1.6832
   89TMC2    H1 1391   1.131   0.051   1.620  2.3737 -1.0828  2.9007
   89TMC2    H2 1392   1.338   0.167   1.262  1.7560 -1.0864 -0.9018
   89TMC2    C7 1393   1.125   0.212   1.404 -0.0097  0.1147  0.8358
   89TMC2    C8 1394   1.579   0.056   1.349 -0.9301  0.0107  0.0945
   89TMC2    O1 1395   1.010   0.168   1.427 -0.5332  0.4302 -0.1686
   89TMC2    O2 1396   1.668   4.705   1.362  0.0750  0.1884 -0.0493
   89TMC2    O5 1397   1.596   0.182   1.390  0.0189  0.7591  0.1389
   89TMC2    H5 1398   1.525   0.246   1.368 -0.1329  0.0462 -1.4457
   90MPD2     C 1399   1.137   4.523   2.180 -0.4216 -0.1843 -0.5614
   90MPD2    C1 1400   1.038   4.514   2.081 -0.3458 -0.1504 -0.1323
   90MPD2    C2 1401   1.073   4.523   1.949 -0.2355 -0.8288  0.5343
   90MPD2    C3 1402   1.196   4.566   1.911  0.6082  0.0284 -0.0552
   90MPD2    C4 1403   1.290   4.584   2.008 -0.2362  0.0716 -0.3510
   90MPD2    C5 1404   1.259   4.560   2.138  0.1686  0.2345 -0.2668
   90MPD2     H 1405   0.995   4.517   1.874  0.1464  1.3063 -0.0149
   90MPD2    H1 1406   1.386   4.628   1.985 -0.3817 -0.4212 -1.9052
   90MPD2    H2 1407   1.113   4.503   2.284  0.5322  1.6644  0.0238
   90MPD2    H3 1408   1.341   4.563   2.209  2.8718 -3.2794 -3.2688
   90MPD2     N 1409   1.212   4.605   1.772 -0.1207 -0.1828 -0.1945
   90MPD2    H5 1410   1.136   4.586   1.708 -1.1977  1.1757  0.6731
   90MPD2    N1 1411   0.902   4.500   2.115 -0.0707 -0.2261 -0.0059
   90MPD2    H7 1412   0.834   4.457   2.052 -0.2363 -1.8605  1.2775
   91TMC2    C1 1413   2.210   4.619  16.652  0.6537 -0.0155 -0.3306
   91TMC2    C2 1414   2.263   4.630  16.776 -0.5036 -0.0279 -0.2297
   91TMC2    C3 1415   2.209   4.563  16.879  0.0822  0.6849  0.5096
   91TMC2    C4 1416   2.105   4.534  16.636 -0.0671 -0.2664  0.0234
   91TMC2    C5 1417   2.052   4.470  16.740 -0.2589 -1.0555 -0.0590
   91TMC2    C6 1418   2.097   4.488  16.870  0.0152 -0.0557  0.8315
   91TMC2     C 1419   2.288   4.640  16.533 -0.7954 -1.1460 -0.3252
   91TMC2     O 1420   2.231   4.671  16.432 -0.3630  0.2373  0.2318
   91TMC2     H 1421   2.365   4.665  16.786 -0.4541 -0.1469 -0.3175
   91TMC2    H1 1422   2.077   4.516  16.533 -0.5091  1.8563 -0.2415
   91TMC2    H2 1423   2.056   4.426  16.949 -0.3104  0.4501  1.0615
   91TMC2    C7 1424   1.987   4.342  16.715 -0.6348 -0.1768 -0.6185
   91TMC2    C8 1425   2.263   4.594  17.015 -0.0318  0.7854  0.1222
   91TMC2    O1 1426   2.021   4.254  16.792  0.2137  0.4327  0.3625
   91TMC2    O2 1427   2.377   4.630  17.044  0.1144  0.0981  0.1448
   91TMC2    O5 1428   2.166   4.580  17.103 -1.0399  0.1408  0.3600
   91TMC2    H5 1429   2.080   4.560  17.060 -1.2333  3.2526 -0.7603
   92MPD2     C 1430   2.462   4.563  16.305  0.0066 -0.2810 -0.8688
   92MPD2    C1 1431   2.503   4.556  16.436 -0.2164 -0.5334  0.0103
   92MPD2    C2 1432   2.629   4.500  16.466 -0.3798  0.3619  0.6197
   92MPD2    C3 1433   2.712   4.457  16.366  0.8934 -0.1242  0.3899
   92MPD2    C4 1434   2.666   4.461  16.230  0.2346 -0.1763 -0.1573
   92MPD2    C5 1435   2.544   4.510  16.207 -0.6849 -0.4289 -0.0264
   92MPD2     H 1436   2.675   4.499  16.565  0.5249 -0.3596  0.1886
   92MPD2    H1 1437   2.722   4.427  16.144 -0.4596  0.8190 -1.0014
   92MPD2    H2 1438   2.368   4.604  16.271 -0.7730 -0.9705  0.4618
   92MPD2    H3 1439   2.508   4.532  16.107 -2.1943 -3.0412 -0.0645
   92MPD2     N 1440   2.838   4.407  16.406  0.1571 -0.7299  0.1877
   92MPD2    H5 1441   2.864   4.395  16.503  3.6559 -2.4237 -0.9857
   92MPD2    N1 1442   2.417   4.596  16.544 -0.3063 -0.4076  0.0311
   92MPD2    H7 1443   2.447   4.565  16.636  2.0610  1.1520 -0.2211
   93TMC2    C1 1444   4.262   4.432  14.207  0.1156  0.4277 -0.8565
   93TMC2    C2 1445   4.229   4.419  14.344 -0.4599 -0.9771 -0.5310
   93TMC2    C3 1446   4.339   4.440  14.431  0.1278 -0.8663 -0.0194
   93TMC2    C4 1447   4.384   4.472  14.161  0.0943 -0.6641 -0.4717
   93TMC2    C5 1448   4.476   4.510  14.251 -0.6672 -0.3637  0.6679
   93TMC2    C6 1449   4.456   4.491  14.385 -0.1561  0.4141  0.4192
   93TMC2     C 1450   4.178   4.375  14.107  0.2073 -0.5787 -1.0726
   93TMC2     O 1451   4.225   4.373  13.993  0.6126 -0.0292 -0.5833
   93TMC2     H 1452   4.144   4.365  14.384 -1.2508  1.3361  0.9282
   93TMC2    H1 1453   4.408   4.460  14.056 -2.2729 -2.6369 -0.7840
   93TMC2    H2 1454   4.538   4.520  14.450  0.8878 -1.1199 -0.2185
   93TMC2    C7 1455   4.607   4.546  14.207  0.2967  0.7554 -0.5845
   93TMC2    C8 1456   4.309   4.464  14.574  0.2723  0.4358  0.0017
   93TMC2    O1 1457   4.696   4.530  14.292  0.1906  0.6567  0.7230
   93TMC2    O2 1458   4.357   4.559  14.637  0.4119  0.3221 -0.1191
   93TMC2    O5 1459   4.217   4.379  14.634 -0.2639  0.5719 -0.0138
   93TMC2    H5 1460   4.190   4.298  14.585 -0.4588  1.3603 -1.2052
   94MPD2     C 1461   3.997   4.163  13.984 -0.1544  0.6827 -0.0465
   94MPD2    C1 1462   3.968   4.227  14.100  0.4477 -0.1364 -0.3245
   94MPD2    C2 1463   3.846   4.192  14.154  0.5393  0.5187  0.2247
   94MPD2    C3 1464   3.751   4.114  14.088  0.2291 -0.4886 -0.0185
   94MPD2    C4 1465   3.786   4.044  13.974  0.2331  0.2048 -0.1988
   94MPD2    C5 1466   3.914   4.063  13.934  0.2613  0.0721  0.5083
   94MPD2     H 1467   3.823   4.222  14.255  3.1573  0.0494  0.9605
   94MPD2    H1 1468   3.720   3.988  13.909  1.3623  1.7064 -2.6150
   94MPD2    H2 1469   4.092   4.177  13.934  0.1139 -0.6936  0.0987
   94MPD2    H3 1470   3.954   4.006  13.851  0.4215 -0.9211  1.2729
   94MPD2     N 1471   3.618   4.099  14.131  0.0266 -0.2202  0.1671
   94MPD2    H5 1472   3.552   4.043  14.079 -1.4552  0.0210  1.7728
   94MPD2    N1 1473   4.058   4.320  14.160 -0.1238  0.2925 -0.0429
   94MPD2    H7 1474   4.035   4.351  14.254  2.8482  2.0960  0.1025
   95TMC2    C1 1475   4.203   1.288  16.560 -0.4051 -1.0352 -0.3062
   95TMC2    C2 1476   4.211   1.391  16.647  0.0911  0.2293  0.5301
   95TMC2    C3 1477   4.170   1.363  16.774 -0.4994  0.0391  0.2375
   95TMC2    C4 1478   4.156   1.165  16.598  0.0017 -0.1376  0.5354
   95TMC2    C5 1479   4.116   1.144  16.730 -0.7162  0.3578 -0.2274
   95TMC2    C6 1480   4.128   1.239  16.817  0.1901  0.4916 -0.0409
   95TMC2     C 1481   4.266   1.304  16.433 -1.0389 -0.0173 -0.1632
   95TMC2     O 1482   4.343   1.395  16.416  0.2946 -0.4367  0.2449
   95TMC2     H 1483   4.241   1.489  16.611  0.2228 -0.0733 -0.1762
   95TMC2    H1 1484   4.179   1.075  16.541 -1.0821  0.3803 -0.7093
   95TMC2    H2 1485   4.097   1.231  16.920  1.7406  2.2035  0.5509
   95TMC2    C7 1486   4.076   1.009  16.760 -0.3434  0.2776 -0.1772
   95TMC2    C8 1487   4.172   1.461  16.876  0.7696  0.3671 -0.4094
   95TMC2    O1 1488   4.043   0.942  16.667 -0.4355  0.2285 -0.0074
   95TMC2    O2 1489   4.193   1.423  16.988  0.1643 -0.0061  0.0836
   95TMC2    O5 1490   4.162   1.581  16.815  0.8582 -0.0576  0.3577
   95TMC2    H5 1491   4.102   1.588  16.738  2.2830 -1.7848 -0.8937
   96MPD2     C 1492   4.317   1.174  15.954  0.0083 -0.1925  0.3408
   96MPD2    C1 1493   4.373   1.280  16.015 -0.0568 -0.5575  0.0539
   96MPD2    C2 1494   4.341   1.296  16.146  0.6192 -0.1706  0.6432
   96MPD2    C3 1495   4.268   1.202  16.214 -0.3439 -0.0117 -0.3841
   96MPD2    C4 1496   4.216   1.096  16.154  0.0187 -0.6431 -0.4107
   96MPD2    C5 1497   4.239   1.081  16.021 -0.2713  0.5297  0.6767
   96MPD2     H 1498   4.387   1.380  16.197 -0.0782  0.1069  0.8153
   96MPD2    H1 1499   4.158   1.014  16.194  1.6448 -0.9050  1.3686
   96MPD2    H2 1500   4.340   1.162  15.849  0.7912 -2.1411  0.7470
   96MPD2    H3 1501   4.188   1.002  15.968  1.5074 -1.3969  1.8448
   96MPD2     N 1502   4.235   1.202  16.353  0.5621  0.4126  0.4824
   96MPD2    H5 1503   4.181   1.125  16.391  0.9743  0.3254  0.8917
   96MPD2    N1 1504   4.461   1.358  15.933  0.4403  0.1265  0.3392
   96MPD2    H7 1505   4.486   1.322  15.842  0.0588  2.4688 -0.6852
   97TMC2    C1 1506   1.572   4.253   0.407  0.4596 -0.4428 -0.7126
   97TMC2    C2 1507   1.444   4.305   0.401 -0.2138 -0.1409 -0.0953
   97TMC2    C3 1508   1.431   4.439   0.376  0.6555 -0.1058 -0.6052
   97TMC2    C4 1509   1.678   4.333   0.381  0.5815 -0.2222  0.7382
   97TMC2    C5 1510   1.660   4.466   0.346  1.1535 -0.3007  0.9375
   97TMC2    C6 1511   1.537   4.531   0.360  0.1856 -0.0566 -0.2252
   97TMC2     C 1512   1.608   4.141   0.491  0.2173 -0.4333  0.5169
   97TMC2     O 1513   1.724   4.128   0.530 -0.6531  0.2686  0.7222
   97TMC2     H 1514   1.357   4.252   0.439  2.8447 -3.5013  2.2532
   97TMC2    H1 1515   1.778   4.292   0.381  0.4249 -0.6089 -0.4840
   97TMC2    H2 1516   1.534   4.638   0.340 -1.5827 -0.0462  0.1522
   97TMC2    C7 1517   1.777   4.547   0.312  0.0466 -0.3352 -0.8161
   97TMC2    C8 1518   1.301   4.509   0.387 -0.4611  0.6321  0.9169
   97TMC2    O1 1519   1.869   4.542   0.395  0.3508 -0.1898 -0.9818
   97TMC2    O2 1520   1.296   4.632   0.371  0.1182  0.5440 -0.6501
   97TMC2    O5 1521   1.203   4.426   0.353  0.5064 -0.2544  0.3434
   97TMC2    H5 1522   1.230   4.332   0.359 -1.3987 -0.8163  0.1872
   98MPD2     C 1523   1.520   3.690   0.713  0.3269 -1.1155  0.4757
   98MPD2    C1 1524   1.611   3.783   0.743  0.5281 -0.1557  0.0879
   98MPD2    C2 1525   1.604   3.907   0.677  0.1222  0.2371  0.0753
   98MPD2    C3 1526   1.511   3.931   0.578  0.8077 -0.1533 -0.6124
   98MPD2    C4 1527   1.427   3.831   0.547  0.0557 -0.0191 -0.3446
   98MPD2    C5 1528   1.431   3.705   0.608  0.4711 -0.8150  0.1687
   98MPD2     H 1529   1.672   3.989   0.697  0.7538 -0.5181  1.0465
   98MPD2    H1 1530   1.355   3.838   0.465 -1.0828 -1.2671  0.5525
   98MPD2    H2 1531   1.511   3.602   0.775 -0.9178 -1.0020  0.4694
   98MPD2    H3 1532   1.343   3.645   0.587  0.8933 -1.0189 -1.0048
   98MPD2     N 1533   1.504   4.047   0.499  0.2882  0.4018  0.3148
   98MPD2    H5 1534   1.427   4.064   0.435 -1.2025 -1.2735  1.6689
   98MPD2    N1 1535   1.709   3.742   0.836 -0.0668  0.2957  0.1436
   98MPD2    H7 1536   1.705   3.650   0.879  1.0547 -0.0402 -0.4494
   99TMC2    C1 1537   0.672   0.064   2.806 -0.0123  0.5782 -0.0223
   99TMC2    C2 1538   0.712   0.024   2.932  0.3788 -0.4388 -0.1942
   99TMC2    C3 1539   0.630   0.025   3.037 -0.4001 -1.2013  0.1680
   99TMC2    C4 1540   0.543   0.101   2.783 -0.3426 -0.1342  0.2075
   99TMC2    C5 1541   0.453   0.081   2.886 -0.9415 -0.9916 -0.0816
   99TMC2    C6 1542   0.490   0.043   3.013 -0.5187  0.2621  0.0513
   99TMC2     C 1543   0.776   0.126   2.713  0.0628 -0.4125  0.0562
   99TMC2     O 1544   0.885   0.158   2.757  0.0554  0.0899  0.0142
   99TMC2     H 1545   0.817   0.000   2.943  0.1689 -1.5899 -0.7700
   99TMC2    H1 1546   0.507   0.153   2.695 -0.8133 -0.5451  0.1581
   99TMC2    H2 1547   0.412   0.046   3.087 -1.5362 -0.8608 -0.9877
   99TMC2    C7 1548   0.324   0.161   2.870  0.2026 -0.1562  0.5690
   99TMC2    C8 1549   0.676   4.722   3.171 -0.0525  0.6515  0.0362
   99TMC2    O1 1550   0.267   0.209   2.964  0.2578 -0.0101  0.4179
   99TMC2    O2 1551   0.774   4.646   3.196  0.2346  0.0659 -0.3392
   99TMC2    O5 1552   0.616   0.082   3.255  0.4335  0.6678  0.1979
   99TMC2    H5 1553   0.553   0.150   3.224 -0.1941 -0.1536 -0.3342
  100MPD2     C 1554   0.920   0.219   2.475 -0.0733 -0.4493  0.0295
  100MPD2    C1 1555   0.786   0.208   2.478  0.1826  0.6025  0.0400
  100MPD2    C2 1556   0.714   0.228   2.361  0.6375  0.5605 -0.2062
  100MPD2    C3 1557   0.778   0.289   2.252 -0.3071  0.3261 -0.1296
  100MPD2    C4 1558   0.915   0.302   2.249 -0.1048 -0.4223  0.4652
  100MPD2    C5 1559   0.986   0.268   2.365 -0.2672  0.8390 -0.0702
  100MPD2     H 1560   0.606   0.232   2.365  0.6396 -1.1344  1.5625
  100MPD2    H1 1561   0.969   0.343   2.164 -1.0925 -1.4455 -0.6419
  100MPD2    H2 1562   0.987   0.194   2.557  1.7774  0.5207 -1.1890
  100MPD2    H3 1563   1.091   0.292   2.355 -0.4231  1.5350  0.0019
  100MPD2     N 1564   0.697   0.312   2.134  0.3220  0.2236 -0.6622
  100MPD2    H5 1565   0.599   0.287   2.146  0.9020 -1.6736  0.1634
  100MPD2    N1 1566   0.718   0.145   2.588 -0.2447 -0.3648 -0.7073
  100MPD2    H7 1567   0.629   0.101   2.569 -0.4199  0.5949 -2.1233
  101TMC2    C1 1568   0.879   2.379  13.187 -0.2727 -0.8930  0.5274
  101TMC2    C2 1569   0.816   2.488  13.128 -0.3193  0.2970  0.1814
  101TMC2    C3 1570   0.901   2.583  13.063  0.6495 -0.3302  1.0509
  101TMC2    C4 1571   1.017   2.359  13.182  0.0571 -0.6270 -0.3223
  101TMC2    C5 1572   1.095   2.453  13.124  0.0228 -0.3602  0.5872
  101TMC2    C6 1573   1.037   2.566  13.075 -0.7233  0.2836  0.3931
  101TMC2     C 1574   0.817   2.255  13.181  0.0828  0.5690  0.2580
  101TMC2     O 1575   0.737   2.221  13.269 -0.4967  0.1253 -0.2913
  101TMC2     H 1576   0.712   2.512  13.146 -0.5653 -0.3432 -0.3803
  101TMC2    H1 1577   1.055   2.272  13.234  1.3816  0.7811  1.0749
  101TMC2    H2 1578   1.108   2.641  13.043  1.4738 -1.8319  0.3406
  101TMC2    C7 1579   1.216   2.404  13.068 -0.3186  0.2946 -0.2943
  101TMC2    C8 1580   0.849   2.713  13.030 -0.2196  0.2771 -0.3875
  101TMC2    O1 1581   1.261   2.474  12.980 -0.5091  0.1146  0.2416
  101TMC2    O2 1582   0.740   2.753  13.069  0.4982 -0.3394  0.0049
  101TMC2    O5 1583   0.900   2.718  12.903 -0.0166  0.4749  0.0069
  101TMC2    H5 1584   0.967   2.648  12.885  1.6974  1.9102  0.7718
  102MPD2     C 1585   0.847   2.012  12.909 -0.4185 -0.2029  0.6393
  102MPD2    C1 1586   0.824   2.057  13.039 -0.3396  0.1956  0.1283
  102MPD2    C2 1587   0.775   1.971  13.136  0.2505 -0.2510  0.5266
  102MPD2    C3 1588   0.752   1.835  13.107  0.8610  0.0033  0.1579
  102MPD2    C4 1589   0.777   1.792  12.972  0.2604 -0.5251  0.2109
  102MPD2    C5 1590   0.823   1.881  12.876  0.1675 -0.1018 -0.1054
  102MPD2     H 1591   0.747   2.002  13.236 -0.9757  2.2255 -0.5910
  102MPD2    H1 1592   0.751   1.691  12.941 -0.2377 -0.5831  0.8197
  102MPD2    H2 1593   0.885   2.075  12.830 -1.8747  1.0922  0.9614
  102MPD2    H3 1594   0.821   1.876  12.767 -1.1393 -1.6270 -0.0139
  102MPD2     N 1595   0.702   1.756  13.212  0.1162 -0.2222 -0.2299
  102MPD2    H5 1596   0.674   1.795  13.302  2.3039  3.3000 -1.0738
  102MPD2    N1 1597   0.847   2.193  13.057 -1.0938  0.2635  0.9217
  102MPD2    H7 1598   0.885   2.250  12.983 -2.2820  0.5220  0.5128
  103TMC2    C1 1599   3.870   1.825  13.176  0.1571  0.0179 -0.2371
  103TMC2    C2 1600   3.975   1.800  13.258  0.1705  0.4282  0.2762
  103TMC2    C3 1601   3.992   1.890  13.363  0.0627 -0.0760  0.1021
  103TMC2    C4 1602   3.798   1.937  13.187  0.1624  0.1649 -0.1752
  103TMC2    C5 1603   3.816   2.024  13.290  0.8132  0.0380  0.3827
  103TMC2    C6 1604   3.919   2.004  13.381 -0.4230 -0.2380 -0.3875
  103TMC2     C 1605   3.844   1.749  13.054 -0.5016 -0.1411 -0.0449
  103TMC2     O 1606   3.740   1.774  12.996  0.3630  0.0794  0.3930
  103TMC2     H 1607   4.034   1.709  13.262 -0.3400  0.0615 -0.4694
  103TMC2    H1 1608   3.706   1.953  13.132 -0.5817  0.0946  1.0612
  103TMC2    H2 1609   3.930   2.082  13.455  0.9174 -1.0605  0.2825
  103TMC2    C7 1610   3.714   2.113  13.327 -0.5304 -0.4899  0.1054
  103TMC2    C8 1611   4.111   1.861  13.448  0.4699  0.1009 -0.2413
  103TMC2    O1 1612   3.721   2.157  13.440  0.8370  0.0665 -0.3299
  103TMC2    O2 1613   4.173   1.755  13.444 -0.7086  0.6150 -0.6400
  103TMC2    O5 1614   4.122   1.951  13.548  0.1864  0.1949  0.1954
  103TMC2    H5 1615   4.080   2.037  13.529  0.7021  0.4865  0.3838
  104MPD2     C 1616   4.046   1.465  12.931  0.2656  0.3372 -0.2123
  104MPD2    C1 1617   3.932   1.545  12.937 -0.0676 -0.8853 -0.4379
  104MPD2    C2 1618   3.834   1.535  12.844 -0.0155 -0.5385  0.0742
  104MPD2    C3 1619   3.849   1.444  12.736  0.0112 -0.3885 -0.2046
  104MPD2    C4 1620   3.967   1.371  12.720 -0.4714  0.2954 -0.7870
  104MPD2    C5 1621   4.062   1.382  12.823 -0.8078  0.1400  0.0556
  104MPD2     H 1622   3.746   1.600  12.847  1.0534  0.9951 -1.4577
  104MPD2    H1 1623   3.967   1.286  12.653 -0.5427  0.2693 -0.7538
  104MPD2    H2 1624   4.130   1.479  12.999  0.7074  2.2449 -1.1478
  104MPD2    H3 1625   4.154   1.323  12.824 -2.1969 -2.0416 -0.4413
  104MPD2     N 1626   3.738   1.437  12.647 -0.1541  0.9074 -0.1337
  104MPD2    H5 1627   3.660   1.498  12.667 -0.0249  1.5130 -1.5224
  104MPD2    N1 1628   3.936   1.646  13.042  0.7555 -0.1025 -0.5939
  104MPD2    H7 1629   4.010   1.635  13.111  0.5422  3.5519  0.1934
  105TMC2    C1 1630   0.685   1.144   0.166  0.4256 -1.0329  0.3095
  105TMC2    C2 1631   0.638   1.275   0.185  0.1917  0.7488  0.3065
  105TMC2    C3 1632   0.539   1.290   0.279 -0.3597  0.1324 -0.0368
  105TMC2    C4 1633   0.622   1.036   0.221 -0.7536 -0.8481 -0.5047
  105TMC2    C5 1634   0.537   1.061   0.325 -0.4148  0.2895  0.0792
  105TMC2    C6 1635   0.495   1.187   0.355  0.4330  0.4954  0.1187
  105TMC2     C 1636   0.792   1.109   0.070 -0.8159  0.1900  0.1177
  105TMC2     O 1637   0.773   1.007   0.005  0.1926  0.4297  0.4728
  105TMC2     H 1638   0.683   1.357   0.130  1.0882  0.1070  0.0823
  105TMC2    H1 1639   0.656   0.935   0.204 -1.6532 -1.4858  1.4508
  105TMC2    H2 1640   0.426   1.205   0.436 -0.6865  0.2809 -0.7914
  105TMC2    C7 1641   0.514   0.947   0.409 -0.1520 -1.0578 -0.1859
  105TMC2    C8 1642   0.508   1.429   0.303 -0.0659  0.2135 -0.8675
  105TMC2    O1 1643   0.507   0.837   0.357 -0.1177 -0.0088 -0.2601
  105TMC2    O2 1644   0.547   1.514   0.225 -0.2282 -0.1667  0.0760
  105TMC2    O5 1645   0.483   1.459   0.431  0.0879  0.6258  0.1577
  105TMC2    H5 1646   0.482   1.382   0.491  1.0417  1.2430  0.9390
  106MPD2     C 1647   1.141   1.205  17.468 -0.5923  0.1409  0.2289
  106MPD2    C1 1648   1.114   1.325  17.534 -0.2462 -0.6317 -0.2554
  106MPD2    C2 1649   1.046   1.323  17.655  0.0128  0.0668 -0.0246
  106MPD2    C3 1650   0.984   1.212  17.690  0.5539  0.0149 -0.3609
  106MPD2    C4 1651   1.022   1.093  17.630 -0.0385  0.6071 -0.0477
  106MPD2    C5 1652   1.097   1.089  17.520  0.0074  0.4044 -0.4977
  106MPD2     H 1653   1.000   1.409  17.703  0.0728 -0.4581  0.9722
  106MPD2    H1 1654   0.997   0.993  17.665  1.4449  0.1281 -0.3438
  106MPD2    H2 1655   1.183   1.213  17.368 -1.3578 -1.1062 -0.1947
  106MPD2    H3 1656   1.107   0.998  17.461 -0.3582  1.9431 -2.9098
  106MPD2     N 1657   0.885   1.212   0.054 -0.1771  0.3305 -0.4011
  106MPD2    H5 1658   0.876   1.297   0.108 -0.6808 -0.7010  1.1335
  106MPD2    N1 1659   1.150   1.440  17.466  0.4876  0.7160  0.4740
  106MPD2    H7 1660   1.197   1.427  17.377  0.8759 -4.1336  1.4276
  107TMC2    C1 1661   1.125   0.819  11.976 -0.7828  0.2616 -0.2351
  107TMC2    C2 1662   1.082   0.768  11.856 -0.5055 -0.2513  0.0145
  107TMC2    C3 1663   1.164   0.681  11.786  0.3547  0.0476 -0.4272
  107TMC2    C4 1664   1.242   0.780  12.025 -0.4509  0.2663 -0.2155
  107TMC2    C5 1665   1.327   0.695  11.950  0.4904 -0.3860  0.1147
  107TMC2    C6 1666   1.288   0.651  11.830 -0.1606 -0.6603  0.2075
  107TMC2     C 1667   1.034   0.884  12.071  0.4226  0.3884 -0.1544
  107TMC2     O 1668   1.058   0.881  12.191 -0.7104  0.4694  0.1626
  107TMC2     H 1669   0.984   0.791  11.816 -0.2199  1.1324  0.1125
  107TMC2    H1 1670   1.263   0.813  12.127 -0.2931  0.2343 -0.2375
  107TMC2    H2 1671   1.347   0.584  11.769 -1.9429 -0.5921 -1.5965
  107TMC2    C7 1672   1.409   0.614  12.043  0.0459 -0.8115  0.0956
  107TMC2    C8 1673   1.125   0.648  11.658 -0.2087 -0.3163 -0.2881
  107TMC2    O1 1674   1.399   0.637  12.161  0.0973  0.3831  0.5899
  107TMC2    O2 1675   1.130   0.732  11.569 -0.0917  0.0982  0.1845
  107TMC2    O5 1676   1.163   0.524  11.642 -0.0111 -0.2912 -0.2257
  107TMC2    H5 1677   1.143   0.465  11.717 -1.4237 -0.1220 -0.4816
  108MPD2     C 1678   0.692   0.978  11.991 -0.3702 -0.5490  0.3758
  108MPD2    C1 1679   0.799   0.964  12.072  0.2833 -0.5168  0.6794
  108MPD2    C2 1680   0.790   0.999  12.205  0.4504  0.1860  0.6454
  108MPD2    C3 1681   0.670   1.042  12.256 -0.6018  0.1993  0.4684
  108MPD2    C4 1682   0.560   1.060  12.174  0.1544 -0.0150  0.8128
  108MPD2    C5 1683   0.574   1.035  12.042  0.8449  0.0235 -0.7828
  108MPD2     H 1684   0.878   0.990  12.268  1.5405  0.2698 -0.8699
  108MPD2    H1 1685   0.464   1.088  12.216  0.1921  1.3886 -0.0324
  108MPD2    H2 1686   0.702   0.960  11.884 -2.8174  0.8317 -0.0780
  108MPD2    H3 1687   0.488   1.054  11.979 -0.0849  2.0114  1.0803
  108MPD2     N 1688   0.647   1.053  12.393 -0.2586 -0.5804 -0.1738
  108MPD2    H5 1689   0.549   1.061  12.418 -0.6080  2.7705 -2.6796
  108MPD2    N1 1690   0.915   0.918  12.010  0.2482 -0.2455 -0.0249
  108MPD2    H7 1691   0.908   0.892  11.912 -1.1992 -0.8029  0.2193
  109TMC2    C1 1692   0.986   3.860   1.565 -0.5163  0.0049  0.0470
  109TMC2    C2 1693   0.956   3.846   1.694  0.2956 -0.4908  0.0010
  109TMC2    C3 1694   1.052   3.824   1.785  0.6128  0.8642 -0.6547
  109TMC2    C4 1695   1.112   3.840   1.515 -0.3417 -0.0836  0.7404
  109TMC2    C5 1696   1.206   3.796   1.612  0.7863  0.1038 -0.5538
  109TMC2    C6 1697   1.180   3.776   1.748  0.1508  0.1396 -0.3115
  109TMC2     C 1698   0.880   3.880   1.479 -1.2974  0.3741 -0.0901
  109TMC2     O 1699   0.789   3.955   1.519 -0.2410 -0.0364  0.0005
  109TMC2     H 1700   0.856   3.866   1.732 -1.1130 -1.7888 -2.9944
  109TMC2    H1 1701   1.146   3.845   1.412 -0.5226  1.0211  0.7333
  109TMC2    H2 1702   1.249   3.732   1.818  0.2970 -2.0363 -1.8140
  109TMC2    C7 1703   1.345   3.795   1.565 -0.2909 -0.3617 -0.4362
  109TMC2    C8 1704   1.010   3.805   1.921  0.7402 -0.1763  0.0660
  109TMC2    O1 1705   1.371   3.804   1.445  0.5697 -0.4713 -0.0847
  109TMC2    O2 1706   0.904   3.749   1.939 -0.0266 -0.4848  0.3078
  109TMC2    O5 1707   1.116   3.825   2.003  0.4058  0.1489  0.4577
  109TMC2    H5 1708   1.192   3.866   1.958  0.6931 -1.5111 -0.5490
  110MPD2     C 1709   0.593   3.740   1.094  0.1305  0.3153 -0.5791
  110MPD2    C1 1710   0.685   3.647   1.126 -0.2296  0.0789  0.5172
  110MPD2    C2 1711   0.800   3.682   1.201 -0.4389  0.7668  0.1489
  110MPD2    C3 1712   0.808   3.803   1.257  0.0918 -0.1442  0.1487
  110MPD2    C4 1713   0.701   3.890   1.239 -0.1112  0.3117 -0.5940
  110MPD2    C5 1714   0.606   3.866   1.149  0.1403 -0.2895 -0.2488
  110MPD2     H 1715   0.864   3.607   1.246 -1.3943 -0.3157 -0.3108
  110MPD2    H1 1716   0.696   3.985   1.291 -2.8086  1.0434 -2.1743
  110MPD2    H2 1717   0.504   3.726   1.032 -0.1151 -0.4872 -0.0347
  110MPD2    H3 1718   0.525   3.932   1.122  0.3725  0.6977  1.5068
  110MPD2     N 1719   0.902   3.819   1.357 -0.1575 -0.0790  0.2932
  110MPD2    H5 1720   0.983   3.757   1.359  0.3973  0.6737  0.8703
  110MPD2    N1 1721   0.659   3.513   1.092  0.0808 -0.1559 -0.3770
  110MPD2    H7 1722   0.573   3.497   1.040  0.1093 -0.5673 -0.2952
  111TMC2    C1 1723   1.237   2.608  11.457  0.4526  0.4064 -0.7552
  111TMC2    C2 1724   1.279   2.739  11.443 -0.8977  0.1943  0.4150
  111TMC2    C3 1725   1.318   2.807  11.556  0.7158  0.0002  0.4324
  111TMC2    C4 1726   1.251   2.538  11.573 -0.5285 -0.1452  0.1080
  111TMC2    C5 1727   1.295   2.613  11.677  0.7715 -0.0211  0.0152
  111TMC2    C6 1728   1.330   2.744  11.679 -0.4092 -0.0059  0.0130
  111TMC2     C 1729   1.186   2.563  11.329  0.1956 -0.1881 -0.1223
  111TMC2     O 1730   1.230   2.616  11.228  0.1717 -0.3562 -0.3115
  111TMC2     H 1731   1.276   2.796  11.351  0.2826 -0.3473  0.0521
  111TMC2    H1 1732   1.240   2.430  11.581 -1.4907  0.0001  0.7787
  111TMC2    H2 1733   1.367   2.793  11.768 -0.7266 -0.4344  0.3812
  111TMC2    C7 1734   1.372   2.540  11.775  0.9912 -0.0680  0.1752
  111TMC2    C8 1735   1.372   2.936  11.534  0.3320  0.3729  0.1649
  111TMC2    O1 1736   1.383   2.576  11.887 -0.0223 -0.4367 -0.7718
  111TMC2    O2 1737   1.403   2.975  11.423 -0.1918  0.1535  0.2360
  111TMC2    O5 1738   1.342   3.008  11.640  0.0169  0.5030 -0.1311
  111TMC2    H5 1739   1.290   2.957  11.706  1.7710 -2.0133 -0.6465
  112MPD2     C 1740   0.927   2.202  11.050 -0.0027  0.8944  0.7743
  112MPD2    C1 1741   0.989   2.323  11.014  0.0667  1.1629 -0.1691
  112MPD2    C2 1742   1.042   2.408  11.108 -0.4595  0.1024 -0.3777
  112MPD2    C3 1743   1.042   2.383  11.243  0.1105  0.3394 -0.5809
  112MPD2    C4 1744   0.977   2.268  11.278  0.2799 -0.0868 -0.1040
  112MPD2    C5 1745   0.925   2.177  11.185 -0.3145 -0.1724  0.9409
  112MPD2     H 1746   1.077   2.504  11.071 -0.5838  0.2457 -0.1294
  112MPD2    H1 1747   0.959   2.239  11.381  0.3862  0.1628 -0.0143
  112MPD2    H2 1748   0.894   2.125  10.981  0.7447  1.6636 -0.4304
  112MPD2    H3 1749   0.884   2.088  11.231 -0.1910 -0.9657 -0.4632
  112MPD2     N 1750   1.094   2.464  11.343  0.2599 -0.7134 -0.2879
  112MPD2    H5 1751   1.081   2.442  11.441  1.7326  0.4507  0.1594
  112MPD2    N1 1752   0.986   2.367  10.877  0.1931 -0.0116 -0.2627
  112MPD2    H7 1753   1.035   2.453  10.854 -1.1536  0.3953 -1.5560
  113TMC2    C1 1754   4.027   0.462   1.158 -0.5942  0.6168 -0.8764
  113TMC2    C2 1755   3.947   0.571   1.188  0.3267 -0.6445 -0.8916
  113TMC2    C3 1756   3.842   0.585   1.103 -0.3628  0.2752  0.2978
  113TMC2    C4 1757   4.007   0.377   1.052  0.2755 -0.1199  0.0061
  113TMC2    C5 1758   3.905   0.401   0.969 -0.4214  0.0773  0.5228
  113TMC2    C6 1759   3.815   0.501   0.995 -0.0291 -0.8735 -0.1556
  113TMC2     C 1760   4.160   0.480   1.216 -0.2102 -0.2815  0.3707
  113TMC2     O 1761   4.188   0.589   1.267 -0.3771  0.2385  0.1942
  113TMC2     H 1762   3.956   0.634   1.276 -3.2768 -1.5918  0.1255
  113TMC2    H1 1763   4.081   0.300   1.032  3.9441  3.0973  1.1691
  113TMC2    H2 1764   3.722   0.504   0.940 -0.1135  1.6463  0.1434
  113TMC2    C7 1765   3.855   0.297   0.876 -0.9079  0.0710  0.3648
  113TMC2    C8 1766   3.732   0.657   1.166 -0.0237 -0.0508  0.8236
  113TMC2    O1 1767   3.783   0.321   0.776 -0.4159 -0.1813 -0.7329
  113TMC2    O2 1768   3.733   0.704   1.282 -0.4979  0.2633  0.1900
  113TMC2    O5 1769   3.632   0.681   1.083 -0.2197  0.7893 -0.0832
  113TMC2    H5 1770   3.662   0.682   0.989  0.1316  0.4343  0.0249
  114MPD2     C 1771   4.606   0.264   1.355  0.2906  0.3153 -0.5393
  114MPD2    C1 1772   4.556   0.387   1.379 -0.5091 -0.5065  0.0295
  114MPD2    C2 1773   4.428   0.421   1.338  0.4063 -0.3836  0.5344
  114MPD2    C3 1774   4.355   0.328   1.265  0.7397 -0.0325 -0.1437
  114MPD2    C4 1775   4.398   0.194   1.258 -0.1962 -0.8471  0.4899
  114MPD2    C5 1776   4.530   0.164   1.308  0.0293  0.0420 -0.2655
  114MPD2     H 1777   4.384   0.516   1.366  2.5795  0.5139  0.9050
  114MPD2    H1 1778   4.341   0.110   1.220 -0.0931  0.5930 -2.8814
  114MPD2    H2 1779   4.709   0.240   1.377 -0.6948 -2.6849  0.7983
  114MPD2    H3 1780   4.564   0.062   1.301  1.0096  0.3059  0.7442
  114MPD2     N 1781   4.233   0.359   1.211  0.2801  0.2732 -0.6129
  114MPD2    H5 1782   4.188   0.276   1.175 -1.2818  0.4404  0.9593
  114MPD2    N1 1783   4.635   0.478   1.454 -0.5256 -0.7461 -0.1300
  114MPD2    H7 1784   4.593   0.567   1.480  2.0730 -0.1070  1.9605
  115TMC2    C1 1785   0.485   3.615  17.620  0.0820  0.4906  0.1325
  115TMC2    C2 1786   0.595   3.606  17.533 -0.0444  0.6184  0.1349
  115TMC2    C3 1787   0.632   3.723  17.469 -0.2528  0.0818  0.3436
  115TMC2    C4 1788   0.406   3.724  17.624  0.4646  0.3340 -0.0275
  115TMC2    C5 1789   0.452   3.840  17.564  0.1269 -0.4164 -0.2715
  115TMC2    C6 1790   0.565   3.842  17.483  0.6164 -0.1875 -0.1203
  115TMC2     C 1791   0.451   3.494  17.696 -0.1833  0.2865 -0.1251
  115TMC2     O 1792   0.337   3.488   0.009  0.6924 -0.3465  0.2985
  115TMC2     H 1793   0.641   3.509  17.514 -1.0084 -0.4375  3.1864
  115TMC2    H1 1794   0.327   3.720  17.699 -1.5681  2.9154 -2.0251
  115TMC2    H2 1795   0.605   3.932  17.437  0.4859  0.8616  1.8116
  115TMC2    C7 1796   0.415   3.962  17.636 -0.2854  0.2887 -0.5032
  115TMC2    C8 1797   0.737   3.720  17.377  0.5041  0.5000  0.6977
  115TMC2    O1 1798   0.340   3.942  17.731  0.0519  0.5842  0.2218
  115TMC2    O2 1799   0.756   3.807  17.290  0.3011  0.6409 -0.0890
  115TMC2    O5 1800   0.836   3.660  17.443  0.4005  0.0414  0.4854
  115TMC2    H5 1801   0.811   3.593  17.510 -0.5028 -0.6822 -0.5701
  116MPD2     C 1802   0.569   3.020   0.088 -0.3289 -0.2471  0.9519
  116MPD2    C1 1803   0.456   3.091   0.119  0.8278  0.0160 -0.2748
  116MPD2    C2 1804   0.444   3.220   0.074  0.7764  0.1770  0.0541
  116MPD2    C3 1805   0.556   3.273   0.008  0.0538  0.2715 -0.3247
  116MPD2    C4 1806   0.667   3.195  17.723  0.6200 -0.5823 -0.1924
  116MPD2    C5 1807   0.676   3.073   0.028  0.4106 -0.4726  0.0622
  116MPD2     H 1808   0.358   3.277   0.108  0.3143 -0.5218  0.0557
  116MPD2    H1 1809   0.754   3.240  17.678 -0.4930  1.4002 -0.3482
  116MPD2    H2 1810   0.570   2.915   0.115 -1.8828 -0.3576  0.5835
  116MPD2    H3 1811   0.763   3.014   0.001 -1.6491 -3.0468 -0.9227
  116MPD2     N 1812   0.557   3.403  17.695 -0.2059  0.2236  0.1975
  116MPD2    H5 1813   0.640   3.434  17.646  0.0663 -3.2309 -1.5433
  116MPD2    N1 1814   0.365   3.019   0.201 -0.0985 -0.3425 -0.1230
  116MPD2    H7 1815   0.391   2.922   0.219 -0.2288 -0.2428  0.5863
  117TMC2    C1 1816   3.546   4.520  14.544 -0.1239 -0.0576 -0.0154
  117TMC2    C2 1817   3.669   4.462  14.566  0.5865  0.6323  0.7218
  117TMC2    C3 1818   3.783   4.539  14.547  0.2329  0.3790 -0.1143
  117TMC2    C4 1819   3.538   4.653  14.514  0.7077 -0.2267  0.1984
  117TMC2    C5 1820   3.655   4.727  14.496  0.2117  0.3461  0.7194
  117TMC2    C6 1821   3.780   4.665  14.506  0.6634  0.2623  1.0230
  117TMC2     C 1822   3.425   4.453  14.568 -0.4367 -0.6271 -0.4373
  117TMC2     O 1823   3.425   4.373  14.661  0.1378  0.2018  0.0529
  117TMC2     H 1824   3.675   4.358  14.598  1.2964  0.7765  1.0475
  117TMC2    H1 1825   3.442   4.702  14.516 -0.1005 -1.8947  1.7802
  117TMC2    H2 1826   3.867   4.725  14.484 -0.9437  3.5114  3.4516
  117TMC2    C7 1827   3.668   0.136  14.515 -0.1690  0.0894  0.1802
  117TMC2    C8 1828   3.904   4.470  14.501  0.1564  0.2198  0.0595
  117TMC2    O1 1829   3.767   0.193  14.479 -0.0742 -0.2886 -0.6027
  117TMC2    O2 1830   3.902   4.381  14.419  0.0187  0.5036  0.0503
  117TMC2    O5 1831   4.004   4.557  14.508 -0.1039  0.3855  0.3475
  117TMC2    H5 1832   3.994   4.604  14.594  1.3138 -0.1805  0.8431
  118MPD2     C 1833   3.407   0.380  14.597  0.0582 -0.7784  0.0208
  118MPD2    C1 1834   3.522   0.331  14.544  0.9006 -0.1335  0.7768
  118MPD2    C2 1835   3.617   0.430  14.511 -0.1335 -0.7239 -0.3135
  118MPD2    C3 1836   3.586   0.562  14.499 -0.1919  0.4774 -0.1841
  118MPD2    C4 1837   3.461   0.602  14.540 -0.6994  0.0034  0.1566
  118MPD2    C5 1838   3.366   0.511  14.578 -0.3849  0.4618  0.2947
  118MPD2     H 1839   3.716   0.393  14.489  0.5870 -0.2086  2.1711
  118MPD2    H1 1840   3.424   0.702  14.525  1.0760  0.3427 -1.9421
  118MPD2    H2 1841   3.326   0.319  14.635 -0.7587  0.3478  0.1092
  118MPD2    H3 1842   3.269   0.550  14.607 -0.3927  1.1277 -0.6286
  118MPD2     N 1843   3.670   0.668  14.467 -0.4587 -0.1049 -0.4136
  118MPD2    H5 1844   3.631   0.762  14.474  1.3191  0.5450  0.5673
  118MPD2    N1 1845   3.545   0.193  14.543 -0.0383  0.2715 -0.0529
  118MPD2    H7 1846   3.469   0.132  14.571 -0.6963  0.7552 -0.8244
  119TMC2    C1 1847   1.988   0.855  13.753 -0.6761  0.5978  0.5321
  119TMC2    C2 1848   2.052   0.777  13.844  0.3797  0.1995 -0.0549
  119TMC2    C3 1849   1.966   0.687  13.913 -0.5413  0.0477 -0.0916
  119TMC2    C4 1850   1.856   0.832  13.716  0.1958  0.2245  0.0158
  119TMC2    C5 1851   1.780   0.742  13.783 -0.1669  0.1235  0.1341
  119TMC2    C6 1852   1.838   0.666  13.878 -0.0400 -0.1008 -0.4407
  119TMC2     C 1853   2.058   0.978  13.702  0.7177 -0.4027  0.2525
  119TMC2     O 1854   1.992   1.071  13.663  0.4529  0.5152 -0.0696
  119TMC2     H 1855   2.158   0.787  13.863  0.1883 -0.4932  1.4201
  119TMC2    H1 1856   1.813   0.898  13.641 -0.9772 -1.4353 -0.7803
  119TMC2    H2 1857   1.781   0.591  13.930  1.6416 -2.8612 -2.5369
  119TMC2    C7 1858   1.635   0.772  13.792 -0.3209  0.2590  0.5173
  119TMC2    C8 1859   2.016   0.613  14.030 -0.1072  0.0234 -0.6432
  119TMC2    O1 1860   1.590   0.862  13.722  0.9318 -0.6295  0.2744
  119TMC2    O2 1861   2.135   0.588  14.036  0.3638  0.1012 -0.2155
  119TMC2    O5 1862   1.921   0.595  14.116  0.2765  0.1845  0.1401
  119TMC2    H5 1863   1.854   0.666  14.108  1.9034  1.6433 -0.5620
  120MPD2     C 1864   2.473   1.264  13.676 -0.4152  0.5807  0.5278
  120MPD2    C1 1865   2.340   1.298  13.666 -0.5116  0.3224 -0.1790
  120MPD2    C2 1866   2.245   1.198  13.659  0.0380  0.2531 -0.1779
  120MPD2    C3 1867   2.285   1.067  13.684 -0.1068 -0.5748 -0.2973
  120MPD2    C4 1868   2.413   1.032  13.689 -0.2673  0.2643  0.4141
  120MPD2    C5 1869   2.510   1.129  13.686 -0.9102  0.3551  0.5196
  120MPD2     H 1870   2.141   1.224  13.646 -0.8642 -3.0238  0.4871
  120MPD2    H1 1871   2.439   0.927  13.699  0.9079  0.5979  0.8841
  120MPD2    H2 1872   2.549   1.341  13.667  1.0396 -0.9561 -0.3757
  120MPD2    H3 1873   2.616   1.104  13.680 -1.1334 -0.0512 -1.6641
  120MPD2     N 1874   2.195   0.963  13.703  0.0218  0.1569 -1.5986
  120MPD2    H5 1875   2.237   0.872  13.721  1.2892  0.9472 -0.5829
  120MPD2    N1 1876   2.307   1.437  13.650  0.9578 -0.2903 -0.3242
  120MPD2    H7 1877   2.385   1.498  13.629  0.3793  0.2571 -0.8835
  121TMC2    C1 1878   3.556   2.815  14.359  0.0123 -0.1460 -0.3748
  121TMC2    C2 1879   3.506   2.696  14.414  0.2965 -0.6377  0.4904
  121TMC2    C3 1880   3.374   2.683  14.432  0.9227 -0.3933  0.0242
  121TMC2    C4 1881   3.476   2.913  14.307 -0.0282  0.1356 -0.6929
  121TMC2    C5 1882   3.343   2.900  14.336 -0.2102 -0.5740 -0.2919
  121TMC2    C6 1883   3.287   2.785  14.394  0.6123 -0.1781  0.1352
  121TMC2     C 1884   3.676   2.797  14.286  0.4611 -0.4039 -0.5407
  121TMC2     O 1885   3.774   2.743  14.332  0.5066  0.2016  0.3737
  121TMC2     H 1886   3.574   2.612  14.423  0.7200 -0.6993 -3.3568
  121TMC2    H1 1887   3.511   3.008  14.270 -2.2251  1.7123  1.2789
  121TMC2    H2 1888   3.182   2.773  14.419  0.4988 -0.4608 -0.4710
  121TMC2    C7 1889   3.251   2.996  14.275  0.8392 -0.2747  0.5023
  121TMC2    C8 1890   3.316   2.549  14.439 -0.1944 -0.4711 -0.2705
  121TMC2    O1 1891   3.289   3.112  14.259  0.0796 -0.1833 -0.5518
  121TMC2    O2 1892   3.209   2.512  14.390 -0.4769  0.1862 -0.7738
  121TMC2    O5 1893   3.373   2.492  14.551  0.1597  0.0178  0.0500
  121TMC2    H5 1894   3.442   2.551  14.588  0.3674  0.1622 -0.5612
  122MPD2     C 1895   3.898   2.897  14.109  0.0267 -0.3740  0.4233
  122MPD2    C1 1896   3.766   2.880  14.070  0.5132  0.0127 -0.4463
  122MPD2    C2 1897   3.728   2.920  13.947  0.0596 -0.0295  0.0401
  122MPD2    C3 1898   3.815   2.970  13.855  1.2286  0.1201 -0.4437
  122MPD2    C4 1899   3.952   2.984  13.887  0.2233 -0.4246 -0.3575
  122MPD2    C5 1900   3.987   2.948  14.016 -0.4825 -0.1446  0.5346
  122MPD2     H 1901   3.627   2.914  13.910  0.8176 -0.5035 -1.9513
  122MPD2    H1 1902   4.030   3.015  13.819  0.4929 -0.7859 -0.2166
  122MPD2    H2 1903   3.926   2.884  14.213  0.6243 -0.2535  0.2779
  122MPD2    H3 1904   4.090   2.959  14.048 -0.0051 -0.0415 -1.0501
  122MPD2     N 1905   3.782   3.013  13.730 -0.3301  0.3143  0.4164
  122MPD2    H5 1906   3.853   3.029  13.659  1.0519  0.4384  1.8331
  122MPD2    N1 1907   3.659   2.845  14.154  0.6840 -0.0477 -0.4344
  122MPD2    H7 1908   3.565   2.852  14.118  0.1282 -0.5019  0.9305
  123TMC2    C1 1909   1.764   1.305  10.930  0.1449 -0.5139 -0.0373
  123TMC2    C2 1910   1.753   1.422  10.998 -0.1320 -0.4285  0.1064
  123TMC2    C3 1911   1.732   1.538  10.930 -0.8891 -0.3908  0.4281
  123TMC2    C4 1912   1.753   1.306  10.799 -0.2021 -0.3957 -0.0961
  123TMC2    C5 1913   1.731   1.422  10.729  0.5172 -0.1096  0.2390
  123TMC2    C6 1914   1.725   1.541  10.793 -0.8658  0.2004 -0.4244
  123TMC2     C 1915   1.681   1.202  10.990  0.1404  0.8800  0.0068
  123TMC2     O 1916   1.710   1.164  11.101 -0.2913 -0.3921  0.4463
  123TMC2     H 1917   1.754   1.431  11.106  0.3103  1.6837 -0.0564
  123TMC2    H1 1918   1.775   1.214  10.746  2.5873  0.9573 -1.2540
  123TMC2    H2 1919   1.723   1.633  10.735  0.7257 -0.7779 -2.0285
  123TMC2    C7 1920   1.719   1.418  10.585  0.9929  0.2919 -0.3954
  123TMC2    C8 1921   1.757   1.665  11.002  0.0737 -0.2587  0.1839
  123TMC2    O1 1922   1.675   1.306  10.565  0.0178 -0.3216  0.2765
  123TMC2    O2 1923   1.867   1.707  11.032 -0.0039 -0.1157 -0.4520
  123TMC2    O5 1924   1.653   1.740  10.965  0.0970  0.3061 -0.3540
  123TMC2    H5 1925   1.577   1.684  10.940 -0.1619 -0.7596  2.7881
  124MPD2     C 1926   1.325   0.842  10.860  0.1862 -0.8132  0.0260
  124MPD2    C1 1927   1.355   0.927  10.751 -0.7161  0.0983  0.0736
  124MPD2    C2 1928   1.442   1.035  10.768  0.3455 -0.2938 -0.6342
  124MPD2    C3 1929   1.493   1.055  10.892  0.8565 -0.4258  0.4210
  124MPD2    C4 1930   1.465   0.969  11.002 -0.0670 -0.1335 -0.5596
  124MPD2    C5 1931   1.380   0.871  10.985  0.2163 -0.3623 -0.0658
  124MPD2     H 1932   1.454   1.100  10.683 -0.6356  0.7300  0.0148
  124MPD2    H1 1933   1.512   0.972  11.100 -1.4996 -0.7306  0.1402
  124MPD2    H2 1934   1.263   0.754  10.851  1.2333 -1.3512 -1.7774
  124MPD2    H3 1935   1.362   0.810  11.072 -0.8724  2.2394  1.5318
  124MPD2     N 1936   1.582   1.163  10.899  0.2551  0.1171  0.2167
  124MPD2    H5 1937   1.585   1.229  10.822  0.4362 -0.5292 -0.3336
  124MPD2    N1 1938   1.304   0.886  10.623  0.0173  0.1785  0.9284
  124MPD2    H7 1939   1.241   0.807  10.630 -1.4334  1.3537  1.1285
  125TMC2    C1 1940   2.023   3.797   9.580 -0.2614  0.5555  0.3028
  125TMC2    C2 1941   1.956   3.916   9.602 -0.2832  0.1326 -0.6457
  125TMC2    C3 1942   1.911   3.993   9.497 -0.0187  0.0045 -0.9783
  125TMC2    C4 1943   2.039   3.745   9.458  0.0185 -0.1798  0.1633
  125TMC2    C5 1944   2.000   3.826   9.359 -0.4190  0.6937  0.1233
  125TMC2    C6 1945   1.931   3.943   9.371 -0.2591  0.1305  0.5818
  125TMC2     C 1946   2.056   3.722   9.701 -0.0162 -0.8697  0.2583
  125TMC2     O 1947   2.049   3.783   9.810 -0.6912 -0.2857  0.0637
  125TMC2     H 1948   1.943   3.949   9.704  2.4778  2.6098 -1.0849
  125TMC2    H1 1949   2.085   3.647   9.449  1.1435  0.3692 -0.0474
  125TMC2    H2 1950   1.894   3.990   9.280  0.1672 -0.7683 -0.0506
  125TMC2    C7 1951   2.021   3.782   9.221 -0.0527  0.0333 -0.2872
  125TMC2    C8 1952   1.801   4.087   9.513  0.1113 -0.3607  0.9751
  125TMC2    O1 1953   1.945   3.820   9.132  0.3143 -0.0595 -0.5870
  125TMC2    O2 1954   1.730   4.102   9.417  0.4152  0.1882 -0.4469
  125TMC2    O5 1955   1.754   4.083   9.637  0.4094  0.0255 -0.2490
  125TMC2    H5 1956   1.828   4.084   9.701 -1.1460  0.3330  1.5333
  126MPD1     C 1957   2.152   3.287   9.940  0.0305 -0.5030  0.0783
  126MPD1    C1 1958   2.118   3.250   9.810 -0.2161  0.1338 -0.1439
  126MPD1    C2 1959   2.096   3.357   9.727  1.1340  0.4813 -0.3684
  126MPD1    C3 1960   2.094   3.486   9.772 -0.3898 -0.0597  0.3552
  126MPD1    C4 1961   2.113   3.511   9.908 -0.1179  0.0035 -0.1402
  126MPD1    C5 1962   2.138   3.411   9.999 -0.1876  0.2713 -0.2013
  126MPD1     H 1963   2.074   3.336   9.623 -4.6515  0.0651  0.9832
  126MPD1    H1 1964   2.108   3.613   9.946  1.2142 -0.0389  0.1332
  126MPD1    H2 1965   2.171   3.214  10.018 -1.1843 -1.5817 -0.6421
  126MPD1    H3 1966   2.166   3.420  10.103  0.2780  2.0328 -0.4751
  126MPD1     N 1967   2.066   3.587   9.673 -0.4314  0.5847  0.1869
  126MPD1    H5 1968   2.053   3.553   9.578 -0.5422  1.9892 -0.2982
  126MPD1    N1 1969   2.151   3.121   9.768  0.5609  0.0705  0.5842
  126MPD1    H6 1970   2.110   3.070   9.690  2.3017 -0.9377  0.3280
  126MPD1    H7 1971   2.159   3.058   9.847  0.6610  0.8006  1.1552
  127TMC2    C1 1972   3.355   2.035   9.997  0.3020 -0.1670 -0.0630
  127TMC2    C2 1973   3.430   2.013  10.110 -0.0253 -0.0154  0.9203
  127TMC2    C3 1974   3.399   1.898  10.184 -0.7487 -0.2697  0.0411
  127TMC2    C4 1975   3.239   1.973   9.968  0.8039  0.2758 -0.7754
  127TMC2    C5 1976   3.224   1.856  10.034 -0.0394 -0.6421 -0.3877
  127TMC2    C6 1977   3.306   1.811  10.138 -0.3973  0.3199  0.1142
  127TMC2     C 1978   3.381   2.152   9.921 -0.1027 -0.6015  0.1964
  127TMC2     O 1979   3.439   2.245   9.980  0.5427 -0.2163 -0.5019
  127TMC2     H 1980   3.522   2.066  10.131  0.3113 -0.4687  0.5968
  127TMC2    H1 1981   3.175   1.988   9.882 -1.2328  0.7568  0.8230
  127TMC2    H2 1982   3.296   1.714  10.187  0.9293 -0.6350 -1.4866
  127TMC2    C7 1983   3.130   1.765   9.975  0.2043 -0.4575  0.1610
  127TMC2    C8 1984   3.481   1.854  10.298 -0.0812  0.5412  0.0854
  127TMC2    O1 1985   3.128   1.763   9.854 -0.3821 -0.2552 -0.1591
  127TMC2    O2 1986   3.463   1.746  10.347 -0.1581 -0.1612  0.0727
  127TMC2    O5 1987   3.552   1.955  10.347 -0.5391  0.3263  0.6643
  127TMC2    H5 1988   3.545   2.047  10.314  1.1501 -0.2565 -1.3435
  128MPD2     C 1989   3.340   2.209   9.570 -0.1056 -0.3846 -0.1093
  128MPD2    C1 1990   3.371   2.240   9.694 -0.0347 -0.5435  0.1696
  128MPD2    C2 1991   3.443   2.356   9.718 -0.3445  0.1150 -0.4748
  128MPD2    C3 1992   3.472   2.448   9.617  0.3044  0.4593  0.0275
  128MPD2    C4 1993   3.429   2.413   9.487  0.0679 -0.5232 -0.6875
  128MPD2    C5 1994   3.369   2.295   9.467 -0.3665 -1.1402 -0.2521
  128MPD2     H 1995   3.473   2.379   9.820  0.5722  1.5504 -1.0748
  128MPD2    H1 1996   3.429   2.483   9.404 -1.6865  1.0041  0.5968
  128MPD2    H2 1997   3.295   2.111   9.553  0.5148 -0.7094  0.1333
  128MPD2    H3 1998   3.324   2.261   9.374  0.6550  2.8879 -2.1863
  128MPD2     N 1999   3.542   2.566   9.639 -0.1336  0.1660 -0.0838
  128MPD2    H5 2000   3.584   2.584   9.729  1.0139 -1.8674 -0.2144
  128MPD2    N1 2001   3.355   2.138   9.789  0.8628  0.0084  0.1906
  128MPD2    H7 2002   3.316   2.048   9.764 -1.7850  1.1846  0.0687
  129TMC2    C1 2003   0.627   3.140   1.770 -0.6443  0.0596  0.1162
  129TMC2    C2 2004   0.643   3.197   1.895  0.1840  0.1117 -0.1633
  129TMC2    C3 2005   0.552   3.155   1.989  0.0380  0.4195  0.7701
  129TMC2    C4 2006   0.512   3.078   1.734 -0.9059 -1.3362  0.2049
  129TMC2    C5 2007   0.415   3.050   1.828 -0.0161 -0.1471 -1.1288
  129TMC2    C6 2008   0.444   3.079   1.956  0.6368 -0.7358  0.3925
  129TMC2     C 2009   0.689   3.215   1.672  0.0494 -0.4102 -0.8807
  129TMC2     O 2010   0.625   3.288   1.597  0.1748 -0.3266  0.2183
  129TMC2     H 2011   0.703   3.284   1.921 -0.6617  0.1394  1.7465
  129TMC2    H1 2012   0.487   3.047   1.633  1.9215 -2.7813 -0.0706
  129TMC2    H2 2013   0.380   3.037   2.034 -0.2854  0.5256  0.3123
  129TMC2    C7 2014   0.295   2.984   1.786  0.8279 -0.0425 -0.0130
  129TMC2    C8 2015   0.580   3.182   2.126 -0.6596  0.4165  0.1856
  129TMC2    O1 2016   0.309   2.906   1.689  0.1250 -0.2340  0.0922
  129TMC2    O2 2017   0.495   3.186   2.217 -0.2980 -0.1788  0.0460
  129TMC2    O5 2018   0.713   3.149   2.133  0.0931 -0.2080 -0.6371
  129TMC2    H5 2019   0.762   3.142   2.049 -0.0681  0.5031 -0.7900
  130MPD2     C 2020   0.902   3.368   1.515  0.0310  0.1381  1.0328
  130MPD2    C1 2021   0.923   3.293   1.628 -0.2611  0.5928 -0.0933
  130MPD2    C2 2022   1.051   3.276   1.679  0.5231  0.2983  0.7295
  130MPD2    C3 2023   1.151   3.349   1.625  0.2746 -0.5155  0.0950
  130MPD2    C4 2024   1.127   3.436   1.517 -0.0324  0.7103  0.4280
  130MPD2    C5 2025   1.008   3.431   1.459 -0.4771  0.1192 -0.4113
  130MPD2     H 2026   1.069   3.205   1.758  0.7673  0.8825  1.2020
  130MPD2    H1 2027   1.199   3.506   1.475  1.8896 -0.9938  0.8924
  130MPD2    H2 2028   0.807   3.378   1.464  1.0050  2.5592 -0.3259
  130MPD2    H3 2029   1.003   3.491   1.369 -1.4418  3.0734  1.5993
  130MPD2     N 2030   1.282   3.344   1.683 -0.1329 -0.1115 -0.5710
  130MPD2    H5 2031   1.292   3.287   1.766  0.4820  2.4356  1.1130
  130MPD2    N1 2032   0.823   3.230   1.703  0.3419 -0.5849 -0.1335
  130MPD2    H7 2033   0.849   3.178   1.786  0.9614  0.9765  0.6427
  131TMC2    C1 2034   1.447   1.772  10.175  0.3242 -0.3570 -0.0659
  131TMC2    C2 2035   1.502   1.789  10.301 -0.7159  0.1134  0.2346
  131TMC2    C3 2036   1.569   1.906  10.320 -0.1177  0.3820 -0.4885
  131TMC2    C4 2037   1.440   1.874  10.083  0.4579  0.1424 -0.7147
  131TMC2    C5 2038   1.507   1.993  10.113 -0.7669  0.2285  0.2707
  131TMC2    C6 2039   1.587   2.006  10.230 -0.0097  0.6216 -0.6920
  131TMC2     C 2040   1.374   1.646  10.155 -0.1229  0.3486 -0.7324
  131TMC2     O 2041   1.363   1.579  10.259 -0.4038  0.2516 -0.0646
  131TMC2     H 2042   1.504   1.704  10.369 -0.7579  0.5013  0.7231
  131TMC2    H1 2043   1.374   1.868   9.997 -2.2652 -0.4522  1.4051
  131TMC2    H2 2044   1.641   2.094  10.264  1.6670 -0.4769 -0.5150
  131TMC2    C7 2045   1.467   2.105  10.037  0.5041 -0.2626  0.2630
  131TMC2    C8 2046   1.636   1.918  10.451 -0.5659  0.5663 -0.3022
  131TMC2    O1 2047   1.396   2.091   9.940 -0.1804  0.2719  0.0714
  131TMC2    O2 2048   1.744   1.982  10.458  0.2381  0.0027  0.0687
  131TMC2    O5 2049   1.618   1.805  10.531 -0.2849  0.5891  0.0946
  131TMC2    H5 2050   1.531   1.761  10.539  0.7399 -1.3054  0.8651
  132MPD2     C 2051   1.299   1.471   9.850 -0.2709  0.2723  0.3464
  132MPD2    C1 2052   1.312   1.483   9.984  0.1079  0.3004 -0.6340
  132MPD2    C2 2053   1.272   1.380  10.064  0.4757 -0.1860 -1.0802
  132MPD2    C3 2054   1.226   1.256  10.014  0.6327  1.0166  0.6848
  132MPD2    C4 2055   1.204   1.249   9.876  0.1086 -0.3285 -0.2902
  132MPD2    C5 2056   1.244   1.355   9.795 -0.3587  0.5001 -0.3544
  132MPD2     H 2057   1.282   1.382  10.172  1.9376  0.7552 -1.2338
  132MPD2    H1 2058   1.176   1.158   9.823 -0.2968  1.0800 -2.4809
  132MPD2    H2 2059   1.327   1.556   9.788 -4.2623  0.6872 -0.9006
  132MPD2    H3 2060   1.237   1.348   9.687  3.3076 -0.7852 -0.5332
  132MPD2     N 2061   1.203   1.150  10.101 -0.9091 -0.1416 -0.7483
  132MPD2    H5 2062   1.246   1.163  10.192 -1.6801  0.5636 -0.4891
  132MPD2    N1 2063   1.366   1.610  10.027  1.2491 -0.1536  0.2643
  132MPD2    H7 2064   1.399   1.672   9.954  1.1050  0.8587  1.0641
  133TMC2    C1 2065   0.288   2.769   9.432  0.0314  0.1453 -0.0873
  133TMC2    C2 2066   0.210   2.886   9.441  0.6826 -0.4414 -0.2965
  133TMC2    C3 2067   0.198   2.942   9.561  0.0486 -0.4077 -0.1205
  133TMC2    C4 2068   0.344   2.713   9.540 -0.3525  0.8037  0.0181
  133TMC2    C5 2069   0.329   2.776   9.659 -0.2280  0.0151 -0.6904
  133TMC2    C6 2070   0.254   2.890   9.672 -0.9505  0.1287  0.7667
  133TMC2     C 2071   0.290   2.689   9.309 -0.1876  0.1796  0.0380
  133TMC2     O 2072   0.386   2.618   9.292  0.1552 -0.4721 -0.5013
  133TMC2     H 2073   0.182   2.937   9.349 -0.7192 -2.1311 -0.7962
  133TMC2    H1 2074   0.413   2.632   9.518  0.9430  1.8142  0.3630
  133TMC2    H2 2075   0.228   2.938   9.765 -1.3887  0.0962  0.6635
  133TMC2    C7 2076   0.411   2.730   9.774  0.0107 -0.2052 -0.2156
  133TMC2    C8 2077   0.169   3.088   9.562  0.3415  0.4838 -0.1414
  133TMC2    O1 2078   0.440   2.816   9.857 -0.3493  0.5747  0.9928
  133TMC2    O2 2079   0.247   3.176   9.592  0.4458 -0.1278  0.4625
  133TMC2    O5 2080   0.063   3.100   9.482  0.1868  0.3085  0.1837
  133TMC2    H5 2081   0.015   3.015   9.476 -0.6715  0.9349 -2.0179
  134MPD2     C 2082   0.014   2.650   9.087 -0.0043 -0.1524  0.2089
  134MPD2    C1 2083   0.146   2.637   9.129  0.6670  0.0300  0.4431
  134MPD2    C2 2084   0.222   2.539   9.063 -0.0874 -0.3872  0.5717
  134MPD2    C3 2085   0.163   2.454   8.964 -0.0425  0.7201  0.4611
  134MPD2    C4 2086   0.037   2.477   8.923  0.6103 -0.1106  0.5386
  134MPD2    C5 2087   4.692   2.577   8.990  0.1756 -0.7903 -0.1256
  134MPD2     H 2088   0.326   2.527   9.092 -0.0434 -1.5378 -0.0788
  134MPD2    H1 2089   4.725   2.418   8.845 -0.3440 -0.6526  1.5055
  134MPD2    H2 2090   4.684   2.723   9.137  1.5066  0.4315  1.2890
  134MPD2    H3 2091   4.594   2.603   8.952  0.5035  1.1637  0.3352
  134MPD2     N 2092   0.230   2.340   8.920  0.5057  0.4758  0.1839
  134MPD2    H5 2093   0.173   2.267   8.878  0.5848 -0.1084  1.0802
  134MPD2    N1 2094   0.183   2.718   9.233 -0.0257  0.6184  0.7451
  134MPD2    H7 2095   0.114   2.783   9.269  0.3637  0.5196  1.6600
  135TMC2    C1 2096   2.892   4.017   9.928  0.2984 -0.0042 -0.4035
  135TMC2    C2 2097   2.761   3.974   9.926 -0.0224 -0.5361 -0.9943
  135TMC2    C3 2098   2.724   3.863   9.992 -0.2097  0.1248 -0.0081
  135TMC2    C4 2099   2.992   3.948   9.996  0.2808 -0.5104 -0.1289
  135TMC2    C5 2100   2.948   3.830  10.060  0.0529  1.0103  0.2151
  135TMC2    C6 2101   2.814   3.783  10.051 -0.9330  0.7039 -0.8563
  135TMC2     C 2102   2.939   4.109   9.830  0.3104 -0.2681 -0.2789
  135TMC2     O 2103   2.851   4.177   9.774  0.3256 -0.0746 -0.3046
  135TMC2     H 2104   2.692   4.017   9.855  0.4213 -0.7611 -1.5644
  135TMC2    H1 2105   3.086   3.999  10.012 -0.9188  1.3169  1.1392
  135TMC2    H2 2106   2.786   3.692  10.103  0.6952 -0.1100 -1.3973
  135TMC2    C7 2107   3.044   3.745  10.139  0.4906  0.4570 -0.1514
  135TMC2    C8 2108   2.593   3.804   9.965 -0.2720 -0.4687 -0.0818
  135TMC2    O1 2109   3.135   3.804  10.199  0.5926 -0.1443  0.2533
  135TMC2    O2 2110   2.576   3.685   9.998  0.2053  0.2019 -0.4744
  135TMC2    O5 2111   2.498   3.896   9.975 -0.5222  0.5259 -0.2819
  135TMC2    H5 2112   2.530   3.988   9.979  1.2870 -0.1617  1.2535
  136MPD2     C 2113   3.104   4.271   9.643 -0.2252 -0.0176 -0.1770
  136MPD2    C1 2114   3.137   4.143   9.682  0.3913 -0.0703  0.6214
  136MPD2    C2 2115   3.242   4.088   9.627 -0.8571  0.6201  0.1200
  136MPD2    C3 2116   3.318   4.150   9.528  0.1069  0.4946 -0.3085
  136MPD2    C4 2117   3.273   4.269   9.474 -0.7502  0.6541 -0.1388
  136MPD2    C5 2118   3.171   4.326   9.540  0.2437 -0.4732  0.1860
  136MPD2     H 2119   3.277   3.997   9.674 -0.8464  0.2794 -0.5524
  136MPD2    H1 2120   3.314   4.324   9.390  0.3665 -1.4589 -0.9731
  136MPD2    H2 2121   3.026   4.326   9.694 -1.0354 -0.9139 -0.4521
  136MPD2    H3 2122   3.145   4.424   9.502 -0.0730 -0.1869  1.1308
  136MPD2     N 2123   3.433   4.086   9.470 -0.2989  0.6370 -0.3139
  136MPD2    H5 2124   3.466   4.114   9.378 -0.7138 -1.5511 -1.1212
  136MPD2    N1 2125   3.067   4.072   9.778 -0.5416 -0.3124  0.0086
  136MPD2    H7 2126   3.099   3.979   9.804  1.3219 -0.1950 -1.8446
  137TMC2    C1 2127   1.771   3.549   9.392 -0.4193  0.5765 -0.5849
  137TMC2    C2 2128   1.713   3.643   9.306 -0.3071  1.2252  0.7540
  137TMC2    C3 2129   1.653   3.744   9.367  0.2759  0.5233  0.2587
  137TMC2    C4 2130   1.769   3.560   9.527 -0.0751 -0.7126 -0.1269
  137TMC2    C5 2131   1.690   3.658   9.580 -0.2886 -0.2682  0.2608
  137TMC2    C6 2132   1.629   3.755   9.504  0.2528  0.2889 -0.5081
  137TMC2     C 2133   1.880   3.471   9.348 -0.2764  0.5144  0.6157
  137TMC2     O 2134   1.974   3.448   9.426  0.3101 -0.4239  0.2830
  137TMC2     H 2135   1.721   3.637   9.198 -0.2644  0.5899  0.7920
  137TMC2    H1 2136   1.804   3.475   9.584 -1.2706 -0.8183  0.4517
  137TMC2    H2 2137   1.578   3.837   9.553 -0.0918  0.0726 -0.5048
  137TMC2    C7 2138   1.688   3.680   9.717  0.1985 -0.8041 -0.8729
  137TMC2    C8 2139   1.560   3.814   9.278 -0.4807  0.2290 -0.2170
  137TMC2    O1 2140   1.685   3.796   9.757  0.5730 -0.3123 -0.2307
  137TMC2    O2 2141   1.521   3.768   9.166  0.3049 -0.2527  0.1974
  137TMC2    O5 2142   1.556   3.945   9.309 -0.2915 -0.1921 -0.2639
  137TMC2    H5 2143   1.625   3.964   9.376  0.3966 -0.6506 -0.8465
  138MPD2     C 2144   1.939   3.359   9.006 -0.2791 -0.0001 -0.2885
  138MPD2    C1 2145   1.970   3.373   9.135 -0.3137  0.3168 -0.0782
  138MPD2    C2 2146   2.090   3.338   9.180  0.3513  0.2735  0.6179
  138MPD2    C3 2147   2.182   3.286   9.100 -0.2867 -0.5636  0.8392
  138MPD2    C4 2148   2.160   3.267   8.963 -0.0536 -0.4486 -0.7418
  138MPD2    C5 2149   2.033   3.307   8.918 -0.0734  0.0068  0.3367
  138MPD2     H 2150   2.110   3.356   9.285  0.7564 -3.4620  1.1966
  138MPD2    H1 2151   2.242   3.232   8.902  1.7233  2.2665  0.1165
  138MPD2    H2 2152   1.849   3.405   8.969 -0.8605 -2.1022 -1.4905
  138MPD2    H3 2153   2.020   3.322   8.811 -0.9367 -1.1502  0.2787
  138MPD2     N 2154   2.302   3.240   9.163 -0.1064 -0.3032 -0.0473
  138MPD2    H5 2155   2.315   3.271   9.258 -2.7797  1.4680 -0.2739
  138MPD2    N1 2156   1.873   3.438   9.212  0.5947  0.1786  0.0002
  138MPD2    H7 2157   1.784   3.454   9.165 -0.8621  1.3874  3.1523
  139TMC2    C1 2158   3.588   0.707  13.837  0.1311  0.0937  0.6556
  139TMC2    C2 2159   3.680   0.772  13.760 -0.2942  0.0083 -0.0439
  139TMC2    C3 2160   3.653   0.906  13.729  0.3473  1.1140 -0.0945
  139TMC2    C4 2161   3.468   0.754  13.871 -0.6304  0.6498 -0.4389
  139TMC2    C5 2162   3.447   0.883  13.839  0.2075  0.5406 -0.4781
  139TMC2    C6 2163   3.535   0.958  13.766 -0.0491  0.4271 -0.5722
  139TMC2     C 2164   3.611   0.565  13.855  0.2835  0.7965  0.7628
  139TMC2     O 2165   3.663   0.508  13.764  0.5608  0.1350  0.1062
  139TMC2     H 2166   3.770   0.726  13.722 -0.0288 -0.7904  1.5491
  139TMC2    H1 2167   3.389   0.698  13.920  1.4774 -2.5588 -0.6721
  139TMC2    H2 2168   3.526   1.064  13.745 -0.3929  0.6245  0.5954
  139TMC2    C7 2169   3.328   0.944  13.896 -0.2104  0.1224 -0.1660
  139TMC2    C8 2170   3.753   0.967  13.638 -0.3103  0.7412 -0.2088
  139TMC2    O1 2171   3.275   1.035  13.838 -0.4727 -0.0840 -0.1362
  139TMC2    O2 2172   3.860   0.912  13.623 -0.6516  0.1707 -0.0997
  139TMC2    O5 2173   3.680   1.022  13.535 -0.2883 -0.2837  0.3264
  139TMC2    H5 2174   3.582   1.027  13.538 -0.3547 -0.7666 -1.6252
  140MPD2     C 2175   3.518   0.334  14.126 -0.0936 -0.3534  0.1254
  140MPD2    C1 2176   3.589   0.380  14.019  0.3911  0.0185 -0.1330
  140MPD2    C2 2177   3.694   0.297  13.975 -0.1355 -0.5200  0.4820
  140MPD2    C3 2178   3.728   0.178  14.042 -0.1538  0.4238 -0.3019
  140MPD2    C4 2179   3.645   0.132  14.144  0.7900  0.3602 -0.2475
  140MPD2    C5 2180   3.540   0.212  14.182  0.3799  0.1577 -0.2115
  140MPD2     H 2181   3.757   0.334  13.895 -3.4513  2.4388 -0.7537
  140MPD2    H1 2182   3.668   0.048  14.208  0.9924 -1.1630 -2.3221
  140MPD2    H2 2183   3.437   0.395  14.166  1.4273  2.4271 -1.0346
  140MPD2    H3 2184   3.479   0.186  14.268 -0.7697  0.1866 -1.0266
  140MPD2     N 2185   3.840   0.108  13.992 -0.3385  0.1066 -0.0200
  140MPD2    H5 2186   3.878   0.158  13.912 -0.8644 -1.0673 -1.0040
  140MPD2    N1 2187   3.557   0.509  13.970  0.2773  0.3103 -0.3788
  140MPD2    H7 2188   3.495   0.570  14.022  1.6230  0.6125  0.8440
  141TMC2    C1 2189   3.512   2.025  14.668  0.1313  0.6590 -0.6495
  141TMC2    C2 2190   3.549   1.895  14.688 -0.4028 -0.7356  0.7196
  141TMC2    C3 2191   3.639   1.883  14.789  0.1111 -0.3042  0.7168
  141TMC2    C4 2192   3.532   2.131  14.742 -0.3370  0.0955 -0.2115
  141TMC2    C5 2193   3.641   2.127  14.823  0.4967  0.5179 -0.6603
  141TMC2    C6 2194   3.687   1.994  14.854 -0.0485 -0.0270 -0.5122
  141TMC2     C 2195   3.474   2.065  14.526 -0.1487 -0.9316 -0.2948
  141TMC2     O 2196   3.390   2.006  14.458  1.0877  0.1889 -0.1984
  141TMC2     H 2197   3.530   1.820  14.611 -0.2184  0.0643 -0.0981
  141TMC2    H1 2198   3.480   2.227  14.736  0.7948  0.7303  0.1708
  141TMC2    H2 2199   3.782   1.983  14.905  0.5812  0.2196 -1.6446
  141TMC2    C7 2200   3.732   2.235  14.807 -0.0845 -0.0750 -0.0651
  141TMC2    C8 2201   3.661   1.760  14.859 -0.8393  0.1639 -0.4332
  141TMC2    O1 2202   3.711   2.290  14.699 -0.1365 -0.2960  0.0289
  141TMC2    O2 2203   3.738   1.749  14.955  0.0121 -0.2928 -0.4056
  141TMC2    O5 2204   3.595   1.653  14.800  0.1303 -0.7369  0.1231
  141TMC2    H5 2205   3.543   1.674  14.719  0.5102  1.3062  0.3858
  142TMC2    C1 2206   1.487   0.912   9.942  0.3143  0.2792  0.6874
  142TMC2    C2 2207   1.466   0.949   9.812  0.4547 -1.1858 -0.2792
  142TMC2    C3 2208   1.491   1.081   9.780 -0.7711  0.2447 -0.0078
  142TMC2    C4 2209   1.546   0.999  10.032 -0.8644  0.1294 -0.9733
  142TMC2    C5 2210   1.556   1.136   9.996 -0.7785  0.3175  0.4038
  142TMC2    C6 2211   1.531   1.184   9.869  0.0366 -0.1561  0.1124
  142TMC2     C 2212   1.433   0.785   9.990  0.1345  0.1633 -0.4850
  142TMC2     O 2213   1.449   0.766  10.111 -0.3098  0.8496 -0.1929
  142TMC2     H 2214   1.447   0.873   9.736 -0.0017  2.5746 -3.9482
  142TMC2    H1 2215   1.571   0.977  10.135  0.5099 -1.1888 -1.5816
  142TMC2    H2 2216   1.533   1.288   9.840 -0.8365 -0.1034  0.2357
  142TMC2    C7 2217   1.579   1.225  10.109  0.1815  0.0283 -0.0910
  142TMC2    C8 2218   1.477   1.124   9.650  0.4943 -0.4528 -0.0104
  142TMC2    O1 2219   1.545   1.189  10.221 -0.0402 -0.1264  0.1842
  142TMC2    O2 2220   1.531   1.224   9.610 -0.5015  0.8542 -0.3989
  142TMC2    O5 2221   1.374   1.061   9.589 -0.1252 -0.0994 -0.3783
  142TMC2    H5 2222   1.350   0.977   9.635 -1.4260  0.7950  0.5561
  143MPD2     C 2223   1.131   0.371   9.983 -0.5823 -0.8424 -0.0644
  143MPD2    C1 2224   1.201   0.423  10.090  0.4678 -0.0871 -0.4268
  143MPD2    C2 2225   1.277   0.535  10.066  0.3780  0.2160  0.6975
  143MPD2    C3 2226   1.285   0.594   9.935  0.2998 -0.0057  0.1880
  143MPD2    C4 2227   1.212   0.533   9.835 -0.0909 -0.2566  0.3239
  143MPD2    C5 2228   1.133   0.429   9.860  0.2053  0.2499 -0.6079
  143MPD2     H 2229   1.323   0.581  10.153  1.3678  0.9811 -0.2343
  143MPD2    H1 2230   1.220   0.576   9.736 -2.8712  2.7827  1.4268
  143MPD2    H2 2231   1.071   0.282   9.996  2.2603 -2.5997  0.9809
  143MPD2    H3 2232   1.077   0.397   9.773 -0.3135  0.3074 -0.2941
  143MPD2     N 2233   1.353   0.714   9.901 -0.1142 -0.9668  0.1809
  143MPD2    H5 2234   1.354   0.747   9.805  1.7258 -0.2478  0.4576
  143MPD2    N1 2235   1.192   0.360  10.220  0.1356  0.1597  0.2148
  143MPD2    H7 2236   1.145   0.271  10.229  0.6290 -0.1285 -0.0773
  144TMC2    C1 2237   0.378   4.389   1.177 -1.1378 -0.0151 -0.3538
  144TMC2    C2 2238   0.467   4.377   1.075 -0.3038 -0.0358 -0.0842
  144TMC2    C3 2239   0.598   4.394   1.101 -0.1409 -0.3198 -0.4793
  144TMC2    C4 2240   0.416   4.430   1.303  0.7292 -0.2725 -0.0659
  144TMC2    C5 2241   0.552   4.451   1.328  0.0395 -0.0987 -0.3020
  144TMC2    C6 2242   0.647   4.433   1.227 -0.6732  0.4811 -0.9313
  144TMC2     C 2243   0.241   4.353   1.148  0.2083  0.6234  0.2038
  144TMC2     O 2244   0.219   4.303   1.038 -0.5403  0.1605  0.3135
  144TMC2     H 2245   0.434   4.339   0.979 -1.8918  1.3486 -0.0859
  144TMC2    H1 2246   0.349   4.412   1.386 -1.0393 -1.8570 -1.8517
  144TMC2    H2 2247   0.749   4.452   1.256 -0.9058 -0.3468  0.4478
  144TMC2    C7 2248   0.604   4.514   1.448  0.3197 -0.3681 -0.3052
  144TMC2    C8 2249   0.665   4.441   0.988  0.6567 -0.6423 -0.1645
  144TMC2    O1 2250   0.723   4.499   1.470 -0.6319 -0.1911  0.2652
  144TMC2    O2 2251   0.628   4.414   0.874  0.4316  0.0617  0.0931
  144TMC2    O5 2252   0.782   4.492   1.022  0.3324  0.2220  0.4201
  144TMC2    H5 2253   0.841   4.493   0.944  1.2459 -1.5183  1.0854
  145MPD2     C 2254   4.467   4.409   1.195 -0.5522  0.2389  0.1002
  145MPD2    C1 2255   4.544   4.351   1.093  0.7723  0.4288  0.0099
  145MPD2    C2 2256   4.679   4.336   1.107 -0.3687  0.2332 -0.2582
  145MPD2    C3 2257   0.007   4.389   1.224 -0.7068 -0.6330  0.4613
  145MPD2    C4 2258   4.663   4.416   1.332 -0.1369  0.9181 -0.1577
  145MPD2    C5 2259   4.527   4.432   1.317  0.4667 -0.1544 -0.1463
  145MPD2     H 2260   4.727   4.288   1.023 -1.5756 -1.7589  0.1944
  145MPD2    H1 2261   4.703   4.442   1.429 -0.7634 -3.2091  1.1872
  145MPD2    H2 2262   4.359   4.422   1.190 -0.7880 -1.5039  0.5605
  145MPD2    H3 2263   4.461   4.469   1.394 -1.6943  1.6330 -2.8601
  145MPD2     N 2264   0.147   4.393   1.245 -0.0194  0.5443  0.3403
  145MPD2    H5 2265   0.180   4.449   1.322  1.7405  0.7652 -0.5693
  145MPD2    N1 2266   4.483   4.293   0.975  0.3690  0.1165 -0.2451
  145MPD2    H7 2267   4.547   4.266   0.901  1.4920  1.0584  0.3758
  146TMC2    C1 2268   1.396   2.777  12.317 -0.1660 -0.1709 -0.2495
  146TMC2    C2 2269   1.413   2.806  12.188 -0.4746 -0.7517 -0.0084
  146TMC2    C3 2270   1.538   2.788  12.129 -0.4516 -0.4953 -0.4100
  146TMC2    C4 2271   1.506   2.732  12.394  0.0391  0.3976  0.0196
  146TMC2    C5 2272   1.627   2.711  12.327  0.4382  0.4139  0.0436
  146TMC2    C6 2273   1.646   2.732  12.190 -0.0093  0.3355  0.5103
  146TMC2     C 2274   1.280   2.850  12.382 -0.0574 -0.1356 -0.1022
  146TMC2     O 2275   1.191   2.900  12.315 -0.4360 -0.2910  0.0826
  146TMC2     H 2276   1.328   2.829  12.126 -1.2952  0.2995  1.5023
  146TMC2    H1 2277   1.492   2.704  12.497 -1.0011 -2.2815 -0.8554
  146TMC2    H2 2278   1.742   2.723  12.139 -0.6207  1.3491 -0.8256
  146TMC2    C7 2279   1.739   2.659  12.397  0.2698  0.0239  0.5210
  146TMC2    C8 2280   1.553   2.833  11.995 -0.0374  0.0583  0.7690
  146TMC2    O1 2281   1.850   2.655  12.337 -0.0871 -0.5520  0.2285
  146TMC2    O2 2282   1.659   2.816  11.934  0.0196  0.3737  1.0616
  146TMC2    O5 2283   1.491   2.951  11.985  0.4360 -0.6926  0.2226
  146TMC2    H5 2284   1.441   2.982  12.063 -0.5829  0.0276 -0.7239
  147MPD2     C 2285   1.990   2.487  12.810 -0.5289  0.1214  0.2691
  147MPD2    C1 2286   1.860   2.493  12.843 -0.1257 -0.0480  0.2369
  147MPD2    C2 2287   1.765   2.554  12.760  0.0834  0.2587 -0.6148
  147MPD2    C3 2288   1.806   2.594  12.633 -0.6743  0.1273 -0.1063
  147MPD2    C4 2289   1.933   2.580  12.607 -0.2517 -0.5526 -0.5259
  147MPD2    C5 2290   2.027   2.528  12.689 -0.0414  0.1762 -0.3599
  147MPD2     H 2291   1.666   2.575  12.799 -0.1842 -0.5499 -0.8485
  147MPD2    H1 2292   1.984   2.616  12.518  2.1300 -0.6319  0.8145
  147MPD2    H2 2293   2.064   2.462  12.885 -0.4700 -0.5715 -0.0184
  147MPD2    H3 2294   2.132   2.540  12.664  0.3953 -0.7211  1.0103
  147MPD2     N 2295   1.717   2.635  12.532 -0.1588  0.4434 -0.1658
  147MPD2    H5 2296   1.621   2.640  12.566  0.6192 -0.6749  2.2457
  147MPD2    N1 2297   1.837   2.449  12.973  0.5656 -0.5562  0.0747
  147MPD2    H7 2298   1.925   2.417  13.012 -0.2652 -1.3270  1.2866
  148TMC2    C1 2299   1.329   2.260  11.025 -0.5585 -0.0603  0.0695
  148TMC2    C2 2300   1.409   2.341  11.101  0.0621  0.3995  0.5548
  148TMC2    C3 2301   1.422   2.314  11.236  0.3029  0.2351 -0.6964
  148TMC2    C4 2302   1.271   2.148  11.081 -0.2564  0.3350 -0.7225
  148TMC2    C5 2303   1.285   2.127  11.214 -0.4592 -0.8359 -0.0114
  148TMC2    C6 2304   1.367   2.197  11.294 -0.0764 -0.3898  0.2212
  148TMC2     C 2305   1.343   2.267  10.889 -0.1014  0.6683 -0.2051
  148TMC2     O 2306   1.440   2.328  10.841  0.2457 -0.1657 -0.1333
  148TMC2     H 2307   1.469   2.420  11.058 -0.4947  0.2076 -0.6005
  148TMC2    H1 2308   1.216   2.070  11.030 -1.3272 -0.6888  1.9716
  148TMC2    H2 2309   1.388   2.165  11.395 -2.0503  1.3391  1.1594
  148TMC2    C7 2310   1.265   1.985  11.240  0.3405 -0.3673  0.6696
  148TMC2    C8 2311   1.522   2.386  11.315  0.2635 -0.3589  0.6274
  148TMC2    O1 2312   1.165   1.938  11.186  0.1361 -0.2617 -0.9955
  148TMC2    O2 2313   1.508   2.413  11.434 -0.2197  0.1933 -0.0284
  148TMC2    O5 2314   1.637   2.361  11.252  0.0921 -0.2652  0.1482
  148TMC2    H5 2315   1.632   2.318  11.164 -0.3891 -3.1282  1.5823
  149MPD2     C 2316   1.355   2.201  10.600 -0.4079 -0.7213  0.1015
  149MPD2    C1 2317   1.266   2.151  10.691  0.4742 -0.0497 -0.7341
  149MPD2    C2 2318   1.176   2.051  10.656  0.0156  0.3653  0.4386
  149MPD2    C3 2319   1.182   1.997  10.526  0.5941 -0.6059  0.1656
  149MPD2    C4 2320   1.274   2.041  10.435 -0.4149 -1.0237  0.1546
  149MPD2    C5 2321   1.356   2.145  10.469  0.1785 -0.2814 -0.4053
  149MPD2     H 2322   1.118   2.016  10.741  1.6219 -4.5997 -0.5277
  149MPD2    H1 2323   1.292   1.986  10.344 -0.6694  2.0570 -1.7648
  149MPD2    H2 2324   1.434   2.272  10.620 -0.3707 -0.0836 -2.2793
  149MPD2    H3 2325   1.418   2.189  10.391 -3.2212  3.3934 -1.0514
  149MPD2     N 2326   1.109   1.882  10.498 -0.0141 -0.2114 -0.4847
  149MPD2    H5 2327   1.107   1.850  10.402  2.3402 -0.3628 -0.4624
  149MPD2    N1 2328   1.255   2.192  10.826  0.4325 -0.6030  0.2372
  149MPD2    H7 2329   1.180   2.160  10.886  1.2424  0.2189  1.6994
  150TMC2    C1 2330   3.129   1.053  12.684  0.8522  0.4442 -0.5337
  150TMC2    C2 2331   3.077   1.161  12.618  0.7578 -0.5782 -0.9409
  150TMC2    C3 2332   3.159   1.275  12.616 -0.0284  0.3658 -0.0042
  150TMC2    C4 2333   3.240   1.060  12.764 -0.4672 -0.2076  0.0421
  150TMC2    C5 2334   3.320   1.170  12.747 -0.5197 -0.2574  0.2841
  150TMC2    C6 2335   3.277   1.279  12.680 -0.4501  0.2905 -0.7372
  150TMC2     C 2336   3.036   0.945  12.703  0.0600  0.0072  0.3554
  150TMC2     O 2337   3.072   0.845  12.765 -0.0061 -0.2314  0.1642
  150TMC2     H 2338   2.984   1.170  12.563  0.3998  1.0279 -0.0726
  150TMC2    H1 2339   3.275   0.985  12.834  0.1345  1.1121  1.1346
  150TMC2    H2 2340   3.346   1.361  12.663  0.3619 -0.0439  0.9913
  150TMC2    C7 2341   3.454   1.167  12.794  0.2342 -0.4058 -0.5706
  150TMC2    C8 2342   3.093   1.406  12.580 -0.0645 -0.5385 -0.4587
  150TMC2    O1 2343   3.508   1.277  12.805 -0.5543 -0.4889  0.4422
  150TMC2    O2 2344   3.169   1.506  12.556  0.3307  0.2195  0.5208
  150TMC2    O5 2345   2.984   1.413  12.665  0.1459 -0.0287 -0.2969
  150TMC2    H5 2346   2.945   1.326  12.687 -2.5858  0.9639 -1.1904
  151MPD2     C 2347   2.593   0.715  12.597 -0.6809  0.5267  0.0704
  151MPD2    C1 2348   2.568   0.846  12.628  0.1802 -0.1064  1.0135
  151MPD2    C2 2349   2.674   0.921  12.662  0.1750 -0.3891  0.3903
  151MPD2    C3 2350   2.803   0.877  12.650 -0.1221 -1.1086 -0.1690
  151MPD2    C4 2351   2.832   0.748  12.607 -0.3995  1.0474  0.3065
  151MPD2    C5 2352   2.724   0.664  12.582 -0.2381  0.1330  0.1853
  151MPD2     H 2353   2.671   1.018  12.711  1.7472 -0.6901  1.1031
  151MPD2    H1 2354   2.933   0.719  12.582 -0.5844  0.9910 -0.3951
  151MPD2    H2 2355   2.507   0.654  12.572 -0.1960  0.2085 -0.8178
  151MPD2    H3 2356   2.735   0.560  12.553  0.2321  0.3597 -0.4494
  151MPD2     N 2357   2.909   0.972  12.661  0.1055 -0.4399 -0.1758
  151MPD2    H5 2358   2.883   1.070  12.663  2.6987  0.2299  1.3109
  151MPD2    N1 2359   2.430   0.891  12.627 -0.2744 -0.0201  0.3906
  151MPD2    H7 2360   2.363   0.821  12.599  0.0507 -0.1890  0.0339
  152TMC2    C1 2361   2.590   0.773  12.987 -1.0541 -0.4378  0.0162
  152TMC2    C2 2362   2.671   0.664  12.970 -1.1488  0.5567  0.1001
  152TMC2    C3 2363   2.804   0.686  12.982  0.1894 -0.5980 -0.7653
  152TMC2    C4 2364   2.643   0.900  13.019  0.5414 -0.0845 -0.2337
  152TMC2    C5 2365   2.780   0.907  13.038  0.3362  0.3228  0.2387
  152TMC2    C6 2366   2.864   0.798  13.017  0.3795  0.2680 -0.0255
  152TMC2     C 2367   2.444   0.763  12.972  0.5364 -0.6301  0.7784
  152TMC2     O 2368   2.387   0.871  12.991 -0.7669 -0.3710 -0.1348
  152TMC2     H 2369   2.636   0.571  12.928 -0.2587  0.6843 -0.9380
  152TMC2    H1 2370   2.573   0.976  13.051  0.4365  0.1226 -0.9752
  152TMC2    H2 2371   2.972   0.805  13.031  0.8594 -1.6433 -2.6718
  152TMC2    C7 2372   2.831   1.042  13.025 -0.2757  0.6406  0.4351
  152TMC2    C8 2373   2.883   0.573  12.936  0.2690  0.0285 -0.4855
  152TMC2    O1 2374   2.764   1.130  12.969 -0.2426 -0.8042  0.4699
  152TMC2    O2 2375   2.854   0.458  12.968  0.1150  0.2666 -0.4006
  152TMC2    O5 2376   2.980   0.607  12.852 -0.3211 -0.1729  0.0135
  152TMC2    H5 2377   2.984   0.705  12.844  1.3294 -0.2225  0.1778
  153MPD2     C 2378   2.243   0.497  12.835  0.0502  0.8381 -0.0457
  153MPD2    C1 2379   2.267   0.610  12.908  0.0206 -0.1741 -0.0559
  153MPD2    C2 2380   2.171   0.696  12.955  0.4219  0.1267 -0.8333
  153MPD2    C3 2381   2.035   0.673  12.914  0.0917 -0.1184  0.0004
  153MPD2    C4 2382   2.006   0.553  12.855  0.0865  0.2318 -0.1473
  153MPD2    C5 2383   2.107   0.470  12.818 -0.1611 -0.1400 -0.7378
  153MPD2     H 2384   2.191   0.786  13.010 -2.4830 -0.6829  1.5577
  153MPD2    H1 2385   1.910   0.524  12.815  0.0508 -0.3669  0.3851
  153MPD2    H2 2386   2.326   0.434  12.806 -1.9622 -0.9864 -1.8637
  153MPD2    H3 2387   2.071   0.378  12.774  1.0769  0.1479 -2.3403
  153MPD2     N 2388   1.931   0.756  12.961 -0.5011  0.5011  0.0381
  153MPD2    H5 2389   1.959   0.834  13.019  0.7168 -0.8968  1.3459
  153MPD2    N1 2390   2.403   0.637  12.928 -0.0500  0.6718  0.6151
  153MPD2    H7 2391   2.467   0.567  12.893 -1.9661  0.4142 -2.3841
  154TMC2    C1 2392   4.451   0.741   0.746  0.0649  0.0472  0.8441
  154TMC2    C2 2393   4.562   0.701   0.821  0.4868 -0.2689  0.2892
  154TMC2    C3 2394   4.649   0.605   0.765  0.1427  0.3861  0.0128
  154TMC2    C4 2395   4.431   0.693   0.618  0.5243 -0.8998  0.2266
  154TMC2    C5 2396   4.513   0.592   0.574 -0.8213  0.1580  0.0324
  154TMC2    C6 2397   4.615   0.544   0.648 -0.5228 -0.0715 -0.1102
  154TMC2     C 2398   4.348   0.806   0.820 -0.0854  0.5835 -0.4989
  154TMC2     O 2399   4.367   0.810   0.943  0.2289 -0.1023  0.0942
  154TMC2     H 2400   4.573   0.740   0.922  0.8820 -3.2341  1.3887
  154TMC2    H1 2401   4.360   0.733   0.547  1.6760  2.0775  0.7410
  154TMC2    H2 2402   4.674   0.461   0.609  0.2035  0.1947  0.4260
  154TMC2    C7 2403   4.487   0.530   0.444  0.1546  0.3707  0.1213
  154TMC2    C8 2404   0.002   0.531   0.864 -0.0900 -0.4022  0.2046
  154TMC2    O1 2405   4.440   0.611   0.366  0.2623 -0.5027  0.0741
  154TMC2    O2 2406   4.729   0.562   0.984  0.4858 -0.0628  0.1975
  154TMC2    O5 2407   0.118   0.507   0.805 -0.4837  0.1844  0.9829
  154TMC2    H5 2408   0.126   0.520   0.708  1.3866  0.9397  1.2384
  155MPD2     C 2409   4.019   0.929   0.701  0.6576 -0.4834  0.3904
  155MPD2    C1 2410   4.117   0.897   0.793 -0.5532 -0.1666  0.1598
  155MPD2    C2 2411   4.095   0.935   0.930 -0.0971 -0.3857  0.0358
  155MPD2    C3 2412   3.970   0.979   0.972  0.5129  0.5635 -0.6693
  155MPD2    C4 2413   3.870   0.994   0.878  0.3872 -0.6307 -0.3944
  155MPD2    C5 2414   3.898   0.975   0.749 -0.2314  0.2907  0.2141
  155MPD2     H 2415   4.177   0.915   0.999 -1.4066 -1.1699  1.3602
  155MPD2    H1 2416   3.770   1.029   0.901  0.5781 -0.4050  0.0829
  155MPD2    H2 2417   4.040   0.925   0.595 -0.9453  0.8426  0.0089
  155MPD2    H3 2418   3.821   0.989   0.675 -1.4884  1.8790  1.8338
  155MPD2     N 2419   3.945   1.005   1.109 -0.1020 -0.1782  0.1526
  155MPD2    H5 2420   4.028   0.995   1.166  1.0591  0.9036 -1.3465
  155MPD2    N1 2421   4.244   0.850   0.746 -0.6377 -0.1776  0.0311
  155MPD2    H7 2422   4.254   0.846   0.645 -0.9783  1.1800 -0.0651
  156TMC2    C1 2423   3.156   2.690  12.406 -0.2411  0.3288 -0.2544
  156TMC2    C2 2424   3.069   2.580  12.397 -0.0499 -0.2011 -0.1936
  156TMC2    C3 2425   3.009   2.571  12.272 -0.5922 -0.4871 -0.8810
  156TMC2    C4 2426   3.180   2.769  12.297 -0.8180 -0.8334 -0.1301
  156TMC2    C5 2427   3.108   2.750  12.183 -0.0511  0.5469  0.1129
  156TMC2    C6 2428   3.024   2.651  12.167  0.1708 -0.2532  0.5648
  156TMC2     C 2429   3.167   2.752  12.536  0.0438 -0.1340  0.0016
  156TMC2     O 2430   3.184   2.872  12.544  0.0210  0.2046 -0.0801
  156TMC2     H 2431   3.036   2.513  12.476 -1.0089 -1.2685 -1.5044
  156TMC2    H1 2432   3.252   2.848  12.309 -0.9546 -0.5769 -1.0014
  156TMC2    H2 2433   2.957   2.645  12.081 -0.2337 -0.4881  0.8952
  156TMC2    C7 2434   3.121   2.847  12.078  0.2028  0.3688  0.3080
  156TMC2    C8 2435   2.896   2.477  12.267  0.2347 -0.3541 -0.2170
  156TMC2    O1 2436   3.176   2.954  12.102  0.2639 -0.0500  0.4984
  156TMC2    O2 2437   2.893   2.368  12.323 -0.4252  0.7827 -0.6949
  156TMC2    O5 2438   2.796   2.563  12.288  0.0179  0.0550 -0.7233
  156TMC2    H5 2439   2.804   2.654  12.254 -1.2650  0.1435 -0.7846
  157MPD2     C 2440   3.076   2.599  12.857  0.4341 -0.7856 -0.0381
  157MPD2    C1 2441   3.089   2.700  12.763  0.9115  0.2218 -0.1340
  157MPD2    C2 2442   3.025   2.820  12.793 -1.0918 -0.1304  1.0788
  157MPD2    C3 2443   2.941   2.833  12.904 -0.2534 -0.2933  0.3188
  157MPD2    C4 2444   2.930   2.736  12.999  0.2715 -0.1304 -0.6504
  157MPD2    C5 2445   2.997   2.619  12.972  0.0262  0.0712 -0.0635
  157MPD2     H 2446   3.033   2.898  12.719 -2.8693 -2.3637 -1.4648
  157MPD2    H1 2447   2.863   2.734  13.085 -0.4308 -1.3839 -1.2286
  157MPD2    H2 2448   3.122   2.502  12.842 -2.9237 -2.3628 -0.2871
  157MPD2    H3 2449   2.972   2.534  13.035 -0.0114 -0.1917 -0.4400
  157MPD2     N 2450   2.865   2.949  12.907 -0.0282  0.3378  0.3579
  157MPD2    H5 2451   2.884   3.015  12.832  3.8862  0.3716  1.3769
  157MPD2    N1 2452   3.138   2.663  12.634  0.8764  0.7031 -0.0910
  157MPD2    H7 2453   3.168   2.568  12.617  1.4436  0.6841  1.0624
  158TMC2    C1 2454   3.197   2.070  13.532 -0.7569 -0.3107 -0.8277
  158TMC2    C2 2455   3.243   2.054  13.404 -0.0965  0.3384  0.7529
  158TMC2    C3 2456   3.148   2.053  13.304  0.1987 -0.0602  0.0144
  158TMC2    C4 2457   3.065   2.089  13.563  0.6321  0.2722  0.3899
  158TMC2    C5 2458   2.978   2.087  13.456 -0.0347 -0.1026  0.0173
  158TMC2    C6 2459   3.015   2.074  13.324  0.0871  0.2512  0.0123
  158TMC2     C 2460   3.291   2.080  13.640 -0.8037 -0.5227 -0.3679
  158TMC2     O 2461   3.387   2.155  13.623 -0.5932 -0.0595  0.4860
  158TMC2     H 2462   3.348   2.047  13.377 -0.2593  1.9767 -0.2977
  158TMC2    H1 2463   3.031   2.099  13.666  1.8869 -0.6917  0.9084
  158TMC2    H2 2464   2.940   2.068  13.246 -0.3438 -0.7064  0.5020
  158TMC2    C7 2465   2.841   2.080  13.482  0.5234 -0.4387  0.5858
  158TMC2    C8 2466   3.179   2.033  13.170  0.0214  0.3187 -0.4536
  158TMC2    O1 2467   2.770   2.120  13.392  0.0741 -0.3215 -0.0418
  158TMC2    O2 2468   3.103   2.048  13.078  0.1450  0.4416  0.3543
  158TMC2    O5 2469   3.297   1.977  13.154  0.4689 -0.1093  0.3882
  158TMC2    H5 2470   3.317   1.921  13.231 -0.5379  1.8066  2.0469
  159MPD2     C 2471   3.483   1.945  14.094  0.2919  0.2250  0.9778
  159MPD2    C1 2472   3.350   1.912  14.093  0.2387  0.2072 -0.2810
  159MPD2    C2 2473   3.275   1.938  13.976  0.2284 -0.4408 -0.2149
  159MPD2    C3 2474   3.331   2.003  13.864  0.6722 -0.2007 -0.3443
  159MPD2    C4 2475   3.455   2.055  13.881 -0.2203  0.1966 -0.1005
  159MPD2    C5 2476   3.533   2.013  13.990  0.9535  0.2169  0.7374
  159MPD2     H 2477   3.173   1.904  13.966 -0.1774  0.3132  1.3670
  159MPD2    H1 2478   3.497   2.113  13.800 -0.1526  0.5586  0.1919
  159MPD2    H2 2479   3.545   1.928  14.181  2.6454 -1.6835 -1.1007
  159MPD2    H3 2480   3.639   2.036  13.989  0.7906  0.9518 -0.0896
  159MPD2     N 2481   3.252   2.016  13.751  0.4756  0.2160  0.3769
  159MPD2    H5 2482   3.171   1.956  13.743  1.7981 -2.1363  4.5647
  159MPD2    N1 2483   3.308   1.834  14.199 -0.0226  0.2017  0.5984
  159MPD2    H7 2484   3.384   1.814  14.264  1.0627  1.8348 -0.1583
  160TMC2    C1 2485   2.992   0.094   1.547  0.3464  1.0071  0.5475
  160TMC2    C2 2486   2.940   4.707   1.571 -0.3182 -0.0509  0.4214
  160TMC2    C3 2487   2.983   4.590   1.511  0.1971  0.8876  0.0790
  160TMC2    C4 2488   3.112   0.106   1.485 -0.3957 -0.4210  0.2855
  160TMC2    C5 2489   3.170   4.727   1.434  0.0973  0.2713 -0.4401
  160TMC2    C6 2490   3.100   4.606   1.437  0.0915  0.0441 -0.1654
  160TMC2     C 2491   2.930   0.210   1.608  0.3732 -0.2116  0.2374
  160TMC2     O 2492   2.877   0.193   1.719 -0.3093  0.3359  0.0309
  160TMC2     H 2493   2.848   4.700   1.627 -0.5161 -1.7631 -0.1255
  160TMC2    H1 2494   3.152   0.205   1.467  0.6543 -0.5290  2.1062
  160TMC2    H2 2495   3.142   4.520   1.387  0.8336  0.0491  0.4446
  160TMC2    C7 2496   3.300   4.721   1.381 -0.1424  0.5886 -0.5274
  160TMC2    C8 2497   2.908   4.468   1.501 -0.1808 -0.2215  0.2548
  160TMC2    O1 2498   3.339   4.627   1.318 -0.4323  0.1443 -0.0192
  160TMC2    O2 2499   2.919   4.392   1.405 -0.1865  0.3345 -0.1911
  160TMC2    O5 2500   2.843   4.439   1.612 -0.1303 -0.1329 -0.0153
  160TMC2    H5 2501   2.864   4.492   1.692  1.4922  0.3796 -0.7742
  161MPD2     C 2502   2.822   0.475   1.665  0.2346 -0.3924  0.6808
  161MPD2    C1 2503   2.845   0.432   1.534  0.1144  0.0315 -1.0312
  161MPD2    C2 2504   2.825   0.516   1.425 -0.0741  0.1040 -0.4344
  161MPD2    C3 2505   2.757   0.635   1.446  0.7795  0.0483 -0.3764
  161MPD2    C4 2506   2.735   0.678   1.570  0.5945  0.0119 -0.1078
  161MPD2    C5 2507   2.765   0.600   1.680 -0.4924  0.2260  0.3903
  161MPD2     H 2508   2.844   0.479   1.325 -2.1655  1.5314 -1.3508
  161MPD2    H1 2509   2.700   0.779   1.588  0.5910 -0.0639  0.3011
  161MPD2    H2 2510   2.843   0.420   1.757 -1.3442 -0.5843  0.9328
  161MPD2    H3 2511   2.735   0.633   1.778 -4.0036  0.4531 -0.7424
  161MPD2     N 2512   2.716   0.718   1.339  0.3249 -0.2205  0.6110
  161MPD2    H5 2513   2.684   0.812   1.361  1.2039  0.8655 -2.7689
  161MPD2    N1 2514   2.904   0.307   1.513  0.4671  0.0422  0.0457
  161MPD2    H7 2515   2.913   0.275   1.417  0.1900  0.9630 -0.2879
  162TMC2    C1 2516   0.906   2.601   1.317 -0.1612  1.3369 -0.4189
  162TMC2    C2 2517   0.898   2.594   1.458 -0.0017 -0.0643  0.0789
  162TMC2    C3 2518   0.778   2.625   1.525 -0.1954 -0.0706  0.3621
  162TMC2    C4 2519   0.800   2.643   1.242  0.1810  0.7683 -0.9127
  162TMC2    C5 2520   0.686   2.660   1.307 -0.1385  0.2070  0.6065
  162TMC2    C6 2521   0.669   2.656   1.448 -0.0079  0.0209 -0.0905
  162TMC2     C 2522   1.031   2.581   1.243 -0.1099  0.1307 -0.0774
  162TMC2     O 2523   1.040   2.604   1.121 -0.3638 -0.5646  0.4447
  162TMC2     H 2524   0.987   2.589   1.519 -0.8888 -0.5473  1.3160
  162TMC2    H1 2525   0.803   2.655   1.134 -1.3099  0.0903 -1.0271
  162TMC2    H2 2526   0.578   2.686   1.498  0.2288  2.5666 -1.1904
  162TMC2    C7 2527   0.593   2.752   1.238 -0.5759 -0.3459  0.1253
  162TMC2    C8 2528   0.786   2.669   1.666  0.1086  0.1862 -0.8342
  162TMC2    O1 2529   0.651   2.832   1.163 -0.3732 -0.4012  0.1278
  162TMC2    O2 2530   0.817   2.599   1.760  0.4849 -0.2410  0.2275
  162TMC2    O5 2531   0.714   2.787   1.677  0.1730 -0.6140  0.0575
  162TMC2    H5 2532   0.707   2.830   1.589  0.1880 -0.9528 -0.1062
  163MPD2     C 2533   1.508   2.368   1.255 -0.6193 -0.1149 -0.4632
  163MPD2    C1 2534   1.438   2.439   1.159  0.8573 -0.5160  0.0015
  163MPD2    C2 2535   1.311   2.491   1.182  0.4585 -0.2022  0.1273
  163MPD2    C3 2536   1.259   2.477   1.306  0.7098  0.3104  0.1192
  163MPD2    C4 2537   1.338   2.420   1.405 -0.5065  0.7259 -0.2986
  163MPD2    C5 2538   1.462   2.373   1.381  0.2144  0.7634  0.8845
  163MPD2     H 2539   1.246   2.525   1.102  1.2273 -3.5891 -1.9205
  163MPD2    H1 2540   1.316   2.427   1.511 -2.7584 -1.5281 -0.6181
  163MPD2    H2 2541   1.607   2.326   1.244 -1.1464 -1.4822  0.0809
  163MPD2    H3 2542   1.528   2.342   1.462  0.7706  0.2892  0.2499
  163MPD2     N 2543   1.126   2.522   1.336  0.2036  0.2120 -0.0119
  163MPD2    H5 2544   1.097   2.510   1.433 -1.1509  0.3587 -0.4055
  163MPD2    N1 2545   1.502   2.446   1.034  0.3014 -0.4211 -0.6690
  163MPD2    H7 2546   1.583   2.384   1.033 -0.2493 -1.1215 -2.0070
  164TMC2    C1 2547   1.285   1.392  11.529  0.1046 -0.2434  0.4323
  164TMC2    C2 2548   1.393   1.456  11.588  0.9278  0.7383 -0.5420
  164TMC2    C3 2549   1.375   1.591  11.612  0.4088  0.4808 -0.1994
  164TMC2    C4 2550   1.170   1.454  11.480 -0.1863 -0.0657 -0.5339
  164TMC2    C5 2551   1.161   1.591  11.498 -1.1526 -0.2022  0.0267
  164TMC2    C6 2552   1.265   1.653  11.568 -0.6760  0.0163 -0.0020
  164TMC2     C 2553   1.285   1.243  11.529  0.2727 -0.0707 -0.2590
  164TMC2     O 2554   1.178   1.182  11.530  0.5190  0.3106 -0.0779
  164TMC2     H 2555   1.478   1.403  11.631  0.7148  1.8903  1.3129
  164TMC2    H1 2556   1.085   1.405  11.434 -0.9477 -0.5527  1.3969
  164TMC2    H2 2557   1.270   1.757  11.598  1.3234 -0.2056  0.4261
  164TMC2    C7 2558   1.054   1.672  11.451 -0.0142 -0.1451  0.0735
  164TMC2    C8 2559   1.493   1.673  11.631  0.3240  0.3371 -0.6169
  164TMC2    O1 2560   0.964   1.619  11.384  0.3632 -0.0977 -0.5154
  164TMC2    O2 2561   1.501   1.789  11.595  1.1374 -0.4563 -0.2064
  164TMC2    O5 2562   1.575   1.608  11.712  0.2571 -0.4490 -0.1422
  164TMC2    H5 2563   1.558   1.512  11.724  2.3946 -0.6810  1.0860
  165TMC2    C1 2564   2.962   3.384   1.627 -0.1256  0.2401 -0.0639
  165TMC2    C2 2565   2.898   3.298   1.545  0.2231 -0.0904 -0.7743
  165TMC2    C3 2566   2.884   3.349   1.420 -0.3638  0.7857  0.3060
  165TMC2    C4 2567   3.045   3.482   1.581  0.2143  0.0881  0.3204
  165TMC2    C5 2568   3.030   3.524   1.449  0.9275 -0.3228  0.0421
  165TMC2    C6 2569   2.941   3.458   1.364 -0.1664  0.9070 -0.6392
  165TMC2     C 2570   2.957   3.348   1.766  0.2573  0.7144 -0.8298
  165TMC2     O 2571   2.859   3.282   1.801 -0.2357  0.2371 -0.0733
  165TMC2     H 2572   2.845   3.209   1.575  0.4937  0.6204  1.8270
  165TMC2    H1 2573   3.091   3.547   1.654 -1.0962 -0.4843  1.6305
  165TMC2    H2 2574   2.910   3.503   1.270  0.5239  2.1724 -0.2616
  165TMC2    C7 2575   3.124   3.619   1.395 -0.2827 -0.6915  0.8507
  165TMC2    C8 2576   2.770   3.301   1.350  0.1722 -0.2982 -0.4829
  165TMC2    O1 2577   3.204   3.659   1.478  0.5229  0.4048  0.3448
  165TMC2    O2 2578   2.668   3.254   1.400 -0.1970  0.5393 -0.3201
  165TMC2    O5 2579   2.814   3.280   1.222 -0.1792  0.1975  0.0224
  165TMC2    H5 2580   2.903   3.316   1.200 -1.0986  2.3806 -0.2076
  166MPD2     C 2581   3.054   3.473   2.257 -0.4826 -0.0132  0.7955
  166MPD2    C1 2582   2.936   3.449   2.194 -0.4503  0.1349 -0.0480
  166MPD2    C2 2583   2.936   3.432   2.052 -0.1482  0.2494  0.3649
  166MPD2    C3 2584   3.056   3.432   1.984 -0.9790 -0.3572  0.1812
  166MPD2    C4 2585   3.170   3.454   2.051 -0.2768  0.9990  0.7581
  166MPD2    C5 2586   3.169   3.470   2.186 -0.1367 -0.2313 -0.2861
  166MPD2     H 2587   2.843   3.410   2.000  0.1587 -3.1115  1.2733
  166MPD2    H1 2588   3.263   3.461   1.996 -0.2650  1.6424  0.8661
  166MPD2    H2 2589   3.055   3.476   2.365  0.6739 -1.2260  0.8154
  166MPD2    H3 2590   3.262   3.487   2.239  0.9661  0.0161 -2.2787
  166MPD2     N 2591   3.060   3.402   1.840 -0.0581  0.1450  0.0317
  166MPD2    H5 2592   3.148   3.426   1.795  0.1510 -0.8701 -0.1036
  166MPD2    N1 2593   2.826   3.424   2.280 -0.5539 -0.1965 -0.6154
  166MPD2    H7 2594   2.853   3.393   2.373  1.3014  2.5192 -0.2394
  167TMC2    C1 2595   0.448   2.081  13.064  0.3386 -0.1915  0.1253
  167TMC2    C2 2596   0.437   2.112  13.196  0.9231  0.0289 -0.1182
  167TMC2    C3 2597   0.384   2.017  13.279 -0.4685  0.8181 -0.2220
  167TMC2    C4 2598   0.408   1.962  13.017  0.0792 -0.0103 -0.2094
  167TMC2    C5 2599   0.353   1.869  13.106 -0.1480  0.6210  0.0365
  167TMC2    C6 2600   0.344   1.890  13.237  0.3301 -0.0027 -0.0233
  167TMC2     C 2601   0.490   2.199  12.982 -0.4228  0.4723  0.3241
  167TMC2     O 2602   0.507   2.309  13.035 -0.6481  0.4893  0.4080
  167TMC2     H 2603   0.489   2.190  13.250  3.1265 -1.8991  0.5632
  167TMC2    H1 2604   0.419   1.943  12.911  2.3522 -1.5081  0.2911
  167TMC2    H2 2605   0.289   1.826  13.305  1.2269 -0.4435  0.2893
  167TMC2    C7 2606   0.347   1.727  13.072 -0.0699 -0.8422 -0.4840
  167TMC2    C8 2607   0.352   2.047  13.415 -0.1009  0.1279  0.1618
  167TMC2    O1 2608   0.277   1.660  13.140  1.0966 -0.3331 -0.0921
  167TMC2    O2 2609   0.320   1.962  13.493  0.3541 -0.2200  0.1725
  167TMC2    O5 2610   0.291   2.167  13.400 -0.5368  0.1997  0.4465
  167TMC2    H5 2611   0.301   2.204  13.310  3.9930  0.1316  0.9290
  168MPD2     C 2612   0.552   2.390  12.756 -0.2061  0.6979 -0.4340
  168MPD2    C1 2613   0.529   2.256  12.740 -0.2588 -0.1709 -0.2258
  168MPD2    C2 2614   0.510   2.204  12.610  0.1191 -0.0726  0.3325
  168MPD2    C3 2615   0.504   2.289  12.499 -0.3906  0.1029  0.1751
  168MPD2    C4 2616   0.533   2.423  12.510  0.7281 -0.4696  1.1756
  168MPD2    C5 2617   0.554   2.468  12.640 -0.2729 -0.4097 -0.4596
  168MPD2     H 2618   0.500   2.099  12.586  0.5271 -0.1981  0.7071
  168MPD2    H1 2619   0.543   2.489  12.425 -0.7920 -2.5984 -0.6744
  168MPD2    H2 2620   0.577   2.430  12.854  1.0494  0.7614 -0.7749
  168MPD2    H3 2621   0.573   2.573  12.662 -0.4118 -0.5881  0.5354
  168MPD2     N 2622   0.487   2.231  12.372 -0.3798  0.1194 -0.4084
  168MPD2    H5 2623   0.461   2.133  12.377 -1.9136  0.4984 -0.9245
  168MPD2    N1 2624   0.507   2.165  12.853 -0.0116  0.2149 -0.2347
  168MPD2    H7 2625   0.478   2.071  12.832  0.4331 -0.4438  2.1092
  169MPD1     C 2626   2.684   1.179   9.154  0.6201 -0.1816  0.7531
  169MPD1    C1 2627   2.723   1.060   9.223 -0.1054 -0.0053  0.2840
  169MPD1    C2 2628   2.814   1.085   9.325 -0.8850  0.1125  0.0406
  169MPD1    C3 2629   2.839   1.220   9.360  0.5487  1.0027  0.3592
  169MPD1    C4 2630   2.788   1.329   9.300  0.2176  0.1113  0.0997
  169MPD1    C5 2631   2.702   1.306   9.202 -0.3876  0.1281  0.0343
  169MPD1     H 2632   2.874   1.006   9.369  1.0768  1.3782 -0.3562
  169MPD1    H1 2633   2.799   1.433   9.329  1.7807  0.5836 -2.1948
  169MPD1    H2 2634   2.622   1.172   9.066 -1.3818 -0.8895  2.1985
  169MPD1    H3 2635   2.645   1.386   9.156 -2.4116 -0.9481  0.6692
  169MPD1     N 2636   2.915   1.231   9.476 -0.4196 -0.6200 -0.3885
  169MPD1    H5 2637   2.960   1.146   9.508  1.7427  1.5412  2.3508
  169MPD1    N1 2638   2.695   0.927   9.173  0.8050 -0.0581  0.0537
  169MPD1    H6 2639   2.620   0.923   9.105 -0.0948  0.3619  1.0138
  169MPD1    H7 2640   2.689   0.852   9.242  1.0816 -0.7787 -0.7148
  170MPD1     C 2641   0.715   4.302  13.807 -0.2334 -0.4626 -0.1164
  170MPD1    C1 2642   0.765   4.364  13.692  0.2519  0.2632 -0.1527
  170MPD1    C2 2643   0.907   4.353  13.664  0.1802 -0.5596  0.5612
  170MPD1    C3 2644   0.997   4.284  13.747  0.4298  0.0848 -0.0754
  170MPD1    C4 2645   0.942   4.227  13.858 -0.1404  0.1080 -0.8706
  170MPD1    C5 2646   0.807   4.233  13.886  0.1402  0.3031  0.2929
  170MPD1     H 2647   0.943   4.381  13.566  0.9669  1.0861  1.3308
  170MPD1    H1 2648   1.006   4.174  13.928 -0.3687 -0.8603 -1.3925
  170MPD1    H2 2649   0.613   4.322  13.837 -1.0383 -2.3297 -1.5819
  170MPD1    H3 2650   0.767   4.178  13.971 -0.7699  1.4682  0.6086
  170MPD1     N 2651   1.134   4.271  13.716  0.1586  0.1979 -0.0796
  170MPD1    H5 2652   1.158   4.307  13.624 -1.7389  0.3522 -0.5130
  170MPD1    N1 2653   0.673   4.422  13.604  0.2281  0.1428 -0.0067
  170MPD1    H6 2654   0.577   4.434  13.636 -0.0728 -0.6818 -0.6203
  170MPD1    H7 2655   0.714   4.507  13.565  1.4268 -1.0426 -1.3300
  171MPD1     C 2656   4.729   0.755  16.018  0.0590  0.1024 -0.3988
  171MPD1    C1 2657   4.664   0.633  16.029  0.1305 -0.0667 -0.3917
  171MPD1    C2 2658   0.008   0.521  16.047 -0.1684  0.3729 -0.2818
  171MPD1    C3 2659   0.141   0.525  16.074 -0.0048  0.3157 -0.4227
  171MPD1    C4 2660   0.201   0.643  16.069  0.1220 -0.1252  0.0349
  171MPD1    C5 2661   0.128   0.754  16.044  0.3286 -0.1991 -0.4042
  171MPD1     H 2662   4.700   0.421  16.046  0.3677  0.1091  3.7978
  171MPD1    H1 2663   0.309   0.638  16.079  0.2076  0.1406 -0.7511
  171MPD1    H2 2664   4.677   0.845  15.988  1.1605  0.1915 -2.0322
  171MPD1    H3 2665   0.183   0.847  16.029  3.0651 -1.7073  0.3582
  171MPD1     N 2666   0.210   0.405  16.110 -0.7057  0.2502  0.0108
  171MPD1    H5 2667   0.306   0.423  16.137  0.0013 -1.5052 -1.3009
  171MPD1    N1 2668   4.522   0.629  16.028 -0.7265  0.4204 -0.4467
  171MPD1    H6 2669   4.475   0.708  15.984 -0.7916  1.7708  2.0761
  171MPD1    H7 2670   4.477   0.546  15.988  1.2050 -0.4761 -0.7941
  172MPD1     C 2671   0.029   3.951   0.334 -0.0195  0.2128  0.8076
  172MPD1    C1 2672   0.006   3.934   0.472 -0.2659  0.5959  0.5178
  172MPD1    C2 2673   0.013   4.056   0.549 -0.2015  0.0530  1.1509
  172MPD1    C3 2674   0.049   4.178   0.497 -0.2123 -0.5888  0.0234
  172MPD1    C4 2675   0.099   4.179   0.366  0.0943 -0.2208  0.0604
  172MPD1    C5 2676   0.084   4.065   0.288  0.0853 -0.4289  0.6223
  172MPD1     H 2677   4.717   4.054   0.654  0.7337 -1.4280  1.3903
  172MPD1    H1 2678   0.152   4.261   0.318 -1.0554  0.6635  0.2899
  172MPD1    H2 2679   0.017   3.866   0.268 -0.0355  0.5346  0.3915
  172MPD1    H3 2680   0.110   4.056   0.184 -1.8208  0.2136  0.0973
  172MPD1     N 2681   0.077   4.292   0.570 -0.4840 -0.1912  0.4923
  172MPD1    H5 2682   0.132   4.365   0.525  1.3983 -1.6398  0.3933
  172MPD1    N1 2683   4.671   3.829   0.530 -0.5800 -0.2562  0.6946
  172MPD1    H6 2684   4.696   3.752   0.469 -0.5266 -0.5546  1.0948
  172MPD1    H7 2685   4.714   3.815   0.622 -0.4579  2.1186  1.0072
  173MPD1     C 2686   1.144   4.201  14.207  0.7420 -0.4233 -0.3333
  173MPD1    C1 2687   1.099   4.075  14.221 -0.3822  0.1506  0.0930
  173MPD1    C2 2688   1.045   4.027  14.331 -0.0856  0.1386  0.4943
  173MPD1    C3 2689   1.039   4.115  14.443 -0.1441  0.0668 -0.3056
  173MPD1    C4 2690   1.084   4.247  14.432 -0.4376  0.2159  0.1960
  173MPD1    C5 2691   1.144   4.281  14.315  0.1701 -0.4743 -0.7987
  173MPD1     H 2692   0.998   3.930  14.332 -1.8683  0.9869 -2.7482
  173MPD1    H1 2693   1.096   4.312  14.518  0.1775 -2.0846  1.8472
  173MPD1    H2 2694   1.192   4.240  14.119  0.2226  2.0140  0.4776
  173MPD1    H3 2695   1.188   4.375  14.285 -0.3986 -0.5179 -1.7737
  173MPD1     N 2696   0.978   4.066  14.561 -0.2448  0.0372  0.2517
  173MPD1    H5 2697   0.970   3.965  14.570  1.5220 -0.0721  0.6376
  173MPD1    N1 2698   1.111   3.989  14.105 -0.0749 -0.2837  0.4528
  173MPD1    H6 2699   1.189   3.925  14.119 -1.7329 -2.9162 -2.2650
  173MPD1    H7 2700   1.129   4.041  14.020 -0.0051  0.2070  0.7688
  174MPD1     C 2701   0.744   3.202  14.928 -0.3983 -0.8122 -0.5126
  174MPD1    C1 2702   0.772   3.254  14.800 -0.0402 -0.0620  0.1112
  174MPD1    C2 2703   0.798   3.393  14.800 -0.0955  0.5704 -0.4659
  174MPD1    C3 2704   0.784   3.476  14.915 -0.2579 -0.2531  0.2684
  174MPD1    C4 2705   0.759   3.418  15.033 -0.4796  0.3090 -0.3021
  174MPD1    C5 2706   0.738   3.282  15.040 -0.9318 -0.0987  1.0870
  174MPD1     H 2707   0.850   3.435  14.716 -1.9478  0.0406 -1.8759
  174MPD1    H1 2708   0.754   3.471  15.128  2.0903 -0.1622  0.0948
  174MPD1    H2 2709   0.718   3.097  14.935 -2.6344 -0.1977  0.1124
  174MPD1    H3 2710   0.699   3.236  15.130 -0.1199 -1.6152  0.6568
  174MPD1     N 2711   0.810   3.619  14.919 -0.0445  0.3781  0.3400
  174MPD1    H5 2712   0.816   3.664  15.009 -0.3219  0.2708  0.4122
  174MPD1    N1 2713   0.798   3.171  14.696  0.1529  0.3265 -0.3136
  174MPD1    H6 2714   0.747   3.083  14.705 -0.6613  0.8634  0.3510
  174MPD1    H7 2715   0.770   3.212  14.607 -0.4327  4.5751  1.7940
  175MPD1     C 2716   3.902   0.579  15.574 -0.0826 -0.1669  0.1435
  175MPD1    C1 2717   3.970   0.465  15.597 -0.0787  0.2743 -0.4774
  175MPD1    C2 2718   3.972   0.410  15.724  0.0884 -0.3260  0.5992
  175MPD1    C3 2719   3.922   0.485  15.833 -0.4496 -0.9372  0.0434
  175MPD1    C4 2720   3.863   0.604  15.807  0.0464 -0.1802  0.1426
  175MPD1    C5 2721   3.846   0.649  15.679 -0.9250 -0.1989 -0.8320
  175MPD1     H 2722   4.017   0.313  15.736 -1.3159 -0.6816  2.9465
  175MPD1    H1 2723   3.821   0.666  15.886  1.5909  0.6862  0.2737
  175MPD1    H2 2724   3.907   0.626  15.476  0.0042 -0.8818 -0.1891
  175MPD1    H3 2725   3.807   0.749  15.664  1.3150  0.5233 -1.8571
  175MPD1     N 2726   3.931   0.447  15.969  0.7771 -0.3442 -0.3244
  175MPD1    H5 2727   3.880   0.503  16.036  1.3101  1.0864 -1.1049
  175MPD1    N1 2728   4.010   0.383  15.482  0.5961  0.7738  0.3086
  175MPD1    H6 2729   4.048   0.435  15.403  0.7114  3.0988  1.8982
  175MPD1    H7 2730   4.087   0.320  15.505  0.2286  2.1976  5.4252
  176MPD1     C 2731   1.485   2.453  16.746  0.2072 -0.6483 -0.8372
  176MPD1    C1 2732   1.506   2.424  16.878  0.1035  0.2525 -0.1286
  176MPD1    C2 2733   1.520   2.529  16.967 -0.4393 -0.2692  0.4117
  176MPD1    C3 2734   1.525   2.663  16.929  0.2257  0.1474  0.3395
  176MPD1    C4 2735   1.509   2.690  16.795  0.1163  0.1752 -0.2920
  176MPD1    C5 2736   1.494   2.586  16.704 -0.4320  0.8062  0.0138
  176MPD1     H 2737   1.535   2.511  17.072  0.9599 -1.1526  0.0585
  176MPD1    H1 2738   1.503   2.789  16.752  1.4468  0.0508 -0.7884
  176MPD1    H2 2739   1.468   2.374  16.674  0.3685 -1.7017  0.2856
  176MPD1    H3 2740   1.472   2.601  16.599  2.8784 -0.5861 -0.9073
  176MPD1     N 2741   1.536   2.762  17.035  0.0153  0.1010 -0.2665
  176MPD1    H5 2742   1.522   2.725  17.128 -1.2902 -0.9091 -0.8715
  176MPD1    N1 2743   1.519   2.290  16.916 -0.2082  0.2161  0.4696
  176MPD1    H6 2744   1.489   2.292  17.014 -0.6080  1.4819  0.3087
  176MPD1    H7 2745   1.459   2.238  16.852  1.1122  2.3162 -2.4338
  177MPD1     C 2746   4.007   2.929  10.379 -0.2776  0.3734 -0.2940
  177MPD1    C1 2747   3.899   3.012  10.356  0.0237  0.0679  0.0125
  177MPD1    C2 2748   3.835   3.000  10.240 -0.4259 -0.6668 -0.0484
  177MPD1    C3 2749   3.885   2.914  10.133  0.4707 -0.0825 -0.1760
  177MPD1    C4 2750   3.999   2.837  10.158 -0.1145 -0.0750  0.0231
  177MPD1    C5 2751   4.049   2.847  10.282  0.0261 -0.0172 -0.0351
  177MPD1     H 2752   3.737   3.042  10.221 -0.6325 -0.1843  2.1528
  177MPD1    H1 2753   4.052   2.770  10.092 -0.9577 -1.3798  0.6841
  177MPD1    H2 2754   4.058   2.938  10.475 -1.3156 -0.8372  0.3703
  177MPD1    H3 2755   4.141   2.793  10.304 -0.1531 -0.0498  0.6277
  177MPD1     N 2756   3.831   2.927  10.000 -0.6827 -0.2348 -0.3383
  177MPD1    H5 2757   3.748   2.985   9.989  1.2607  2.4453 -0.9866
  177MPD1    N1 2758   3.847   3.088  10.467  0.0986  0.6535  0.6860
  177MPD1    H6 2759   3.925   3.136  10.511 -0.2503 -0.3402  2.4045
  177MPD1    H7 2760   3.805   3.170  10.424 -1.4563 -0.7820 -0.5308
  178MPD1     C 2761   2.346   3.720   0.310  0.7818  0.5235 -0.1505
  178MPD1    C1 2762   2.209   3.718   0.274  0.1135 -0.1335 -0.3030
  178MPD1    C2 2763   2.174   3.753   0.151  0.1096  0.0847 -0.2412
  178MPD1    C3 2764   2.276   3.777   0.056 -0.4528  0.3011 -0.7487
  178MPD1    C4 2765   2.411   3.794   0.096  0.0396  0.1301  0.3859
  178MPD1    C5 2766   2.445   3.760   0.227 -0.0930 -0.1734 -0.4659
  178MPD1     H 2767   2.070   3.740   0.120 -0.7787  0.8782  2.4096
  178MPD1    H1 2768   2.482   3.818   0.019 -1.8956  0.5122 -1.2755
  178MPD1    H2 2769   2.368   3.696   0.414  1.2312 -0.4795 -0.4851
  178MPD1    H3 2770   2.550   3.759   0.253  0.2499  1.7080 -1.7840
  178MPD1     N 2771   2.257   3.799  17.648  0.2207 -0.3795  0.0551
  178MPD1    H5 2772   2.341   3.815  17.592 -0.5493 -2.2572 -1.6521
  178MPD1    N1 2773   2.117   3.663   0.369  0.4347  0.0726 -0.0056
  178MPD1    H6 2774   2.160   3.654   0.460  0.7411 -0.1176 -0.1687
  178MPD1    H7 2775   2.033   3.717   0.390  0.3664  0.1321 -0.4216
  179MPD1     C 2776   1.506   1.865  15.795  0.1527 -0.0789  0.7618
  179MPD1    C1 2777   1.434   1.761  15.734  0.3970  0.0264 -0.5146
  179MPD1    C2 2778   1.339   1.705  15.816  0.4245 -0.0274 -0.7851
  179MPD1    C3 2779   1.315   1.738  15.945  0.2152  0.1446  0.7752
  179MPD1    C4 2780   1.379   1.841  15.996  0.6397 -0.1555  0.6249
  179MPD1    C5 2781   1.484   1.898  15.925  0.3624  0.2573  0.3850
  179MPD1     H 2782   1.272   1.642  15.760 -0.9179  0.8446 -0.1551
  179MPD1    H1 2783   1.353   1.861  16.099 -1.6685  0.3821 -0.0675
  179MPD1    H2 2784   1.581   1.929  15.750  0.1252  0.9004  2.0972
  179MPD1    H3 2785   1.537   1.983  15.966 -0.8946  1.0785  0.2932
  179MPD1     N 2786   1.227   1.665  16.025 -0.3687  0.1102  0.3498
  179MPD1    H5 2787   1.235   1.671  16.126  0.9832 -0.5357  0.2830
  179MPD1    N1 2788   1.419   1.761  15.592  0.1983 -0.3159 -0.2357
  179MPD1    H6 2789   1.392   1.669  15.559 -0.5323 -0.2964  0.3055
  179MPD1    H7 2790   1.505   1.786  15.544 -1.0513  1.3641 -1.6006
  180MPD1     C 2791   0.713   3.144  15.454 -0.3551 -0.1281 -0.0247
  180MPD1    C1 2792   0.646   3.024  15.455  0.0808 -1.0222  0.8694
  180MPD1    C2 2793   0.706   2.923  15.380  0.1379 -0.1045  0.1823
  180MPD1    C3 2794   0.807   2.945  15.286  0.3592 -0.5840  0.1766
  180MPD1    C4 2795   0.868   3.068  15.296 -0.0638  0.2065  0.0038
  180MPD1    C5 2796   0.827   3.166  15.377 -0.0346 -0.2659  0.5899
  180MPD1     H 2797   0.655   2.827  15.373 -0.7464  0.3812 -0.1184
  180MPD1    H1 2798   0.963   3.070  15.243 -0.6688  0.2209 -1.0950
  180MPD1    H2 2799   0.681   3.224  15.519  2.6054  1.4983 -0.5717
  180MPD1    H3 2800   0.894   3.250  15.388  0.1722  0.1939 -4.1175
  180MPD1     N 2801   0.832   2.846  15.193 -0.1868  0.0023  0.4817
  180MPD1    H5 2802   0.761   2.774  15.188 -0.0036 -0.1892  0.6123
  180MPD1    N1 2803   0.543   2.992  15.546  0.8895 -0.0475 -0.2223
  180MPD1    H6 2804   0.499   3.080  15.573  1.6512  0.5755 -0.9772
  180MPD1    H7 2805   0.465   2.935  15.517  0.2087  0.5069  0.5082
  181MPD1     C 2806   4.501   0.595   9.941  0.2721  0.0552 -0.1087
  181MPD1    C1 2807   4.414   0.672  10.019 -0.5669  0.3241  0.5762
  181MPD1    C2 2808   4.308   0.611  10.073  0.4843  0.1731 -0.3672
  181MPD1    C3 2809   4.307   0.468  10.089 -0.2488  0.3649 -0.1208
  181MPD1    C4 2810   4.401   0.394  10.017 -0.6732 -0.1935  0.3529
  181MPD1    C5 2811   4.490   0.457   9.937 -0.6742 -0.7268  0.6963
  181MPD1     H 2812   4.221   0.666  10.109  0.8738 -0.9353  2.3035
  181MPD1    H1 2813   4.409   0.287  10.027 -1.1946 -0.0102  2.6384
  181MPD1    H2 2814   4.580   0.635   9.878 -1.3809  1.1614 -1.4861
  181MPD1    H3 2815   4.552   0.398   9.871  1.1155  1.3032  0.5629
  181MPD1     N 2816   4.214   0.400  10.181  0.6670  0.3509 -0.0785
  181MPD1    H5 2817   4.215   0.299  10.184  4.1110  0.4116  0.4815
  181MPD1    N1 2818   4.419   0.810  10.009  0.3164 -0.0063  0.2306
  181MPD1    H6 2819   4.512   0.851   9.998  0.1548  0.6418  1.3746
  181MPD1    H7 2820   4.369   0.839  10.092 -0.0729 -0.5078  0.1765
  182MPD1     C 2821   4.144   3.825   2.086 -0.3648 -0.4586  0.2419
  182MPD1    C1 2822   4.018   3.798   2.131  0.6105  0.1317  0.1450
  182MPD1    C2 2823   3.926   3.772   2.040  0.0938  0.1180 -0.2438
  182MPD1    C3 2824   3.964   3.754   1.907 -0.5936 -0.2285  0.0670
  182MPD1    C4 2825   4.099   3.772   1.862  0.6571 -0.4473 -0.0291
  182MPD1    C5 2826   4.189   3.803   1.958  0.6483  0.1482 -0.0870
  182MPD1     H 2827   3.820   3.776   2.065  0.8046 -1.5743  3.0460
  182MPD1    H1 2828   4.131   3.761   1.759 -0.7415 -2.1956 -0.2839
  182MPD1    H2 2829   4.224   3.854   2.153  0.3561 -0.6522 -0.5315
  182MPD1    H3 2830   4.294   3.805   1.932  0.8665  0.3305  0.8310
  182MPD1     N 2831   3.871   3.707   1.804 -0.2964 -0.1823 -0.0950
  182MPD1    H5 2832   3.915   3.693   1.714 -1.4900  0.1918 -0.7403
  182MPD1    N1 2833   3.984   3.844   2.252  0.0830  0.2706 -0.1238
  182MPD1    H6 2834   3.905   3.795   2.292 -0.1991  1.5337  0.8687
  182MPD1    H7 2835   4.065   3.842   2.314 -0.3735  0.9738  0.4941
  183MPD1     C 2836   4.036   4.619   9.415  0.2429  0.2203 -0.2146
  183MPD1    C1 2837   4.065   4.704   9.516 -0.5095  0.2657  0.5060
  183MPD1    C2 2838   4.082   4.654   9.639 -0.0157 -0.0116  0.2136
  183MPD1    C3 2839   4.074   4.514   9.667 -0.3390  0.2634 -0.1721
  183MPD1    C4 2840   4.065   4.428   9.560 -0.3168  0.0421  0.1560
  183MPD1    C5 2841   4.041   4.486   9.437  0.3876 -0.4070  0.8125
  183MPD1     H 2842   4.090   4.727   9.718 -1.0973  0.2714  0.0570
  183MPD1    H1 2843   4.071   4.321   9.572 -1.4703 -0.0748 -0.2810
  183MPD1    H2 2844   4.027   4.651   9.312  0.6249  0.4809 -0.1673
  183MPD1    H3 2845   4.019   4.418   9.356 -0.2174 -0.0946  0.7115
  183MPD1     N 2846   4.104   4.470   9.795  0.4347  0.0264  0.3641
  183MPD1    H5 2847   4.115   4.544   9.864 -0.4980 -1.8986  2.5972
  183MPD1    N1 2848   4.084   0.104   9.493  0.3839  0.3245  0.0283
  183MPD1    H6 2849   4.074   0.144   9.400 -0.4127 -1.7629 -0.7970
  183MPD1    H7 2850   4.158   0.148   9.547 -0.6179 -1.0802  2.5360
  184MPD1     C 2851   2.713   1.831   9.822 -0.2251 -0.0208  0.2550
  184MPD1    C1 2852   2.727   1.904   9.932  0.5036  0.3211  0.0282
  184MPD1    C2 2853   2.821   2.016   9.931  0.0868  0.1526  0.3067
  184MPD1    C3 2854   2.893   2.044   9.820 -0.2598 -0.5591 -0.8366
  184MPD1    C4 2855   2.875   1.961   9.709 -0.2986  0.4156 -0.7560
  184MPD1    C5 2856   2.789   1.858   9.709  1.0796  0.2791  0.2493
  184MPD1     H 2857   2.833   2.067  10.025 -1.7286 -0.0072  0.6189
  184MPD1    H1 2858   2.929   1.985   9.618  0.1407  0.5695 -0.4595
  184MPD1    H2 2859   2.636   1.754   9.820  0.7578 -1.0090  0.4567
  184MPD1    H3 2860   2.778   1.796   9.621 -1.0235  0.7347  0.1751
  184MPD1     N 2861   2.964   2.167   9.799 -0.5750  0.2129 -0.2660
  184MPD1    H5 2862   3.008   2.179   9.709 -1.0713  1.9187 -0.2795
  184MPD1    N1 2863   2.648   1.888  10.047  0.2768 -0.0060 -0.6823
  184MPD1    H6 2864   2.619   1.794  10.073  0.2697 -0.3521 -1.9109
  184MPD1    H7 2865   2.694   1.917  10.133 -0.2245  1.5855 -0.9457
  185MPD1     C 2866   2.862   2.683   9.066  0.1344 -0.6360 -0.3240
  185MPD1    C1 2867   2.929   2.774   9.149  0.1517 -0.5674 -0.3639
  185MPD1    C2 2868   2.977   2.724   9.272  0.2728 -0.5633  1.0320
  185MPD1    C3 2869   2.962   2.589   9.312  0.1431 -0.1682  0.0355
  185MPD1    C4 2870   2.895   2.509   9.228  0.4302 -0.2795 -1.0937
  185MPD1    C5 2871   2.841   2.555   9.109  0.5220  0.1417  0.5683
  185MPD1     H 2872   3.046   2.787   9.327 -1.2117  0.8970  1.2225
  185MPD1    H1 2873   2.875   2.404   9.247 -0.1334 -0.1294 -0.8740
  185MPD1    H2 2874   2.833   2.711   8.966  2.2599 -2.1231 -1.3777
  185MPD1    H3 2875   2.789   2.487   9.043  0.9118  0.6863 -0.2951
  185MPD1     N 2876   3.002   2.530   9.435 -0.3648 -0.0406  0.0324
  185MPD1    H5 2877   2.979   2.432   9.449 -1.8874  0.4893  1.3017
  185MPD1    N1 2878   2.962   2.900   9.099  0.2087  0.1255  0.7775
  185MPD1    H6 2879   2.896   2.934   9.029 -0.8004  0.1824  1.7618
  185MPD1    H7 2880   2.981   2.968   9.172 -1.5633  1.6582 -0.1986
  186MPD1     C 2881   2.137   1.454  16.157  0.1937 -0.4002 -0.4417
  186MPD1    C1 2882   2.130   1.571  16.089  0.5185  0.2077  0.1578
  186MPD1    C2 2883   2.151   1.692  16.161 -0.1008 -0.5700  0.2192
  186MPD1    C3 2884   2.162   1.690  16.298 -0.6406 -0.1138 -0.7562
  186MPD1    C4 2885   2.172   1.574  16.371 -0.2712  0.3419 -0.1740
  186MPD1    C5 2886   2.163   1.460  16.293 -0.1535 -0.0222  0.2518
  186MPD1     H 2887   2.148   1.789  16.112 -0.9246 -1.2594 -1.1134
  186MPD1    H1 2888   2.189   1.560  16.477 -3.1549  1.9093  0.5080
  186MPD1    H2 2889   2.132   1.359  16.105 -1.4967  1.1425 -3.0958
  186MPD1    H3 2890   2.177   1.366  16.345 -2.2800 -0.4209  0.0959
  186MPD1     N 2891   2.161   1.809  16.380  0.6852 -0.5842 -0.4635
  186MPD1    H5 2892   2.163   1.794  16.480  1.4321  0.0004 -0.3956
  186MPD1    N1 2893   2.144   1.568  15.951 -0.9506 -0.1913 -0.0628
  186MPD1    H6 2894   2.102   1.649  15.906  0.4514  0.9757  0.7101
  186MPD1    H7 2895   2.097   1.483  15.921  1.8567 -0.9807 -2.2425
  187MPD1     C 2896   1.217   2.690  17.250 -0.1009 -0.4744 -0.1786
  187MPD1    C1 2897   1.216   2.777  17.355  0.1560  0.6593 -0.5459
  187MPD1    C2 2898   1.198   2.914  17.338 -0.0941 -1.0111  0.1311
  187MPD1    C3 2899   1.208   2.970  17.213  0.0215 -0.3967  0.3189
  187MPD1    C4 2900   1.220   2.880  17.104  0.2693 -0.3953  0.2087
  187MPD1    C5 2901   1.228   2.742  17.121  0.3254 -0.3997 -0.0485
  187MPD1     H 2902   1.163   2.972  17.422 -1.6498 -3.6628  1.3142
  187MPD1    H1 2903   1.228   2.903  16.998 -0.5039 -1.3685 -0.0556
  187MPD1    H2 2904   1.198   2.584  17.257 -0.4501 -0.4122 -0.1960
  187MPD1    H3 2905   1.237   2.678  17.035  0.3299  1.3669 -1.3493
  187MPD1     N 2906   1.215   3.109  17.187  0.0129  0.2459 -0.1950
  187MPD1    H5 2907   1.220   3.140  17.091  1.0818 -0.3639 -0.3357
  187MPD1    N1 2908   1.183   2.734  17.485  0.7840  0.4737 -0.1730
  187MPD1    H6 2909   1.213   2.637  17.491 -1.0405 -0.2067 -2.0003
  187MPD1    H7 2910   1.232   2.793  17.551  0.6734  0.2864  0.0751
  188MPD1     C 2911   0.517   3.146   9.399 -0.1060  0.0340  0.2846
  188MPD1    C1 2912   0.546   3.115   9.532 -0.5717  0.0782 -0.8064
  188MPD1    C2 2913   0.610   2.993   9.545  0.2276  0.3574 -0.4973
  188MPD1    C3 2914   0.626   2.901   9.443  0.3865  0.3205 -0.9010
  188MPD1    C4 2915   0.573   2.928   9.317  0.4093 -0.6874  0.0321
  188MPD1    C5 2916   0.519   3.052   9.298  0.0523 -0.9176  0.0184
  188MPD1     H 2917   0.637   2.960   9.645  1.8991  1.6738 -0.5097
  188MPD1    H1 2918   0.586   2.863   9.231  0.4284 -0.1483 -0.3713
  188MPD1    H2 2919   0.464   3.239   9.386  1.5198  0.8848 -0.2649
  188MPD1    H3 2920   0.481   3.076   9.199 -2.1374  1.2205  1.3708
  188MPD1     N 2921   0.677   2.774   9.470  0.0178 -0.2050  0.2158
  188MPD1    H5 2922   0.678   2.710   9.391 -1.3961  1.9449 -1.5329
  188MPD1    N1 2923   0.543   3.204   9.639 -0.0928 -0.4214 -0.0219
  188MPD1    H6 2924   0.485   3.286   9.620  0.6264 -0.4825 -2.5862
  188MPD1    H7 2925   0.502   3.157   9.719  0.0400  0.6382  0.6744
  189MPD1     C 2926   2.848   4.375   0.774 -0.1360  0.4068 -0.5324
  189MPD1    C1 2927   2.734   4.335   0.706 -1.0769  0.4300 -0.6955
  189MPD1    C2 2928   2.658   4.439   0.651  0.1804 -0.3215 -0.2745
  189MPD1    C3 2929   2.696   4.572   0.645 -0.0636  0.0705  0.5329
  189MPD1    C4 2930   2.815   4.606   0.702  0.1933 -0.1985  0.5602
  189MPD1    C5 2931   2.886   4.512   0.768 -0.4097  0.6215  0.0059
  189MPD1     H 2932   2.565   4.417   0.601 -0.1981 -1.5766  0.9720
  189MPD1    H1 2933   2.848   4.707   0.721  0.8743 -0.1374 -1.0107
  189MPD1    H2 2934   2.912   4.309   0.831  1.0002  2.3705  0.4841
  189MPD1    H3 2935   2.982   4.535   0.815  0.0540  0.7108 -0.9960
  189MPD1     N 2936   2.599   4.666   0.602  0.1112  1.2185  0.1521
  189MPD1    H5 2937   2.515   4.628   0.559  0.6304  1.1666 -0.8015
  189MPD1    N1 2938   2.707   4.206   0.680 -0.7913  0.0921  0.6059
  189MPD1    H6 2939   2.607   4.196   0.670 -1.0125  1.9393  0.9796
  189MPD1    H7 2940   2.748   4.148   0.754  1.5404 -0.8205 -1.3875
  190MPD1     C 2941   1.160   2.935  15.486  0.0671  0.6443  0.1070
  190MPD1    C1 2942   1.272   2.945  15.402  0.1150 -0.0717 -0.1691
  190MPD1    C2 2943   1.395   2.955  15.465  0.4315  0.4709  0.5253
  190MPD1    C3 2944   1.410   2.933  15.598  0.0976  0.1631  0.4722
  190MPD1    C4 2945   1.299   2.912  15.673  0.7130 -0.7973 -1.0974
  190MPD1    C5 2946   1.179   2.913  15.616 -0.0146 -0.2559 -0.2519
  190MPD1     H 2947   1.479   2.963  15.397 -1.1664  0.5622 -1.4253
  190MPD1    H1 2948   1.285   2.886  15.777  1.8323  1.2742 -0.4394
  190MPD1    H2 2949   1.063   2.927  15.439 -1.2506  2.5953  2.4824
  190MPD1    H3 2950   1.094   2.881  15.675  1.9028 -0.4034  2.4227
  190MPD1     N 2951   1.540   2.928  15.648 -0.1534  0.0214  0.6598
  190MPD1    H5 2952   1.619   2.952  15.588 -0.0476  0.5896  1.0264
  190MPD1    N1 2953   1.267   2.981  15.269  0.6798  0.1271  0.2874
  190MPD1    H6 2954   1.180   2.952  15.225  0.6736 -2.8383  2.3195
  190MPD1    H7 2955   1.344   2.950  15.209  2.5076  0.7258  2.3120
  191MPD1     C 2956   0.989   0.449  12.333  0.4814 -0.3686  0.0815
  191MPD1    C1 2957   1.035   0.319  12.348 -0.3011 -0.6115 -0.0395
  191MPD1    C2 2958   1.107   0.269  12.245 -0.6787  0.2027 -0.1371
  191MPD1    C3 2959   1.112   0.326  12.126  0.0306  0.2676 -0.3187
  191MPD1    C4 2960   1.054   0.448  12.102 -0.0616  0.6702 -0.3533
  191MPD1    C5 2961   0.995   0.516  12.209  0.3248 -0.6436  0.3287
  191MPD1     H 2962   1.167   0.180  12.258 -0.3968  0.1660 -1.6296
  191MPD1    H1 2963   1.082   0.511  12.018 -0.1387 -0.7113 -1.4172
  191MPD1    H2 2964   0.953   0.499  12.422 -1.0644  0.3794 -0.9411
  191MPD1    H3 2965   0.971   0.620  12.189 -0.3740 -0.8403  0.1407
  191MPD1     N 2966   1.187   0.255  12.034  0.7813  0.5646  0.1102
  191MPD1    H5 2967   1.224   0.166  12.067 -1.5900  0.0327  1.3601
  191MPD1    N1 2968   1.039   0.261  12.476 -0.2142 -0.3854 -0.3139
  191MPD1    H6 2969   1.035   0.160  12.465 -1.1504 -0.5923  1.9186
  191MPD1    H7 2970   0.957   0.286  12.531  0.0033  1.5898 -0.8930
  192MPD1     C 2971   1.288   4.594  11.019 -0.3358 -0.0488  1.1536
  192MPD1    C1 2972   1.207   4.686  11.084  0.1311 -0.8688  0.0880
  192MPD1    C2 2973   1.217   4.712  11.216 -0.6012 -0.4905  0.3000
  192MPD1    C3 2974   1.303   4.638  11.295  0.4997  0.8339  1.3747
  192MPD1    C4 2975   1.383   4.546  11.226 -0.9216 -0.1047  0.5033
  192MPD1    C5 2976   1.368   4.516  11.099 -0.4322 -0.4528  0.6373
  192MPD1     H 2977   1.157   0.059  11.255 -0.0066 -0.4809  1.1952
  192MPD1    H1 2978   1.454   4.488  11.284 -0.3875 -2.0204 -2.0815
  192MPD1    H2 2979   1.290   4.570  10.913  2.4952  2.1117  0.7077
  192MPD1    H3 2980   1.438   4.446  11.056 -3.4699 -2.6860 -0.6754
  192MPD1     N 2981   1.319   4.650  11.437 -0.1350  0.4457 -0.5969
  192MPD1    H5 2982   1.393   4.602  11.489  0.8288  2.7106  0.1086
  192MPD1    N1 2983   1.126   0.031  11.002  0.1206 -0.1420  0.0957
  192MPD1    H6 2984   1.100   4.706  10.924  1.3136 -0.5094 -0.0299
  192MPD1    H7 2985   1.035   0.051  11.042  0.2955 -0.1753  0.5136
  193MPD1     C 2986   0.375   0.023  16.489 -0.3876 -0.1013 -0.3397
  193MPD1    C1 2987   0.509   0.000  16.504 -0.2335  0.2908 -0.4257
  193MPD1    C2 2988   0.583   0.080  16.593  0.4348  0.2324  0.7367
  193MPD1    C3 2989   0.527   0.191  16.652 -0.0490  0.0343  0.9166
  193MPD1    C4 2990   0.397   0.229  16.618  0.7571 -0.2284  0.2068
  193MPD1    C5 2991   0.324   0.146  16.533  0.7195 -0.0373  0.0478
  193MPD1     H 2992   0.685   0.055  16.618  0.1417 -1.7044 -0.0424
  193MPD1    H1 2993   0.353   0.322  16.652 -2.0600 -1.3327 -0.3843
  193MPD1    H2 2994   0.306   4.691  16.438  0.3837 -1.5009  0.4440
  193MPD1    H3 2995   0.219   0.171  16.525  0.6766  0.2715  1.7472
  193MPD1     N 2996   0.600   0.281  16.738  0.2889  0.1366 -0.4745
  193MPD1    H5 2997   0.559   0.373  16.749 -1.6699 -0.9861  1.5687
  193MPD1    N1 2998   0.560   4.614  16.458  0.2535  0.3526  0.3145
  193MPD1    H6 2999   0.529   4.588  16.365 -0.1155  1.1269  0.2210
  193MPD1    H7 3000   0.660   4.629  16.447 -0.0377  2.2384  0.2987
  194MPD1     C 3001   4.700   1.915  17.449  0.8343  1.1321 -0.0602
  194MPD1    C1 3002   4.569   1.949  17.421 -0.0371 -0.6390 -0.1267
  194MPD1    C2 3003   4.468   1.879  17.481 -0.8989 -0.0462  0.1543
  194MPD1    C3 3004   4.497   1.778  17.579 -1.3830 -1.0441 -0.0365
  194MPD1    C4 3005   4.626   1.741  17.591  0.0266 -0.0862  0.1482
  194MPD1    C5 3006   4.719   1.809  17.528  0.3131  0.2484 -0.8629
  194MPD1     H 3007   4.368   1.913  17.456 -1.4117 -1.5167  0.2132
  194MPD1    H1 3008   4.659   1.662  17.657  2.1064  0.6764  0.0066
  194MPD1    H2 3009   0.054   1.974  17.426 -0.5134  3.8592  1.6845
  194MPD1    H3 3010   0.092   1.807  17.547  0.2066  0.0530 -0.2829
  194MPD1     N 3011   4.395   1.712  17.648 -0.0559  0.0176 -0.0413
  194MPD1    H5 3012   4.437   1.659  17.724  0.1678 -1.0384 -0.9011
  194MPD1    N1 3013   4.541   2.059  17.334  0.0694 -0.9400 -0.0677
  194MPD1    H6 3014   4.451   2.064  17.287  0.6500  2.7412 -0.7640
  194MPD1    H7 3015   4.622   2.099  17.286 -0.7280  0.7042 -0.0442
  195MPD1     C 3016   0.754   3.983   0.031  0.2368 -0.7593 -0.3938
  195MPD1    C1 3017   0.839   3.895  17.707 -0.0545  0.0621  0.4216
  195MPD1    C2 3018   0.849   3.762   0.019  0.2800  0.0284  0.8159
  195MPD1    C3 3019   0.757   3.715   0.117 -0.2014 -0.3410 -0.0312
  195MPD1    C4 3020   0.656   3.801   0.156  0.8109 -0.5846  0.4001
  195MPD1    C5 3021   0.653   3.934   0.115 -0.9720 -0.6501 -0.3438
  195MPD1     H 3022   0.936   3.707  17.721 -0.9459  0.7867 -3.6338
  195MPD1    H1 3023   0.594   3.773   0.240 -0.1402 -1.1377 -0.4803
  195MPD1    H2 3024   0.747   4.090   0.015  2.0445 -0.3862  1.3224
  195MPD1    H3 3025   0.580   4.008   0.146 -1.1490 -0.1782 -1.8542
  195MPD1     N 3026   0.761   3.593   0.182 -0.0901  0.5470  0.6024
  195MPD1    H5 3027   0.685   3.565   0.243  1.0662  1.6390  2.5479
  195MPD1    N1 3028   0.927   3.951  17.618  0.2928 -0.0397 -0.1551
  195MPD1    H6 3029   0.887   4.031  17.569 -1.3392 -1.7843 -1.6789
  195MPD1    H7 3030   0.944   3.881  17.546  2.3490  1.0347 -0.7065
  196MPD1     C 3031   4.325   3.376   0.525 -0.8234  0.6642 -0.1730
  196MPD1    C1 3032   4.414   3.480   0.522 -0.6128 -0.2746  0.2389
  196MPD1    C2 3033   4.483   3.512   0.637 -0.3702  0.3840  0.2506
  196MPD1    C3 3034   4.479   3.426   0.747 -0.0328  0.6223  0.0149
  196MPD1    C4 3035   4.389   3.319   0.746  0.1994 -0.2202  0.1017
  196MPD1    C5 3036   4.317   3.299   0.630 -0.1972 -0.2462  0.3055
  196MPD1     H 3037   4.548   3.599   0.638 -0.8537  0.7682 -2.5438
  196MPD1    H1 3038   4.377   3.255   0.833 -2.0887 -0.7383 -0.5891
  196MPD1    H2 3039   4.266   3.353   0.437 -1.0523 -2.2146  0.7582
  196MPD1    H3 3040   4.262   3.206   0.625 -1.5181  0.4064  3.0295
  196MPD1     N 3041   4.558   3.440   0.867  0.7789  0.8394  0.2296
  196MPD1    H5 3042   4.527   3.383   0.945 -0.0283 -1.8466 -2.0546
  196MPD1    N1 3043   4.429   3.555   0.405  0.1020 -0.0982  0.3430
  196MPD1    H6 3044   4.528   3.559   0.378  0.1655  0.0663  0.6101
  196MPD1    H7 3045   4.384   3.493   0.338  0.6020  1.8218 -1.7736
  197MPD1     C 3046   3.873   4.504  17.528 -0.2385 -0.5537 -0.2438
  197MPD1    C1 3047   3.964   4.582  17.604 -0.1305  0.2526  0.3462
  197MPD1    C2 3048   4.014   4.701  17.552 -0.5441  0.1446 -0.1514
  197MPD1    C3 3049   3.964   0.007  17.426  0.9137  0.0939  0.3175
  197MPD1    C4 3050   3.867   4.671  17.362 -0.7710 -0.3091  0.2534
  197MPD1    C5 3051   3.818   4.555  17.419 -0.5405  0.6459 -0.1371
  197MPD1     H 3052   4.090   0.021  17.607  0.0626 -1.1387  0.2648
  197MPD1    H1 3053   3.825   4.714  17.272  1.0078 -2.5984 -1.6301
  197MPD1    H2 3054   3.843   4.404  17.556  2.6457 -0.8226  1.9255
  197MPD1    H3 3055   3.746   4.495  17.364 -0.2975 -0.0057  0.2456
  197MPD1     N 3056   4.017   0.129  17.374 -0.0975  0.3926  0.6088
  197MPD1    H5 3057   4.001   0.153  17.277 -1.3955  3.1745  1.5257
  197MPD1    N1 3058   4.020   4.527  17.724  0.7863 -0.0122  0.4446
  197MPD1    H6 3059   4.045   4.595   0.060  0.6781  0.8277 -0.3142
  197MPD1    H7 3060   3.969   4.445   0.022  1.2696  0.0127  1.2458
  198MPD1     C 3061   1.157   4.718  15.566  0.6029  0.0751  0.5891
  198MPD1    C1 3062   1.063   4.626  15.584 -0.0760  0.1447  0.2317
  198MPD1    C2 3063   1.095   4.516  15.666  0.8823  0.3462 -1.4363
  198MPD1    C3 3064   1.213   4.511  15.745 -0.4181 -0.3992 -0.4229
  198MPD1    C4 3065   1.301   4.615  15.729 -0.0112 -0.0835 -0.1011
  198MPD1    C5 3066   1.274   4.719  15.637 -0.3100  0.0987 -0.0453
  198MPD1     H 3067   1.018   4.441  15.681  2.8940 -1.4756 -0.3687
  198MPD1    H1 3068   1.399   4.621  15.774  0.8432 -0.3258 -1.9292
  198MPD1    H2 3069   1.141   0.069  15.501  0.3886 -1.0749 -0.8712
  198MPD1    H3 3070   1.345   0.067  15.638  1.0106 -1.0420 -0.7817
  198MPD1     N 3071   1.238   4.400  15.833  0.3684  0.3480  0.5021
  198MPD1    H5 3072   1.171   4.324  15.829 -0.3343  1.0580 -1.7049
  198MPD1    N1 3073   0.954   4.625  15.489  0.2107 -0.6445  0.4898
  198MPD1    H6 3074   0.875   4.580  15.534  0.3369 -0.9418  0.4162
  198MPD1    H7 3075   0.921   4.718  15.465 -0.7723 -0.7157  1.5679
  199MPD1     C 3076   3.852   1.019  11.231 -0.1022 -1.0127  0.3536
  199MPD1    C1 3077   3.910   1.037  11.109 -0.0304 -0.0848  0.1511
  199MPD1    C2 3078   3.850   0.963  11.008 -0.1711  0.8428 -0.7450
  199MPD1    C3 3079   3.730   0.891  11.027 -0.4011  0.1272  0.9555
  199MPD1    C4 3080   3.675   0.879  11.146 -0.2183 -0.0107 -0.1412
  199MPD1    C5 3081   3.741   0.944  11.249  0.2975 -1.4128  1.0033
  199MPD1     H 3082   3.885   0.940  10.908 -4.0495 -0.4118 -1.7892
  199MPD1    H1 3083   3.587   0.825  11.181  1.8754 -2.2280  1.6926
  199MPD1    H2 3084   3.885   1.073  11.319  0.8175 -3.5299  1.5522
  199MPD1    H3 3085   3.704   0.946  11.351 -0.5935  3.2935  0.5879
  199MPD1     N 3086   3.650   0.826  10.922 -0.5699  0.1975 -0.5725
  199MPD1    H5 3087   3.567   0.777  10.953 -0.0848  0.3170  0.9364
  199MPD1    N1 3088   4.040   1.088  11.099  0.2334  1.1833  0.2607
  199MPD1    H6 3089   4.048   1.172  11.157  4.4483 -1.0866  2.9124
  199MPD1    H7 3090   4.052   1.119  11.003 -0.1803 -0.1562 -0.2159
  200MPD1     C 3091   2.261   0.133  15.836  0.4186  0.2220  0.0046
  200MPD1    C1 3092   2.382   0.178  15.778 -1.2716 -0.0681  0.7198
  200MPD1    C2 3093   2.383   0.221  15.645  0.6913 -0.2612  0.5445
  200MPD1    C3 3094   2.265   0.222  15.565  0.2383  0.5966  0.1949
  200MPD1    C4 3095   2.144   0.186  15.631  0.3870  0.5085 -0.0286
  200MPD1    C5 3096   2.148   0.141  15.760 -0.2148 -0.6630  0.2441
  200MPD1     H 3097   2.480   0.259  15.615  0.1792  1.4991  1.1346
  200MPD1    H1 3098   2.045   0.183  15.585 -0.4786 -2.1838  2.0305
  200MPD1    H2 3099   2.263   0.089  15.934  0.4387 -1.5689 -0.8015
  200MPD1    H3 3100   2.063   0.107  15.819 -0.3751 -0.8168 -0.0764
  200MPD1     N 3101   2.283   0.274  15.434  0.0786  0.2998 -0.1254
  200MPD1    H5 3102   2.380   0.287  15.407  0.2845  3.5267  2.1817
  200MPD1    N1 3103   2.501   0.156  15.836  0.2209 -0.0647 -0.2969
  200MPD1    H6 3104   2.577   0.216  15.802 -0.5566  2.1492  1.8679
  200MPD1    H7 3105   2.500   0.150  15.938  2.6696  0.9378 -0.2066
  201MPD1     C 3106   4.452   3.985  13.425 -0.4156  0.7066  0.1712
  201MPD1    C1 3107   4.487   3.859  13.373  0.1296 -0.1165 -0.1347
  201MPD1    C2 3108   4.556   3.783  13.461 -0.8148 -0.0632  0.6505
  201MPD1    C3 3109   4.602   3.839  13.584  0.0385  0.8000  0.3373
  201MPD1    C4 3110   4.572   3.969  13.624  0.1667 -0.3748  0.3136
  201MPD1    C5 3111   4.500   4.046  13.539  0.0758  0.0002  0.2135
  201MPD1     H 3112   4.589   3.682  13.439  0.0301  0.3937 -0.1857
  201MPD1    H1 3113   4.598   4.024  13.714  2.6650 -2.9725  1.1605
  201MPD1    H2 3114   4.393   4.053  13.364 -2.1630 -0.9997 -0.0054
  201MPD1    H3 3115   4.474   4.148  13.566  0.6994 -0.0187  0.8805
  201MPD1     N 3116   4.680   3.748  13.658  0.1094 -0.1016 -0.0397
  201MPD1    H5 3117   4.677   3.649  13.635 -0.4012  0.1584 -1.1167
  201MPD1    N1 3118   4.427   3.812  13.254 -0.0514  1.0635 -0.5272
  201MPD1    H6 3119   4.408   3.888  13.189  0.8645 -0.6210 -2.7577
  201MPD1    H7 3120   4.482   3.744  13.202  0.7958  0.4614  1.1743
  202MPD1     C 3121   4.208   3.097   9.199  0.4629 -0.0442 -0.3626
  202MPD1    C1 3122   4.229   3.228   9.231 -0.3615 -0.3026  0.4520
  202MPD1    C2 3123   4.297   3.250   9.348 -0.0149 -0.1663 -0.0789
  202MPD1    C3 3124   4.318   3.143   9.443 -0.0898 -0.0040 -0.1694
  202MPD1    C4 3125   4.269   3.019   9.413  0.2922 -0.2229 -0.8371
  202MPD1    C5 3126   4.209   2.995   9.292 -0.0878 -0.7491  0.3011
  202MPD1     H 3127   4.354   3.341   9.355  2.6115 -1.7412 -1.2667
  202MPD1    H1 3128   4.276   2.934   9.481  0.2782 -0.8122 -1.5738
  202MPD1    H2 3129   4.175   3.062   9.102 -1.6474 -2.2794  1.1588
  202MPD1    H3 3130   4.180   2.895   9.262 -2.0051 -0.9292  2.7542
  202MPD1     N 3131   4.374   3.164   9.568  0.6535 -0.2216  0.4420
  202MPD1    H5 3132   4.381   3.085   9.633  0.8372 -0.0999  0.5707
  202MPD1    N1 3133   4.240   3.327   9.132 -0.6274 -0.1084  0.0685
  202MPD1    H6 3134   4.170   3.315   9.059 -1.2808 -1.4721  0.9130
  202MPD1    H7 3135   4.224   3.417   9.178  0.5453  0.3770 -0.4775
  203MPD1     C 3136   4.029   4.391  12.512  0.4731  0.5546 -0.1288
  203MPD1    C1 3137   4.069   4.264  12.463 -0.2924 -0.0389  0.2567
  203MPD1    C2 3138   3.997   4.152  12.501 -0.2230  0.3267  0.0112
  203MPD1    C3 3139   3.884   4.160  12.582  0.0273 -0.0961  0.2541
  203MPD1    C4 3140   3.844   4.290  12.623  0.4615  0.7929  0.1824
  203MPD1    C5 3141   3.909   4.404  12.583  0.3718 -0.7607  0.3349
  203MPD1     H 3142   4.023   4.057  12.455  2.8041  0.4360  1.4701
  203MPD1    H1 3143   3.757   4.315  12.683 -1.2298 -0.4655 -1.7758
  203MPD1    H2 3144   4.074   4.484  12.478  0.2635  0.5053 -0.5449
  203MPD1    H3 3145   3.865   4.503  12.591 -1.8511 -1.4601 -3.1372
  203MPD1     N 3146   3.826   4.039  12.620  0.4039 -0.3694 -0.1418
  203MPD1    H5 3147   3.867   3.954  12.581 -2.8288 -0.5658 -3.1388
  203MPD1    N1 3148   4.169   4.258  12.362  0.0356 -0.4582 -0.2041
  203MPD1    H6 3149   4.227   4.342  12.365 -0.6856 -0.0186  1.2922
  203MPD1    H7 3150   4.222   4.171  12.366 -1.4416 -1.3141  0.8679
  204MPD1     C 3151   2.936   1.029   0.118  0.4681  0.2408 -0.1191
  204MPD1    C1 3152   3.045   1.012   0.033  0.3065 -0.0479  0.6130
  204MPD1    C2 3153   3.127   0.900   0.042  0.3365 -0.8524  0.6718
  204MPD1    C3 3154   3.078   0.791   0.111  0.0592 -0.2049 -0.0897
  204MPD1    C4 3155   2.962   0.805   0.184 -0.8778 -0.4591  0.6301
  204MPD1    C5 3156   2.897   0.925   0.186  0.2500  0.2715 -0.7179
  204MPD1     H 3157   3.225   0.903  17.733  0.3022  1.0664  0.7279
  204MPD1    H1 3158   2.925   0.722   0.243 -1.8973  0.4271  1.2470
  204MPD1    H2 3159   2.878   1.120   0.113  1.4474  0.7924 -1.6263
  204MPD1    H3 3160   2.803   0.941   0.237  1.1029  1.2518  0.5584
  204MPD1     N 3161   3.146   0.670   0.114 -0.7035  0.3771 -0.4744
  204MPD1    H5 3162   3.231   0.676   0.059 -0.8387 -2.2206 -0.9872
  204MPD1    N1 3163   3.096   1.129  17.718  0.2512  0.1881  0.0846
  204MPD1    H6 3164   3.034   1.192  17.667 -2.1008 -0.0427  2.6702
  204MPD1    H7 3165   3.163   1.097  17.648  0.5569  0.3321  0.3121
  205MPD1     C 3166   2.111   4.282  17.544 -0.2958  0.0779 -0.5074
  205MPD1    C1 3167   2.155   4.173  17.624  0.2447  0.2381 -0.0985
  205MPD1    C2 3168   2.291   4.139  17.627  0.8170 -0.0402 -0.3900
  205MPD1    C3 3169   2.385   4.221  17.565  0.6805  0.2534 -0.4644
  205MPD1    C4 3170   2.340   4.333  17.485 -0.3351  0.1246 -0.3131
  205MPD1    C5 3171   2.208   4.358  17.474  0.4033 -0.1388  0.4870
  205MPD1     H 3172   2.330   4.061  17.691 -0.1778  0.7849  1.2236
  205MPD1    H1 3173   2.412   4.398  17.437 -1.2653 -0.5457 -2.5969
  205MPD1    H2 3174   2.007   4.314  17.545  0.3935  2.2080  3.1745
  205MPD1    H3 3175   2.173   4.432  17.403  1.5141  0.4860  0.5907
  205MPD1     N 3176   2.522   4.197  17.575  0.4454 -0.2657  0.2737
  205MPD1    H5 3177   2.581   4.275  17.549  0.2380  0.0566  0.7694
  205MPD1    N1 3178   2.058   4.091  17.677  0.5119 -0.1133 -0.1103
  205MPD1    H6 3179   1.989   4.144  17.730  1.1042 -0.7025  1.2587
  205MPD1    H7 3180   2.102   4.017  17.732 -6.6849 -3.0056  1.6757
  206MPD1     C 3181   3.143   2.262  17.249 -0.5113 -0.0877 -0.2406
  206MPD1    C1 3182   3.150   2.134  17.203  0.4656 -0.5270  0.1708
  206MPD1    C2 3183   3.204   2.120  17.078 -0.0596 -0.0872  0.5349
  206MPD1    C3 3184   3.222   2.226  16.988 -0.3461 -0.2701  0.3178
  206MPD1    C4 3185   3.205   2.356  17.038  0.0564  0.1200 -0.6226
  206MPD1    C5 3186   3.159   2.372  17.166  0.1694  0.4774 -0.2836
  206MPD1     H 3187   3.237   2.023  17.043 -0.3980 -0.1637  0.4263
  206MPD1    H1 3188   3.218   2.438  16.968  1.1446  0.7924  0.3692
  206MPD1    H2 3189   3.108   2.305  17.342 -0.2399  0.7790 -0.5469
  206MPD1    H3 3190   3.134   2.463  17.219 -0.2466 -0.5508  1.2968
  206MPD1     N 3191   3.244   2.210  16.846  0.5170  0.2061 -0.4751
  206MPD1    H5 3192   3.222   2.288  16.785 -0.2702 -0.2469 -0.7736
  206MPD1    N1 3193   3.128   2.026  17.293 -0.2612  0.0103  0.7198
  206MPD1    H6 3194   3.103   1.945  17.237 -1.5299 -1.1998  3.0371
  206MPD1    H7 3195   3.043   2.060  17.338 -0.2149 -0.4480  1.1455
  207MPD1     C 3196   1.320   0.449  11.310  0.0555  0.3593 -0.9457
  207MPD1    C1 3197   1.258   0.539  11.228 -0.2207  0.4220 -0.6508
  207MPD1    C2 3198   1.225   0.507  11.103 -0.8247 -0.3678  0.2460
  207MPD1    C3 3199   1.260   0.381  11.052  0.0018 -0.4875  0.1213
  207MPD1    C4 3200   1.336   0.302  11.129  0.2602  0.3389 -0.4164
  207MPD1    C5 3201   1.358   0.331  11.258 -0.4577 -0.0322 -0.2882
  207MPD1     H 3202   1.171   0.571  11.034  0.3186  0.1639 -0.1498
  207MPD1    H1 3203   1.361   0.204  11.090  2.0798  1.2643 -1.5722
  207MPD1    H2 3204   1.343   0.473  11.413  0.5701  0.4660 -1.0853
  207MPD1    H3 3205   1.400   0.255  11.323 -1.3249  0.4158  0.7897
  207MPD1     N 3206   1.223   0.326  10.926 -0.2867  0.3466  1.0969
  207MPD1    H5 3207   1.239   0.227  10.909  0.2007  0.8826 -1.5396
  207MPD1    N1 3208   1.233   0.664  11.291 -0.4182 -0.5523  0.2133
  207MPD1    H6 3209   1.190   0.738  11.238 -0.4215 -0.2591  0.6283
  207MPD1    H7 3210   1.230   0.670  11.393 -1.6564 -1.4767  0.2359
  208MPD1     C 3211   3.981   4.138  17.640 -0.3604 -0.2274  0.5862
  208MPD1    C1 3212   3.862   4.068  17.622 -0.0603  0.4143  0.7181
  208MPD1    C2 3213   3.819   3.982  17.725  0.0029 -0.7052  0.6380
  208MPD1    C3 3214   3.896   3.967   0.102  0.1514  0.4588  0.3600
  208MPD1    C4 3215   4.010   4.049   0.119 -0.4282 -0.9755  0.2129
  208MPD1    C5 3216   4.045   4.134   0.020  0.4865  0.0098 -0.0179
  208MPD1     H 3217   3.722   3.936  17.722  0.7019 -2.1614  0.4985
  208MPD1    H1 3218   4.077   4.037   0.203 -1.0480  1.3075  1.0518
  208MPD1    H2 3219   4.010   4.202  17.557  0.8639 -0.5966  0.7255
  208MPD1    H3 3220   4.139   4.187   0.029  0.8838 -0.7173  0.1639
  208MPD1     N 3221   3.842   3.889   0.205  0.7031 -0.6496  0.0702
  208MPD1    H5 3222   3.749   3.854   0.185 -1.1314  3.5906  1.0515
  208MPD1    N1 3223   3.786   4.113  17.519 -0.9037 -0.0142  0.0021
  208MPD1    H6 3224   3.708   4.054  17.493  0.4281 -1.6227 -0.3765
  208MPD1    H7 3225   3.831   4.156  17.437  0.9426 -0.9607  0.5089
  209MPD1     C 3226   1.179   3.339  10.527  0.5642  0.2500 -0.3561
  209MPD1    C1 3227   1.127   3.457  10.482 -0.1906  0.3777 -0.2829
  209MPD1    C2 3228   1.171   3.578  10.530  0.6115  0.1679 -0.4678
  209MPD1    C3 3229   1.262   3.592  10.627  0.5238 -0.2922  0.1613
  209MPD1    C4 3230   1.327   3.475  10.662  0.1847  0.2356 -0.3706
  209MPD1    C5 3231   1.285   3.347  10.618 -0.6171  0.2405 -0.6418
  209MPD1     H 3232   1.135   3.672  10.489  1.5890  0.8066  0.1619
  209MPD1    H1 3233   1.408   3.480  10.734  1.2911 -0.3015 -1.5840
  209MPD1    H2 3234   1.144   3.238  10.509  1.7478 -0.3657  0.7942
  209MPD1    H3 3235   1.335   3.259  10.656 -2.2555 -0.2773  0.3440
  209MPD1     N 3236   1.293   3.723  10.675  0.9835 -0.2261  0.5579
  209MPD1    H5 3237   1.241   3.796  10.627 -0.6347 -0.4168  2.0659
  209MPD1    N1 3238   1.004   3.457  10.408 -0.8871  0.3482  0.3521
  209MPD1    H6 3239   0.977   3.374  10.356  0.6517 -0.4065  0.7773
  209MPD1    H7 3240   0.996   3.535  10.343  0.4152  0.6059  0.5021
  210MPD1     C 3241   1.305   4.210  11.628 -0.4322  0.3001 -0.2871
  210MPD1    C1 3242   1.387   4.106  11.592  1.2010  0.3094  0.6800
  210MPD1    C2 3243   1.401   4.086  11.457 -0.6017  0.3437  0.5356
  210MPD1    C3 3244   1.333   4.153  11.363 -0.1845  0.2935  0.0234
  210MPD1    C4 3245   1.245   4.249  11.405  0.1082 -0.1560 -1.0738
  210MPD1    C5 3246   1.237   4.281  11.537  0.9878  0.1258  0.2030
  210MPD1     H 3247   1.482   4.023  11.423 -0.5948  0.2674  0.6973
  210MPD1    H1 3248   1.205   4.317  11.332  0.7657  3.5044  1.9569
  210MPD1    H2 3249   1.295   4.239  11.732 -0.5209  0.4981 -0.3510
  210MPD1    H3 3250   1.169   4.356  11.576 -0.1956  0.0563 -1.6800
  210MPD1     N 3251   1.353   4.145  11.225  0.3418  0.1180  0.3072
  210MPD1    H5 3252   1.296   4.199  11.159 -1.6826 -0.5839  1.4815
  210MPD1    N1 3253   1.478   4.050  11.685 -0.5833 -0.2159  0.3163
  210MPD1    H6 3254   1.505   3.955  11.662 -0.3666 -0.2071  0.5322
  210MPD1    H7 3255   1.452   4.048  11.784  0.1831 -3.2050  0.4303
  211MPD1     C 3256   3.400   3.689  16.012 -0.2299 -0.2126  0.3500
  211MPD1    C1 3257   3.319   3.772  15.937 -0.7438  0.7630  0.5083
  211MPD1    C2 3258   3.286   3.888  15.997  0.1345 -0.4472  0.4048
  211MPD1    C3 3259   3.333   3.930  16.120 -0.0181 -0.1177 -0.4388
  211MPD1    C4 3260   3.408   3.844  16.192 -0.0202  0.2448  0.3937
  211MPD1    C5 3261   3.437   3.727  16.137  0.7753  0.1728 -0.6118
  211MPD1     H 3262   3.221   3.955  15.942  1.1961  1.0371  0.9517
  211MPD1    H1 3263   3.459   3.857  16.287  0.2540  2.4600 -0.0721
  211MPD1    H2 3264   3.439   3.595  15.975  0.4217  0.0020  0.4960
  211MPD1    H3 3265   3.499   3.662  16.197  0.0900  0.6148  0.5681
  211MPD1     N 3266   3.290   4.056  16.166 -0.2618  0.0667 -0.3372
  211MPD1    H5 3267   3.234   4.113  16.103 -3.5048 -0.4022  2.1161
  211MPD1    N1 3268   3.277   3.751  15.807 -0.4692  0.0743  0.0333
  211MPD1    H6 3269   3.187   3.797  15.788 -1.6883 -1.5621  1.8503
  211MPD1    H7 3270   3.284   3.653  15.783  2.4191  0.5576 -1.0011
  212MPD1     C 3271   2.889   3.080  16.588 -0.0224 -0.5197  0.0182
  212MPD1    C1 3272   2.926   2.957  16.551  0.3625  0.2667  0.1320
  212MPD1    C2 3273   2.913   2.862  16.658 -0.5505  0.1494 -0.2424
  212MPD1    C3 3274   2.855   2.887  16.778  0.3432 -0.0681 -0.6563
  212MPD1    C4 3275   2.797   3.008  16.795 -0.4660  0.3398  0.4801
  212MPD1    C5 3276   2.813   3.105  16.700 -0.1604 -0.4380  0.2957
  212MPD1     H 3277   2.943   2.761  16.635 -0.2058  0.1316  0.2919
  212MPD1    H1 3278   2.729   3.026  16.878 -2.0120  0.5721 -0.8368
  212MPD1    H2 3279   2.894   3.160  16.516 -1.4559 -1.1586 -0.7973
  212MPD1    H3 3280   2.770   3.203  16.714 -1.1996 -0.7510 -0.7070
  212MPD1     N 3281   2.849   2.793  16.885 -0.3944 -0.3037 -0.7496
  212MPD1    H5 3282   2.814   2.830  16.973  0.8836 -0.5165 -0.1562
  212MPD1    N1 3283   3.002   2.938  16.432 -0.6667 -0.1504 -0.6368
  212MPD1    H6 3284   3.016   2.841  16.407  0.9490 -0.6624  2.3631
  212MPD1    H7 3285   2.956   2.980  16.351  0.1980 -0.0160 -1.0582
  213MPD1     C 3286   1.176   3.377  16.313 -0.8279 -0.1826  0.4915
  213MPD1    C1 3287   1.177   3.261  16.231  0.4262  0.0959 -0.6176
  213MPD1    C2 3288   1.050   3.228  16.180 -0.2743 -0.0553 -0.4498
  213MPD1    C3 3289   0.947   3.321  16.189 -0.9884 -0.0702 -0.1468
  213MPD1    C4 3290   0.965   3.444  16.248 -0.4253 -0.5412  0.0776
  213MPD1    C5 3291   1.080   3.472  16.306 -0.7106  0.3851  0.5407
  213MPD1     H 3292   1.037   3.128  16.139  0.3286 -0.0323 -0.7056
  213MPD1    H1 3293   0.884   3.513  16.272  1.2008  0.2283  3.3414
  213MPD1    H2 3294   1.274   3.404  16.351  1.1965 -2.3050 -3.1717
  213MPD1    H3 3295   1.093   3.568  16.354 -0.2429  0.0840  1.0283
  213MPD1     N 3296   0.822   3.298  16.131  0.1434 -0.0230 -0.0309
  213MPD1    H5 3297   0.821   3.211  16.080 -1.5356 -0.1514  0.2466
  213MPD1    N1 3298   1.274   3.162  16.256 -0.2715  0.5078  0.6512
  213MPD1    H6 3299   1.279   3.077  16.201  2.8517  0.4457  1.0023
  213MPD1    H7 3300   1.362   3.188  16.300 -0.5114  0.1378  1.3499
  214MPD1     C 3301   0.632   2.526  16.227  0.4089  0.1372 -0.3060
  214MPD1    C1 3302   0.517   2.552  16.155  0.4714 -0.2001  0.1547
  214MPD1    C2 3303   0.494   2.677  16.108 -0.1493 -1.1468  0.4847
  214MPD1    C3 3304   0.587   2.776  16.128 -0.5476 -0.0200 -1.1575
  214MPD1    C4 3305   0.696   2.750  16.204  0.1830 -0.2601  0.3743
  214MPD1    C5 3306   0.710   2.628  16.257  0.1606 -0.8865 -0.4748
  214MPD1     H 3307   0.409   2.702  16.046  0.6082 -0.2101 -0.1799
  214MPD1    H1 3308   0.765   2.827  16.234 -0.4587 -0.3040  1.9387
  214MPD1    H2 3309   0.654   2.430  16.271  0.3283  0.3897  0.2769
  214MPD1    H3 3310   0.779   2.618  16.340 -0.4377 -0.5476  0.0574
  214MPD1     N 3311   0.581   2.911  16.075  0.7491  0.4163 -0.2084
  214MPD1    H5 3312   0.659   2.972  16.095  2.0310 -0.3116 -3.1235
  214MPD1    N1 3313   0.435   2.446  16.109  0.0956 -0.2722 -0.5870
  214MPD1    H6 3314   0.347   2.473  16.065  0.0245  0.4315 -0.0231
  214MPD1    H7 3315   0.404   2.389  16.187  1.8079  0.9576  0.9830
  215MPD1     C 3316   0.124   4.716  11.414 -0.2464  0.3658 -0.8649
  215MPD1    C1 3317   0.223   0.018  11.316  0.2091  0.1212  0.1932
  215MPD1    C2 3318   0.352   4.697  11.337  0.3183  0.0491  0.0101
  215MPD1    C3 3319   0.388   4.620  11.447 -0.2240 -0.2792  1.0741
  215MPD1    C4 3320   0.293   4.602  11.544 -0.1164 -0.4877  0.6745
  215MPD1    C5 3321   0.165   4.649  11.526  0.2790 -0.5572 -0.1770
  215MPD1     H 3322   0.426   4.708  11.259  0.7236 -0.6354  0.3026
  215MPD1    H1 3323   0.306   4.550  11.638 -3.9188  2.5611  2.8997
  215MPD1    H2 3324   0.019   0.006  11.400 -0.7264 -0.4004  1.4218
  215MPD1    H3 3325   0.085   4.620  11.592 -1.1717  1.7651 -0.9088
  215MPD1     N 3326   0.508   4.551  11.442 -0.3294 -0.4575 -0.0381
  215MPD1    H5 3327   0.570   4.577  11.366  1.4417 -2.2730  0.7913
  215MPD1    N1 3328   0.188   0.090  11.201 -0.0977  0.1906  0.1153
  215MPD1    H6 3329   0.263   0.142  11.156 -0.6417 -0.3074 -1.3762
  215MPD1    H7 3330   0.109   0.152  11.218 -0.4181  0.2597 -1.5426
  216MPD1     C 3331   3.729   2.071  17.168  0.0181 -0.1432 -0.1697
  216MPD1    C1 3332   3.599   2.059  17.126  0.0609  0.1547 -1.0335
  216MPD1    C2 3333   3.518   1.999  17.222 -0.3359 -0.3270 -0.0384
  216MPD1    C3 3334   3.556   1.937  17.338  0.9373  0.2297  0.1383
  216MPD1    C4 3335   3.690   1.954  17.376  0.5404  0.7693 -0.4244
  216MPD1    C5 3336   3.777   2.003  17.282  0.4759  0.1533  0.3871
  216MPD1     H 3337   3.414   2.000  17.194 -0.1917  2.3717 -0.4757
  216MPD1    H1 3338   3.737   1.934  17.472  0.2597 -0.5325 -0.5644
  216MPD1    H2 3339   3.800   2.129  17.110 -0.2847 -1.0443 -1.4498
  216MPD1    H3 3340   3.882   2.013  17.308  0.0152 -0.9153  2.6830
  216MPD1     N 3341   3.459   1.878  17.430  0.4122 -0.0759 -0.0629
  216MPD1    H5 3342   3.364   1.871  17.394 -0.0936  0.5800  1.1455
  216MPD1    N1 3343   3.548   2.142  17.026  0.9880 -0.2762 -0.5384
  216MPD1    H6 3344   3.601   2.148  16.939 -0.4331 -0.4101 -1.4209
  216MPD1    H7 3345   3.454   2.116  16.995  0.7420 -0.6878  0.5556
  217MPD1     C 3346   3.509   4.055   8.659  0.6000  0.3348 -0.1390
  217MPD1    C1 3347   3.541   3.923   8.680 -0.8483  0.9124  0.5863
  217MPD1    C2 3348   3.543   3.873   8.809  0.2045  0.4162  0.8192
  217MPD1    C3 3349   3.551   3.964   8.913  0.0970  1.0726 -0.5737
  217MPD1    C4 3350   3.526   4.102   8.886 -0.2633 -0.0355 -1.1354
  217MPD1    C5 3351   3.493   4.135   8.761 -0.2285  0.6594 -0.8553
  217MPD1     H 3352   3.551   3.766   8.823  4.1270  0.8398  1.7967
  217MPD1    H1 3353   3.542   4.185   8.954  2.1010 -0.8886 -0.6724
  217MPD1    H2 3354   3.499   4.097   8.559  3.3106  0.4910 -0.3301
  217MPD1    H3 3355   3.467   4.237   8.737  2.5011  1.2180 -1.4488
  217MPD1     N 3356   3.562   3.925   9.048  0.1822  0.7154  0.2851
  217MPD1    H5 3357   3.540   3.990   9.123  0.0951 -0.5766  1.3731
  217MPD1    N1 3358   3.530   3.839   8.565 -0.6622 -0.2567  0.0072
  217MPD1    H6 3359   3.566   3.877   8.477 -1.7347  1.5849  0.3785
  217MPD1    H7 3360   3.579   3.750   8.575  0.2244  0.2563  0.2572
  218MPD1     C 3361   1.438   4.494  12.394  0.1524 -0.0652  0.4870
  218MPD1    C1 3362   1.384   4.409  12.302  0.5085  0.2036 -0.2908
  218MPD1    C2 3363   1.290   4.316  12.350  0.1581 -0.4482 -0.4387
  218MPD1    C3 3364   1.275   4.300  12.485 -0.0219  0.6264 -0.1414
  218MPD1    C4 3365   1.330   4.388  12.569 -0.4544  0.5238 -0.5882
  218MPD1    C5 3366   1.414   4.484  12.524 -0.2442  0.2203 -0.3174
  218MPD1     H 3367   1.240   4.251  12.279  0.8926 -1.9686  0.4218
  218MPD1    H1 3368   1.320   4.384  12.677 -2.1585 -4.4048 -0.9277
  218MPD1    H2 3369   1.499   4.580  12.366  1.8366 -1.5274 -0.3702
  218MPD1    H3 3370   1.462   4.550  12.595  0.5678 -3.4276  2.5416
  218MPD1     N 3371   1.201   4.188  12.530  0.2601 -0.4358  0.1499
  218MPD1    H5 3372   1.155   4.128  12.463  2.7811 -1.0189 -1.0266
  218MPD1    N1 3373   1.379   4.451  12.168 -0.1711  0.4354 -0.6302
  218MPD1    H6 3374   1.472   4.487  12.149  0.0075 -0.1256 -0.8170
  218MPD1    H7 3375   1.360   4.374  12.104 -2.0855 -0.2391  0.7500
  219MPD1     C 3376   0.527   3.556  12.233 -0.8631  0.1131 -0.8140
  219MPD1    C1 3377   0.586   3.678  12.200 -0.4353 -0.6098  0.0178
  219MPD1    C2 3378   0.673   3.729  12.290  0.3378  0.1772 -0.0695
  219MPD1    C3 3379   0.702   3.672  12.409  0.4512  0.2665 -0.4193
  219MPD1    C4 3380   0.652   3.544  12.431 -0.5159 -0.2234 -0.2353
  219MPD1    C5 3381   0.561   3.486  12.348 -0.2775 -0.3396 -0.0749
  219MPD1     H 3382   0.720   3.825  12.272  2.8109 -0.8948  0.6333
  219MPD1    H1 3383   0.690   3.490  12.518 -0.7163 -1.2113 -0.7616
  219MPD1    H2 3384   0.457   3.518  12.159 -0.8854 -1.3744 -0.0341
  219MPD1    H3 3385   0.531   3.383  12.355 -1.7485  0.2066  1.6478
  219MPD1     N 3386   0.799   3.723  12.496  0.2230  0.3051  0.4745
  219MPD1    H5 3387   0.814   3.661  12.575 -0.5215 -1.5401 -0.8221
  219MPD1    N1 3388   0.578   3.740  12.075 -0.4405  0.1107  0.1479
  219MPD1    H6 3389   0.483   3.729  12.041  0.3319 -3.5475 -0.8815
  219MPD1    H7 3390   0.594   3.840  12.076  2.4972 -0.3426  0.3545
  220MPD1     C 3391   0.811   0.073  10.579 -0.1886  0.6533  0.0061
  220MPD1    C1 3392   0.810   4.721  10.685 -0.1213  0.2954 -0.7766
  220MPD1    C2 3393   0.812   4.590  10.653 -0.1791  0.1467 -0.4039
  220MPD1    C3 3394   0.819   4.542  10.524  0.1154 -0.5283 -0.2261
  220MPD1    C4 3395   0.807   4.633  10.421  0.3170  0.3313 -0.4874
  220MPD1    C5 3396   0.804   0.029  10.449  0.5818  0.2256 -0.4213
  220MPD1     H 3397   0.811   4.521  10.736 -0.1986  0.2481 -0.3186
  220MPD1    H1 3398   0.806   4.602  10.317  2.1806  0.3731 -0.5186
  220MPD1    H2 3399   0.808   0.181  10.585  0.3294  0.5217  2.5582
  220MPD1    H3 3400   0.788   0.098  10.367  1.8147  0.3599 -0.5511
  220MPD1     N 3401   0.813   4.400  10.505  0.6763  0.1727  0.0664
  220MPD1    H5 3402   0.819   4.346  10.591  1.1015  1.0723  0.5974
  220MPD1    N1 3403   0.830   0.033  10.816 -0.1287 -0.0555  0.5670
  220MPD1    H6 3404   0.789   4.717  10.894  0.1349 -0.3051  0.5471
  220MPD1    H7 3405   0.803   0.131  10.820  0.0484  0.0824 -1.2671
  221MPD1     C 3406   2.604   3.951  16.072  0.2743 -0.5102  0.2531
  221MPD1    C1 3407   2.686   4.028  16.146  0.1364  0.4606  0.0931
  221MPD1    C2 3408   2.795   3.977  16.211  0.0058  0.1159  0.6906
  221MPD1    C3 3409   2.819   3.833  16.206  0.7144  0.3483 -0.2322
  221MPD1    C4 3410   2.744   3.760  16.119  0.3193  0.6206  0.2280
  221MPD1    C5 3411   2.633   3.818  16.057 -0.4796  0.0013 -0.0172
  221MPD1     H 3412   2.854   4.042  16.274 -0.9836  1.3012  0.3943
  221MPD1    H1 3413   2.739   3.652  16.114  2.5879  0.6242 -2.6544
  221MPD1    H2 3414   2.507   3.986  16.038  1.3258  1.6827 -0.4681
  221MPD1    H3 3415   2.568   3.752  16.000 -0.3841  0.7729 -1.0273
  221MPD1     N 3416   2.918   3.769  16.280  0.3739  0.1731  0.3150
  221MPD1    H5 3417   2.930   3.668  16.278 -0.7137  0.1166 -2.6488
  221MPD1    N1 3418   2.648   4.158  16.175 -0.1716  0.1516  0.0848
  221MPD1    H6 3419   2.620   4.210  16.093 -1.6926 -0.9363 -0.1020
  221MPD1    H7 3420   2.727   4.207  16.216 -0.9094  0.8838  0.6422
  222MPD1     C 3421   3.039   1.928   0.666 -0.0635 -0.7176  0.6683
  222MPD1    C1 3422   3.061   2.039   0.738  0.3425  0.2679  0.5086
  222MPD1    C2 3423   2.956   2.102   0.798  0.0532  0.3585  0.4592
  222MPD1    C3 3424   2.823   2.065   0.771 -0.4581  0.1098 -0.2362
  222MPD1    C4 3425   2.800   1.964   0.684 -0.3691  0.2290  0.4210
  222MPD1    C5 3426   2.909   1.892   0.640 -0.0731 -0.5760 -0.2485
  222MPD1     H 3427   2.972   2.183   0.868  0.4918  2.1544 -1.7005
  222MPD1    H1 3428   2.699   1.942   0.652 -0.1606  0.1399 -0.1649
  222MPD1    H2 3429   3.114   1.864   0.623 -0.7763 -1.7631  0.9831
  222MPD1    H3 3430   2.908   1.818   0.560  0.1732 -0.4015 -0.4128
  222MPD1     N 3431   2.708   2.134   0.815  0.4467  0.8045  0.1018
  222MPD1    H5 3432   2.618   2.090   0.799  0.8893 -0.0024 -0.1647
  222MPD1    N1 3433   3.191   2.090   0.770 -0.0269  0.3401  0.0564
  222MPD1    H6 3434   3.199   2.191   0.772  0.2419  0.3348 -0.5165
  222MPD1    H7 3435   3.255   2.065   0.694 -0.3306  1.2286 -0.4866
  223MPD1     C 3436   2.080   1.663   0.959 -0.8156  0.1794  0.2415
  223MPD1    C1 3437   2.214   1.667   0.933  0.6477  0.1104 -0.0316
  223MPD1    C2 3438   2.269   1.797   0.924 -0.0730 -0.6918  0.6208
  223MPD1    C3 3439   2.202   1.909   0.946 -0.3785  0.0223  0.0443
  223MPD1    C4 3440   2.064   1.897   0.976  0.4308  0.4616  0.0110
  223MPD1    C5 3441   2.007   1.774   0.984 -0.1148  0.4568  0.2816
  223MPD1     H 3442   2.366   1.791   0.876 -0.4899 -0.2557 -0.2779
  223MPD1    H1 3443   1.995   1.979   0.984  0.3350  0.2465  1.4663
  223MPD1    H2 3444   2.027   1.569   0.951  2.2402 -1.5357 -0.1110
  223MPD1    H3 3445   1.903   1.771   1.016 -0.7291  0.8617 -1.6816
  223MPD1     N 3446   2.274   2.031   0.922  0.2711  0.1681 -0.4178
  223MPD1    H5 3447   2.374   2.017   0.909  0.5526  1.3755  0.5024
  223MPD1    N1 3448   2.280   1.552   0.881  0.3652  0.0500 -0.0025
  223MPD1    H6 3449   2.380   1.551   0.901  0.4979  0.0567 -0.6695
  223MPD1    H7 3450   2.249   1.466   0.927  0.5591  0.0269  0.0871
  224MPD1     C 3451   3.940   4.055   9.171  0.0141  0.2834  0.5976
  224MPD1    C1 3452   3.873   4.170   9.203 -0.3226 -0.4385 -0.0320
  224MPD1    C2 3453   3.836   4.178   9.335  0.5944 -0.4690 -0.0195
  224MPD1    C3 3454   3.880   4.088   9.427  0.3657  0.6810  1.0916
  224MPD1    C4 3455   3.959   3.981   9.394  0.1024  0.2864 -0.3145
  224MPD1    C5 3456   3.984   3.965   9.266  0.2090  0.0817  0.5617
  224MPD1     H 3457   3.788   4.270   9.367 -0.5650 -1.8989  2.3309
  224MPD1    H1 3458   3.990   3.905   9.465 -3.1685 -0.3355  0.4397
  224MPD1    H2 3459   3.964   4.029   9.069 -2.2615 -1.4154  0.5023
  224MPD1    H3 3460   4.044   3.881   9.233 -0.7683 -0.4169  0.0612
  224MPD1     N 3461   3.858   4.092   9.567  0.6636 -0.3187 -0.6133
  224MPD1    H5 3462   3.917   4.029   9.620  0.7345  0.2559 -0.0200
  224MPD1    N1 3463   3.804   4.241   9.105  0.2875  0.5783 -0.3054
  224MPD1    H6 3464   3.791   4.337   9.137  2.1754  0.6009  0.3782
  224MPD1    H7 3465   3.847   4.240   9.013  0.2091 -1.1624 -0.3173
  225MPD1     C 3466   0.803   0.389  12.705  0.4762 -0.0994 -0.3510
  225MPD1    C1 3467   0.801   0.258  12.747 -0.2378  0.0665  0.1578
  225MPD1    C2 3468   0.674   0.216  12.789  0.7127  0.0943  0.3969
  225MPD1    C3 3469   0.563   0.299  12.798 -1.0856 -0.7119  0.0432
  225MPD1    C4 3470   0.574   0.430  12.752  0.6695 -0.5976  0.1846
  225MPD1    C5 3471   0.697   0.473  12.699 -0.1799  0.4047 -0.3234
  225MPD1     H 3472   0.668   0.111  12.816 -2.7073 -0.3675 -2.0694
  225MPD1    H1 3473   0.488   0.496  12.758 -0.5533 -2.2481  0.8108
  225MPD1    H2 3474   0.901   0.429  12.680 -0.0810  0.6090 -1.3955
  225MPD1    H3 3475   0.710   0.577  12.674 -2.6120  0.8669  0.2969
  225MPD1     N 3476   0.439   0.252  12.840 -0.3339 -0.5181  0.9349
  225MPD1    H5 3477   0.361   0.314  12.823 -0.0975 -0.0828  1.4285
  225MPD1    N1 3478   0.913   0.177  12.736  0.9347  0.0791 -0.7809
  225MPD1    H6 3479   0.994   0.238  12.744 -0.6037  1.9342  0.7212
  225MPD1    H7 3480   0.918   0.119  12.819 -3.4579 -1.2087 -1.4145
  226MPD1     C 3481   4.184   1.162  10.277 -0.0811 -0.2870 -0.1226
  226MPD1    C1 3482   4.106   1.056  10.321  0.0772 -0.6915 -0.2517
  226MPD1    C2 3483   4.168   0.940  10.363  0.5035  0.0539 -0.3139
  226MPD1    C3 3484   4.306   0.928  10.365  0.7818 -0.3625  0.4137
  226MPD1    C4 3485   4.387   1.039  10.336 -0.0386  0.0502 -0.5003
  226MPD1    C5 3486   4.326   1.148  10.286 -0.0161 -0.1103  0.2278
  226MPD1     H 3487   4.118   0.847  10.388  1.0186 -1.1724 -3.7877
  226MPD1    H1 3488   4.495   1.039  10.340 -0.1007 -2.2467  1.7534
  226MPD1    H2 3489   4.146   1.260  10.249 -2.4250 -1.0026  0.5540
  226MPD1    H3 3490   4.386   1.236  10.265 -2.4221  1.3747 -0.4948
  226MPD1     N 3491   4.350   0.795  10.390 -0.3996 -0.3057  0.1302
  226MPD1    H5 3492   4.276   0.727  10.404  0.1572 -1.0852 -0.6918
  226MPD1    N1 3493   3.971   1.071  10.360 -0.6336 -0.2716  0.1704
  226MPD1    H6 3494   3.918   0.985  10.368 -1.7804  0.2016 -2.0670
  226MPD1    H7 3495   3.915   1.123  10.292  1.4596 -0.0782 -1.4320
  227MPD1     C 3496   0.320   0.321   9.880 -0.0729  0.3699 -0.5294
  227MPD1    C1 3497   0.349   0.422   9.967 -0.8500 -0.3091 -0.9712
  227MPD1    C2 3498   0.246   0.460  10.054  0.1454  0.1516  0.6699
  227MPD1    C3 3499   0.131   0.388  10.065 -0.5153  0.3590  0.0215
  227MPD1    C4 3500   0.103   0.291   9.975  0.1115 -0.3463  0.1934
  227MPD1    C5 3501   0.197   0.259   9.883 -0.2549 -0.0136 -0.7423
  227MPD1     H 3502   0.259   0.535  10.131  0.9613  1.3537 -0.6402
  227MPD1    H1 3503   0.018   0.224   9.988 -0.1782  0.0013  0.1082
  227MPD1    H2 3504   0.396   0.289   9.809 -1.0742 -1.7558 -0.6329
  227MPD1    H3 3505   0.190   0.171   9.820 -0.7399 -1.0610  0.7858
  227MPD1     N 3506   0.042   0.414  10.173 -0.4942 -0.0934  0.1897
  227MPD1    H5 3507   0.071   0.492  10.230  1.2578  0.1728 -1.0752
  227MPD1    N1 3508   0.468   0.501   9.946  0.3332  0.0862  0.2414
  227MPD1    H6 3509   0.487   0.566  10.022 -0.0836 -1.1002  1.3703
  227MPD1    H7 3510   0.552   0.443   9.945  0.7241  0.6405  0.5820
  228MPD1     C 3511   2.539   2.421  13.440  0.1506 -0.5052  0.2753
  228MPD1    C1 3512   2.493   2.489  13.332  0.5694  0.3013  1.0777
  228MPD1    C2 3513   2.355   2.492  13.309  0.3855  0.3757  0.1787
  228MPD1    C3 3514   2.263   2.426  13.382  0.4141  0.0653  1.0382
  228MPD1    C4 3515   2.308   2.364  13.498 -0.2076 -0.2121 -0.0102
  228MPD1    C5 3516   2.442   2.355  13.519 -0.4846 -0.6582 -0.2216
  228MPD1     H 3517   2.316   2.544  13.222 -0.9537  0.1104  0.6218
  228MPD1    H1 3518   2.239   2.330  13.574 -0.6134  0.7112  0.0360
  228MPD1    H2 3519   2.646   2.411  13.456 -0.0469 -3.4035 -0.2865
  228MPD1    H3 3520   2.484   2.304  13.606  1.5138 -0.1829 -0.9042
  228MPD1     N 3521   2.130   2.436  13.341  0.1235  0.2877 -0.0635
  228MPD1    H5 3522   2.113   2.489  13.256  2.5275 -1.8519 -1.8988
  228MPD1    N1 3523   2.589   2.509  13.226  0.4094  0.1381  0.2023
  228MPD1    H6 3524   2.673   2.551  13.266 -0.0077  0.2512  0.9587
  228MPD1    H7 3525   2.552   2.574  13.157  0.1598 -3.3177 -2.9043
  229MPD1     C 3526   1.234   1.999  14.710  0.9313  0.0677 -0.2107
  229MPD1    C1 3527   1.241   1.869  14.666 -0.4067  0.9154  0.4427
  229MPD1    C2 3528   1.306   1.778  14.748  0.4361  0.0974 -0.5308
  229MPD1    C3 3529   1.344   1.798  14.876  0.2818 -0.0067 -0.6584
  229MPD1    C4 3530   1.335   1.930  14.916 -1.0119 -0.4062 -0.5027
  229MPD1    C5 3531   1.289   2.027  14.829 -0.0325 -0.0512 -0.6729
  229MPD1     H 3532   1.327   1.678  14.712  0.5409  0.1534 -0.6269
  229MPD1    H1 3533   1.373   1.968  15.011  1.4322  0.9168 -1.9971
  229MPD1    H2 3534   1.191   2.072  14.643 -0.9009 -1.8605 -1.1356
  229MPD1    H3 3535   1.286   2.131  14.859 -1.4797  0.4782 -2.6062
  229MPD1     N 3536   1.407   1.707  14.963  0.4085  0.0468  0.1311
  229MPD1    H5 3537   1.439   1.751  15.049  0.8741 -1.5693  0.7991
  229MPD1    N1 3538   1.162   1.830  14.557  0.3141 -0.0402 -0.8205
  229MPD1    H6 3539   1.210   1.749  14.519  2.0315  0.2162  0.7911
  229MPD1    H7 3540   1.155   1.900  14.484  0.6053 -1.4618 -2.2237
  230MPD1     C 3541   1.850   1.601  15.825  1.1819  0.1764 -0.0091
  230MPD1    C1 3542   1.847   1.467  15.795 -0.4235 -0.0617  0.0507
  230MPD1    C2 3543   1.792   1.430  15.670  0.0824 -0.3932 -0.2070
  230MPD1    C3 3544   1.743   1.522  15.576  0.1154  0.2646 -0.2576
  230MPD1    C4 3545   1.744   1.657  15.615  0.3033 -0.5009  0.4162
  230MPD1    C5 3546   1.797   1.692  15.740  0.1236  0.3733  0.3132
  230MPD1     H 3547   1.796   1.326  15.638  2.1241  0.0340 -1.3454
  230MPD1    H1 3548   1.700   1.737  15.557  0.3003  0.7600  2.1856
  230MPD1    H2 3549   1.893   1.644  15.915 -1.9530 -2.3911  2.7038
  230MPD1    H3 3550   1.795   1.797  15.769  1.0550  0.0393  1.5824
  230MPD1     N 3551   1.699   1.478  15.451 -0.4959 -0.0938 -0.7515
  230MPD1    H5 3552   1.716   1.379  15.435 -1.0993 -0.5423  1.2746
  230MPD1    N1 3553   1.906   1.378  15.882  0.2015 -0.6384 -0.6306
  230MPD1    H6 3554   1.868   1.284  15.889 -2.8303  0.6802  0.4094
  230MPD1    H7 3555   1.920   1.414  15.976 -1.3018  0.8384 -0.9758
  231MPD1     C 3556   4.327   3.273  16.115 -0.5027 -0.5119 -0.4684
  231MPD1    C1 3557   4.367   3.193  16.014  0.5021  0.0499  0.0325
  231MPD1    C2 3558   4.423   3.261  15.904 -0.2998 -0.3460 -0.3885
  231MPD1    C3 3559   4.455   3.392  15.913  0.4760 -0.4021 -0.3481
  231MPD1    C4 3560   4.424   3.464  16.025  0.3175 -0.9606 -0.9415
  231MPD1    C5 3561   4.345   3.405  16.116 -0.1620  0.8142  0.0350
  231MPD1     H 3562   4.451   3.197  15.821 -0.1581  0.0435 -0.6371
  231MPD1    H1 3563   4.456   3.566  16.041  0.1823 -1.1389  0.4832
  231MPD1    H2 3564   4.270   3.226  16.195 -0.6183  0.7316  0.1905
  231MPD1    H3 3565   4.320   3.456  16.208 -0.1994  0.7334  0.0696
  231MPD1     N 3566   4.530   3.452  15.803  0.4024 -0.3581 -0.2049
  231MPD1    H5 3567   4.561   3.387  15.731  1.1068  1.9554 -2.0150
  231MPD1    N1 3568   4.340   3.059  16.016 -0.6312 -0.2175  0.5122
  231MPD1    H6 3569   4.338   3.020  16.109 -0.1956 -0.1297  0.5582
  231MPD1    H7 3570   4.406   3.008  15.958  0.2806  1.2855  0.2072
  232MPD1     C 3571   2.086   1.945   0.610 -0.5493  0.3120  0.2399
  232MPD1    C1 3572   1.961   1.990   0.557 -0.0202  0.1033 -0.0008
  232MPD1    C2 3573   1.886   1.892   0.486 -0.4122 -0.3220  0.0517
  232MPD1    C3 3574   1.921   1.768   0.461 -0.1363 -0.2042  0.6222
  232MPD1    C4 3575   2.037   1.728   0.519  0.0145 -0.4354 -0.1863
  232MPD1    C5 3576   2.116   1.812   0.587  0.4643  0.0858  0.5272
  232MPD1     H 3577   1.789   1.922   0.446  0.0371 -0.4876 -1.1459
  232MPD1    H1 3578   2.080   1.629   0.512  1.7487  0.3554 -0.5101
  232MPD1    H2 3579   2.154   2.008   0.666 -0.4208  1.5247 -1.2944
  232MPD1    H3 3580   2.204   1.768   0.632  0.1766  0.2009  1.2097
  232MPD1     N 3581   1.850   1.686   0.375 -0.1617 -0.0500 -0.4509
  232MPD1    H5 3582   1.779   1.735   0.321  0.5765  3.5067  1.7987
  232MPD1    N1 3583   1.901   2.109   0.601  0.4108 -0.2230 -0.0706
  232MPD1    H6 3584   1.827   2.144   0.541  0.6467  0.0267 -0.2173
  232MPD1    H7 3585   1.984   2.168   0.603  1.6438 -1.8954 -1.2510
  233MPD1     C 3586   2.295   3.286   1.767  0.5755  0.4923 -0.1537
  233MPD1    C1 3587   2.298   3.280   1.906 -0.7904  0.0380  0.0494
  233MPD1    C2 3588   2.415   3.235   1.964 -0.2484 -0.1733 -0.0329
  233MPD1    C3 3589   2.530   3.225   1.892  0.3853 -0.6399 -0.2431
  233MPD1    C4 3590   2.526   3.248   1.755 -0.3144 -0.7457  0.0834
  233MPD1    C5 3591   2.409   3.266   1.690 -0.4653 -0.8419 -0.0159
  233MPD1     H 3592   2.409   3.209   2.069 -0.8044 -0.4009 -0.1197
  233MPD1    H1 3593   2.614   3.257   1.692  0.4431  2.1784  1.5460
  233MPD1    H2 3594   2.205   3.298   1.707  1.3904 -1.3706 -1.7342
  233MPD1    H3 3595   2.407   3.272   1.582 -0.3222 -1.8030 -0.0730
  233MPD1     N 3596   2.650   3.190   1.947 -0.4295  0.3847 -0.0060
  233MPD1    H5 3597   2.731   3.201   1.886 -0.4978 -0.2834 -0.2188
  233MPD1    N1 3598   2.172   3.283   1.965 -0.0947 -0.0822  0.6106
  233MPD1    H6 3599   2.109   3.355   1.930 -2.8448 -2.6602  0.2243
  233MPD1    H7 3600   2.181   3.298   2.065  1.2512  1.3743  0.2641
  234MPD1     C 3601   4.632   2.504  10.135  0.0235  0.7000  0.7208
  234MPD1    C1 3602   4.561   2.511  10.023  0.1813  0.1699  0.0426
  234MPD1    C2 3603   4.481   2.627   9.998  0.2676  0.0890 -0.0969
  234MPD1    C3 3604   4.481   2.731  10.085 -0.1075  0.3853  0.2670
  234MPD1    C4 3605   4.570   2.734  10.194  0.0586 -0.4127  0.7333
  234MPD1    C5 3606   4.640   2.614  10.223  0.3065 -0.5427  0.0464
  234MPD1     H 3607   4.409   2.632   9.917  0.1797 -1.2740 -0.0996
  234MPD1    H1 3608   4.582   2.813  10.267 -0.3540  1.9688 -1.7982
  234MPD1    H2 3609   4.694   2.420  10.164  0.5087  0.1863 -1.8260
  234MPD1    H3 3610   4.700   2.600  10.312 -0.5166  1.1704  0.8632
  234MPD1     N 3611   4.397   2.839  10.057  0.1098 -0.5006  0.7351
  234MPD1    H5 3612   4.323   2.829   9.989  1.0244  1.4548 -0.5545
  234MPD1    N1 3613   4.534   2.393   9.946 -0.2810 -0.4642  0.4883
  234MPD1    H6 3614   4.518   2.403   9.846 -0.0202 -0.7483  0.4164
  234MPD1    H7 3615   4.612   2.328   9.945 -0.5823 -0.7498 -2.8424
  235MPD1     C 3616   0.660   0.300  10.142  0.2830 -0.1252 -0.5773
  235MPD1    C1 3617   0.738   0.345  10.040 -0.0958  0.5959  0.1324
  235MPD1    C2 3618   0.827   0.446  10.071 -0.7768 -0.0503  0.0235
  235MPD1    C3 3619   0.848   0.487  10.196 -0.3951  0.2449 -0.0424
  235MPD1    C4 3620   0.775   0.435  10.305  0.6999  0.1154 -0.3533
  235MPD1    C5 3621   0.674   0.347  10.272 -0.7774  0.1970 -0.8313
  235MPD1     H 3622   0.884   0.501   9.997 -1.5901  0.9955  0.1672
  235MPD1    H1 3623   0.793   0.463  10.408 -0.4764  0.7790 -0.3266
  235MPD1    H2 3624   0.587   0.222  10.127 -1.1540  1.3035 -0.9441
  235MPD1    H3 3625   0.634   0.296  10.359 -2.4282  2.0885 -0.4746
  235MPD1     N 3626   0.936   0.600  10.208  0.5843 -0.2695  0.0032
  235MPD1    H5 3627   0.957   0.654  10.124  2.7702  0.1335  0.8133
  235MPD1    N1 3628   0.718   0.321   9.904 -1.0143  0.0161  0.6659
  235MPD1    H6 3629   0.681   0.227   9.894 -0.0318 -0.3573  0.5643
  235MPD1    H7 3630   0.804   0.324   9.849 -2.0053 -0.3546 -0.9067
  236MPD1     C 3631   0.420   1.428   9.936 -0.3120  0.3103  0.1363
  236MPD1    C1 3632   0.484   1.555   9.938  0.7054  0.6712  0.1570
  236MPD1    C2 3633   0.552   1.597  10.052 -0.5985  0.2215  0.2687
  236MPD1    C3 3634   0.565   1.507  10.158 -0.4021 -0.3043  0.4292
  236MPD1    C4 3635   0.510   1.383  10.147  0.0303  0.0104  0.4948
  236MPD1    C5 3636   0.442   1.341  10.035  0.3978  0.1536  0.9978
  236MPD1     H 3637   0.587   1.700  10.049 -2.4477  0.7998 -1.5003
  236MPD1    H1 3638   0.505   1.326  10.238  0.3574 -2.4431 -1.0238
  236MPD1    H2 3639   0.371   1.385   9.850 -2.0432 -2.7120  2.6180
  236MPD1    H3 3640   0.391   1.246  10.043  0.2404  0.0374 -1.6659
  236MPD1     N 3641   0.630   1.531  10.286 -0.4643 -0.3250  0.0668
  236MPD1    H5 3642   0.637   1.450  10.347 -0.7176 -1.7259 -1.7696
  236MPD1    N1 3643   0.449   1.641   9.841 -0.4369 -0.5289 -0.8541
  236MPD1    H6 3644   0.396   1.596   9.766  0.1543 -0.5114 -1.2873
  236MPD1    H7 3645   0.530   1.695   9.809  0.3056 -0.5314  1.0212
  237MPD1     C 3646   0.395   0.694  15.704  0.5751  0.0454 -0.4546
  237MPD1    C1 3647   0.315   0.694  15.586  0.5796 -0.1014 -0.0506
  237MPD1    C2 3648   0.266   0.571  15.540  0.3328 -0.7644 -0.0374
  237MPD1    C3 3649   0.278   0.460  15.616 -0.1141  0.7499  0.6782
  237MPD1    C4 3650   0.341   0.464  15.738 -0.0311 -0.6663 -0.4026
  237MPD1    C5 3651   0.400   0.579  15.781  0.2415 -0.0496  0.4882
  237MPD1     H 3652   0.216   0.565  15.444  0.8277  2.0645 -0.4823
  237MPD1    H1 3653   0.362   0.373  15.793 -0.4860  0.0903  1.0298
  237MPD1    H2 3654   0.452   0.782  15.734  1.0372 -0.0349 -1.0877
  237MPD1    H3 3655   0.470   0.578  15.865  0.2869  0.3567  0.4583
  237MPD1     N 3656   0.244   0.332  15.573  0.0589 -0.4703  0.7623
  237MPD1    H5 3657   0.275   0.252  15.627 -1.3170 -1.6298 -0.1474
  237MPD1    N1 3658   0.309   0.811  15.501 -0.3302  0.0438  0.5769
  237MPD1    H6 3659   0.328   0.904  15.537  0.6157  1.3505 -3.2103
  237MPD1    H7 3660   0.232   0.817  15.434 -1.4073  0.9737  1.9178
  238MPD1     C 3661   2.752   2.574  15.154  0.1597 -0.6900  0.0334
  238MPD1    C1 3662   2.710   2.654  15.057 -0.0242 -0.1682  0.0052
  238MPD1    C2 3663   2.571   2.669  15.039 -0.2899 -1.4447  0.0623
  238MPD1    C3 3664   2.483   2.606  15.123 -0.4640  0.1175 -0.0501
  238MPD1    C4 3665   2.532   2.515  15.214  0.6354 -0.0422 -0.5763
  238MPD1    C5 3666   2.664   2.498  15.223 -0.3294 -0.5739 -0.1577
  238MPD1     H 3667   2.548   2.755  14.977  0.6851 -2.1045 -1.2038
  238MPD1    H1 3668   2.469   2.448  15.270 -2.1853  0.6193 -3.0067
  238MPD1    H2 3669   2.855   2.576  15.185 -0.7279 -1.8710  3.0678
  238MPD1    H3 3670   2.709   2.420  15.283  1.3838 -0.9788 -1.9521
  238MPD1     N 3671   2.345   2.637  15.133 -0.8323 -0.4226  0.8172
  238MPD1    H5 3672   2.279   2.593  15.196 -1.5898  1.0093  1.0400
  238MPD1    N1 3673   2.799   2.751  14.997  0.0806  0.1047 -0.5106
  238MPD1    H6 3674   2.773   2.770  14.900 -1.0687 -0.7467 -0.3697
  238MPD1    H7 3675   2.895   2.717  14.992  0.3183  0.6794  0.1183
  239MPD1     C 3676   0.901   3.569  14.295 -0.2988 -0.5484 -0.2149
  239MPD1    C1 3677   0.977   3.613  14.193 -0.3451  0.3964  0.0346
  239MPD1    C2 3678   1.098   3.677  14.222 -0.9069 -0.0069  0.1692
  239MPD1    C3 3679   1.138   3.689  14.351 -0.4736 -0.9306 -0.1925
  239MPD1    C4 3680   1.069   3.629  14.452 -0.4403  0.6609  0.1272
  239MPD1    C5 3681   0.946   3.568  14.424 -0.0427 -0.4194  0.4221
  239MPD1     H 3682   1.155   3.719  14.139 -0.5015  1.9254  1.4344
  239MPD1    H1 3683   1.099   3.621  14.556  1.3394  0.4682 -0.4118
  239MPD1    H2 3684   0.798   3.536  14.284 -0.8829  1.3163 -0.4126
  239MPD1    H3 3685   0.884   3.536  14.507  1.0059 -1.1743  0.9224
  239MPD1     N 3686   1.256   3.767  14.387 -0.1199 -0.3905 -0.2932
  239MPD1    H5 3687   1.266   3.787  14.486  2.3603 -2.0155 -0.2348
  239MPD1    N1 3688   0.934   3.614  14.057  0.1018 -0.2424  0.1091
  239MPD1    H6 3689   0.944   3.713  14.037  1.7301 -0.0236  2.0668
  239MPD1    H7 3690   0.834   3.596  14.057 -0.2698  1.9208  1.1462
  240MPD1     C 3691   1.166   3.912  13.577  0.1389 -0.0765 -0.7721
  240MPD1    C1 3692   1.068   3.881  13.664 -0.0550  0.3261 -0.5437
  240MPD1    C2 3693   1.097   3.794  13.767  0.7641 -0.2582 -0.2007
  240MPD1    C3 3694   1.227   3.750  13.795  0.1570  0.0861 -0.3701
  240MPD1    C4 3695   1.326   3.796  13.712  0.1167 -0.1778  0.0447
  240MPD1    C5 3696   1.290   3.873  13.605 -0.3069 -0.0075 -0.1583
  240MPD1     H 3697   1.017   3.770  13.836  1.9767  1.4301  1.7629
  240MPD1    H1 3698   1.431   3.769  13.709 -0.1415 -0.9898 -1.6755
  240MPD1    H2 3699   1.151   3.974  13.489  0.3229 -1.3382 -1.6941
  240MPD1    H3 3700   1.371   3.893  13.535  0.1395  0.0200  0.3611
  240MPD1     N 3701   1.242   3.656  13.898 -0.2382  0.2523  0.5837
  240MPD1    H5 3702   1.164   3.618  13.950  1.5083  0.0670  3.0949
  240MPD1    N1 3703   0.935   3.928  13.653  0.4386 -0.0147  0.3799
  240MPD1    H6 3704   0.873   3.908  13.731  2.5839 -2.0007  1.5939
  240MPD1    H7 3705   0.939   4.023  13.618  1.7652 -1.4681 -3.4117
  241MPD1     C 3706   1.713   3.662  14.709 -0.1871  0.3378  0.5557
  241MPD1    C1 3707   1.605   3.572  14.732  0.2469 -0.4427 -0.0276
  241MPD1    C2 3708   1.545   3.513  14.622  0.1635  0.3926  0.1315
  241MPD1    C3 3709   1.593   3.535  14.493 -0.6741  0.0923 -0.9204
  241MPD1    C4 3710   1.695   3.620  14.474 -1.0942  0.5356 -0.9421
  241MPD1    C5 3711   1.752   3.689  14.582  0.1203  0.1929  0.6232
  241MPD1     H 3712   1.472   3.434  14.638 -0.8314  1.0557 -1.2085
  241MPD1    H1 3713   1.729   3.649  14.375 -0.5622  0.2476 -0.8399
  241MPD1    H2 3714   1.757   3.720  14.790 -1.4131  2.0125  0.0227
  241MPD1    H3 3715   1.824   3.766  14.556  1.2329 -0.6242  1.3189
  241MPD1     N 3716   1.535   3.478  14.384 -0.2902 -0.0794 -0.6699
  241MPD1    H5 3717   1.588   3.484  14.297 -1.3184 -0.9302 -1.3544
  241MPD1    N1 3718   1.593   3.525  14.863  0.1237 -0.4469 -0.1152
  241MPD1    H6 3719   1.501   3.488  14.887 -0.7508  1.5855 -0.2988
  241MPD1    H7 3720   1.618   3.602  14.926  0.0503  0.0719 -0.7181
  242MPD1     C 3721   0.823   1.735  16.141  0.1211 -0.5216  0.2858
  242MPD1    C1 3722   0.763   1.682  16.031  0.1339 -0.4659 -0.1067
  242MPD1    C2 3723   0.811   1.718  15.905  1.1677  0.2706  0.3092
  242MPD1    C3 3724   0.919   1.803  15.892  0.5111 -1.1662 -0.0950
  242MPD1    C4 3725   0.969   1.861  16.008 -0.0548 -0.7037  0.3012
  242MPD1    C5 3726   0.918   1.834  16.129  0.3599  0.4499  0.4269
  242MPD1     H 3727   0.766   1.668  15.819 -0.4873 -0.2334  1.4642
  242MPD1    H1 3728   1.062   1.918  16.006  1.1016 -2.6090 -0.7127
  242MPD1    H2 3729   0.805   1.708  16.245  0.9819 -2.8878 -0.1692
  242MPD1    H3 3730   0.974   1.876  16.211 -2.5277 -0.1343  2.7098
  242MPD1     N 3731   0.969   1.842  15.761 -0.8799  0.3875 -0.7585
  242MPD1    H5 3732   1.047   1.907  15.767 -0.8255  0.0993  1.5342
  242MPD1    N1 3733   0.676   1.570  16.040 -0.5111  0.0971 -0.1763
  242MPD1    H6 3734   0.632   1.564  16.131  1.2740 -0.1658  0.6601
  242MPD1    H7 3735   0.614   1.565  15.960 -1.3228 -0.2710  0.4860
  243MPD1     C 3736   2.086   1.116   0.262  0.0983 -0.0158  0.7856
  243MPD1    C1 3737   2.065   0.976   0.245 -0.4933 -0.0335  0.1652
  243MPD1    C2 3738   2.168   0.896   0.201  0.3322  0.6312 -0.3867
  243MPD1    C3 3739   2.297   0.952   0.191  0.1277 -0.0683  0.0469
  243MPD1    C4 3740   2.313   1.094   0.210 -0.7332 -0.4883 -0.4491
  243MPD1    C5 3741   2.206   1.171   0.243 -0.5364 -0.2609  0.2688
  243MPD1     H 3742   2.147   0.792   0.182 -0.7706  1.4199 -3.4372
  243MPD1    H1 3743   2.401   1.152   0.182  0.8422 -2.4884  0.3783
  243MPD1    H2 3744   2.002   1.182   0.283  0.3208  0.5960 -0.2848
  243MPD1    H3 3745   2.214   1.277   0.265 -1.4726 -0.5752  2.1433
  243MPD1     N 3746   2.398   0.868   0.145 -0.0191  0.2195 -0.2640
  243MPD1    H5 3747   2.367   0.772   0.132 -0.6606  0.3509  0.2874
  243MPD1    N1 3748   1.935   0.925   0.234 -0.1738  0.2228 -0.3722
  243MPD1    H6 3749   1.864   0.983   0.278  0.6112 -0.4714  1.8039
  243MPD1    H7 3750   1.919   0.834   0.276 -1.2811 -0.1801 -1.6659
  244MPD1     C 3751   2.755   4.683   0.123 -0.4592  0.3132  0.5420
  244MPD1    C1 3752   2.839   0.004   0.028  0.2008 -0.0423  0.9735
  244MPD1    C2 3753   2.846   0.142   0.017 -0.2100 -0.0439 -0.3797
  244MPD1    C3 3754   2.760   0.223   0.091  0.1715 -0.3526  0.7186
  244MPD1    C4 3755   2.683   0.172   0.191 -0.6675  0.1926 -0.2347
  244MPD1    C5 3756   2.687   0.037   0.211 -0.1139 -0.0481  0.6389
  244MPD1     H 3757   2.896   0.187  17.667  0.4739  0.8589  0.5063
  244MPD1    H1 3758   2.625   0.225   0.265  0.1103  0.3861  0.2340
  244MPD1    H2 3759   2.757   4.576   0.143  2.8232  0.3102  0.1042
  244MPD1    H3 3760   2.617   0.002   0.286  1.9783  2.1491  3.6163
  244MPD1     N 3761   2.758   0.361   0.059 -0.8496  0.2437 -0.3791
  244MPD1    H5 3762   2.821   0.396  17.723  0.5908  0.6864  1.1191
  244MPD1    N1 3763   2.912   4.662  17.674 -0.2356 -0.1360  0.8353
  244MPD1    H6 3764   3.004   4.704  17.665  0.0762 -1.0032 -0.0189
  244MPD1    H7 3765   2.932   4.569  17.708  0.2311 -1.1954 -2.3323
  245MPD1     C 3766   0.245   1.365  13.759  0.1330 -0.2814  0.1605
  245MPD1    C1 3767   0.341   1.441  13.833 -0.3846  0.4754 -0.5769
  245MPD1    C2 3768   0.294   1.535  13.930  0.8714 -0.5872 -0.1840
  245MPD1    C3 3769   0.163   1.570  13.948  0.2239 -0.7063  1.0911
  245MPD1    C4 3770   0.077   1.498  13.870 -0.2002  0.3289 -0.4108
  245MPD1    C5 3771   0.116   1.401  13.781 -0.8705 -0.9780  0.7022
  245MPD1     H 3772   0.372   1.584  13.986 -1.1009  0.4997  1.6143
  245MPD1    H1 3773   4.705   1.500  13.895 -0.4173  0.6631 -1.3432
  245MPD1    H2 3774   0.268   1.280  13.696  1.9700  0.7932 -0.6180
  245MPD1    H3 3775   0.035   1.347  13.734 -0.9158 -2.1433  2.1245
  245MPD1     N 3776   0.122   1.672  14.045  0.1927  0.2720 -0.1407
  245MPD1    H5 3777   0.182   1.701  14.122 -1.7966  1.0016  1.1214
  245MPD1    N1 3778   0.470   1.409  13.818 -0.6918 -0.1232  0.3185
  245MPD1    H6 3779   0.483   1.396  13.718 -1.8001  0.7756  0.0590
  245MPD1    H7 3780   0.540   1.479  13.841 -0.9239 -0.7533  2.9253
  246MPD1     C 3781   0.742   2.413  10.006 -0.1114  0.0923 -0.5224
  246MPD1    C1 3782   0.692   2.344   9.900 -0.3141 -0.5569 -0.0729
  246MPD1    C2 3783   0.589   2.405   9.837 -0.5576  0.5581  0.0352
  246MPD1    C3 3784   0.565   2.540   9.849  0.5795 -0.0074  0.1512
  246MPD1    C4 3785   0.631   2.606   9.948 -0.2373 -0.3276 -0.5511
  246MPD1    C5 3786   0.708   2.541  10.036  0.0542 -0.0297 -0.4585
  246MPD1     H 3787   0.539   2.342   9.765 -2.4141 -0.3179  2.1113
  246MPD1    H1 3788   0.606   2.710   9.962  0.7651  0.1286 -2.0694
  246MPD1    H2 3789   0.808   2.366  10.079  0.0529  0.6915 -0.2810
  246MPD1    H3 3790   0.758   2.602  10.110 -1.0271 -1.2967  1.2885
  246MPD1     N 3791   0.465   2.602   9.768 -0.4225 -0.8853 -0.0055
  246MPD1    H5 3792   0.431   2.549   9.688  1.5138  0.8089 -1.9382
  246MPD1    N1 3793   0.707   2.204   9.887 -0.3186  0.0721  0.3228
  246MPD1    H6 3794   0.800   2.180   9.919  0.6112  1.6310 -1.1894
  246MPD1    H7 3795   0.649   2.158   9.957  0.5625 -0.5581  0.6245
  247MPD1     C 3796   4.019   0.622  17.103 -0.2713 -0.0424 -0.3045
  247MPD1    C1 3797   3.966   0.633  16.969  0.9320 -0.2045  0.0743
  247MPD1    C2 3798   4.003   0.751  16.895 -1.2740  0.8132  0.3710
  247MPD1    C3 3799   4.087   0.848  16.949 -0.6189 -0.3308  0.3281
  247MPD1    C4 3800   4.149   0.825  17.068  0.7434  0.1301  0.7158
  247MPD1    C5 3801   4.114   0.715  17.146 -0.3219 -0.0192  0.0563
  247MPD1     H 3802   3.970   0.768  16.794 -1.0234  0.0391  0.1568
  247MPD1    H1 3803   4.217   0.893  17.118 -0.9291  1.9943  0.4217
  247MPD1    H2 3804   3.995   0.544  17.174  0.5800 -0.0517 -0.0270
  247MPD1    H3 3805   4.166   0.692  17.239 -0.1394 -0.0971 -0.0656
  247MPD1     N 3806   4.112   0.981  16.895 -0.4644 -0.3180 -0.7744
  247MPD1    H5 3807   4.176   1.042  16.944 -1.7506 -0.3370  0.9218
  247MPD1    N1 3808   3.877   0.536  16.924  0.2232  0.3943  0.0316
  247MPD1    H6 3809   3.880   0.519  16.824  1.8975  0.7713  0.0158
  247MPD1    H7 3810   3.908   0.448  16.965  1.8275  0.6085 -0.7192
  248MPD1     C 3811   4.292   0.140   0.185  0.6455 -1.1780  0.8187
  248MPD1    C1 3812   4.359   0.082   0.293  0.3027 -0.0681 -0.7121
  248MPD1    C2 3813   4.424   0.168   0.382 -0.5458  1.6369 -0.3625
  248MPD1    C3 3814   4.423   0.309   0.354 -0.3903 -0.0122 -0.0082
  248MPD1    C4 3815   4.364   0.356   0.243 -0.5600  0.0086  0.6549
  248MPD1    C5 3816   4.294   0.269   0.162  0.8393 -0.0279 -0.0474
  248MPD1     H 3817   4.475   0.137   0.473 -0.3909  1.2066 -0.5959
  248MPD1    H1 3818   4.363   0.460   0.214  3.1443 -0.1547 -0.0632
  248MPD1    H2 3819   4.223   0.081   0.126  1.2225 -1.1044  0.0720
  248MPD1    H3 3820   4.243   0.308   0.074 -1.2078 -0.2975  1.0161
  248MPD1     N 3821   4.490   0.396   0.451  0.2141 -0.4799  0.5510
  248MPD1    H5 3822   4.539   0.357   0.530  1.9133  1.3389  0.3862
  248MPD1    N1 3823   4.347   4.679   0.321  0.7408  0.6038 -0.4194
  248MPD1    H6 3824   4.433   4.645   0.363 -0.2357 -0.2155  0.9516
  248MPD1    H7 3825   4.317   4.625   0.240  1.0669  1.4140 -1.0704
  249MPD1     C 3826   1.576   0.565  10.946  0.1024 -0.4348  0.2662
  249MPD1    C1 3827   1.671   0.518  11.030  0.3159 -0.2650  0.1695
  249MPD1    C2 3828   1.800   0.518  10.985  0.2719  0.0828 -0.7826
  249MPD1    C3 3829   1.843   0.551  10.862  0.7720  0.0049  0.0838
  249MPD1    C4 3830   1.740   0.603  10.778  0.7500 -0.1755 -0.3181
  249MPD1    C5 3831   1.607   0.618  10.817  0.1001 -0.2653 -0.5238
  249MPD1     H 3832   1.879   0.481  11.048  0.6150  2.3028  0.0623
  249MPD1    H1 3833   1.770   0.632  10.678 -0.2036 -1.4015 -0.9621
  249MPD1    H2 3834   1.470   0.558  10.968 -0.3021 -0.9880 -1.8524
  249MPD1    H3 3835   1.541   0.657  10.741 -0.0154  3.2703  1.3721
  249MPD1     N 3836   1.983   0.540  10.833  0.6865  0.5737 -0.1203
  249MPD1    H5 3837   2.046   0.509  10.906  0.8893  1.9554  0.2737
  249MPD1    N1 3838   1.637   0.453  11.148 -0.4545 -0.4313  0.1954
  249MPD1    H6 3839   1.712   0.439  11.216  0.7003 -2.0318 -1.3870
  249MPD1    H7 3840   1.553   0.499  11.181 -2.3883 -1.0381 -3.8113
  250MPD2     C 3841   3.383   4.243  13.484 -0.3677 -0.0773 -0.1539
  250MPD2    C1 3842   3.302   4.356  13.494 -0.0142  0.0897  0.9357
  250MPD2    C2 3843   3.184   4.347  13.432  0.3246  0.0853  0.0978
  250MPD2    C3 3844   3.148   4.240  13.354 -0.1114 -0.4006  0.5668
  250MPD2    C4 3845   3.232   4.131  13.345  0.2981 -0.9594  0.0512
  250MPD2    C5 3846   3.341   4.132  13.411  0.9229  0.1269 -0.1692
  250MPD2     H 3847   3.110   4.426  13.433 -0.0358 -0.2527  0.2341
  250MPD2    H1 3848   3.196   4.039  13.300  0.7212 -0.3786 -1.4593
  250MPD2    H2 3849   3.478   4.242  13.537  0.3186 -3.4570 -1.4549
  250MPD2    H3 3850   3.390   4.035  13.408  1.0369  0.2007 -0.8111
  250MPD2     N 3851   3.012   4.219  13.308  0.1231  0.4976 -0.3210
  250MPD2    H5 3852   2.992   4.127  13.272 -2.1049  1.0379 -0.4840
  250MPD2    N1 3853   3.346   4.473  13.557 -0.2298  0.3217 -0.1109
  250MPD2    H7 3854   3.442   4.472  13.589 -1.0087 -0.4071  2.2199
  251TMC3    C1 3855   3.350   4.694  13.642  1.1383  0.1879  0.5157
  251TMC3    C2 3856   3.288   0.059  13.714  0.1777  0.3451 -1.4173
  251TMC3    C3 3857   3.363   0.173  13.737  0.3071  1.0421  0.5459
  251TMC3    C4 3858   3.470   4.711  13.593  0.6735  0.4514  0.0405
  251TMC3    C5 3859   3.539   0.094  13.616 -0.0205 -0.0287  0.4555
  251TMC3    C6 3860   3.486   0.198  13.689  0.1893  0.1449 -0.4079
  251TMC3     C 3861   3.267   4.582  13.589  0.8914 -0.5646  0.2498
  251TMC3     O 3862   3.146   4.608  13.574 -0.0376  0.2505  0.3579
  251TMC3     H 3863   3.191   0.044  13.760  1.0469  2.6988  1.1636
  251TMC3    H1 3864   3.523   4.636  13.535  1.2596  0.2684  0.7966
  251TMC3    H2 3865   3.534   0.286  13.728 -0.4814  0.8228 -1.1055
  251TMC3    C7 3866   3.678   0.092  13.584  0.1862  0.3006 -0.5135
  251TMC3    C8 3867   3.289   0.293  13.788 -0.2951 -0.8799  0.1134
  251TMC3    O1 3868   3.729   4.715  13.582 -0.1406 -0.7192  0.5019
  251TMC3    O2 3869   3.194   0.268  13.863 -0.4814  0.4921  0.3069
  252TMC3    C1 3870   3.030   1.317   9.655 -0.6319  0.2250 -0.6329
  252TMC3    C2 3871   3.115   1.410   9.701  0.1847  0.7797  0.6951
  252TMC3    C3 3872   3.171   1.400   9.824 -0.1618 -0.3248 -0.9995
  252TMC3    C4 3873   2.996   1.210   9.729 -0.2044  0.5964 -0.2410
  252TMC3    C5 3874   3.053   1.199   9.849 -0.1988 -0.4443 -0.6892
  252TMC3    C6 3875   3.139   1.296   9.899 -0.2326  0.1625  0.1637
  252TMC3     C 3876   2.945   1.350   9.543  0.3201 -0.1887 -0.0632
  252TMC3     O 3877   2.919   1.470   9.529  0.4017 -0.4666  0.1830
  252TMC3     H 3878   3.140   1.493   9.636 -0.9701 -0.4818 -1.3684
  252TMC3    H1 3879   2.927   1.134   9.694 -0.5641  0.8334 -0.0508
  252TMC3    H2 3880   3.179   1.272   9.997 -1.9583 -2.1231  0.3094
  252TMC3    C7 3881   2.993   1.098   9.935 -0.6632 -0.1027  0.7618
  252TMC3    C8 3882   3.286   1.487   9.850  0.0637 -0.8528 -0.0599
  252TMC3    O1 3883   2.885   1.060   9.898 -0.5367 -0.2692 -0.1992
  252TMC3    O2 3884   3.325   1.562   9.757 -0.2133  0.6452  0.0167
  253MPD2     C 3885   4.395   0.213  15.330  0.1794  0.2704 -0.1324
  253MPD2    C1 3886   4.269   0.167  15.338  0.8474  0.1573  0.3217
  253MPD2    C2 3887   4.216   0.125  15.458  1.3432  0.1862  0.1035
  253MPD2    C3 3888   4.303   0.106  15.571 -0.9642 -0.1720 -0.2447
  253MPD2    C4 3889   4.431   0.155  15.562  0.5668 -0.2549  0.2708
  253MPD2    C5 3890   4.471   0.213  15.443  0.1307 -0.3599  0.0645
  253MPD2     H 3891   4.110   0.105  15.459  1.4150 -0.1591  0.4808
  253MPD2    H1 3892   4.486   0.161  15.655 -0.4563 -1.0282  0.9294
  253MPD2    H2 3893   4.442   0.256  15.242  0.5132  1.2423  0.5153
  253MPD2    H3 3894   4.571   0.254  15.437  0.8890 -1.9639  1.6949
  253MPD2     N 3895   4.272   0.034  15.689 -0.5128  0.6359 -0.2489
  253MPD2    H5 3896   4.348   0.033  15.757 -0.6207  0.5912 -0.1295
  253MPD2    N1 3897   4.180   0.151  15.233  0.3327  0.2224 -1.0330
  253MPD2    H7 3898   4.091   0.103  15.246  0.1819  0.5619 -0.7983
  254TMC3    C1 3899   4.134   4.658  15.843  0.2354 -0.1906 -0.0654
  254TMC3    C2 3900   4.011   4.595  15.862  0.3435 -0.3755 -0.6661
  254TMC3    C3 3901   3.983   4.537  15.977  0.2400  0.0599  0.2115
  254TMC3    C4 3902   4.235   4.646  15.934 -1.3827 -0.1387  0.2857
  254TMC3    C5 3903   4.210   4.560  16.036 -0.3173  0.3318  0.4996
  254TMC3    C6 3904   4.086   4.503  16.058  0.4292 -0.4449  0.1414
  254TMC3     C 3905   4.154   4.702  15.711  0.7503 -0.0875 -0.2231
  254TMC3     O 3906   4.056   4.703  15.639  0.0446 -0.6662 -0.0658
  254TMC3     H 3907   3.931   4.603  15.790 -0.3257  2.4260  0.3835
  254TMC3    H1 3908   4.336   4.671  15.907 -1.3469  0.1574  0.7108
  254TMC3    H2 3909   4.085   4.445  16.149  1.3305 -0.2665  0.2660
  254TMC3    C7 3910   4.288   4.587  16.158 -0.3469  0.4043  0.2151
  254TMC3    C8 3911   3.880   4.595  16.064 -0.5448 -0.2478 -0.3178
  254TMC3    O1 3912   4.244   4.562  16.269 -0.1935  0.3764  0.7001
  254TMC3    O2 3913   3.873   4.549  16.176  0.1619  0.0893 -0.0640
  255MPD2     C 3914   2.734   2.486   9.736 -0.5792  1.0019 -0.6222
  255MPD2    C1 3915   2.772   2.611   9.776  0.4216 -0.2461 -0.7128
  255MPD2    C2 3916   2.762   2.714   9.680  0.3021 -0.3074  0.6452
  255MPD2    C3 3917   2.708   2.696   9.555 -0.9133  0.0989  0.0718
  255MPD2    C4 3918   2.668   2.569   9.524 -0.0210  0.7224  0.5593
  255MPD2    C5 3919   2.679   2.462   9.607 -0.4316  0.0316  0.4994
  255MPD2     H 3920   2.797   2.814   9.705 -1.1092  0.2311  0.4802
  255MPD2    H1 3921   2.616   2.554   9.431 -0.4416  0.9829  0.7534
  255MPD2    H2 3922   2.717   2.406   9.807  1.4382  0.3529 -0.8532
  255MPD2    H3 3923   2.644   2.363   9.578 -0.8953  0.1506  0.6446
  255MPD2     N 3924   2.692   2.813   9.484 -0.3415  0.9909 -0.7120
  255MPD2    H5 3925   2.728   2.902   9.519  0.7021  0.8049 -1.3053
  255MPD2    N1 3926   2.811   2.629   9.910 -0.5413 -0.5035  0.1604
  255MPD2    H7 3927   2.772   2.565   9.979 -0.5434 -0.3516  0.3009
  256TMC3    C1 3928   2.860   2.766  10.094 -0.5671 -0.6808 -1.2152
  256TMC3    C2 3929   2.938   2.863  10.159  0.4348  0.2841  0.2622
  256TMC3    C3 3930   2.911   2.905  10.283  0.5048 -0.0619 -0.3479
  256TMC3    C4 3931   2.747   2.721  10.158  0.2650  0.6534 -0.2081
  256TMC3    C5 3932   2.724   2.763  10.290  0.3194 -0.7791 -0.1408
  256TMC3    C6 3933   2.805   2.861  10.355 -0.0829  0.5150 -0.3740
  256TMC3     C 3934   2.879   2.745   9.951 -0.3180 -0.0337 -0.4366
  256TMC3     O 3935   2.954   2.820   9.889  0.0110 -0.2442 -0.4154
  256TMC3     H 3936   3.022   2.902  10.102  0.6592  2.5032  2.1053
  256TMC3    H1 3937   2.682   2.653  10.106 -2.3150 -0.4312  4.4144
  256TMC3    H2 3938   2.784   2.913  10.448  0.5306 -1.6944  0.9966
  256TMC3    C7 3939   2.588   2.761  10.332 -0.6651 -0.2040 -0.1593
  256TMC3    C8 3940   2.979   3.021  10.335  0.3202  0.3309 -0.3625
  256TMC3    O1 3941   2.511   2.701  10.253 -0.4396  0.4324  0.1477
  256TMC3    O2 3942   2.995   3.025  10.455 -0.4851  0.0617  0.6185
  257MPD2     C 3943   1.791   0.118  13.307  0.4258  0.7441  0.3647
  257MPD2    C1 3944   1.743   0.027  13.210  0.6388 -0.6085 -0.3154
  257MPD2    C2 3945   1.672   4.647  13.248 -0.2720  0.7078  0.0601
  257MPD2    C3 3946   1.639   4.624  13.377 -0.3731 -0.1985 -0.3861
  257MPD2    C4 3947   1.688   4.713  13.478  0.2368 -0.0953  0.1791
  257MPD2    C5 3948   1.758   0.092  13.437 -0.0526  0.3396 -0.7024
  257MPD2     H 3949   1.636   4.574  13.176 -1.3314 -0.6147  1.9255
  257MPD2    H1 3950   1.672   4.694  13.583  0.3969  0.4922  0.3089
  257MPD2    H2 3951   1.855   0.202  13.281  0.4781  0.0805 -1.7014
  257MPD2    H3 3952   1.800   0.166  13.505  1.4913 -0.1236 -1.1521
  257MPD2     N 3953   1.584   4.494  13.415  0.1795  0.4945 -0.4380
  257MPD2    H5 3954   1.565   4.438  13.333  1.0899  0.8890 -0.9257
  257MPD2    N1 3955   1.781   0.051  13.082 -0.3585  0.0864  0.1340
  257MPD2    H7 3956   1.842   0.131  13.080 -1.3988  0.8765 -0.0848
  258TMC3    C1 3957   1.473   4.326  13.542  0.7097 -0.2129 -0.0529
  258TMC3    C2 3958   1.377   4.333  13.632 -0.0491  0.2478  0.1536
  258TMC3    C3 3959   1.361   4.217  13.711 -0.9579  0.3868  0.1635
  258TMC3    C4 3960   1.556   4.218  13.535 -0.2338 -0.1252 -0.2089
  258TMC3    C5 3961   1.543   4.112  13.618 -0.1717 -0.4126 -0.7768
  258TMC3    C6 3962   1.449   4.112  13.717 -0.1132 -0.1240  0.5725
  258TMC3     C 3963   1.527   4.461  13.531  0.1510 -0.0385 -0.3068
  258TMC3     O 3964   1.533   4.520  13.633 -0.0438  0.2073  0.0037
  258TMC3     H 3965   1.324   4.426  13.651 -0.7478 -0.2649  0.7110
  258TMC3    H1 3966   1.639   4.226  13.466 -0.6869 -0.1947 -0.7559
  258TMC3    H2 3967   1.431   4.028  13.782 -2.3368  0.4526  0.7106
  258TMC3    C7 3968   1.631   4.001  13.593 -0.2156 -0.1947 -0.7022
  258TMC3    C8 3969   1.236   4.210  13.782  0.4533  0.3386 -0.0556
  258TMC3    O1 3970   1.647   3.981  13.474  0.0102  0.0456  0.0392
  258TMC3    O2 3971   1.251   4.161  13.895  0.1346  0.0446  0.1391
  259MPD2     C 3972   0.141   1.882   0.626 -0.4280 -0.4874 -0.0140
  259MPD2    C1 3973   0.211   1.778   0.676  0.8586  0.0428 -0.2983
  259MPD2    C2 3974   0.326   1.729   0.613 -0.2078  0.4064  0.0926
  259MPD2    C3 3975   0.370   1.805   0.500 -1.0379 -0.6019  0.7908
  259MPD2    C4 3976   0.297   1.915   0.450  0.0066  0.3608 -0.6528
  259MPD2    C5 3977   0.182   1.945   0.518 -0.0272 -0.1443  0.1078
  259MPD2     H 3978   0.385   1.645   0.648  1.3751  1.4675 -0.0856
  259MPD2    H1 3979   0.316   1.979   0.365 -1.9189  2.6555  0.6286
  259MPD2    H2 3980   0.055   1.930   0.672 -0.8983 -1.6328  0.3108
  259MPD2    H3 3981   0.128   2.031   0.479  0.6173 -0.6444 -1.8747
  259MPD2     N 3982   0.487   1.768   0.430 -0.1615  0.4054  0.0830
  259MPD2    H5 3983   0.537   1.682   0.449  1.1329  1.7757  2.9431
  259MPD2    N1 3984   0.175   1.716   0.795  0.1719  0.0536  0.3394
  259MPD2    H7 3985   0.097   1.765   0.837 -0.2122 -0.1212 -0.1747
  260TMC3    C1 3986   0.687   1.791   0.308  0.2502 -0.0803  0.2489
  260TMC3    C2 3987   0.757   1.845   0.203  0.0859 -0.7043  0.5599
  260TMC3    C3 3988   0.869   1.789   0.163 -1.1733 -0.0180  0.6859
  260TMC3    C4 3989   0.735   1.679   0.364 -0.1733 -0.2034 -0.4105
  260TMC3    C5 3990   0.848   1.615   0.322 -0.2304  0.3140  0.2046
  260TMC3    C6 3991   0.918   1.673   0.217 -0.2572 -0.4200 -0.1686
  260TMC3     C 3992   0.552   1.845   0.334 -0.4214  0.0485  0.0161
  260TMC3     O 3993   0.512   1.943   0.271 -0.0476 -0.0863  0.2520
  260TMC3     H 3994   0.715   1.938   0.164 -0.5099 -1.1325  0.1800
  260TMC3    H1 3995   0.696   1.644   0.460 -0.7718  0.6665 -0.3325
  260TMC3    H2 3996   1.008   1.627   0.176  0.5910 -0.3892  1.6977
  260TMC3    C7 3997   0.864   1.468   0.339  0.3725 -0.5982  0.2584
  260TMC3    C8 3998   0.966   1.878   0.095  0.4560  0.1591  1.0569
  260TMC3    O1 3999   0.912   1.415   0.241  0.1444 -0.5934  0.4096
  260TMC3    O2 4000   0.940   1.993   0.124  0.7387  0.3453 -0.3220
  261MPD2     C 4001   2.506   4.275  12.739 -0.1180  0.6352  0.4776
  261MPD2    C1 4002   2.540   4.390  12.807 -0.3985  0.4272  0.5284
  261MPD2    C2 4003   2.558   4.515  12.746 -0.2879  0.3121 -0.4374
  261MPD2    C3 4004   2.529   4.520  12.608  1.1105  0.0242  0.6359
  261MPD2    C4 4005   2.505   4.399  12.542  0.1275  0.4661 -0.0196
  261MPD2    C5 4006   2.507   4.275  12.603  0.8526  0.4984  0.0265
  261MPD2     H 4007   2.581   4.605  12.802 -0.7446  1.2294 -1.7280
  261MPD2    H1 4008   2.480   4.397  12.436  1.3756 -2.2824 -0.2651
  261MPD2    H2 4009   2.498   4.176  12.783 -1.7553  0.6807  0.2659
  261MPD2    H3 4010   2.485   4.184  12.548  2.5804  0.2658 -0.2782
  261MPD2     N 4011   2.547   4.643  12.533 -0.3963 -0.4897  0.3232
  261MPD2    H5 4012   2.561   4.733  12.577 -2.2021 -0.2552  0.4152
  261MPD2    N1 4013   2.567   4.382  12.945 -0.0053  0.0660 -0.1834
  261MPD2    H7 4014   2.621   4.459  12.985 -0.8664  0.2802  0.5674
  262TMC3    C1 4015   2.565   0.049  12.345  0.1788  0.3698 -0.2356
  262TMC3    C2 4016   2.487   0.148  12.397 -0.7452 -0.2226  0.0699
  262TMC3    C3 4017   2.485   0.265  12.331  0.3655 -0.4426  0.4049
  262TMC3    C4 4018   2.632   0.064  12.224 -0.4620 -0.1576  0.2886
  262TMC3    C5 4019   2.633   0.188  12.167  0.0480 -0.2676  0.1847
  262TMC3    C6 4020   2.562   0.292  12.221 -0.3555 -0.3884  0.4510
  262TMC3     C 4021   2.563   4.645  12.395  0.0666  0.1943 -0.2950
  262TMC3     O 4022   2.583   4.556  12.311 -0.0151  0.0807 -0.4427
  262TMC3     H 4023   2.420   0.126  12.480  2.0450  1.0007  2.6528
  262TMC3    H1 4024   2.689   4.722  12.174 -0.9865 -0.5426  0.2732
  262TMC3    H2 4025   2.553   0.391  12.178  1.0350 -0.4213  0.1122
  262TMC3    C7 4026   2.698   0.199  12.035 -1.4003 -0.2740  0.6300
  262TMC3    C8 4027   2.397   0.370  12.379  0.0068 -0.8499  0.1815
  262TMC3    O1 4028   2.742   0.093  11.992  0.1202  0.4495  0.3649
  262TMC3    O2 4029   2.450   0.482  12.374  0.1814  0.2157  0.1242
  263MPD2     C 4030   3.344   3.418  11.239  0.1400  0.5250 -0.3690
  263MPD2    C1 4031   3.436   3.475  11.326 -0.3883  0.1283  0.4021
  263MPD2    C2 4032   3.502   3.588  11.294  0.2370 -0.2116  0.1433
  263MPD2    C3 4033   3.493   3.640  11.165 -0.5505  1.2406  0.2092
  263MPD2    C4 4034   3.402   3.579  11.073  0.2088 -0.1491 -0.4274
  263MPD2    C5 4035   3.322   3.476  11.119  0.0144  0.2230  0.3841
  263MPD2     H 4036   3.566   3.639  11.366  0.3370 -0.1301 -0.0036
  263MPD2    H1 4037   3.382   3.602  10.969 -0.4014 -2.1776 -0.7610
  263MPD2    H2 4038   3.278   3.339  11.274  2.2319 -0.5413  1.1748
  263MPD2    H3 4039   3.248   3.426  11.059  0.4802  1.1148 -0.9263
  263MPD2     N 4040   3.582   3.747  11.130  0.8311 -0.6956 -0.1417
  263MPD2    H5 4041   3.626   3.802  11.204 -4.1023  2.2598  0.6602
  263MPD2    N1 4042   3.451   3.411  11.447 -0.5132  0.9085 -1.3053
  263MPD2    H7 4043   3.420   3.315  11.459  4.4811 -0.6880 -1.1677
  264TMC3    C1 4044   3.712   3.889  11.007 -0.1983  0.0093  0.3735
  264TMC3    C2 4045   3.705   3.979  11.116  0.0121  0.4377  0.0878
  264TMC3    C3 4046   3.811   4.068  11.114  0.0141  0.2331 -0.0156
  264TMC3    C4 4047   3.798   3.895  10.898  0.4512  0.2090 -0.5822
  264TMC3    C5 4048   3.901   3.984  10.907  0.3983 -0.2703 -0.4027
  264TMC3    C6 4049   3.904   4.068  11.016 -0.6352  0.8950 -0.1790
  264TMC3     C 4050   3.610   3.779  11.002 -0.3524  0.3047 -0.4174
  264TMC3     O 4051   3.591   3.711  10.903  0.2648  0.3002  0.2812
  264TMC3     H 4052   3.623   3.984  11.187  0.2914  1.0828  0.3669
  264TMC3    H1 4053   3.809   3.822  10.819 -0.7856  0.7945 -1.2963
  264TMC3    H2 4054   3.995   4.125  11.034 -0.7308  1.0029 -0.0410
  264TMC3    C7 4055   4.004   3.996  10.799 -0.0775 -0.3666  0.0506
  264TMC3    C8 4056   3.839   4.163  11.220  0.2950 -0.8482 -0.3403
  264TMC3    O1 4057   4.005   3.914  10.710 -0.8314 -0.2059 -0.5306
  264TMC3    O2 4058   3.892   4.267  11.184 -0.1718  0.1514  0.2106
  265MPD2     C 4059   0.496   4.731  15.484 -0.3690  0.2652 -0.5661
  265MPD2    C1 4060   0.543   4.652  15.589  0.4037 -0.3163 -0.6693
  265MPD2    C2 4061   0.635   4.554  15.551  0.5151 -0.0763 -0.7207
  265MPD2    C3 4062   0.654   4.518  15.416 -0.2393  0.1218 -0.2524
  265MPD2    C4 4063   0.604   4.598  15.316 -1.0256 -0.1105  0.7593
  265MPD2    C5 4064   0.535   4.708  15.352 -0.3451 -0.4473 -0.1573
  265MPD2     H 4065   0.678   4.490  15.627 -0.9984  0.5944  0.7370
  265MPD2    H1 4066   0.618   4.578  15.210 -3.2720 -0.8782  0.6082
  265MPD2    H2 4067   0.435   0.082  15.511 -0.9521  0.1033 -1.3880
  265MPD2    H3 4068   0.502   0.025  15.262 -0.3231  0.2078  0.2014
  265MPD2     N 4069   0.736   4.407  15.379  0.0791  0.2584  0.3212
  265MPD2    H5 4070   0.751   4.402  15.279  2.0183  1.9241  0.5347
  265MPD2    N1 4071   0.521   4.683  15.725  0.0183 -0.3888  0.2096
  265MPD2    H7 4072   0.582   4.645  15.796  0.6612  0.3125  0.0313
  266TMC3    C1 4073   0.433   0.045  15.922 -0.3244 -0.4299 -0.4038
  266TMC3    C2 4074   0.540   0.077  15.998  0.1773  0.2463  0.9292
  266TMC3    C3 4075   0.530   0.163  16.103 -0.2214  0.3025 -0.3197
  266TMC3    C4 4076   0.312   0.094  15.968  0.1403 -0.6217 -0.0587
  266TMC3    C5 4077   0.309   0.192  16.058  1.2872 -0.0021 -0.8466
  266TMC3    C6 4078   0.415   0.229  16.140 -0.0307 -0.6369 -0.5510
  266TMC3     C 4079   0.450   0.052  15.776  0.5131 -0.1294  0.4266
  266TMC3     O 4080   0.376   0.131  15.725 -0.3952 -0.0672 -0.0226
  266TMC3     H 4081   0.634   0.025  15.982 -0.4054 -0.1957 -1.0619
  266TMC3    H1 4082   0.223   0.071  15.910  0.1300  0.3266 -0.4169
  266TMC3    H2 4083   0.400   0.280  16.234 -1.1325  0.9972 -1.6309
  266TMC3    C7 4084   0.185   0.277  16.057  0.6823  0.0709 -0.3193
  266TMC3    C8 4085   0.653   0.180  16.179  0.3372  0.4344  0.0144
  266TMC3    O1 4086   0.094   0.232  15.994 -0.0650  0.0406  0.7626
  266TMC3    O2 4087   0.741   0.096  16.164 -0.4488  0.5813 -0.2448
  267MPD2     C 4088   2.990   1.516   0.631  0.2506  0.1608  0.2803
  267MPD2    C1 4089   3.127   1.522   0.610 -0.5654 -0.0452  0.5923
  267MPD2    C2 4090   3.173   1.562   0.493 -0.6076 -0.2578  0.6042
  267MPD2    C3 4091   3.087   1.600   0.389  0.2895  0.0384  0.0231
  267MPD2    C4 4092   2.952   1.587   0.405 -0.2863 -0.7024 -0.4979
  267MPD2    C5 4093   2.904   1.539   0.524  0.8515  0.4611  0.8359
  267MPD2     H 4094   3.276   1.565   0.461 -0.2311 -0.6863  1.7877
  267MPD2    H1 4095   2.880   1.627   0.334 -0.0416  1.7189  0.6318
  267MPD2    H2 4096   2.953   1.473   0.724  0.0664  0.7475  0.4791
  267MPD2    H3 4097   2.797   1.531   0.534  0.6930 -0.6714 -1.7230
  267MPD2     N 4098   3.132   1.632   0.262  0.5352  0.1945  0.2403
  267MPD2    H5 4099   3.067   1.621   0.184  1.0107  0.0261 -0.1281
  267MPD2    N1 4100   3.216   1.497   0.715  0.2744  0.9657 -0.3161
  267MPD2    H7 4101   3.173   1.472   0.804 -0.6722 -0.2671 -1.1087
  268TMC3    C1 4102   3.426   1.447   0.821  0.2926 -0.0653  0.2237
  268TMC3    C2 4103   3.566   1.445   0.811  0.4283  0.6632  0.1704
  268TMC3    C3 4104   3.637   1.379   0.905 -0.2938  0.1686 -0.1038
  268TMC3    C4 4105   3.361   1.382   0.922  0.1294 -0.0994  0.3085
  268TMC3    C5 4106   3.448   1.314   1.007 -0.0959  0.0980 -0.6530
  268TMC3    C6 4107   3.585   1.305   1.002 -0.8782  0.5631 -0.2857
  268TMC3     C 4108   3.350   1.498   0.705  0.3807  0.0831  0.2912
  268TMC3     O 4109   3.427   1.514   0.610 -0.3553 -0.1186 -0.5093
  268TMC3     H 4110   3.617   1.502   0.734 -0.8343 -0.4707 -1.5000
  268TMC3    H1 4111   3.254   1.373   0.936  0.5185  0.1661  3.4590
  268TMC3    H2 4112   3.646   1.267   1.083 -0.7108  0.9644 -0.2267
  268TMC3    C7 4113   3.373   1.252   1.108 -0.4829  0.6843 -0.1741
  268TMC3    C8 4114   3.784   1.377   0.896  1.4866  0.0329  0.5793
  268TMC3    O1 4115   3.266   1.299   1.137  0.2859  0.0293  0.8539
  268TMC3    O2 4116   3.846   1.395   1.000 -0.0365 -0.1168  0.0116
  269MPD2     C 4117   3.491   0.322  15.814 -0.3977 -0.8067 -0.3287
  269MPD2    C1 4118   3.370   0.335  15.886  0.2862  0.1804  0.1288
  269MPD2    C2 4119   3.309   0.464  15.907  0.0658 -0.2916 -0.0282
  269MPD2    C3 4120   3.374   0.567  15.846 -0.2428  0.4806 -0.0828
  269MPD2    C4 4121   3.497   0.557  15.783  1.0371 -0.2202 -0.3715
  269MPD2    C5 4122   3.556   0.437  15.775 -0.5959  0.2864  0.2216
  269MPD2     H 4123   3.213   0.476  15.957  0.2537  0.7161  0.1027
  269MPD2    H1 4124   3.542   0.639  15.728 -0.5264  0.9525  0.0936
  269MPD2    H2 4125   3.531   0.223  15.796  0.3288 -0.7265  0.8848
  269MPD2    H3 4126   3.653   0.426  15.727 -0.6188  0.5027  0.1277
  269MPD2     N 4127   3.301   0.683  15.837 -0.1498  0.5963  0.0066
  269MPD2    H5 4128   3.213   0.693  15.886  0.5236  0.6124  1.1967
  269MPD2    N1 4129   3.327   0.216  15.942 -0.0530  0.3000  0.1905
  269MPD2    H7 4130   3.359   0.128  15.904  0.9091  1.2313 -1.1655
  270TMC3    C1 4131   3.190   0.064  16.054  0.0116 -0.3688 -0.1335
  270TMC3    C2 4132   3.064   0.004  16.031  0.0207  0.1042 -0.1570
  270TMC3    C3 4133   3.050   4.608  16.053 -0.0817  0.2626  0.5320
  270TMC3    C4 4134   3.298   4.733  16.097  0.4299  0.5013  0.0527
  270TMC3    C5 4135   3.285   4.595  16.112 -0.3569 -0.7805 -0.4323
  270TMC3    C6 4136   3.158   4.537  16.107 -0.2906  0.2327 -0.0563
  270TMC3     C 4137   3.214   0.201  16.020  0.3129 -0.0485  0.3189
  270TMC3     O 4138   3.121   0.275  16.040  0.1017 -0.0961  0.5637
  270TMC3     H 4139   2.984   0.061  15.984  1.4054  2.4486  0.3378
  270TMC3    H1 4140   3.396   0.037  16.124  0.6601 -2.2870  3.2342
  270TMC3    H2 4141   3.135   4.432  16.116  0.3270  0.0231 -1.0196
  270TMC3    C7 4142   3.386   4.526  16.037 -0.3538  0.3223  0.2252
  270TMC3    C8 4143   2.983   4.523  15.959  0.4915  0.1941  0.4172
  270TMC3    O1 4144   3.503   4.559  16.056 -0.6829 -0.1564 -0.5107
  270TMC3    O2 4145   3.061   4.437  15.918  0.3824 -0.4828  0.0297
  271MPD2     C 4146   2.640   4.450  14.159 -0.2707  0.7661 -0.5606
  271MPD2    C1 4147   2.542   4.462  14.257 -0.8912  0.8323  0.6944
  271MPD2    C2 4148   2.429   4.534  14.230 -0.7316 -0.7653 -0.2379
  271MPD2    C3 4149   2.414   4.596  14.102 -0.6115  0.5107  0.1977
  271MPD2    C4 4150   2.511   4.573  14.004 -0.8081  0.1974  0.0771
  271MPD2    C5 4151   2.619   4.502  14.033 -0.4829  0.2307  0.1198
  271MPD2     H 4152   2.354   4.527  14.308 -0.2263  3.9669  0.6491
  271MPD2    H1 4153   2.519   4.609  13.902  0.0939  3.7533  1.4170
  271MPD2    H2 4154   2.732   4.395  14.176 -1.5069 -1.7780 -2.1752
  271MPD2    H3 4155   2.698   4.514  13.960 -1.0232 -0.9218 -0.6557
  271MPD2     N 4156   2.310   4.682  14.064  0.0822 -0.3383 -0.0241
  271MPD2    H5 4157   2.319   0.003  13.979  1.4151  1.0333  1.0004
  271MPD2    N1 4158   2.552   4.397  14.386  0.2414  0.0487 -0.3107
  271MPD2    H7 4159   2.488   4.428  14.458  1.8718  1.8459  0.3533
  272TMC3    C1 4160   2.646   4.261  14.562  0.4923  0.3358 -0.0732
  272TMC3    C2 4161   2.754   4.180  14.600  1.1454 -0.7808 -0.1447
  272TMC3    C3 4162   2.776   4.159  14.732  0.3450 -0.8480  0.5589
  272TMC3    C4 4163   2.587   4.339  14.656 -0.4139 -0.0366  0.2768
  272TMC3    C5 4164   2.614   4.318  14.783  0.3613 -0.2764  0.0540
  272TMC3    C6 4165   2.711   4.232  14.825  0.1693 -0.3157  0.4038
  272TMC3     C 4166   2.647   4.304  14.416  0.1236  1.6496  0.3360
  272TMC3     O 4167   2.706   4.230  14.341 -0.3037  0.3493 -0.2573
  272TMC3     H 4168   2.806   4.123  14.524  0.2199  0.5023 -1.7327
  272TMC3    H1 4169   2.508   4.407  14.628  0.3778 -0.2037 -2.4071
  272TMC3    H2 4170   2.730   4.223  14.931  1.7575  0.6255  0.2134
  272TMC3    C7 4171   2.520   4.386  14.875  1.1309  0.4993 -0.0669
  272TMC3    C8 4172   2.876   4.066  14.779 -0.3217 -0.9344 -0.5381
  272TMC3    O1 4173   2.410   4.412  14.824 -0.4112  0.5362 -0.7929
  272TMC3    O2 4174   2.948   4.108  14.871  0.1275 -0.4774 -0.5528
  273MPD2     C 4175   4.235   2.662  11.042 -0.3122 -0.5260  0.1239
  273MPD2    C1 4176   4.160   2.703  11.144 -0.2157  0.1480  0.5260
  273MPD2    C2 4177   4.034   2.656  11.155 -0.5728  0.2463 -0.1251
  273MPD2    C3 4178   3.984   2.561  11.069 -0.2626 -0.1301 -0.4730
  273MPD2    C4 4179   4.056   2.529  10.956 -0.5251  0.6135  0.5959
  273MPD2    C5 4180   4.189   2.577  10.945 -0.5665  0.3310 -0.9488
  273MPD2     H 4181   3.969   2.683  11.238  0.3667  0.5149  0.5155
  273MPD2    H1 4182   4.023   2.452  10.887  0.4205  1.1663 -0.4734
  273MPD2    H2 4183   4.343   2.671  11.031 -0.6013  4.1889  1.1750
  273MPD2    H3 4184   4.262   2.548  10.870  0.3623 -1.0392  0.4837
  273MPD2     N 4185   3.848   2.520  11.098  0.2806 -0.0377  0.3369
  273MPD2    H5 4186   3.813   2.547  11.189  0.6893 -0.0389  0.4951
  273MPD2    N1 4187   4.218   2.778  11.246  0.5913 -0.0733 -0.2412
  273MPD2    H7 4188   4.303   2.830  11.229  0.1125  0.5165 -0.8339
  274TMC3    C1 4189   3.649   2.387  11.084 -0.0652 -0.7932 -0.3616
  274TMC3    C2 4190   3.558   2.337  10.996  0.2989 -0.6713  0.4618
  274TMC3    C3 4191   3.425   2.315  11.040 -0.7405  0.3284  0.2544
  274TMC3    C4 4192   3.611   2.430  11.208  0.0849  0.0935  0.4334
  274TMC3    C5 4193   3.482   2.412  11.247  0.8061  0.3334 -0.0434
  274TMC3    C6 4194   3.393   2.362  11.165 -0.3166 -0.2553  0.3829
  274TMC3     C 4195   3.769   2.439  11.020  0.1199  0.7678 -0.3219
  274TMC3     O 4196   3.785   2.399  10.907 -0.4430  0.3375  0.2519
  274TMC3     H 4197   3.578   2.332  10.890  1.5848  1.4802  0.5888
  274TMC3    H1 4198   3.686   2.466  11.278  1.4968 -1.5487 -0.2497
  274TMC3    H2 4199   3.296   2.333  11.204 -0.4618 -1.2211 -0.6772
  274TMC3    C7 4200   3.453   2.421  11.393 -0.3071  0.4266  0.8611
  274TMC3    C8 4201   3.326   2.297  10.939 -0.1079 -0.4746  0.6330
  274TMC3    O1 4202   3.352   2.363  11.433 -0.1700  0.5214 -0.0676
  274TMC3    O2 4203   3.355   2.238  10.834  0.1768  0.1357 -0.7956
  275MPD2     C 4204   3.994   0.827  14.750  0.1579  0.2223 -0.7420
  275MPD2    C1 4205   3.888   0.903  14.796  0.5807  0.6000  0.2060
  275MPD2    C2 4206   3.769   0.841  14.823  0.4171  0.0503 -0.6051
  275MPD2    C3 4207   3.758   0.701  14.799  0.2545 -0.3080 -1.2263
  275MPD2    C4 4208   3.861   0.630  14.741  0.0412 -0.0446 -0.5317
  275MPD2    C5 4209   3.980   0.691  14.723  0.5378 -0.2615 -0.1958
  275MPD2     H 4210   3.697   0.902  14.876 -0.2479 -1.2549 -0.0090
  275MPD2    H1 4211   3.846   0.525  14.717 -1.0884 -0.3153  1.3118
  275MPD2    H2 4212   4.090   0.865  14.717 -0.3814  0.0451 -2.5268
  275MPD2    H3 4213   4.071   0.644  14.687 -0.2308 -1.9522  0.1119
  275MPD2     N 4214   3.650   0.632  14.853  0.3649 -0.8098 -0.0013
  275MPD2    H5 4215   3.666   0.532  14.859  0.6643 -0.7194  0.6595
  275MPD2    N1 4216   3.899   1.044  14.832  0.2916 -0.3906 -0.5451
  275MPD2    H7 4217   3.809   1.080  14.863  0.5072 -0.8258  0.6031
  276TMC3    C1 4218   4.012   1.195  14.967  0.0094  0.2723  0.3676
  276TMC3    C2 4219   3.906   1.186  15.051 -0.2769 -0.2521 -0.6815
  276TMC3    C3 4220   3.922   1.225  15.182 -0.1336  0.3970 -0.5767
  276TMC3    C4 4221   4.137   1.236  15.004 -0.5155 -0.6547  0.3744
  276TMC3    C5 4222   4.152   1.272  15.137  0.1647  0.4950 -0.6173
  276TMC3    C6 4223   4.047   1.266  15.227 -0.2830 -0.1342  0.1656
  276TMC3     C 4224   4.011   1.123  14.840 -0.2398  0.6485  0.3256
  276TMC3     O 4225   4.123   1.091  14.801 -0.6159 -0.3891  0.0867
  276TMC3     H 4226   3.805   1.162  15.019 -1.1108 -0.5961  2.1890
  276TMC3    H1 4227   4.214   1.260  14.931  1.8918 -2.4906  2.3493
  276TMC3    H2 4228   4.068   1.286  15.331  0.2067 -0.4949  0.1369
  276TMC3    C7 4229   4.275   1.324  15.202 -0.5683  0.0998  0.4508
  276TMC3    C8 4230   3.861   1.135  15.266  0.1942 -0.5094  0.4454
  276TMC3    O1 4231   4.256   1.384  15.308  0.5570  0.0603 -0.1075
  276TMC3    O2 4232   3.816   1.169  15.373 -0.0773  0.2270 -0.1981
  277MPD2     C 4233   1.194   4.669  13.619 -0.7144  0.3858 -0.0735
  277MPD2    C1 4234   1.058   4.678  13.587  0.0252  0.4768  0.5247
  277MPD2    C2 4235   0.975   4.657  13.694 -0.0029  0.3320 -0.2474
  277MPD2    C3 4236   1.020   4.622  13.822  0.0747  0.2439  0.3581
  277MPD2    C4 4237   1.153   4.644  13.850 -0.4638  0.0657  0.1060
  277MPD2    C5 4238   1.242   4.659  13.744 -0.4568 -0.0850 -0.6775
  277MPD2     H 4239   0.868   4.671  13.694 -0.3322 -2.2549 -3.3059
  277MPD2    H1 4240   1.198   4.624  13.947  1.2342 -0.1622 -0.7397
  277MPD2    H2 4241   1.264   4.668  13.537  1.7367 -4.6063  2.1246
  277MPD2    H3 4242   1.347   4.664  13.774 -0.5487 -3.3716  0.2937
  277MPD2     N 4243   0.928   4.582  13.915  0.2929  0.1871 -0.2283
  277MPD2    H5 4244   0.834   4.564  13.880 -0.3383  1.6740  0.7196
  277MPD2    N1 4245   1.015   4.706  13.459  0.4401  0.3034  0.0139
  277MPD2    H7 4246   1.084   0.010  13.395  0.6667  0.4213  0.3279
  278TMC3    C1 4247   0.805   4.560  14.107  0.0575  0.1790 -0.2546
  278TMC3    C2 4248   0.796   4.461  14.189 -0.7679  0.1244  0.1637
  278TMC3    C3 4249   0.680   4.390  14.187  0.3407  0.6558  0.5748
  278TMC3    C4 4250   0.705   4.621  14.036 -0.1376 -0.3454  0.2851
  278TMC3    C5 4251   0.582   4.558  14.042  0.0847  0.8764 -0.3761
  278TMC3    C6 4252   0.569   4.441  14.115  0.2232 -0.7113  0.3428
  278TMC3     C 4253   0.937   4.580  14.049 -0.2550  0.7309  0.2351
  278TMC3     O 4254   1.035   4.593  14.123 -0.0045 -0.3261  0.0500
  278TMC3     H 4255   0.879   4.423  14.247  0.9521  1.4378 -1.4430
  278TMC3    H1 4256   0.727   4.714  13.986  0.9709  0.6261  2.5931
  278TMC3    H2 4257   0.474   4.389  14.115  0.3160 -0.8705 -0.1686
  278TMC3    C7 4258   0.475   4.593  13.960 -0.3950 -0.5344 -0.6064
  278TMC3    C8 4259   0.668   4.263  14.260  0.0346  0.2210  0.4582
  278TMC3    O1 4260   0.502   4.671  13.871  0.1529 -0.4062  0.1059
  278TMC3    O2 4261   0.753   4.246  14.342  0.2680  0.0580  0.1879
  279MPD2     C 4262   0.462   0.238   0.650  0.3839  0.1940 -0.1735
  279MPD2    C1 4263   0.410   0.123   0.601  0.8860 -0.0597 -0.4519
  279MPD2    C2 4264   0.381   0.111   0.461  0.4353 -0.2531  0.0719
  279MPD2    C3 4265   0.402   0.217   0.373 -0.1039 -0.4349 -0.0619
  279MPD2    C4 4266   0.458   0.332   0.423  0.5639 -0.2087 -0.6954
  279MPD2    C5 4267   0.466   0.344   0.567  0.9496 -0.9479 -0.2061
  279MPD2     H 4268   0.356   0.014   0.421 -2.8983  0.5499  0.2369
  279MPD2    H1 4269   0.486   0.410   0.354 -3.2973  0.8287 -1.1211
  279MPD2    H2 4270   0.492   0.244   0.755 -0.2025 -2.5207  0.1423
  279MPD2    H3 4271   0.496   0.440   0.607 -1.6539 -0.5452  0.8044
  279MPD2     N 4272   0.382   0.210   0.231 -0.3927  0.6718 -0.1767
  279MPD2    H5 4273   0.405   0.297   0.185  1.1845 -0.5829 -1.7446
  279MPD2    N1 4274   0.406   0.016   0.688 -0.5545  0.1647  0.0559
  279MPD2    H7 4275   0.414   0.031   0.788 -1.7427 -0.5894  0.2691
  280TMC3    C1 4276   0.285   4.569   0.783  0.2163 -0.5071  0.0666
  280TMC3    C2 4277   0.236   4.451   0.746 -0.3418  0.3576  0.0523
  280TMC3    C3 4278   0.105   4.426   0.767  0.5258  0.0627 -0.6191
  280TMC3    C4 4279   0.211   4.664   0.844 -0.2070  0.0814  0.0493
  280TMC3    C5 4280   0.076   4.637   0.858  0.2618 -0.0469  0.3075
  280TMC3    C6 4281   0.021   4.515   0.830  0.0024 -0.5196  0.4597
  280TMC3     C 4282   0.362   4.626   0.666 -0.8888 -0.2415 -0.2854
  280TMC3     O 4283   0.350   4.571   0.557  0.4072 -0.5827 -0.5934
  280TMC3     H 4284   0.305   4.374   0.711 -0.0526  0.3998  0.5372
  280TMC3    H1 4285   0.258   0.021   0.882  1.5839 -0.2567 -1.3527
  280TMC3    H2 4286   4.651   4.488   0.846 -0.1544  0.6596  1.3698
  280TMC3    C7 4287   4.730   0.015   0.902 -0.7332  0.1884  0.0803
  280TMC3    C8 4288   0.047   4.306   0.704  0.2480 -0.0084  0.0992
  280TMC3    O1 4289   0.063   0.103   0.955  0.4959  0.1279 -0.0265
  280TMC3    O2 4290   4.705   4.244   0.782  0.3799 -0.0866  0.2948
  281TMC3    C1 4291   3.964   4.651  13.924 -0.4188  0.2704  0.1749
  281TMC3    C2 4292   4.051   4.729  13.851 -0.1032 -0.4376 -0.0970
  281TMC3    C3 4293   4.091   4.663  13.734  0.3847 -0.1235 -0.5035
  281TMC3    C4 4294   3.900   4.536  13.882 -0.5552 -0.1515 -0.2091
  281TMC3    C5 4295   3.952   4.475  13.776 -0.1110 -0.5449 -0.3523
  281TMC3    C6 4296   4.046   4.542  13.702 -0.6737 -0.2115  0.1195
  281TMC3     C 4297   3.875   4.712  14.024 -0.0467  0.5193 -0.3736
  281TMC3     O 4298   3.827   4.639  14.102 -0.6612  0.2293  0.0956
  281TMC3     H 4299   4.088   0.095  13.869 -0.1951 -0.1669 -1.4512
  281TMC3    H1 4300   3.827   4.487  13.946 -0.2257 -1.6800 -1.0202
  281TMC3    H2 4301   4.111   4.497  13.627  1.4886  2.5537  0.3093
  281TMC3    C7 4302   3.883   4.369  13.713 -0.4811  0.1873  0.2066
  281TMC3    C8 4303   4.213   4.713  13.669 -0.6342  0.6022 -0.2919
  281TMC3    O1 4304   3.943   4.287  13.640  0.5540 -0.2359  0.5538
  281TMC3    O2 4305   4.316   4.645  13.672  0.3250 -0.5386 -0.3074
  282MPD2     C 4306   0.518   1.794  15.453 -0.6972  0.5074 -0.5299
  282MPD2    C1 4307   0.394   1.801  15.508  0.2507 -0.2376  0.3127
  282MPD2    C2 4308   0.292   1.752  15.432 -1.0351 -0.0107 -0.4012
  282MPD2    C3 4309   0.310   1.701  15.306  0.4809  0.5107 -0.3256
  282MPD2    C4 4310   0.436   1.696  15.253  0.1617  0.0973 -0.1209
  282MPD2    C5 4311   0.545   1.743  15.325 -1.0415 -0.3923 -0.0642
  282MPD2     H 4312   0.189   1.751  15.465 -0.7624 -0.2256  0.4424
  282MPD2    H1 4313   0.459   1.682  15.148  1.4215 -0.6484  0.2628
  282MPD2    H2 4314   0.605   1.829  15.508 -1.5040  3.2382 -0.9774
  282MPD2    H3 4315   0.645   1.720  15.290 -1.0679  0.9046 -0.9783
  282MPD2     N 4316   0.196   1.662  15.234  0.4337  0.0804  0.0478
  282MPD2    H5 4317   0.106   1.670  15.279  0.2505  1.2717 -0.5176
  282MPD2    N1 4318   0.357   1.851  15.635 -0.1358 -0.3144 -0.1303
  282MPD2    H7 4319   0.261   1.837  15.665 -0.3263 -0.5351 -0.8352
  283TMC3    C1 4320   0.402   1.912  15.856  0.0595 -0.8763 -0.3012
  283TMC3    C2 4321   0.462   2.002  15.940 -0.5309 -0.4101 -0.1464
  283TMC3    C3 4322   0.465   1.973  16.076 -0.1566  0.1413  0.0269
  283TMC3    C4 4323   0.339   1.801  15.900 -0.3226 -0.5499 -0.6334
  283TMC3    C5 4324   0.333   1.777  16.041  0.5442  0.3008 -0.2703
  283TMC3    C6 4325   0.395   1.867  16.129  0.1846  0.5556  0.1571
  283TMC3     C 4326   0.442   1.913  15.719 -0.6274 -0.4466  0.2616
  283TMC3     O 4327   0.552   1.968  15.702 -0.0355 -0.2193  0.4502
  283TMC3     H 4328   0.508   2.092  15.901  0.2786 -1.1548 -0.9316
  283TMC3    H1 4329   0.310   1.725  15.829 -1.4864 -0.2401 -0.4833
  283TMC3    H2 4330   0.393   1.846  16.236  0.0489  1.0163  0.2461
  283TMC3    C7 4331   0.255   1.668  16.091 -0.4013 -0.2505  0.2186
  283TMC3    C8 4332   0.544   2.054  16.168 -0.3752  0.7240  0.6731
  283TMC3    O1 4333   0.218   1.679  16.204 -0.1827 -0.2955 -0.6474
  283TMC3    O2 4334   0.511   2.055  16.286 -0.6438 -0.1035 -0.8469
  284MPD2     C 4335   3.700   0.566  12.620 -0.2492  0.1174  0.2668
  284MPD2    C1 4336   3.778   0.539  12.506  0.4877  0.2234 -0.4508
  284MPD2    C2 4337   3.919   0.529  12.529 -0.1416 -0.0078 -0.0795
  284MPD2    C3 4338   3.975   0.541  12.659 -0.1671  0.2245 -0.1490
  284MPD2    C4 4339   3.888   0.554  12.763 -0.5158 -0.6046  0.7849
  284MPD2    C5 4340   3.756   0.576  12.744  0.0223 -0.3737  0.8891
  284MPD2     H 4341   3.977   0.513  12.439 -0.0879 -2.1982  0.3297
  284MPD2    H1 4342   3.916   0.538  12.866 -0.7769  1.4537  1.1662
  284MPD2    H2 4343   3.594   0.588  12.605 -0.0968  0.3847 -0.4203
  284MPD2    H3 4344   3.683   0.580  12.825  0.7428 -0.7876  1.5618
  284MPD2     N 4345   4.113   0.533  12.687  0.1780 -0.3445  0.5663
  284MPD2    H5 4346   4.149   0.531  12.781  2.3703  1.3270 -0.2308
  284MPD2    N1 4347   3.736   0.532  12.373  0.3170  0.3845  0.0060
  284MPD2    H7 4348   3.804   0.509  12.301 -0.4120 -1.1002 -0.2027
  285TMC3    C1 4349   3.628   0.642  12.197 -0.0969 -0.0336 -0.3283
  285TMC3    C2 4350   3.723   0.593  12.111  0.3882 -0.4148 -0.3513
  285TMC3    C3 4351   3.748   0.646  11.988 -0.4945  0.1706  0.6687
  285TMC3    C4 4352   3.572   0.762  12.170  0.6304 -0.5328  0.1048
  285TMC3    C5 4353   3.592   0.805  12.042  0.5133 -0.0969 -0.1887
  285TMC3    C6 4354   3.675   0.749  11.946 -0.3860 -0.2814  0.7507
  285TMC3     C 4355   3.625   0.596  12.328  0.3317  0.4792 -0.3747
  285TMC3     O 4356   3.534   0.645  12.393 -0.2553 -0.6108  0.2744
  285TMC3     H 4357   3.758   0.492  12.129 -1.0333 -0.7228  0.6337
  285TMC3    H1 4358   3.494   0.810  12.228  0.7988 -3.6177  2.8933
  285TMC3    H2 4359   3.668   0.793  11.847  0.3079 -0.5455  0.5891
  285TMC3    C7 4360   3.600   0.950  12.040  0.5175 -0.3099  0.0477
  285TMC3    C8 4361   3.843   0.582  11.900  0.0258 -0.9952  0.6487
  285TMC3    O1 4362   3.557   1.017  11.947 -0.0092 -0.2103  0.1975
  285TMC3    O2 4363   3.899   0.476  11.931 -0.7888  0.0531 -0.3139
  286MPD2     C 4364   3.981   4.141   1.749 -0.1988  0.7718  0.1831
  286MPD2    C1 4365   4.048   4.154   1.629 -0.4077 -0.4438  0.4477
  286MPD2    C2 4366   4.187   4.167   1.624  1.1535  0.1992 -0.6765
  286MPD2    C3 4367   4.265   4.146   1.742  0.4646 -1.3978  0.1969
  286MPD2    C4 4368   4.193   4.112   1.854 -0.4340 -0.0628 -0.1107
  286MPD2    C5 4369   4.059   4.125   1.861  0.1562  0.1419  0.2931
  286MPD2     H 4370   4.242   4.177   1.531  1.9101  1.6749 -0.0643
  286MPD2    H1 4371   4.246   4.083   1.945  0.6347 -1.3960 -1.1458
  286MPD2    H2 4372   3.874   4.149   1.765 -0.2774 -0.8368  0.4429
  286MPD2    H3 4373   4.005   4.119   1.955 -2.1472 -2.0915 -1.1661
  286MPD2     N 4374   4.408   4.141   1.745  0.1836 -0.6677  0.0302
  286MPD2    H5 4375   4.446   4.097   1.829 -1.0226 -1.2040  0.2966
  286MPD2    N1 4376   3.981   4.158   1.505  0.6172 -0.0125  0.3299
  286MPD2    H7 4377   4.037   4.188   1.426  2.6851 -0.4856  1.6288
  287TMC3    C1 4378   4.631   4.164   1.649  0.3343 -0.0472 -0.0473
  287TMC3    C2 4379   4.684   4.127   1.533  0.0570 -0.7349 -0.4219
  287TMC3    C3 4380   0.025   4.012   1.533  0.0939 -0.0347  0.8512
  287TMC3    C4 4381   4.675   4.114   1.771 -0.0067  0.6974 -0.5567
  287TMC3    C5 4382   0.027   4.005   1.770  0.2475 -0.2736 -0.3970
  287TMC3    C6 4383   0.057   3.946   1.652 -0.1809  0.1084 -0.2665
  287TMC3     C 4384   4.482   4.179   1.635 -0.1828 -0.2522  0.3893
  287TMC3     O 4385   4.445   4.242   1.538  0.6582  0.0621  0.2310
  287TMC3     H 4386   4.636   4.163   1.443 -1.6907 -2.8665 -0.3325
  287TMC3    H1 4387   4.645   4.171   1.858  3.4559  0.3349  0.8643
  287TMC3    H2 4388   0.088   3.843   1.644  2.3525  0.8512 -0.2133
  287TMC3    C7 4389   0.122   4.001   1.874 -0.1211  1.4397 -0.6556
  287TMC3    C8 4390   4.720   3.916   1.434 -0.8731  0.0441  0.3663
  287TMC3    O1 4391   0.096   4.077   1.968  0.2264 -0.2697 -0.5217
  287TMC3    O2 4392   4.708   3.796   1.464 -0.0820 -0.2643  0.4127
  288TMC3    C1 4393   0.852   3.836  14.850  0.0229  0.4026  0.8874
  288TMC3    C2 4394   0.749   3.878  14.931  0.7775 -0.4338  0.1345
  288TMC3    C3 4395   0.718   4.008  14.926  0.2848  0.2900 -0.7605
  288TMC3    C4 4396   0.918   3.918  14.764  0.2792  0.1582  0.3858
  288TMC3    C5 4397   0.884   4.049  14.767  0.0240  0.0145  0.3972
  288TMC3    C6 4398   0.786   4.097  14.846 -0.4097 -0.5109 -0.1153
  288TMC3     C 4399   0.838   3.697  14.810  0.4263  0.0867  0.4432
  288TMC3     O 4400   0.828   3.668  14.692  0.3025 -0.6266  0.5889
  288TMC3     H 4401   0.678   3.812  14.980  0.0273 -0.1701 -0.5965
  288TMC3    H1 4402   1.006   3.879  14.714 -0.1127 -1.3620  0.8694
  288TMC3    H2 4403   0.762   4.202  14.854  0.9333 -0.3590  1.8227
  288TMC3    C7 4404   0.947   4.143  14.668 -0.4547  0.4252  0.6193
  288TMC3    C8 4405   0.625   4.069  15.025 -0.4189  0.6835 -0.7089
  288TMC3    O1 4406   0.935   4.264  14.685 -0.4560 -0.3211 -0.6268
  288TMC3    O2 4407   0.636   4.191  15.039  0.2039  0.1637  0.0880
  289MPD2     C 4408   0.799   3.190  13.884  0.5857 -0.3721 -0.4805
  289MPD2    C1 4409   0.853   3.208  14.004 -0.6751 -0.5969  0.4024
  289MPD2    C2 4410   0.778   3.211  14.123  0.6711 -0.2825  0.3365
  289MPD2    C3 4411   0.645   3.166  14.117 -0.1145  1.0963 -0.0633
  289MPD2    C4 4412   0.593   3.135  13.989 -0.1820 -0.3922 -0.0950
  289MPD2    C5 4413   0.668   3.150  13.875  0.0214  0.6942  0.3346
  289MPD2     H 4414   0.818   3.240  14.219  0.0526 -2.0826  1.1272
  289MPD2    H1 4415   0.487   3.122  13.974 -0.6132  1.7905  1.0065
  289MPD2    H2 4416   0.864   3.196  13.798  1.3483  0.2305  0.1322
  289MPD2    H3 4417   0.621   3.136  13.778  0.6795 -2.8300  0.5438
  289MPD2     N 4418   0.551   3.170  14.220 -0.2873 -0.0376  0.1705
  289MPD2    H5 4419   0.453   3.148  14.204 -0.0578 -0.5847 -0.5027
  289MPD2    N1 4420   0.991   3.251  14.008  0.5030  0.4292 -0.2870
  289MPD2    H7 4421   1.034   3.289  13.924 -1.4025  3.0247 -0.0995
  290TMC3    C1 4422   0.465   3.212  14.437  0.3533 -0.1274  0.0113
  290TMC3    C2 4423   0.387   3.315  14.386 -0.5746  0.5650  0.4723
  290TMC3    C3 4424   0.345   3.414  14.472 -0.2206  0.3770 -0.6312
  290TMC3    C4 4425   0.482   3.199  14.572 -0.2270 -0.5541 -0.3447
  290TMC3    C5 4426   0.427   3.297  14.650 -0.0207  0.0358 -0.6883
  290TMC3    C6 4427   0.371   3.407  14.604  0.0495  0.0024  0.1802
  290TMC3     C 4428   0.581   3.191  14.354 -0.5640  0.2886  0.0562
  290TMC3     O 4429   0.690   3.205  14.408 -0.2682 -0.3543  0.0473
  290TMC3     H 4430   0.373   3.325  14.279  2.6546  0.0017 -0.0063
  290TMC3    H1 4431   0.549   3.125  14.612 -1.1056 -0.8978  0.4984
  290TMC3    H2 4432   0.346   3.490  14.669 -1.8431  1.2460 -2.1455
  290TMC3    C7 4433   0.425   3.279  14.795 -0.8746 -0.2399  0.5048
  290TMC3    C8 4434   0.271   3.530  14.419 -0.3636 -0.0970  0.2780
  290TMC3    O1 4435   0.406   3.376  14.865  0.1351 -0.0406  0.2594
  290TMC3    O2 4436   0.173   3.501  14.351  0.0817 -0.2069 -0.0903
  291MPD2     C 4437   0.127   3.314   0.654  0.6183  0.2111  0.3323
  291MPD2    C1 4438   0.190   3.195   0.622  0.6558 -0.1380  0.4223
  291MPD2    C2 4439   0.313   3.187   0.563  0.2101  0.1160 -0.3392
  291MPD2    C3 4440   0.369   3.310   0.530 -0.1003  0.4447  0.0298
  291MPD2    C4 4441   0.310   3.429   0.538 -0.3481 -0.0409 -0.1635
  291MPD2    C5 4442   0.184   3.424   0.595 -0.0512  0.7269 -0.6797
  291MPD2     H 4443   0.360   3.091   0.544  0.3002  0.0012  0.4798
  291MPD2    H1 4444   0.342   3.526   0.501  1.6562 -1.3974 -1.9542
  291MPD2    H2 4445   0.025   3.323   0.691  0.2522 -1.1512 -0.3306
  291MPD2    H3 4446   0.119   3.511   0.593 -2.7931 -1.3156 -0.1625
  291MPD2     N 4447   0.502   3.318   0.472 -0.5972 -0.3875 -0.2795
  291MPD2    H5 4448   0.539   3.406   0.437  0.6847 -0.1463  1.6296
  291MPD2    N1 4449   0.123   3.079   0.655 -0.3816  0.0801 -0.1528
  291MPD2    H7 4450   0.152   2.986   0.628  1.6989  0.2479  1.5561
  292TMC3    C1 4451   4.680   2.961   0.749 -0.3548  0.6333 -0.6037
  292TMC3    C2 4452   4.567   2.964   0.830 -0.3775 -0.0877  0.3705
  292TMC3    C3 4453   4.466   2.876   0.817  0.2848 -0.0624 -0.3562
  292TMC3    C4 4454   4.688   2.862   0.653 -0.2790 -0.5541 -0.7666
  292TMC3    C5 4455   4.580   2.780   0.635 -0.0963  0.5300 -0.3348
  292TMC3    C6 4456   4.466   2.789   0.714  0.3321 -0.4515  0.5029
  292TMC3     C 4457   0.037   3.074   0.751 -0.7669  0.1128 -0.5691
  292TMC3     O 4458   0.010   3.152   0.842 -0.2649  0.5311  0.1069
  292TMC3     H 4459   4.558   3.022   0.922 -1.8082 -0.1591  0.2649
  292TMC3    H1 4460   0.045   2.849   0.596 -1.7239 -1.4548 -2.9095
  292TMC3    H2 4461   4.392   2.709   0.703  0.5486 -0.4321 -1.0378
  292TMC3    C7 4462   4.608   2.653   0.561  0.2966  0.4124  0.0332
  292TMC3    C8 4463   4.382   2.851   0.929  0.1758  0.7470 -0.1967
  292TMC3    O1 4464   4.723   2.624   0.545 -0.1246  0.1096  0.8818
  292TMC3    O2 4465   4.334   2.951   0.978  0.6631 -0.1278  0.7069
  293MPD2     C 4466   2.074   4.408  12.732  0.2107 -0.6317  0.1059
  293MPD2    C1 4467   1.947   4.382  12.773 -0.1397  0.3916  0.3652
  293MPD2    C2 4468   1.910   4.415  12.903 -0.1331 -0.3191 -0.1787
  293MPD2    C3 4469   2.005   4.481  12.984  0.6303  0.3410 -0.4197
  293MPD2    C4 4470   2.132   4.504  12.934  0.7776 -0.6376 -0.6899
  293MPD2    C5 4471   2.163   4.474  12.810  0.0585 -0.5704 -0.1826
  293MPD2     H 4472   1.808   4.414  12.940 -0.6040 -0.6112 -1.5146
  293MPD2    H1 4473   2.203   4.551  13.000 -1.0031  1.0142  0.0652
  293MPD2    H2 4474   2.103   4.360  12.639 -1.9647 -0.8049 -0.4752
  293MPD2    H3 4475   2.267   4.478  12.781  0.5832 -1.1148  1.6263
  293MPD2     N 4476   1.969   4.507  13.119  0.0170  0.3427 -0.1920
  293MPD2    H5 4477   1.886   4.469  13.163  1.3829 -2.3153  0.1310
  293MPD2    N1 4478   1.865   4.313  12.686 -0.1446  0.0626 -0.6731
  293MPD2    H7 4479   1.899   4.279  12.596 -2.7535 -2.1322 -0.8351
  294TMC3    C1 4480   1.683   4.192  12.606  0.3414  0.8608  0.0044
  294TMC3    C2 4481   1.609   4.091  12.656 -0.5918  0.6469  0.4042
  294TMC3    C3 4482   1.521   4.027  12.573  0.2818 -0.3684 -0.0942
  294TMC3    C4 4483   1.691   4.232  12.474  0.3709  0.9349  0.2888
  294TMC3    C5 4484   1.613   4.152  12.391 -0.5288  0.5355 -0.1737
  294TMC3    C6 4485   1.512   4.065  12.441 -0.1865 -0.1169 -0.8054
  294TMC3     C 4486   1.735   4.276  12.716  0.7499 -0.2551 -0.0154
  294TMC3     O 4487   1.668   4.293  12.818  0.3528  0.2082 -0.2908
  294TMC3     H 4488   1.618   4.059  12.759  0.0958  0.9068  0.4284
  294TMC3    H1 4489   1.748   4.319  12.441  0.5537  1.0954  1.0276
  294TMC3    H2 4490   1.449   4.018  12.366 -0.6711  1.2152 -1.2477
  294TMC3    C7 4491   1.645   4.152  12.254 -0.7776  0.2849 -0.1262
  294TMC3    C8 4492   1.492   3.891  12.612 -0.3428  0.3183 -1.0298
  294TMC3    O1 4493   1.565   4.100  12.185 -0.1043 -0.1853 -0.2140
  294TMC3    O2 4494   1.464   3.874  12.728  0.6026  0.9261  0.0089
  295MPD2     C 4495   2.312   3.642   1.537  0.0239 -0.3312 -0.4458
  295MPD2    C1 4496   2.242   3.559   1.454 -0.4365  0.5587  0.2458
  295MPD2    C2 4497   2.116   3.508   1.498  0.9730  0.2182 -0.1613
  295MPD2    C3 4498   2.074   3.536   1.624 -0.9488  0.2111  0.1892
  295MPD2    C4 4499   2.153   3.621   1.700  0.3571 -0.5393  0.7342
  295MPD2    C5 4500   2.271   3.676   1.661  0.8270  0.1263  0.4637
  295MPD2     H 4501   2.063   3.438   1.435 -0.6369  3.4888 -2.3710
  295MPD2    H1 4502   2.117   3.658   1.796 -2.5196 -0.6727 -0.3005
  295MPD2    H2 4503   2.413   3.674   1.516  0.0342 -0.8825 -1.2404
  295MPD2    H3 4504   2.329   3.742   1.726  0.7628  0.2052  0.4412
  295MPD2     N 4505   1.948   3.493   1.670 -0.6061 -0.4351  0.5562
  295MPD2    H5 4506   1.913   3.521   1.761 -1.5672  1.9176 -0.5425
  295MPD2    N1 4507   2.287   3.519   1.326 -0.4298  0.0738  0.1519
  295MPD2    H7 4508   2.240   3.443   1.277  0.8123  0.4618 -1.6356
  296TMC3    C1 4509   1.747   3.395   1.700 -0.3761 -0.4104  0.1605
  296TMC3    C2 4510   1.752   3.375   1.832  0.2575 -0.6698  0.3025
  296TMC3    C3 4511   1.642   3.358   1.911 -0.1132  0.7731 -0.1472
  296TMC3    C4 4512   1.626   3.391   1.639  0.6226 -0.0533  0.0900
  296TMC3    C5 4513   1.512   3.381   1.709  0.5401  0.0142 -0.4159
  296TMC3    C6 4514   1.520   3.369   1.847 -0.2269  0.0051  0.7876
  296TMC3     C 4515   1.856   3.407   1.614 -0.3568 -0.4746  0.3398
  296TMC3     O 4516   1.863   3.342   1.507 -0.1276 -0.0687  0.1836
  296TMC3     H 4517   1.853   3.355   1.868  0.7293 -0.7376 -1.0629
  296TMC3    H1 4518   1.616   3.392   1.531  0.5621  0.3534  0.1023
  296TMC3    H2 4519   1.431   3.351   1.905  0.3878  0.0748  1.7604
  296TMC3    C7 4520   1.391   3.416   1.641  0.0898  0.6030  0.5397
  296TMC3    C8 4521   1.654   3.311   2.043 -0.9400 -0.5882 -0.5489
  296TMC3    O1 4522   1.413   3.478   1.540  0.5713  0.2064  0.1242
  296TMC3    O2 4523   1.551   3.279   2.099 -0.3402 -0.1615 -0.5597
  297MPD2     C 4524   4.427   0.121  16.554  0.7856  0.2884  0.2063
  297MPD2    C1 4525   4.387   0.218  16.466  0.1250 -0.6771  0.0737
  297MPD2    C2 4526   4.455   0.332  16.457 -0.0353 -0.0323 -0.1909
  297MPD2    C3 4527   4.573   0.346  16.530  0.7021  0.6168 -0.1553
  297MPD2    C4 4528   4.621   0.246  16.610  0.0373  0.0129  0.0556
  297MPD2    C5 4529   4.541   0.133  16.625 -0.7762 -0.4088  0.1320
  297MPD2     H 4530   4.420   0.410  16.392  0.1144  1.6430  1.7460
  297MPD2    H1 4531   4.715   0.240  16.663  1.6289  0.2204 -2.7777
  297MPD2    H2 4532   4.359   0.039  16.575  1.5482 -0.3299  0.2456
  297MPD2    H3 4533   4.581   0.052  16.684 -3.8434 -0.4186  2.2144
  297MPD2     N 4534   4.654   0.453  16.491  0.6116  0.4365  0.9596
  297MPD2    H5 4535   4.615   0.526  16.432  0.9051  0.2346  0.5114
  297MPD2    N1 4536   4.278   0.210  16.388 -0.0100 -0.5278 -0.5586
  297MPD2    H7 4537   4.254   0.288  16.328  1.4477  1.1900  1.0701
  298TMC3    C1 4538   4.051   0.169  16.337 -0.7587 -0.1935  0.3979
  298TMC3    C2 4539   4.061   0.202  16.202 -0.3562 -0.0273 -0.4576
  298TMC3    C3 4540   4.005   0.322  16.159  0.1706 -0.1389 -0.1575
  298TMC3    C4 4541   3.979   0.248  16.428  0.3977  0.4070  0.2624
  298TMC3    C5 4542   3.921   0.363  16.383 -0.3182  0.1661  0.0623
  298TMC3    C6 4543   3.941   0.402  16.251  0.0223  0.7143 -0.1427
  298TMC3     C 4544   4.176   0.116  16.395  0.1129  0.4015 -0.0011
  298TMC3     O 4545   4.165   0.031  16.477 -0.3717  0.5206 -0.3660
  298TMC3     H 4546   4.119   0.139  16.135 -1.6267  0.9292 -2.4593
  298TMC3    H1 4547   3.987   0.220  16.533 -0.6594 -1.9830 -0.3110
  298TMC3    H2 4548   3.908   0.499  16.216 -3.9755 -0.2493  0.9704
  298TMC3    C7 4549   3.878   0.455  16.486 -0.0904  0.2998  0.5028
  298TMC3    C8 4550   3.996   0.340  16.013 -0.3667 -0.4239 -0.2562
  298TMC3    O1 4551   3.904   0.429  16.603 -0.0865  0.3835  0.3262
  298TMC3    O2 4552   4.054   0.249  15.951 -0.0345  0.2698 -0.0179
  299MPD2     C 4553   0.899   4.663  11.289  0.7243  0.1124 -0.3383
  299MPD2    C1 4554   0.793   0.020  11.300 -0.2616  0.2617  0.1674
  299MPD2    C2 4555   0.696   0.010  11.201 -0.2310 -0.0784 -0.1677
  299MPD2    C3 4556   0.698   4.650  11.097 -0.4137  0.2112  0.1840
  299MPD2    C4 4557   0.808   4.560  11.098  0.6261 -0.3844  0.0111
  299MPD2    C5 4558   0.905   4.568  11.191 -0.1538  0.1277  0.4077
  299MPD2     H 4559   0.606   0.071  11.200  0.3499  0.7661 -2.2952
  299MPD2    H1 4560   0.815   4.491  11.014  0.7788 -0.8330  0.3894
  299MPD2    H2 4561   0.970   4.663  11.371 -2.2640  0.3929  2.2544
  299MPD2    H3 4562   0.989   4.500  11.191 -0.9457 -0.8469 -3.0908
  299MPD2     N 4563   0.598   4.618  11.005 -0.0795 -0.5550 -0.1767
  299MPD2    H5 4564   0.597   4.527  10.962  1.2478 -0.3573 -0.6387
  299MPD2    N1 4565   0.783   0.112  11.401  0.0834  0.3090  0.5207
  299MPD2    H7 4566   0.838   0.100  11.486 -1.9289 -2.2039  1.4679
  300TMC3    C1 4567   0.404   4.626  10.886  0.0743 -0.0028  0.2888
  300TMC3    C2 4568   0.458   4.551  10.780  0.0783 -0.1482 -0.1857
  300TMC3    C3 4569   0.389   4.558  10.660 -0.3617  0.3657 -0.0923
  300TMC3    C4 4570   0.280   4.690  10.881 -0.6354 -0.3580 -0.7892
  300TMC3    C5 4571   0.201   4.657  10.775  0.0245  0.4311 -0.2044
  300TMC3    C6 4572   0.256   4.605  10.663 -0.5319 -0.3528 -0.5888
  300TMC3     C 4573   0.480   4.686  10.989  0.5016 -0.1116  0.0355
  300TMC3     O 4574   0.459   0.067  11.016 -0.0736 -0.0983 -0.0899
  300TMC3     H 4575   0.560   4.517  10.778  0.1346 -0.0476  1.1870
  300TMC3    H1 4576   0.254   0.025  10.961 -0.2793  0.7251 -1.6093
  300TMC3    H2 4577   0.190   4.583  10.580 -1.4703  0.0847  0.0447
  300TMC3    C7 4578   0.063   4.696  10.774  0.4924 -0.7890 -0.1307
  300TMC3    C8 4579   0.446   4.487  10.543 -0.2859  0.0448 -0.6405
  300TMC3    O1 4580   0.016   4.708  10.658  0.1904 -0.4331 -0.5912
  300TMC3    O2 4581   0.513   4.388  10.572 -0.1418  0.2386 -0.1003
  301MPD2     C 4582   2.598   1.653   0.950  0.0475  0.4244 -0.3521
  301MPD2    C1 4583   2.541   1.592   1.060  0.1082 -0.0479  0.0684
  301MPD2    C2 4584   2.555   1.451   1.075  0.0607 -0.3267 -0.2717
  301MPD2    C3 4585   2.617   1.372   0.979 -0.2353 -0.6546 -0.3320
  301MPD2    C4 4586   2.669   1.433   0.867  0.2658 -0.1616 -0.3399
  301MPD2    C5 4587   2.661   1.572   0.856 -0.0235  0.5012 -0.5852
  301MPD2     H 4588   2.512   1.401   1.161  2.0401  1.1162  1.5553
  301MPD2    H1 4589   2.715   1.371   0.791  3.5871  0.7354  0.9684
  301MPD2    H2 4590   2.588   1.758   0.928  1.3143  0.5471 -0.3266
  301MPD2    H3 4591   2.711   1.620   0.773 -0.8171  0.3043 -1.1846
  301MPD2     N 4592   2.642   1.232   0.991 -0.1849  0.3475 -0.4743
  301MPD2    H5 4593   2.695   1.187   0.918 -0.4285 -0.7025 -0.0025
  301MPD2    N1 4594   2.475   1.670   1.161 -0.1439 -0.5161 -0.6444
  301MPD2    H7 4595   2.430   1.623   1.238  1.1452 -0.1483  0.3259
  302TMC3    C1 4596   2.619   1.018   1.071 -0.2947 -0.0665  0.7322
  302TMC3    C2 4597   2.665   0.923   1.157 -0.7186  0.1661 -0.1268
  302TMC3    C3 4598   2.640   0.786   1.128  0.1425 -0.2822 -0.0274
  302TMC3    C4 4599   2.551   0.980   0.963  0.4062 -0.3131  0.1442
  302TMC3    C5 4600   2.540   0.848   0.931  0.0213  0.7201 -0.1204
  302TMC3    C6 4601   2.583   0.743   1.009  0.2745  0.7347 -0.1345
  302TMC3     C 4602   2.619   1.157   1.100 -0.3163  0.3682 -0.3004
  302TMC3     O 4603   2.594   1.189   1.214 -0.1434  0.4562  0.1865
  302TMC3     H 4604   2.700   0.956   1.254  0.3139  0.2062 -0.5160
  302TMC3    H1 4605   2.506   1.058   0.902 -2.7461 -1.8204  0.5723
  302TMC3    H2 4606   2.567   0.639   0.985  1.9518  0.8522 -1.7043
  302TMC3    C7 4607   2.430   0.800   0.853  0.3367  0.1448 -0.5055
  302TMC3    C8 4608   2.703   0.680   1.204  0.2877  0.3940  0.8241
  302TMC3    O1 4609   2.427   0.682   0.811  0.2607 -0.4244 -0.0658
  302TMC3    O2 4610   2.722   0.572   1.142 -0.0275  0.0050  0.2211
  303MPD2     C 4611   2.403   4.117  11.181  0.4176  0.5019 -0.1022
  303MPD2    C1 4612   2.311   4.210  11.128 -0.1486 -0.0405 -0.1256
  303MPD2    C2 4613   2.357   4.291  11.024 -0.7732  0.3960  0.4381
  303MPD2    C3 4614   2.489   4.287  10.978  0.6625 -0.6425 -0.4332
  303MPD2    C4 4615   2.578   4.191  11.038  0.0559  0.9676  0.2383
  303MPD2    C5 4616   2.529   4.100  11.129 -0.2460 -0.1956 -0.4252
  303MPD2     H 4617   2.294   4.368  10.981 -0.4999  1.5598  2.1283
  303MPD2    H1 4618   2.684   4.191  11.012  0.0230 -0.6151  0.1305
  303MPD2    H2 4619   2.370   4.042  11.252 -1.8606  0.3121 -1.3696
  303MPD2    H3 4620   2.601   4.028  11.167 -1.0889 -0.9134 -0.1811
  303MPD2     N 4621   2.541   4.370  10.874  0.3130  0.5593 -0.2629
  303MPD2    H5 4622   2.639   4.373  10.846  1.6810 -0.2189  4.5745
  303MPD2    N1 4623   2.180   4.225  11.170 -0.6990 -0.1726 -0.2060
  303MPD2    H7 4624   2.112   4.255  11.101 -1.0328 -0.2795  0.0795
  304TMC3    C1 4625   1.984   4.220  11.295 -0.3654  0.4488 -0.0745
  304TMC3    C2 4626   1.927   4.263  11.410  0.0535  0.4931  0.3217
  304TMC3    C3 4627   1.794   4.266  11.412  0.3861 -0.0877  0.7826
  304TMC3    C4 4628   1.905   4.184  11.190 -0.4181  0.1982 -0.4180
  304TMC3    C5 4629   1.772   4.184  11.196 -0.5038  0.6606 -0.0544
  304TMC3    C6 4630   1.711   4.216  11.314  0.0782  0.0537  0.4712
  304TMC3     C 4631   2.130   4.206  11.297 -0.7166  0.2774 -0.7075
  304TMC3     O 4632   2.192   4.197  11.400  0.0712  0.4305 -0.3650
  304TMC3     H 4633   1.993   4.308  11.483  1.0165 -1.0486  0.4146
  304TMC3    H1 4634   1.951   4.147  11.098 -2.5144 -1.9470 -0.5875
  304TMC3    H2 4635   1.603   4.224  11.323  0.2352  3.3551 -0.7905
  304TMC3    C7 4636   1.713   4.264  11.092 -0.3593 -0.3660  0.2939
  304TMC3    C8 4637   1.757   4.395  11.464  0.2863 -0.5033  0.4212
  304TMC3    O1 4638   1.638   4.351  11.131  0.9431 -0.9210  0.3682
  304TMC3    O2 4639   1.810   4.440  11.566 -0.2141  0.5741 -0.5828
  305MPD2     C 4640   0.356   1.964  14.044  0.0524  0.2324 -0.5486
  305MPD2    C1 4641   0.472   1.892  14.037 -0.3010 -0.5908 -0.1044
  305MPD2    C2 4642   0.505   1.834  13.914  0.6627  0.8857  0.1008
  305MPD2    C3 4643   0.428   1.866  13.809 -0.3187  0.4335 -0.4277
  305MPD2    C4 4644   0.319   1.947  13.813  0.3085  0.5053  0.1747
  305MPD2    C5 4645   0.278   1.986  13.936  0.8659 -0.8879 -0.4049
  305MPD2     H 4646   0.587   1.764  13.904  0.0524  0.0872  0.6757
  305MPD2    H1 4647   0.262   1.972  13.724 -0.8701  1.4193  1.1937
  305MPD2    H2 4648   0.329   1.998  14.143  3.2750 -0.6470  0.6260
  305MPD2    H3 4649   0.187   2.043  13.949  0.9247 -0.5636 -1.3991
  305MPD2     N 4650   0.447   1.793  13.683 -0.7400 -0.1258 -0.3662
  305MPD2    H5 4651   0.385   1.816  13.606 -0.9733  0.5024  0.0058
  305MPD2    N1 4652   0.549   1.881  14.156 -0.0457  0.3153 -0.3611
  305MPD2    H7 4653   0.503   1.915  14.240 -0.7006 -0.9357 -0.2133
  306TMC3    C1 4654   0.733   1.837  14.288  0.1579  0.3606 -0.3281
  306TMC3    C2 4655   0.827   1.742  14.305 -0.8630 -0.2163 -0.2222
  306TMC3    C3 4656   0.843   1.675  14.423 -0.1310 -0.4572 -0.2539
  306TMC3    C4 4657   0.653   1.867  14.396 -0.7912  0.7981 -0.2934
  306TMC3    C5 4658   0.685   1.815  14.523  1.1710 -0.5859  0.0634
  306TMC3    C6 4659   0.771   1.711  14.530  0.1646 -0.4825  0.5990
  306TMC3     C 4660   0.680   1.845  14.156 -0.3612  0.2853  0.0554
  306TMC3     O 4661   0.751   1.795  14.069 -0.2967  0.0087  0.1952
  306TMC3     H 4662   0.890   1.718  14.221 -2.5580 -4.7298 -0.2159
  306TMC3    H1 4663   0.585   1.951  14.384 -0.1608  1.2531 -0.7241
  306TMC3    H2 4664   0.790   1.667  14.627  1.4022  1.7954  1.4154
  306TMC3    C7 4665   0.603   1.862  14.630  0.5642 -0.2922 -0.8144
  306TMC3    C8 4666   0.923   1.552  14.410 -0.2916  0.8610 -0.3796
  306TMC3    O1 4667   0.494   1.909  14.613  0.1913 -0.2411 -0.1334
  306TMC3    O2 4668   0.990   1.535  14.314 -0.5578 -0.3940  0.2511
  307MPD2     C 4669   3.469   4.343   0.708  0.4652  0.6430  0.0667
  307MPD2    C1 4670   3.419   4.466   0.672  0.2019  0.1963 -0.2665
  307MPD2    C2 4671   3.328   4.528   0.753 -0.1059  0.1955 -0.1726
  307MPD2    C3 4672   3.289   4.478   0.874 -0.0688  0.8158 -0.7787
  307MPD2    C4 4673   3.328   4.352   0.906 -0.3293  0.1269 -0.1054
  307MPD2    C5 4674   3.419   4.286   0.824 -0.5563 -0.2146 -0.1231
  307MPD2     H 4675   3.287   4.620   0.714 -0.1175  0.7153  1.0791
  307MPD2    H1 4676   3.284   4.306   0.994 -0.9787  0.6763 -0.1460
  307MPD2    H2 4677   3.525   4.273   0.648 -1.6897 -2.3267  1.4512
  307MPD2    H3 4678   3.440   4.182   0.843  2.0605  0.1911 -0.7572
  307MPD2     N 4679   3.207   4.549   0.959 -0.1952 -0.4273 -0.3363
  307MPD2    H5 4680   3.177   4.641   0.928 -2.4355 -0.3224  2.1440
  307MPD2    N1 4681   3.453   4.531   0.551  0.0367 -0.2773 -0.5724
  307MPD2    H7 4682   3.437   4.632   0.546  2.0349  0.0574 -0.2502
  308TMC3    C1 4683   2.807   4.644   1.151 -0.2206 -0.1687 -0.5598
  308TMC3    C2 4684   2.825   0.047   1.138  0.4824 -0.6910  0.4190
  308TMC3    C3 4685   2.951   0.088   1.110  0.1243 -0.1114 -0.0211
  308TMC3    C4 4686   2.908   4.552   1.129 -0.5981  0.3325  0.3089
  308TMC3    C5 4687   3.032   4.601   1.093  0.7098  0.2595 -0.3467
  308TMC3    C6 4688   3.053   0.002   1.083  0.1162 -0.0743 -0.7279
  308TMC3     C 4689   2.675   4.595   1.120 -0.9625 -0.1304 -0.2242
  308TMC3     O 4690   2.658   4.472   1.126  0.8698 -0.5550  0.0710
  308TMC3     H 4691   2.754   0.120   1.174  4.5508  2.3637  2.3091
  308TMC3    H1 4692   2.902   4.444   1.131  4.4710  0.0883  0.4038
  308TMC3    H2 4693   3.153   0.042   1.078 -0.1280  0.4404 -1.3923
  308TMC3    C7 4694   3.134   4.510   1.074  0.0829  0.1234 -0.4463
  308TMC3    C8 4695   2.989   0.231   1.144 -0.4316  0.6890 -0.2741
  308TMC3    O1 4696   3.134   4.405   1.136  0.3184  0.0502 -0.3149
  308TMC3    O2 4697   2.925   0.277   1.234 -0.0789  0.2476  0.3001
  309MPD2     C 4698   2.687   0.352  17.432  0.1730  0.7428 -0.7351
  309MPD2    C1 4699   2.658   0.441  17.329  0.0023  0.8475 -0.2826
  309MPD2    C2 4700   2.533   0.494  17.314 -0.2788 -0.5151 -0.3050
  309MPD2    C3 4701   2.426   0.456  17.380  0.3198 -0.5425 -0.6898
  309MPD2    C4 4702   2.446   0.366  17.485 -0.7649  0.3955 -0.2939
  309MPD2    C5 4703   2.574   0.319  17.505 -0.3349  0.8673 -1.1707
  309MPD2     H 4704   2.536   0.567  17.234 -1.9785 -0.4626 -0.3160
  309MPD2    H1 4705   2.360   0.328  17.539 -0.5735 -1.2611 -1.1565
  309MPD2    H2 4706   2.781   0.298  17.439 -0.5597 -0.2740  1.2498
  309MPD2    H3 4707   2.578   0.238  17.577  1.2522  2.3252  0.3632
  309MPD2     N 4708   2.296   0.492  17.361  0.7976  0.6414 -0.8318
  309MPD2    H5 4709   2.226   0.469  17.431  0.4503  0.8879 -1.0963
  309MPD2    N1 4710   2.749   0.485  17.233 -0.5610  0.9142 -0.7202
  309MPD2    H7 4711   2.708   0.519  17.147 -2.4127  2.1806  0.6966
  310TMC3    C1 4712   2.936   0.500  17.103 -0.3876 -0.2123  0.3956
  310TMC3    C2 4713   2.855   0.587  17.036  0.5090  0.6591  0.1821
  310TMC3    C3 4714   2.861   0.583  16.896  0.5605 -0.0004 -0.1610
  310TMC3    C4 4715   3.033   0.429  17.032  0.4154 -0.1588 -0.6310
  310TMC3    C5 4716   3.045   0.432  16.899  0.1065 -0.1026  0.4155
  310TMC3    C6 4717   2.950   0.502  16.827 -0.2362  0.0885 -0.0660
  310TMC3     C 4718   2.882   0.443  17.221 -0.1103  0.1167 -0.3471
  310TMC3     O 4719   2.946   0.357  17.279  0.1342  0.1188  0.0641
  310TMC3     H 4720   2.797   0.664  17.086  1.8525  0.8277  1.4826
  310TMC3    H1 4721   3.096   0.362  17.089  1.2669  1.5485  0.4663
  310TMC3    H2 4722   2.966   0.514  16.720  0.9545 -1.2583 -0.0406
  310TMC3    C7 4723   3.088   0.310  16.835  0.2779  0.6654 -0.7986
  310TMC3    C8 4724   2.753   0.651  16.822  0.5400  0.3378  0.1761
  310TMC3    O1 4725   3.054   0.289  16.716 -0.5482 -0.5228  0.6386
  310TMC3    O2 4726   2.666   0.697  16.892  0.0336  0.5303 -0.4269
  311MPD2     C 4727   4.388   1.241  12.991 -0.2574 -0.1130  0.0957
  311MPD2    C1 4728   4.382   1.346  13.080  0.0199  0.1885 -0.2651
  311MPD2    C2 4729   4.264   1.363  13.153  0.5852  0.4182 -0.1085
  311MPD2    C3 4730   4.169   1.262  13.166 -0.0462 -0.1396  0.0348
  311MPD2    C4 4731   4.190   1.155  13.082  0.1050 -0.1281 -0.0275
  311MPD2    C5 4732   4.289   1.145  12.992 -0.0578 -0.4233 -0.0693
  311MPD2     H 4733   4.262   1.455  13.210  0.8481 -1.6926  3.2609
  311MPD2    H1 4734   4.115   1.078  13.078  0.1958 -0.2228  0.0890
  311MPD2    H2 4735   4.477   1.216  12.934  0.5492  0.8001  0.9569
  311MPD2    H3 4736   4.288   1.064  12.919 -1.3890 -2.1402  1.8694
  311MPD2     N 4737   4.049   1.276  13.240 -0.4165 -0.0500 -0.1219
  311MPD2    H5 4738   4.041   1.360  13.296 -1.6021  0.2215 -0.7005
  311MPD2    N1 4739   4.482   1.434  13.105 -0.0374 -0.3494  0.3240
  311MPD2    H7 4740   4.463   1.516  13.162 -0.0204  0.0225 -0.2062
  312TMC3    C1 4741   3.816   1.235  13.289  0.1947 -0.3583  0.4344
  312TMC3    C2 4742   3.713   1.164  13.236 -0.5249  0.1519 -0.3980
  312TMC3    C3 4743   3.595   1.234  13.233 -0.2259  0.5387 -0.3638
  312TMC3    C4 4744   3.799   1.349  13.350 -0.3245 -0.9292  0.3383
  312TMC3    C5 4745   3.674   1.404  13.356  0.4124  0.0226  0.9245
  312TMC3    C6 4746   3.570   1.353  13.293 -0.0664 -0.0600 -0.5431
  312TMC3     C 4747   3.948   1.185  13.258  0.3197 -0.4369  0.0598
  312TMC3     O 4748   3.954   1.064  13.235  0.0727  0.1710 -0.3391
  312TMC3     H 4749   3.718   1.068  13.185  0.6610  0.2861 -0.5306
  312TMC3    H1 4750   3.880   1.393  13.408  0.7716 -0.4635 -1.5504
  312TMC3    H2 4751   3.474   1.392  13.325 -0.6021 -1.5887 -0.3086
  312TMC3    C7 4752   3.666   1.539  13.400 -0.3983 -0.4334  0.2871
  312TMC3    C8 4753   3.475   1.165  13.180  0.2524  0.8132  0.5540
  312TMC3    O1 4754   3.603   1.612  13.322  0.0355  0.0994 -0.1766
  312TMC3    O2 4755   3.441   1.049  13.214 -0.8205 -0.2691 -0.6711
  313MPD2     C 4756   3.411   0.571  11.873 -0.2481  0.0268  0.5317
  313MPD2    C1 4757   3.474   0.606  11.755  0.6358 -0.5387 -0.2598
  313MPD2    C2 4758   3.549   0.505  11.695 -0.5579  0.0219  0.6766
  313MPD2    C3 4759   3.555   0.380  11.756  0.5207  0.2506 -0.2162
  313MPD2    C4 4760   3.496   0.355  11.881  0.1667  0.7354 -0.0208
  313MPD2    C5 4761   3.425   0.450  11.937 -0.3641 -0.7198 -0.2144
  313MPD2     H 4762   3.604   0.529  11.604 -0.3975  2.4293  1.3895
  313MPD2    H1 4763   3.523   0.265  11.935 -2.5125  0.3417  0.7032
  313MPD2    H2 4764   3.354   0.647  11.925  0.7153  2.3490 -1.7715
  313MPD2    H3 4765   3.398   0.439  12.042 -1.4297  2.8975 -0.0701
  313MPD2     N 4766   3.625   0.280  11.691  0.4775  0.1838  0.0188
  313MPD2    H5 4767   3.670   0.309  11.604 -0.0215  0.6749 -0.0777
  313MPD2    N1 4768   3.453   0.737  11.702 -0.1075 -0.6877  0.6306
  313MPD2    H7 4769   3.389   0.803  11.745  0.8180 -0.2215  1.3076
  314TMC3    C1 4770   3.508   0.931  11.580 -0.2127  0.4417  0.8582
  314TMC3    C2 4771   3.599   1.033  11.604 -0.1053  0.0190 -0.0901
  314TMC3    C3 4772   3.551   1.157  11.567  0.5679  0.8449 -0.1731
  314TMC3    C4 4773   3.392   0.950  11.521  0.2878 -0.3712 -0.7434
  314TMC3    C5 4774   3.346   1.068  11.484  1.0703 -0.5535 -0.0389
  314TMC3    C6 4775   3.432   1.172  11.503  0.9742 -0.1602 -0.3629
  314TMC3     C 4776   3.547   0.795  11.613  0.0992  0.3705 -1.5340
  314TMC3     O 4777   3.656   0.754  11.572 -0.1699  0.8426  0.1500
  314TMC3     H 4778   3.701   1.023  11.640 -0.0854 -1.2514 -0.4800
  314TMC3    H1 4779   3.326   0.863  11.524 -0.7365  0.3908 -1.2957
  314TMC3    H2 4780   3.392   1.268  11.472 -0.9733 -1.1176 -0.8330
  314TMC3    C7 4781   3.281   1.048  11.354  0.1858 -1.3903  0.1258
  314TMC3    C8 4782   3.639   1.271  11.549  0.7086 -1.0034 -0.1930
  314TMC3    O1 4783   3.203   0.955  11.345 -0.1256  0.2718  0.2489
  314TMC3    O2 4784   3.621   1.343  11.453  0.5139 -0.9458  0.0512
  315MPD2     C 4785   3.882   4.285   0.330 -0.6108 -0.5816 -0.0826
  315MPD2    C1 4786   3.942   4.325   0.447 -0.1955 -0.2129 -0.1554
  315MPD2    C2 4787   3.974   4.457   0.462 -0.3193 -0.7127 -0.2290
  315MPD2    C3 4788   3.935   4.552   0.368  0.3035  0.3691  0.0262
  315MPD2    C4 4789   3.852   4.511   0.258  0.3056 -0.2078 -0.7208
  315MPD2    C5 4790   3.832   4.375   0.246  0.0875 -0.6134  0.0733
  315MPD2     H 4791   4.028   4.486   0.551 -1.2379  1.1036 -0.2507
  315MPD2    H1 4792   3.810   4.574   0.180 -2.2939  1.0917  1.6925
  315MPD2    H2 4793   3.873   4.182   0.301  3.0607 -0.7289 -0.7674
  315MPD2    H3 4794   3.771   4.343   0.162  3.2118 -1.9539 -1.6610
  315MPD2     N 4795   3.955   4.688   0.389  0.7204 -0.5196  0.7942
  315MPD2    H5 4796   3.999   4.715   0.476 -0.1539 -1.0638  1.4093
  315MPD2    N1 4797   3.982   4.219   0.537 -0.3783  0.8483 -0.5305
  315MPD2    H7 4798   3.991   4.127   0.497 -1.4495 -0.4475  2.2281
  316TMC3    C1 4799   3.951   0.186   0.351  0.7319  0.7313 -0.1161
  316TMC3    C2 4800   4.026   0.202   0.468  0.4086  0.0310  0.1153
  316TMC3    C3 4801   4.076   0.324   0.504  0.7130 -0.4960 -0.1743
  316TMC3    C4 4802   3.952   0.289   0.260  0.4696 -0.2773 -0.5508
  316TMC3    C5 4803   4.008   0.410   0.294  0.2738 -0.0971  0.3618
  316TMC3    C6 4804   4.057   0.430   0.417  0.7081  0.9290 -0.9140
  316TMC3     C 4805   3.928   0.051   0.298 -0.1524  0.2620  0.6947
  316TMC3     O 4806   3.926   0.045   0.179  0.1921 -0.0323 -0.4655
  316TMC3     H 4807   4.032   0.124   0.543  1.6128  0.1707  0.1635
  316TMC3    H1 4808   3.902   0.278   0.165 -0.2340  1.7694 -0.4287
  316TMC3    H2 4809   4.088   0.528   0.452  0.9891 -1.1939  4.6727
  316TMC3    C7 4810   4.018   0.531   0.203  0.6213 -0.1977 -0.6880
  316TMC3    C8 4811   4.138   0.341   0.637 -0.4849 -0.6924 -0.2537
  316TMC3    O1 4812   4.055   0.635   0.253  0.0592  0.4250  0.5460
  316TMC3    O2 4813   4.115   0.448   0.689 -0.1231 -0.8672 -0.3846
  317MPD2     C 4814   1.148   3.011  12.587  0.0262 -0.2907 -0.3769
  317MPD2    C1 4815   1.236   2.910  12.611 -0.4462  0.0506  0.4126
  317MPD2    C2 4816   1.264   2.884  12.739  0.5846 -0.7992 -0.5417
  317MPD2    C3 4817   1.200   2.950  12.842 -0.3569  0.1517  0.6776
  317MPD2    C4 4818   1.112   3.056  12.813  0.0254  0.3560 -1.1094
  317MPD2    C5 4819   1.084   3.082  12.686  0.4276 -0.4041 -0.3754
  317MPD2     H 4820   1.345   2.814  12.756  0.6743 -0.5643  0.0238
  317MPD2    H1 4821   1.062   3.106  12.896 -0.4924 -1.6449 -0.2070
  317MPD2    H2 4822   1.101   3.024  12.490 -1.8785 -0.2896  0.5465
  317MPD2    H3 4823   1.008   3.154  12.658  1.7709  0.6374 -1.3622
  317MPD2     N 4824   1.240   2.909  12.971 -0.6841  0.5975 -0.5778
  317MPD2    H5 4825   1.315   2.841  12.970 -1.1792  0.0411  0.6634
  317MPD2    N1 4826   1.297   2.836  12.515 -0.0273  0.1031 -0.0513
  317MPD2    H7 4827   1.355   2.761  12.550  2.1558  0.9962 -1.7701
  318TMC3    C1 4828   1.263   2.881  13.197 -0.0222 -0.2135  0.1793
  318TMC3    C2 4829   1.187   2.824  13.299  0.6101 -0.1171  0.3087
  318TMC3    C3 4830   1.267   2.744  13.378 -0.8580  0.1332 -0.4407
  318TMC3    C4 4831   1.394   2.878  13.188 -0.0071 -0.2100 -0.2776
  318TMC3    C5 4832   1.474   2.808  13.275  0.0125  0.3143  0.5634
  318TMC3    C6 4833   1.401   2.731  13.366  0.0148  0.3731  0.6095
  318TMC3     C 4834   1.180   2.938  13.088  0.1420  0.8431  0.2294
  318TMC3     O 4835   1.066   2.970  13.116  0.1890 -0.0083  0.3384
  318TMC3     H 4836   1.079   2.815  13.304  0.7051 -1.3182  0.2609
  318TMC3    H1 4837   1.461   2.918  13.112 -1.0740  0.5871 -0.7952
  318TMC3    H2 4838   1.451   2.649  13.415  1.6874  1.1064  0.1168
  318TMC3    C7 4839   1.617   2.787  13.263 -0.0609  0.1015 -0.5388
  318TMC3    C8 4840   1.218   2.652  13.479 -0.6696 -0.3307 -0.1151
  318TMC3    O1 4841   1.668   2.813  13.160 -0.0300  0.1641  0.1042
  318TMC3    O2 4842   1.293   2.600  13.561  0.0577  0.4885 -0.6736
  319MPD2     C 4843   1.731   4.631  16.848 -0.9042  0.1540  0.2546
  319MPD2    C1 4844   1.675   4.520  16.921  0.0730 -0.5386  0.6829
  319MPD2    C2 4845   1.609   4.427  16.838 -0.7536  0.0673  0.5311
  319MPD2    C3 4846   1.588   4.447  16.707  0.6534  0.4824  0.0880
  319MPD2    C4 4847   1.645   4.551  16.643 -0.4619 -0.8064  0.1786
  319MPD2    C5 4848   1.710   4.645  16.716 -0.5159  0.0209  0.1283
  319MPD2     H 4849   1.567   4.339  16.886 -1.0805 -0.3626 -0.5468
  319MPD2    H1 4850   1.626   4.572  16.538  0.6164  1.9219  0.5306
  319MPD2    H2 4851   1.776   4.714  16.901  1.0696 -0.5969 -0.2491
  319MPD2    H3 4852   1.741   0.002  16.666  0.0324  0.2786  0.9407
  319MPD2     N 4853   1.511   4.359  16.628 -0.3407 -0.2223 -0.0708
  319MPD2    H5 4854   1.511   4.390  16.531  2.6259  1.2813  0.4206
  319MPD2    N1 4855   1.686   4.508  17.060 -0.0519 -0.0777 -0.2321
  319MPD2    H7 4856   1.623   4.448  17.112 -1.2093  0.6798 -0.7757
  320TMC3    C1 4857   1.390   4.177  16.544 -0.1714  0.1309  0.2075
  320TMC3    C2 4858   1.311   4.258  16.473 -0.3169 -0.0504  0.5236
  320TMC3    C3 4859   1.250   4.206  16.363 -0.5100 -0.4973 -0.4143
  320TMC3    C4 4860   1.398   4.044  16.524  0.2169  0.4383 -0.1583
  320TMC3    C5 4861   1.350   4.003  16.406  0.6292  0.0889  0.7626
  320TMC3    C6 4862   1.264   4.075  16.328 -0.0845 -0.0429 -0.0863
  320TMC3     C 4863   1.468   4.230  16.660 -0.2066  0.4421 -0.4771
  320TMC3     O 4864   1.505   4.158  16.756 -0.7044  0.0720  0.2659
  320TMC3     H 4865   1.282   4.360  16.499 -1.2481  0.0785 -1.0173
  320TMC3    H1 4866   1.460   3.986  16.593 -1.7918 -0.5885  0.7771
  320TMC3    H2 4867   1.224   4.037  16.235 -1.2697 -0.0306  0.4132
  320TMC3    C7 4868   1.367   3.859  16.364  0.7195  0.4245  0.2041
  320TMC3    C8 4869   1.184   4.300  16.280 -0.0065 -0.1681 -0.8822
  320TMC3    O1 4870   1.340   3.840  16.245 -0.1880  0.3755  0.6067
  320TMC3    O2 4871   1.233   4.414  16.283  0.3170 -0.1848  0.2126
  321TMC3    C1 4872   1.793   4.537  17.279  0.0385  0.1862  0.1065
  321TMC3    C2 4873   1.703   4.461  17.344 -0.4480  0.4498  0.4218
  321TMC3    C3 4874   1.683   4.480  17.477 -0.1434 -0.2729  0.0131
  321TMC3    C4 4875   1.868   4.629  17.346 -0.0194  0.5859 -0.9541
  321TMC3    C5 4876   1.838   4.655  17.479  0.6936  0.6443 -0.2226
  321TMC3    C6 4877   1.736   4.585  17.539  0.4774 -0.1146 -0.2387
  321TMC3     C 4878   1.802   4.554  17.130  0.1371 -0.3622 -0.1069
  321TMC3     O 4879   1.901   4.598  17.076 -0.1911  0.3495 -0.6220
  321TMC3     H 4880   1.663   4.370  17.299  0.7866 -0.3429  0.9301
  321TMC3    H1 4881   1.946   4.680  17.290  0.7409  1.4195  0.8525
  321TMC3    H2 4882   1.718   4.600  17.644 -1.2150  1.0828 -0.7122
  321TMC3    C7 4883   1.950   4.649  17.569  0.2283  0.2099  0.2210
  321TMC3    C8 4884   1.669   4.362  17.551  0.6749 -0.0970 -0.2195
  321TMC3    O1 4885   1.938   4.563  17.656 -0.2543 -0.1807  0.0171
  321TMC3    O2 4886   1.595   4.277  17.505  0.5892  0.0485  0.1176
  322MPD2     C 4887   1.053   1.187  12.948  0.0908  0.2803 -0.0801
  322MPD2    C1 4888   1.028   1.146  13.078  0.2274 -0.2852  0.4159
  322MPD2    C2 4889   1.089   1.025  13.111  0.3512  1.3531  0.1643
  322MPD2    C3 4890   1.163   0.953  13.025 -0.4418  0.0071 -0.2201
  322MPD2    C4 4891   1.194   0.998  12.898 -0.0802 -0.0766  0.6978
  322MPD2    C5 4892   1.143   1.117  12.867 -0.4971 -0.3875  0.5898
  322MPD2     H 4893   1.074   0.980  13.209 -0.7547  0.3567 -0.4705
  322MPD2    H1 4894   1.270   0.965  12.828 -0.5346  0.7997 -0.2060
  322MPD2    H2 4895   1.010   1.282  12.919 -0.5589  0.2445  0.7601
  322MPD2    H3 4896   1.171   1.169  12.776  1.1639  0.2846  1.4896
  322MPD2     N 4897   1.226   0.833  13.078 -0.2336  0.2370  0.1362
  322MPD2    H5 4898   1.211   0.814  13.176 -2.0871  1.3152  0.0643
  322MPD2    N1 4899   0.962   1.225  13.173  0.2264  0.5491  0.2969
  322MPD2    H7 4900   0.940   1.323  13.158  0.8572  0.4697 -1.1117
  323TMC3    C1 4901   0.906   1.291  13.380 -0.1147 -0.5568 -0.1635
  323TMC3    C2 4902   1.003   1.389  13.380 -0.4926  0.1950 -0.0493
  323TMC3    C3 4903   1.031   1.463  13.492  0.1702  0.6608 -0.3460
  323TMC3    C4 4904   0.836   1.265  13.499  1.0493 -0.1910 -0.6411
  323TMC3    C5 4905   0.853   1.349  13.606 -0.3914 -0.3757 -0.0999
  323TMC3    C6 4906   0.956   1.443  13.612 -0.1516 -0.4833 -0.0907
  323TMC3     C 4907   0.912   1.181  13.287 -0.7101  0.2587 -0.1157
  323TMC3     O 4908   0.883   1.068  13.332  0.3249 -0.6716  0.2910
  323TMC3     H 4909   1.075   1.390  13.299  0.8800 -3.3969  1.1316
  323TMC3    H1 4910   0.751   1.198  13.501 -0.1336  1.3735  1.6098
  323TMC3    H2 4911   0.971   1.499  13.705  2.0669  0.2353 -0.8850
  323TMC3    C7 4912   0.796   1.291  13.729 -0.4443  0.5434  0.3383
  323TMC3    C8 4913   1.178   1.496  13.508  0.2659  0.1695 -0.7116
  323TMC3    O1 4914   0.737   1.183  13.723  0.0253  0.5055 -0.0138
  323TMC3    O2 4915   1.213   1.505  13.626  0.0420 -0.3106 -0.2135
  324MPD2     C 4916   2.424   1.645  14.444  0.6966 -0.6611 -0.0354
  324MPD2    C1 4917   2.425   1.764  14.513  0.1803 -0.1692 -0.0810
  324MPD2    C2 4918   2.304   1.819  14.562 -0.6835 -0.3402 -0.3532
  324MPD2    C3 4919   2.191   1.734  14.562  0.5412  0.4683 -0.1770
  324MPD2    C4 4920   2.191   1.616  14.485 -0.4038  0.1545 -0.4647
  324MPD2    C5 4921   2.309   1.566  14.435 -0.4956  0.3447  0.6237
  324MPD2     H 4922   2.307   1.912  14.617 -3.2780  0.7676 -2.1240
  324MPD2    H1 4923   2.101   1.557  14.473  0.3197 -0.6859 -1.7373
  324MPD2    H2 4924   2.515   1.610  14.398 -1.2625 -4.5685 -0.9207
  324MPD2    H3 4925   2.316   1.467  14.390 -0.6441 -0.2858  2.0100
  324MPD2     N 4926   2.067   1.769  14.619 -0.5812  0.0222  0.3268
  324MPD2    H5 4927   1.989   1.706  14.606  0.2367 -1.5436  3.0616
  324MPD2    N1 4928   2.537   1.842  14.537 -0.1011  0.1659  0.8303
  324MPD2    H7 4929   2.530   1.930  14.587 -1.9662  1.4573 -1.7202
  325TMC3    C1 4930   1.887   1.905  14.694 -0.5004 -0.1031 -0.1810
  325TMC3    C2 4931   1.820   1.899  14.578 -0.2010 -0.1159 -0.6361
  325TMC3    C3 4932   1.686   1.930  14.573 -0.0235  0.1317  0.3271
  325TMC3    C4 4933   1.833   1.965  14.801 -0.8040  0.0301 -0.3448
  325TMC3    C5 4934   1.707   2.009  14.795 -0.5303 -0.2097 -0.1484
  325TMC3    C6 4935   1.631   1.997  14.683  0.4970 -0.2955 -0.0906
  325TMC3     C 4936   2.029   1.886  14.684 -0.4687  0.6027 -0.1555
  325TMC3     O 4937   2.098   1.974  14.731  0.2691 -0.4018  0.5733
  325TMC3     H 4938   1.881   1.881  14.490 -1.1733 -1.5495 -1.0252
  325TMC3    H1 4939   1.883   1.967  14.897 -1.5317  1.4642  0.0101
  325TMC3    H2 4940   1.528   2.031  14.683  0.4071 -0.5650 -0.3920
  325TMC3    C7 4941   1.692   2.130  14.875 -0.1394 -0.0994 -0.6242
  325TMC3    C8 4942   1.627   1.909  14.441 -0.2010  0.5068 -0.4043
  325TMC3    O1 4943   1.788   2.169  14.941  0.2994  0.2649  0.2493
  325TMC3    O2 4944   1.694   1.848  14.360  0.5621 -0.8142  0.6170
  326MPD2     C 4945   3.289   2.979  11.292  0.6821 -0.8080  0.2320
  326MPD2    C1 4946   3.264   3.047  11.181  0.7084 -0.0757  0.2048
  326MPD2    C2 4947   3.366   3.115  11.120  0.2886  0.4543 -0.7718
  326MPD2    C3 4948   3.486   3.122  11.186  0.4980  0.3134 -0.5354
  326MPD2    C4 4949   3.506   3.064  11.308  0.2724 -1.0485 -0.0715
  326MPD2    C5 4950   3.407   2.997  11.362  0.0587  0.0522 -0.7529
  326MPD2     H 4951   3.346   3.176  11.034 -1.9129  1.9722  0.8067
  326MPD2    H1 4952   3.606   3.067  11.350  1.2860 -1.7863 -2.4315
  326MPD2    H2 4953   3.212   2.926  11.346  0.0262  0.3168  0.4060
  326MPD2    H3 4954   3.414   2.942  11.455  1.3452 -0.9489 -1.4270
  326MPD2     N 4955   3.591   3.200  11.134  0.0262  0.4383 -0.9267
  326MPD2    H5 4956   3.678   3.207  11.185  0.4627  2.2969 -1.9180
  326MPD2    N1 4957   3.132   3.043  11.135 -0.2760  0.5990 -0.6398
  326MPD2    H7 4958   3.064   2.988  11.187  0.1515 -0.5384 -1.2772
  327TMC3    C1 4959   2.935   3.098  11.018 -0.0581 -0.2535 -0.6646
  327TMC3    C2 4960   2.891   3.204  10.946 -0.5857 -0.0151  0.1622
  327TMC3    C3 4961   2.841   3.188  10.822  0.0578 -0.1227  0.3120
  327TMC3    C4 4962   2.924   2.972  10.961 -0.9619 -0.0559  1.0094
  327TMC3    C5 4963   2.864   2.954  10.841  0.0057  0.4311 -0.0035
  327TMC3    C6 4964   2.828   3.065  10.764 -0.7837 -0.1291 -0.4527
  327TMC3     C 4965   3.073   3.125  11.044 -0.9618  0.0433 -0.2659
  327TMC3     O 4966   3.122   3.213  10.975 -0.2399  0.5711 -0.4543
  327TMC3     H 4967   2.881   3.302  10.992  0.6986  0.6033 -0.9061
  327TMC3    H1 4968   2.979   2.892  11.010  4.4732  2.1718 -1.4363
  327TMC3    H2 4969   2.778   3.057  10.668 -1.1502  1.5968 -0.4097
  327TMC3    C7 4970   2.854   2.820  10.785  0.5496  0.1199 -0.3238
  327TMC3    C8 4971   2.877   3.306  10.740  0.6761  0.5408 -0.6462
  327TMC3    O1 4972   2.799   2.804  10.676  0.2388 -0.0077  0.0168
  327TMC3    O2 4973   2.953   3.386  10.800 -0.4669 -0.3202 -0.6218
  328MPD2     C 4974   1.649   3.575  17.496 -0.0971  0.3767 -0.5747
  328MPD2    C1 4975   1.592   3.533  17.377 -0.0476 -0.6931  0.0616
  328MPD2    C2 4976   1.542   3.624  17.288 -0.1729  1.0381  0.0500
  328MPD2    C3 4977   1.533   3.758  17.319 -0.6352  0.5338  0.2120
  328MPD2    C4 4978   1.572   3.792  17.452  0.3857 -0.1817 -0.3859
  328MPD2    C5 4979   1.646   3.706  17.521  0.2996  0.4821  0.0448
  328MPD2     H 4980   1.503   3.592  17.192  0.4494  2.4419 -0.6683
  328MPD2    H1 4981   1.568   3.894  17.490  1.0106 -0.6737  0.9948
  328MPD2    H2 4982   1.698   3.502  17.560 -0.3281  0.5571 -0.1923
  328MPD2    H3 4983   1.678   3.747  17.616 -1.2070 -0.5221  0.9777
  328MPD2     N 4984   1.478   3.860  17.240  0.2821 -0.2549  0.2975
  328MPD2    H5 4985   1.466   3.952  17.283 -1.6904 -2.2237  3.9543
  328MPD2    N1 4986   1.597   3.397  17.347 -0.2007 -0.3717  0.0513
  328MPD2    H7 4987   1.641   3.338  17.417 -2.7316 -1.3916  0.7637
  329TMC3    C1 4988   1.559   3.185  17.251 -0.2175  0.0744  0.2000
  329TMC3    C2 4989   1.557   3.126  17.372  0.8788  0.0396  0.2738
  329TMC3    C3 4990   1.539   2.987  17.376  0.3972  0.1300  0.8556
  329TMC3    C4 4991   1.541   3.115  17.131 -0.3717  0.2863  0.2106
  329TMC3    C5 4992   1.546   2.975  17.143 -0.4927  0.2815  0.0515
  329TMC3    C6 4993   1.543   2.907  17.267 -0.0618 -0.3051  0.1436
  329TMC3     C 4994   1.551   3.333  17.233 -0.3382  0.3323 -0.4004
  329TMC3     O 4995   1.510   3.379  17.124 -0.2352 -0.1679 -0.0126
  329TMC3     H 4996   1.559   3.172  17.470  0.6213  1.1483 -0.2443
  329TMC3    H1 4997   1.543   3.164  17.034 -0.0603  0.9076  0.5327
  329TMC3    H2 4998   1.523   2.800  17.274  4.1535 -0.9408  2.5576
  329TMC3    C7 4999   1.558   2.897  17.019  0.2766  0.0572  0.1101
  329TMC3    C8 5000   1.502   2.918  17.494  0.3906  0.2306  0.2168
  329TMC3    O1 5001   1.571   2.955  16.912  0.2632 -0.5266  0.1078
  329TMC3    O2 5002   1.533   2.800  17.497 -0.3567  0.0720 -0.0558
  330TMC3    C1 5003   3.657   3.006   9.644 -0.3149 -0.3337 -0.7541
  330TMC3    C2 5004   3.608   2.904   9.567 -0.2342  0.5955 -0.1674
  330TMC3    C3 5005   3.629   2.780   9.614 -0.3238  0.7223 -0.4175
  330TMC3    C4 5006   3.754   2.986   9.740 -0.2140 -0.7366  0.4514
  330TMC3    C5 5007   3.780   2.860   9.776  0.1749 -0.2292 -0.3749
  330TMC3    C6 5008   3.717   2.753   9.717  0.0086 -0.0185 -0.7420
  330TMC3     C 5009   3.602   3.140   9.629  0.1875 -0.3161  0.4313
  330TMC3     O 5010   3.635   3.226   9.709 -0.3522 -0.0846  0.1147
  330TMC3     H 5011   3.549   2.919   9.478 -0.0084  3.2310  0.1030
  330TMC3    H1 5012   3.815   3.068   9.777 -2.3972  0.1615  2.0379
  330TMC3    H2 5013   3.757   2.655   9.737 -2.3259 -1.3083 -2.4751
  330TMC3    C7 5014   3.859   2.840   9.895 -0.2272  0.6097  0.7106
  330TMC3    C8 5015   3.568   2.666   9.546  0.3091  0.2012 -0.0423
  330TMC3    O1 5016   3.930   2.742   9.886 -0.4547  0.3384  0.2310
  330TMC3    O2 5017   3.522   2.683   9.434  0.9422  0.0249  0.4508
  331MPD2     C 5018   2.254   1.404  13.243  0.6040 -0.7463 -0.4362
  331MPD2    C1 5019   2.161   1.460  13.159 -0.1847 -0.6464  0.3829
  331MPD2    C2 5020   2.038   1.392  13.142  0.3748  0.1914  0.4066
  331MPD2    C3 5021   2.008   1.277  13.218 -0.2983 -0.0750 -0.5023
  331MPD2    C4 5022   2.102   1.234  13.310 -0.3063  0.2467 -0.0902
  331MPD2    C5 5023   2.221   1.295  13.328  0.5289 -0.3837 -0.8868
  331MPD2     H 5024   1.967   1.447  13.083  0.2681  0.0988  0.4489
  331MPD2    H1 5025   2.093   1.139  13.361  1.1450  0.7374  1.0546
  331MPD2    H2 5026   2.354   1.445  13.252  0.3453 -0.5114  1.2368
  331MPD2    H3 5027   2.288   1.258  13.405  0.4003  0.2859 -0.4603
  331MPD2     N 5028   1.881   1.216  13.196 -0.0726 -0.0983  0.5218
  331MPD2    H5 5029   1.822   1.262  13.128  0.9391  2.8151  1.6327
  331MPD2    N1 5030   2.201   1.567  13.073 -0.1486 -0.0506 -0.4846
  331MPD2    H7 5031   2.299   1.584  13.055 -0.7955  2.6487 -1.4574
  332TMC3    C1 5032   1.743   1.034  13.172 -0.1714 -0.4482  0.7510
  332TMC3    C2 5033   1.647   1.107  13.100 -0.0293  0.0686  0.0125
  332TMC3    C3 5034   1.585   1.042  12.990 -0.0734  0.4901  0.1792
  332TMC3    C4 5035   1.775   0.909  13.132  0.4898  0.2864 -0.3144
  332TMC3    C5 5036   1.723   0.850  13.018  0.0513 -0.3931 -0.3178
  332TMC3    C6 5037   1.622   0.919  12.948  0.2084  0.5070 -0.6229
  332TMC3     C 5038   1.842   1.099  13.251  0.2680  0.0199  0.2870
  332TMC3     O 5039   1.913   1.023  13.318 -0.3820 -0.3417 -0.0612
  332TMC3     H 5040   1.626   1.211  13.125  2.4324  1.2021 -2.6983
  332TMC3    H1 5041   1.850   0.848  13.182  0.2982  2.3004  2.4627
  332TMC3    H2 5042   1.567   0.874  12.867  0.5180  2.3279 -1.8297
  332TMC3    C7 5043   1.796   0.748  12.945  0.2680  0.1270  0.2679
  332TMC3    C8 5044   1.540   1.131  12.879 -0.0736  0.4398 -0.2046
  332TMC3    O1 5045   1.730   0.662  12.887 -0.0315  0.2117 -0.1542
  332TMC3    O2 5046   1.567   1.105  12.760  0.0229 -0.2563  0.3829
  333MPD2     C 5047   1.930   1.561  11.419  0.7659  0.2820  0.1261
  333MPD2    C1 5048   1.931   1.439  11.351 -0.0695 -0.3351 -0.0269
  333MPD2    C2 5049   1.865   1.328  11.402 -0.5680 -0.4557 -0.1120
  333MPD2    C3 5050   1.816   1.334  11.537 -0.0742 -0.2768 -0.6250
  333MPD2    C4 5051   1.814   1.456  11.602  0.1756  0.5045 -0.2932
  333MPD2    C5 5052   1.869   1.562  11.537 -0.5771 -0.2401  0.5223
  333MPD2     H 5053   1.859   1.238  11.342  2.0669  0.8065 -2.2464
  333MPD2    H1 5054   1.783   1.471  11.705  0.6560  1.4181 -0.2791
  333MPD2    H2 5055   1.982   1.650  11.388  0.7098  0.2067 -0.1867
  333MPD2    H3 5056   1.876   1.653  11.596  0.2595  1.0964 -1.6474
  333MPD2     N 5057   1.762   1.218  11.592 -0.0222 -0.6093 -0.1705
  333MPD2    H5 5058   1.810   1.135  11.557  2.1388 -0.5695  2.6973
  333MPD2    N1 5059   2.001   1.436  11.231 -0.8475  0.7247  0.4139
  333MPD2    H7 5060   2.046   1.524  11.208 -0.3149  0.5310  0.6997
  334TMC3    C1 5061   2.121   1.344  11.038  0.4986 -0.1110 -0.4287
  334TMC3    C2 5062   2.189   1.240  10.987 -0.0363 -0.4562 -0.6561
  334TMC3    C3 5063   2.278   1.265  10.889 -0.2476 -0.3793  0.2650
  334TMC3    C4 5064   2.098   1.464  10.960 -0.3318  0.3674  0.2216
  334TMC3    C5 5065   2.162   1.457  10.835  0.0412  0.4706  0.7391
  334TMC3    C6 5066   2.266   1.370  10.810  0.0292  0.5776 -0.8221
  334TMC3     C 5067   2.037   1.322  11.163 -0.0145  0.5028  0.6843
  334TMC3     O 5068   2.014   1.201  11.187 -0.8785 -0.1055 -0.2507
  334TMC3     H 5069   2.201   1.148  11.043  0.1092 -0.1706 -0.2249
  334TMC3    H1 5070   2.026   1.536  10.997  0.0245  0.4812  0.6954
  334TMC3    H2 5071   2.328   1.383  10.721 -0.7747  0.1274 -1.4463
  334TMC3    C7 5072   2.182   1.585  10.772  0.8726  0.2753  1.1570
  334TMC3    C8 5073   2.411   1.204  10.901 -0.0321 -0.8167  0.3482
  334TMC3    O1 5074   2.199   1.687  10.836  0.4687  0.1076 -0.3340
  334TMC3    O2 5075   2.411   1.088  10.943 -0.3337  0.3044 -0.2285
  335TMC3    C1 5076   2.143   3.791  17.439 -0.3000  0.1420  0.3084
  335TMC3    C2 5077   2.064   3.714  17.366 -0.3404 -0.2021 -0.8495
  335TMC3    C3 5078   2.109   3.687  17.241 -0.1388 -0.0753  0.7046
  335TMC3    C4 5079   2.254   3.862  17.389 -0.1853 -1.5353  0.1978
  335TMC3    C5 5080   2.286   3.836  17.261 -0.3302 -0.8284  0.3663
  335TMC3    C6 5081   2.223   3.744  17.181 -0.4042  0.1052 -0.1905
  335TMC3     C 5082   2.147   3.753  17.581 -0.5306 -0.3764 -0.1601
  335TMC3     O 5083   2.070   3.670  17.631  0.1822  0.3114  0.1154
  335TMC3     H 5084   1.971   3.671  17.401 -1.3952  1.6975 -1.2734
  335TMC3    H1 5085   2.309   3.932  17.450 -2.3405 -1.5701  2.2087
  335TMC3    H2 5086   2.261   3.710  17.085  0.3116 -1.8722  0.7872
  335TMC3    C7 5087   2.420   3.855  17.227 -0.8201  0.7267  0.4765
  335TMC3    C8 5088   2.056   3.582  17.166  0.1419  0.4434 -0.1872
  335TMC3    O1 5089   2.464   3.772  17.147  0.1598  0.6833 -0.8073
  335TMC3    O2 5090   2.087   3.580  17.050 -0.1897  0.2039 -0.5036
  336MPD2     C 5091   1.427   1.226  16.563 -0.0485 -0.6280 -0.1312
  336MPD2    C1 5092   1.421   1.203  16.427  0.2068 -0.2134 -0.3846
  336MPD2    C2 5093   1.487   1.092  16.374  0.2291 -0.5122  0.4724
  336MPD2    C3 5094   1.554   0.999  16.449  0.2470  0.2395  0.4345
  336MPD2    C4 5095   1.569   1.028  16.584  0.0904  0.6037  0.8374
  336MPD2    C5 5096   1.500   1.138  16.644 -0.4061  0.6235 -0.0408
  336MPD2     H 5097   1.477   1.073  16.267  0.3709  0.2784  0.3217
  336MPD2    H1 5098   1.627   0.960  16.645 -1.1526  0.0519  1.3861
  336MPD2    H2 5099   1.367   1.300  16.615  0.0098 -0.0746 -0.8585
  336MPD2    H3 5100   1.518   1.169  16.746  1.5038  2.4808 -0.9522
  336MPD2     N 5101   1.598   0.874  16.413  0.3383 -0.2450  0.5570
  336MPD2    H5 5102   1.626   0.814  16.490  1.7687  0.7001  0.7753
  336MPD2    N1 5103   1.325   1.269  16.341  0.3464 -0.2796  0.6320
  336MPD2    H7 5104   1.350   1.267  16.243 -0.6432 -0.9918  0.4076
  337TMC3    C1 5105   1.122   1.336  16.261 -0.1062 -0.1385  0.6050
  337TMC3    C2 5106   0.994   1.298  16.247  0.1043  0.3072  0.6022
  337TMC3    C3 5107   0.920   1.337  16.142  0.4565  0.4188 -0.7288
  337TMC3    C4 5108   1.178   1.429  16.176 -0.1645 -0.4238 -0.1466
  337TMC3    C5 5109   1.096   1.472  16.075 -0.3178 -0.0681 -0.3437
  337TMC3    C6 5110   0.969   1.430  16.051  0.3376  0.2225 -0.5942
  337TMC3     C 5111   1.198   1.289  16.375  0.4518 -0.1623 -0.3274
  337TMC3     O 5112   1.134   1.287  16.477  0.6447 -0.8000 -0.9763
  337TMC3     H 5113   0.966   1.210  16.304  0.2893 -0.0338  0.1694
  337TMC3    H1 5114   1.275   1.470  16.200 -0.5764 -0.2672  1.2580
  337TMC3    H2 5115   0.916   1.469  15.965  1.4545 -0.2294 -1.4815
  337TMC3    C7 5116   1.146   1.562  15.981  0.8517 -0.1130  0.4692
  337TMC3    C8 5117   0.806   1.259  16.112 -0.0591  0.2395 -0.0709
  337TMC3    O1 5118   1.118   1.521  15.870 -0.0673  1.0310 -0.6404
  337TMC3    O2 5119   0.753   1.200  16.200  0.0049  0.2624  0.1175
  338MPD2     C 5120   1.934   0.828   1.001 -0.2870 -0.3481 -0.9610
  338MPD2    C1 5121   1.849   0.766   0.911  0.4428 -0.0893 -0.4364
  338MPD2    C2 5122   1.717   0.811   0.890 -0.9912 -0.2957 -0.2232
  338MPD2    C3 5123   1.669   0.907   0.972  0.1647 -0.3267  0.1176
  338MPD2    C4 5124   1.759   0.969   1.063 -0.4903  0.4460 -0.7942
  338MPD2    C5 5125   1.885   0.932   1.074  0.0883 -0.2578  0.3281
  338MPD2     H 5126   1.654   0.762   0.817  0.6532 -0.7257 -1.3614
  338MPD2    H1 5127   1.733   1.057   1.121 -0.6382 -0.1578  0.0512
  338MPD2    H2 5128   2.039   0.803   1.001 -0.5910 -1.6491 -1.9452
  338MPD2    H3 5129   1.955   0.975   1.146 -0.1892  0.8050 -0.0384
  338MPD2     N 5130   1.530   0.942   0.967 -0.5162  0.2459  0.0024
  338MPD2    H5 5131   1.471   0.871   0.925  0.0731 -0.4897  0.4100
  338MPD2    N1 5132   1.898   0.661   0.831  0.1899 -0.6243  0.5364
  338MPD2    H7 5133   1.841   0.636   0.750  1.2998  0.4554 -0.5714
  339TMC3    C1 5134   1.339   1.069   0.984  0.1196 -0.7868 -0.1255
  339TMC3    C2 5135   1.271   0.950   1.002  0.5338 -0.8265  0.3150
  339TMC3    C3 5136   1.165   0.920   0.925  0.0392 -0.8405 -0.1475
  339TMC3    C4 5137   1.311   1.138   0.872 -0.5657  0.8569 -0.0052
  339TMC3    C5 5138   1.202   1.114   0.795 -0.4308  0.3075  0.0872
  339TMC3    C6 5139   1.126   1.003   0.820  0.6587 -0.5408  0.5477
  339TMC3     C 5140   1.478   1.056   1.019  0.4924 -0.3381 -0.7740
  339TMC3     O 5141   1.542   1.157   1.046  0.2193  0.2857 -0.9834
  339TMC3     H 5142   1.311   0.878   1.073  0.1826 -2.6500 -1.3168
  339TMC3    H1 5143   1.374   1.222   0.845 -0.0970 -0.1244 -1.9606
  339TMC3    H2 5144   1.038   0.986   0.758 -0.7798  1.3826  2.0497
  339TMC3    C7 5145   1.242   1.136   0.660 -0.5450 -0.4846 -0.0094
  339TMC3    C8 5146   1.077   0.803   0.960 -0.3304 -0.6823 -0.1918
  339TMC3    O1 5147   1.282   1.248   0.634  0.8444  0.2197 -0.0948
  339TMC3    O2 5148   0.961   0.807   0.916 -0.0029  0.5625 -0.0180
  340MPD2     C 5149   2.218   2.886  10.657  0.1318  0.0622 -0.7083
  340MPD2    C1 5150   2.216   2.877  10.519 -0.5128  0.2732  0.4822
  340MPD2    C2 5151   2.332   2.832  10.454 -0.2775  0.2379 -0.4109
  340MPD2    C3 5152   2.452   2.817  10.525 -0.5343 -0.3892  0.7218
  340MPD2    C4 5153   2.451   2.827  10.664 -0.0769  0.3499 -0.2929
  340MPD2    C5 5154   2.332   2.853  10.729 -0.2509  0.4623  0.4381
  340MPD2     H 5155   2.327   2.809  10.348 -1.2001  0.6880 -0.4659
  340MPD2    H1 5156   2.540   2.817  10.724  0.5719 -0.6274 -1.4280
  340MPD2    H2 5157   2.130   2.933  10.699  1.2488  1.6672 -0.1622
  340MPD2    H3 5158   2.343   2.861  10.836 -2.5431 -1.2348  0.8013
  340MPD2     N 5159   2.573   2.801  10.462  0.1629 -0.6428 -0.6868
  340MPD2    H5 5160   2.660   2.810  10.514  0.8115 -2.1924 -1.5265
  340MPD2    N1 5161   2.096   2.896  10.451  0.2679  0.0770 -0.1902
  340MPD2    H7 5162   2.015   2.884  10.511  1.6469 -0.1181  1.6212
  341TMC3    C1 5163   1.952   2.921  10.261 -0.6780 -0.6276 -0.2730
  341TMC3    C2 5164   1.872   2.816  10.292 -0.7745 -0.1882  0.1414
  341TMC3    C3 5165   1.734   2.827  10.256  0.5619  0.0997  1.4133
  341TMC3    C4 5166   1.909   3.030  10.191 -0.2227  0.0564  0.0626
  341TMC3    C5 5167   1.777   3.037  10.158  0.7909 -0.1754  0.1472
  341TMC3    C6 5168   1.690   2.936  10.186 -0.0699  0.0853 -0.0425
  341TMC3     C 5169   2.084   2.930  10.316 -0.0924 -0.6036 -0.3442
  341TMC3     O 5170   2.173   2.972  10.246 -0.4274  0.2922 -0.2952
  341TMC3     H 5171   1.907   2.736  10.355  1.1247  0.2326 -0.3848
  341TMC3    H1 5172   1.978   3.110  10.170  2.8424 -2.6480 -0.2838
  341TMC3    H2 5173   1.588   2.946  10.150  0.7807  1.0958 -2.1954
  341TMC3    C7 5174   1.735   3.158  10.090  0.6909 -0.4261  0.3299
  341TMC3    C8 5175   1.664   2.698  10.239  0.3652 -0.4466 -0.4875
  341TMC3    O1 5176   1.641   3.149  10.016  0.3992  0.4229  0.4831
  341TMC3    O2 5177   1.721   2.603  10.293  0.6239 -0.3258 -0.0261
  342MPD2     C 5178   0.159   1.226   0.301  0.3424 -0.5923 -0.7977
  342MPD2    C1 5179   0.201   1.271   0.176 -0.2087  0.2190 -0.0347
  342MPD2    C2 5180   0.213   1.401   0.154 -0.2148 -0.4792  0.3590
  342MPD2    C3 5181   0.167   1.502   0.243  0.6193 -0.9950 -0.4184
  342MPD2    C4 5182   0.113   1.460   0.362 -0.1123  0.1387  0.6269
  342MPD2    C5 5183   0.110   1.321   0.389  0.1395 -0.2339 -0.2743
  342MPD2     H 5184   0.242   1.423   0.052 -0.1296 -0.0607  0.4723
  342MPD2    H1 5185   0.068   1.532   0.429  1.3255  0.1104  1.6332
  342MPD2    H2 5186   0.152   1.125   0.339  1.4386 -0.1440  0.5665
  342MPD2    H3 5187   0.060   1.298   0.483 -0.9273  2.3246 -0.1930
  342MPD2     N 5188   0.168   1.642   0.219 -0.5708  0.5379 -0.5037
  342MPD2    H5 5189   0.129   1.708   0.285 -0.6596 -1.3774  1.3491
  342MPD2    N1 5190   0.234   1.172   0.072 -0.7091 -0.5630  0.1785
  342MPD2    H7 5191   0.261   1.207  17.717  2.2171  0.2836  1.3700
  343TMC3    C1 5192   0.221   0.957  17.700 -0.2863 -0.0786 -0.0533
  343TMC3    C2 5193   0.258   1.013  17.585 -0.4200 -0.9687  1.0029
  343TMC3    C3 5194   0.226   0.940  17.475 -0.2699 -0.0097  0.0918
  343TMC3    C4 5195   0.161   0.832  17.713  0.0360 -0.5391  0.5769
  343TMC3    C5 5196   0.136   0.764  17.593 -0.7004  0.0360  0.4606
  343TMC3    C6 5197   0.157   0.821  17.471  0.2328  0.6121 -0.9340
  343TMC3     C 5198   0.228   1.031   0.090 -0.2839  0.1361 -0.6404
  343TMC3     O 5199   0.207   0.966   0.192 -0.3422  0.4433  0.1615
  343TMC3     H 5200   0.312   1.106  17.579  0.1447 -1.2802  1.2723
  343TMC3    H1 5201   0.103   0.799   0.063  0.0331  0.0947  0.8218
  343TMC3    H2 5202   0.146   0.766  17.378 -0.0753 -1.8093  0.5453
  343TMC3    C7 5203   0.103   0.618  17.610  0.0354  0.0856 -0.9992
  343TMC3    C8 5204   0.280   0.997  17.354 -0.2371 -0.3915  0.8974
  343TMC3    O1 5205   0.064   0.556  17.509 -0.1586  0.4280 -0.5836
  343TMC3    O2 5206   0.297   1.120  17.356 -0.0715 -0.2355  0.2635
  344MPD2     C 5207   0.736   0.915  11.594 -0.4712  0.6791 -0.4293
  344MPD2    C1 5208   0.795   0.823  11.514  0.2166  0.2142  0.6317
  344MPD2    C2 5209   0.881   0.861  11.411  0.5403  0.5527 -0.1668
  344MPD2    C3 5210   0.896   0.998  11.384  0.1212 -0.0225 -0.3690
  344MPD2    C4 5211   0.836   1.091  11.466 -0.7774  0.4791 -0.0785
  344MPD2    C5 5212   0.760   1.048  11.574  0.6694 -0.0441 -0.6336
  344MPD2     H 5213   0.935   0.790  11.349  1.3907  0.9136  0.1608
  344MPD2    H1 5214   0.831   1.198  11.449  2.1013  0.7063  0.5236
  344MPD2    H2 5215   0.666   0.889  11.673  0.2015  1.1839  0.3269
  344MPD2    H3 5216   0.721   1.126  11.638  1.5640 -1.5186  1.7373
  344MPD2     N 5217   0.974   1.049  11.279  1.1212 -0.2119  0.2872
  344MPD2    H5 5218   0.976   1.150  11.269  1.6016 -0.3091 -0.5968
  344MPD2    N1 5219   0.774   0.685  11.525  0.5259 -0.0781 -0.0371
  344MPD2    H7 5220   0.807   0.618  11.456  1.3607  0.7680 -0.4749
  345TMC3    C1 5221   1.116   1.060  11.087  0.2890 -0.3763  0.6778
  345TMC3    C2 5222   1.201   1.142  11.147  0.1550  0.3927  0.2489
  345TMC3    C3 5223   1.222   1.258  11.087  0.6867  0.0769 -0.4494
  345TMC3    C4 5224   1.070   1.074  10.961 -0.2619 -0.1993 -0.4124
  345TMC3    C5 5225   1.106   1.189  10.892 -0.6121 -0.0628  1.1453
  345TMC3    C6 5226   1.191   1.284  10.951  0.2253  0.0188  0.1337
  345TMC3     C 5227   1.042   0.976  11.177  0.0158 -0.5789  0.5688
  345TMC3     O 5228   1.043   0.856  11.161  0.0273  0.5382 -0.0186
  345TMC3     H 5229   1.232   1.128  11.250  1.3661 -0.0081 -0.1709
  345TMC3    H1 5230   1.004   0.998  10.920 -2.2718  0.5348  1.4331
  345TMC3    H2 5231   1.224   1.375  10.903  1.7403 -1.2272 -1.2197
  345TMC3    C7 5232   1.080   1.209  10.753 -0.0132 -0.0820 -0.7306
  345TMC3    C8 5233   1.333   1.334  11.140  0.2457  0.5945  0.1479
  345TMC3    O1 5234   1.127   1.309  10.697  0.4568  0.3358  0.5912
  345TMC3    O2 5235   1.425   1.276  11.190  0.0788  0.5615 -0.2393
  346MPD2     C 5236   0.505   2.526  14.298 -0.6484 -0.8952  0.0089
  346MPD2    C1 5237   0.642   2.517  14.280  0.1985 -1.0178 -0.2507
  346MPD2    C2 5238   0.719   2.536  14.393 -0.6041 -0.4730  0.0295
  346MPD2    C3 5239   0.661   2.566  14.515 -0.1464  0.2425 -0.4993
  346MPD2    C4 5240   0.525   2.565  14.529 -0.7917 -0.3717 -0.0603
  346MPD2    C5 5241   0.446   2.541  14.417  0.3927 -0.2159  0.0366
  346MPD2     H 5242   0.826   2.524  14.397 -0.5533  0.7760  2.1661
  346MPD2    H1 5243   0.481   2.576  14.628 -4.3859 -0.4814 -1.6398
  346MPD2    H2 5244   0.434   2.499  14.221 -1.3469 -0.5566  0.5275
  346MPD2    H3 5245   0.338   2.543  14.426  0.4319 -1.7416  1.0471
  346MPD2     N 5246   0.741   2.604  14.624 -0.2305  0.3709 -0.1450
  346MPD2    H5 5247   0.841   2.594  14.609  0.1153  5.1686 -0.8941
  346MPD2    N1 5248   0.710   2.491  14.160 -0.4750  0.0735  0.1078
  346MPD2    H7 5249   0.810   2.475  14.164 -0.2453  1.6885  0.8110
  347TMC3    C1 5250   0.814   2.625  14.847  0.2462  0.0031  0.0737
  347TMC3    C2 5251   0.922   2.556  14.809  0.1764  0.0425 -0.3058
  347TMC3    C3 5252   1.040   2.573  14.885 -0.2979  0.1937  0.4875
  347TMC3    C4 5253   0.817   2.727  14.943  0.7310  0.2162 -0.5153
  347TMC3    C5 5254   0.934   2.744  15.010 -0.4785 -0.2338 -0.3614
  347TMC3    C6 5255   1.042   2.668  14.988  0.0478 -0.0429 -0.2610
  347TMC3     C 5256   0.699   2.631  14.750  0.2693 -0.1250  0.2915
  347TMC3     O 5257   0.596   2.686  14.790 -0.4395  0.2197  1.0512
  347TMC3     H 5258   0.916   2.489  14.724 -1.1661  0.4941 -0.5700
  347TMC3    H1 5259   0.725   2.781  14.960  0.6262  0.7532 -2.7775
  347TMC3    H2 5260   1.132   2.679  15.047  0.4223 -2.2332 -0.4544
  347TMC3    C7 5261   0.940   2.849  15.102  0.5969  0.0200  0.2247
  347TMC3    C8 5262   1.161   2.503  14.843  0.4140  0.2332 -0.2663
  347TMC3    O1 5263   1.053   2.892  15.120 -0.4370  0.2107 -0.3825
  347TMC3    O2 5264   1.146   2.399  14.776  0.7508 -0.6842  0.0780
  348MPD2     C 5265   4.079   2.022  12.329 -0.3875 -0.2652  0.0781
  348MPD2    C1 5266   4.199   2.055  12.270  0.2678 -0.1467 -0.0845
  348MPD2    C2 5267   4.198   2.116  12.147 -0.6794  0.1651 -0.8324
  348MPD2    C3 5268   4.083   2.156  12.089 -0.0994  0.4649 -0.1382
  348MPD2    C4 5269   3.961   2.141  12.155 -0.1734  0.6829  0.5816
  348MPD2    C5 5270   3.960   2.075  12.276 -0.3422  0.0748  0.2476
  348MPD2     H 5271   4.292   2.139  12.098  0.8001 -1.0840  1.4089
  348MPD2    H1 5272   3.862   2.175  12.127  0.7524  2.1929 -0.7753
  348MPD2    H2 5273   4.066   1.963  12.419 -0.2260 -0.5387 -0.0759
  348MPD2    H3 5274   3.860   2.058  12.315  0.1563 -0.7473  1.1812
  348MPD2     N 5275   4.082   2.220  11.961  0.0834 -0.0267  0.1592
  348MPD2    H5 5276   4.175   2.237  11.926  0.7802 -1.1340  1.4513
  348MPD2    N1 5277   4.326   2.014  12.319  0.2571  0.2807 -0.2159
  348MPD2    H7 5278   4.406   2.050  12.268  1.3545  0.5317  1.6936
  349TMC3    C1 5279   4.490   1.883  12.403  0.2188 -0.5717 -0.3604
  349TMC3    C2 5280   4.507   1.769  12.479 -0.3136 -0.7911  0.2786
  349TMC3    C3 5281   4.551   1.653  12.426 -0.4745  0.4141 -0.0517
  349TMC3    C4 5282   4.514   1.870  12.266  0.9300  0.3777 -0.5237
  349TMC3    C5 5283   4.542   1.753  12.205  0.2607 -0.2132  0.3822
  349TMC3    C6 5284   4.564   1.644  12.287  0.3746  0.4280 -0.0897
  349TMC3     C 5285   4.358   1.938  12.430 -0.2221 -0.5436  0.6715
  349TMC3     O 5286   4.292   1.892  12.521  0.0621  0.0165  0.1420
  349TMC3     H 5287   4.496   1.780  12.587 -1.8904 -1.5462  0.1903
  349TMC3    H1 5288   4.533   1.955  12.202  0.5290  0.3123 -0.7306
  349TMC3    H2 5289   4.562   1.545  12.243 -2.0783  0.1520  0.6467
  349TMC3    C7 5290   4.447   1.731  12.101  0.3560  0.1326  0.7309
  349TMC3    C8 5291   4.588   1.544  12.516  0.2262  0.4182 -0.0067
  349TMC3    O1 5292   4.385   1.629  12.097 -0.3706  0.2847  0.5915
  349TMC3    O2 5293   4.534   1.542  12.623 -0.0032  0.1055 -0.4414
  350MPD2     C 5294   3.866   0.567  10.915 -0.3733 -0.0452 -0.5841
  350MPD2    C1 5295   3.836   0.443  10.879  0.0590 -0.3980 -0.3085
  350MPD2    C2 5296   3.817   0.351  10.970  0.0071  0.0574  0.0388
  350MPD2    C3 5297   3.812   0.385  11.106  0.4402 -0.2741  0.3379
  350MPD2    C4 5298   3.847   0.512  11.145 -1.2503 -0.2049  0.5211
  350MPD2    C5 5299   3.872   0.598  11.048 -0.5685 -0.2849 -0.2596
  350MPD2     H 5300   3.808   0.246  10.942  0.6664 -0.2745  1.0731
  350MPD2    H1 5301   3.878   0.550  11.241  0.9470 -1.3746  0.2702
  350MPD2    H2 5302   3.898   0.645  10.848  0.1000  0.6406  0.4450
  350MPD2    H3 5303   3.901   0.695  11.087  1.7965 -1.2904  0.4505
  350MPD2     N 5304   3.790   0.275  11.198  0.9256  0.8450  0.2859
  350MPD2    H5 5305   3.785   0.183  11.156 -1.6599  0.5278  1.3247
  350MPD2    N1 5306   3.836   0.401  10.749  0.6963  0.4730 -0.1379
  350MPD2    H7 5307   3.824   0.302  10.732  0.9009  0.0506  2.1925
  351TMC3    C1 5308   3.884   0.410  10.518  0.8614  0.1302 -0.1192
  351TMC3    C2 5309   3.831   0.289  10.472  0.3076 -0.4007  0.0357
  351TMC3    C3 5310   3.902   0.212  10.385  0.2263  0.2631 -0.0007
  351TMC3    C4 5311   3.993   0.463  10.458 -0.0311 -0.3761 -0.0023
  351TMC3    C5 5312   4.053   0.389  10.356 -0.4391  0.5561 -0.0312
  351TMC3    C6 5313   4.004   0.266  10.323 -0.2554  0.2021 -0.2437
  351TMC3     C 5314   3.838   0.482  10.634 -0.1501 -0.0133  0.0774
  351TMC3     O 5315   3.836   0.606  10.627 -0.3033 -0.3306 -0.0829
  351TMC3     H 5316   3.736   0.252  10.508  1.8020 -3.9094  0.3706
  351TMC3    H1 5317   4.032   0.562  10.483  0.3278 -0.1974 -1.2562
  351TMC3    H2 5318   4.054   0.210  10.245  2.3753  1.9667  0.1970
  351TMC3    C7 5319   4.141   0.471  10.275  0.5149  0.4102 -0.4797
  351TMC3    C8 5320   3.835   0.100  10.326 -1.0743  0.4186 -0.1564
  351TMC3    O1 5321   4.147   0.588  10.305 -0.6144  0.3578  0.1184
  351TMC3    O2 5322   3.858   0.085  10.208 -0.4294  0.2889 -0.9956
  352MPD2     C 5323   2.230   2.664   1.283  0.0971  0.7554  0.3324
  352MPD2    C1 5324   2.111   2.590   1.272  0.9947 -0.2689 -1.0913
  352MPD2    C2 5325   2.136   2.454   1.260 -0.1733 -0.2930 -0.3008
  352MPD2    C3 5326   2.259   2.389   1.279  0.0528 -0.3360  0.7811
  352MPD2    C4 5327   2.372   2.469   1.289 -0.5957 -0.3718 -0.0226
  352MPD2    C5 5328   2.357   2.608   1.286  0.3080  0.5929  0.2309
  352MPD2     H 5329   2.049   2.391   1.243  0.8141 -1.4353 -1.1705
  352MPD2    H1 5330   2.470   2.426   1.309 -0.2619  0.5993  0.4261
  352MPD2    H2 5331   2.219   2.771   1.297  2.3557  1.0707 -0.2066
  352MPD2    H3 5332   2.441   2.676   1.298  0.5389  0.3078  0.2246
  352MPD2     N 5333   2.272   2.244   1.277  0.4416 -0.2446 -0.2699
  352MPD2    H5 5334   2.364   2.200   1.279 -0.0106 -1.1943 -0.3229
  352MPD2    N1 5335   1.983   2.656   1.278  1.0526  0.3512 -0.4236
  352MPD2    H7 5336   1.986   2.757   1.274  1.2667  0.4200  1.2976
  353TMC3    C1 5337   2.216   2.017   1.310  0.6793 -0.6994  0.4021
  353TMC3    C2 5338   2.337   1.980   1.255  0.1021  0.3588  0.4618
  353TMC3    C3 5339   2.373   1.849   1.271 -0.0968  0.6100 -0.2505
  353TMC3    C4 5340   2.121   1.932   1.353 -0.0790 -0.1235  0.1158
  353TMC3    C5 5341   2.158   1.800   1.359 -0.6118  0.8277 -0.5222
  353TMC3    C6 5342   2.281   1.759   1.319  0.1275 -0.2265 -0.0215
  353TMC3     C 5343   2.170   2.152   1.284 -0.4559 -0.0364  0.1657
  353TMC3     O 5344   2.049   2.167   1.275  0.1057 -0.2033  0.5879
  353TMC3     H 5345   2.400   2.046   1.198  0.3055 -0.9752 -0.8593
  353TMC3    H1 5346   2.026   1.973   1.385  0.3380  1.2393 -0.3939
  353TMC3    H2 5347   2.303   1.654   1.332 -2.1779 -0.5004  1.7633
  353TMC3    C7 5348   2.052   1.702   1.343  0.4511  0.1083 -0.0261
  353TMC3    C8 5349   2.476   1.802   1.179  0.3459 -0.1231  0.7736
  353TMC3    O1 5350   2.070   1.602   1.278  0.3908  0.4876 -0.7147
  353TMC3    O2 5351   2.527   1.892   1.114 -0.1808 -0.1238  0.4518
  354TMC3    C1 5352   3.648   3.075  13.559  0.3689  0.1540 -0.2164
  354TMC3    C2 5353   3.546   3.156  13.517 -0.3014 -0.0835  0.1257
  354TMC3    C3 5354   3.518   3.155  13.379  0.1368 -0.7060  0.4715
  354TMC3    C4 5355   3.733   3.015  13.468  0.0330  0.1348 -0.3779
  354TMC3    C5 5356   3.696   3.014  13.337  0.3834 -0.5363  0.0444
  354TMC3    C6 5357   3.592   3.086  13.290 -0.7276 -0.5207  0.3558
  354TMC3     C 5358   3.654   3.046  13.695 -0.0003 -0.4542 -0.5326
  354TMC3     O 5359   3.549   3.063  13.760  0.1946 -0.0220 -0.4357
  354TMC3     H 5360   3.481   3.201  13.591  0.2716  2.7373 -1.0485
  354TMC3    H1 5361   3.798   2.938  13.510  0.5988 -0.1648 -1.7850
  354TMC3    H2 5362   3.581   3.102  13.184  0.2312 -1.7163  0.0757
  354TMC3    C7 5363   3.786   2.953  13.250  0.5907  0.1432 -0.5926
  354TMC3    C8 5364   3.444   3.272  13.333  0.2990  0.2280  0.4958
  354TMC3    O1 5365   3.752   2.925  13.137  0.4078  0.4656  0.0235
  354TMC3    O2 5366   3.389   3.266  13.218  0.4478 -0.6349  0.5964
  355MPD2     C 5367   4.150   3.697  12.194  0.2715 -0.1229 -0.3304
  355MPD2    C1 5368   4.233   3.808  12.182  0.2435  0.3412 -0.0121
  355MPD2    C2 5369   4.331   3.832  12.281  1.0443 -0.1967 -0.1178
  355MPD2    C3 5370   4.351   3.743  12.383 -0.3782 -0.1600 -0.3875
  355MPD2    C4 5371   4.270   3.635  12.386  0.4388 -0.1329  0.1647
  355MPD2    C5 5372   4.178   3.617  12.296 -0.1758 -0.4294 -0.0336
  355MPD2     H 5373   4.393   3.920  12.277  0.8090  0.0383  1.3334
  355MPD2    H1 5374   4.267   3.562  12.466  2.4039  1.4472  1.6892
  355MPD2    H2 5375   4.089   3.662  12.112  0.0769  1.3861 -0.8222
  355MPD2    H3 5376   4.117   3.527  12.289 -1.7577  0.7195 -1.0919
  355MPD2     N 5377   4.460   3.757  12.471 -0.1867  0.2644  0.0369
  355MPD2    H5 5378   4.528   3.830  12.450 -1.6862  1.9434  1.0165
  355MPD2    N1 5379   4.222   3.892  12.072 -0.6424  0.1632 -0.0174
  355MPD2    H7 5380   4.282   3.973  12.071  0.5500 -0.7584 -2.6422
  356TMC3    C1 5381   4.599   3.740  12.658 -0.2753  0.3215 -0.6312
  356TMC3    C2 5382   4.676   3.816  12.581  0.1161  0.5635 -0.1153
  356TMC3    C3 5383   4.692   3.948  12.599  0.6377  0.3566  0.1764
  356TMC3    C4 5384   4.538   3.798  12.768 -0.3518  0.0758  0.2280
  356TMC3    C5 5385   4.556   3.928  12.794  0.3392 -0.4768 -0.0737
  356TMC3    C6 5386   4.624   4.006  12.704  0.7133 -1.0561  0.7253
  356TMC3     C 5387   4.489   3.682  12.582  0.5997  0.2222  0.2190
  356TMC3     O 5388   4.426   3.596  12.639 -0.1891  0.0013  0.1147
  356TMC3     H 5389   4.729   3.779  12.494 -2.2405 -0.5626 -1.0713
  356TMC3    H1 5390   4.500   3.735  12.848  0.7319 -0.4860  0.3023
  356TMC3    H2 5391   4.620   4.114  12.710 -1.9567 -1.0914 -0.4599
  356TMC3    C7 5392   4.511   3.989  12.920  0.3012 -0.2502  0.2841
  356TMC3    C8 5393   4.704   4.018  12.476 -0.1162 -0.2317 -0.0998
  356TMC3    O1 5394   4.430   3.937  12.997 -0.2354  0.1829  0.6174
  356TMC3    O2 5395   4.639   3.963  12.387  0.6034 -0.3773 -0.3992
  357MPD2     C 5396   3.246   3.166   1.414  0.6628  0.4519  0.2455
  357MPD2    C1 5397   3.291   3.232   1.528 -0.2581  0.2469 -0.3458
  357MPD2    C2 5398   3.242   3.185   1.647 -0.1398  0.1161 -0.1563
  357MPD2    C3 5399   3.157   3.072   1.658  0.0197 -0.1579  0.2469
  357MPD2    C4 5400   3.122   3.012   1.540  1.1656  1.3853  0.4663
  357MPD2    C5 5401   3.168   3.054   1.419 -0.4622 -0.0847  0.2974
  357MPD2     H 5402   3.264   3.230   1.743  0.0985 -2.3769  0.9726
  357MPD2    H1 5403   3.058   2.925   1.542  3.2968 -0.2440 -1.3600
  357MPD2    H2 5404   3.275   3.203   1.317  0.6077 -0.7291 -0.2227
  357MPD2    H3 5405   3.135   3.002   1.330 -1.2718 -0.1750  0.6534
  357MPD2     N 5406   3.085   3.041   1.768  0.4650 -0.1941 -0.0601
  357MPD2    H5 5407   3.005   2.980   1.756  0.2127  0.6706 -2.6761
  357MPD2    N1 5408   3.372   3.351   1.512 -0.3675  0.0742  0.1083
  357MPD2    H7 5409   3.416   3.365   1.422  0.4990  0.9358  0.6633
  358TMC3    C1 5410   3.514   3.530   1.603 -0.5989  0.1856  0.3234
  358TMC3    C2 5411   3.557   3.568   1.479 -1.1022  0.3124 -0.2527
  358TMC3    C3 5412   3.664   3.651   1.467  0.1702  0.2754 -0.0643
  358TMC3    C4 5413   3.559   3.588   1.716  0.1709 -0.4986 -0.4987
  358TMC3    C5 5414   3.664   3.672   1.705 -0.2793 -0.4424 -0.1179
  358TMC3    C6 5415   3.723   3.704   1.585 -0.2970  0.0347  0.2378
  358TMC3     C 5416   3.386   3.448   1.616  0.2409 -0.6543 -0.0218
  358TMC3     O 5417   3.336   3.450   1.725  0.0949  0.0488 -0.1004
  358TMC3     H 5418   3.502   3.520   1.398  1.8209 -0.0969 -2.0016
  358TMC3    H1 5419   3.513   3.561   1.810  2.1019 -1.7700  0.0810
  358TMC3    H2 5420   3.797   3.782   1.581 -0.1244 -0.1309  0.1797
  358TMC3    C7 5421   3.740   3.701   1.830 -0.9252  0.4447 -0.1933
  358TMC3    C8 5422   3.718   3.668   1.336 -0.0358  0.1954 -0.1528
  358TMC3    O1 5423   3.674   3.684   1.932  0.1838  0.4010  0.0102
  358TMC3    O2 5424   3.646   3.626   1.249 -0.2845  0.1018 -0.1056
  359MPD2     C 5425   4.516   2.827  11.990  0.2729  0.0266  0.5143
  359MPD2    C1 5426   4.397   2.803  11.926  0.0293 -0.3508  0.0843
  359MPD2    C2 5427   4.307   2.719  11.986 -0.1044 -0.8268  0.3390
  359MPD2    C3 5428   4.324   2.660  12.111  0.4707 -0.2681 -0.3938
  359MPD2    C4 5429   4.443   2.699  12.172 -0.4409  0.5113 -0.4865
  359MPD2    C5 5430   4.540   2.776  12.115  0.1159 -0.2187 -0.3839
  359MPD2     H 5431   4.221   2.699  11.923 -0.3138 -1.0192  0.6849
  359MPD2    H1 5432   4.462   2.666  12.273  0.6395  2.4406 -0.0558
  359MPD2    H2 5433   4.598   2.887  11.953  1.2905  0.0515  2.8092
  359MPD2    H3 5434   4.636   2.786  12.165  0.6318 -0.6891 -1.3039
  359MPD2     N 5435   4.231   2.578  12.182 -0.2724  0.0944  0.3577
  359MPD2    H5 5436   4.262   2.543  12.272 -2.2662 -2.2571  0.1303
  359MPD2    N1 5437   4.355   2.857  11.803  0.0746  0.4481 -0.1948
  359MPD2    H7 5438   4.269   2.818  11.765 -0.0752  0.4662  0.1298
  360TMC3    C1 5439   4.332   3.002  11.631  0.3514  0.3331  0.1541
  360TMC3    C2 5440   4.391   3.102  11.557 -0.8386  0.6450  0.0745
  360TMC3    C3 5441   4.392   3.099  11.421  0.1409  0.0953 -0.1435
  360TMC3    C4 5442   4.269   2.898  11.566 -0.3309  0.1655  0.4975
  360TMC3    C5 5443   4.264   2.895  11.431  0.5895 -0.3059 -0.0524
  360TMC3    C6 5444   4.327   2.993  11.359  0.0267  0.9993 -0.7083
  360TMC3     C 5445   4.415   2.958  11.739  0.1015 -0.5958 -1.1833
  360TMC3     O 5446   4.511   3.026  11.777  1.0407 -0.4406  0.5456
  360TMC3     H 5447   4.464   3.163  11.611  2.2406 -1.6105 -1.5937
  360TMC3    H1 5448   4.209   2.821  11.614 -0.2679 -0.0907  0.1600
  360TMC3    H2 5449   4.309   3.001  11.253 -0.3254 -2.3498 -0.8956
  360TMC3    C7 5450   4.169   2.805  11.369 -0.2022  0.6923  1.1462
  360TMC3    C8 5451   4.505   3.132  11.349  0.5591  0.2279 -0.0355
  360TMC3    O1 5452   4.086   2.744  11.432  0.0275 -0.4331 -0.0139
  360TMC3    O2 5453   4.540   3.057  11.263 -0.1132  0.2753 -0.6686
  361MPD2     C 5454   0.933   1.965  16.964  0.3069 -0.1531  0.0559
  361MPD2    C1 5455   0.985   2.030  17.072 -0.1156  0.1938  0.3183
  361MPD2    C2 5456   1.116   1.997  17.110  0.0977  0.6139  0.0247
  361MPD2    C3 5457   1.186   1.900  17.053  0.1759 -0.4762 -0.1843
  361MPD2    C4 5458   1.138   1.836  16.941  0.3897 -0.3482 -0.0699
  361MPD2    C5 5459   1.012   1.875  16.900 -0.2297  0.0612 -0.4220
  361MPD2     H 5460   1.160   2.046  17.195 -1.8175  0.4980  1.0863
  361MPD2    H1 5461   1.193   1.765  16.880  0.3620 -0.1502 -0.3220
  361MPD2    H2 5462   0.833   1.991  16.931  0.5003  0.5514  0.0395
  361MPD2    H3 5463   0.974   1.844  16.803 -0.4183  1.6893 -0.8619
  361MPD2     N 5464   1.320   1.876  17.075  0.4740  0.0571  0.4530
  361MPD2    H5 5465   1.359   1.808  17.011  1.6874  0.9523  0.2497
  361MPD2    N1 5466   0.912   2.126  17.146  0.7107 -0.1821  0.5008
  361MPD2    H7 5467   0.962   2.185  17.212 -0.5833  2.3341 -0.7554
  362TMC3    C1 5468   0.712   2.220  17.242  0.1369  0.0057 -0.4309
  362TMC3    C2 5469   0.586   2.184  17.283 -0.2190  0.3439  0.1480
  362TMC3    C3 5470   0.518   2.274  17.364  0.4495 -0.1888 -0.1901
  362TMC3    C4 5471   0.763   2.348  17.259  0.0027 -0.6813  0.1014
  362TMC3    C5 5472   0.683   2.440  17.325  0.2287  0.2395 -0.2043
  362TMC3    C6 5473   0.569   2.398  17.383 -0.1627 -0.0228 -0.3624
  362TMC3     C 5474   0.775   2.115  17.160 -0.5561 -0.1667  0.2932
  362TMC3     O 5475   0.707   2.017  17.129 -0.1372  0.4149 -0.1398
  362TMC3     H 5476   0.554   2.082  17.264  0.3336  0.6825 -2.4970
  362TMC3    H1 5477   0.854   2.383  17.212  0.7022 -2.9130 -0.2015
  362TMC3    H2 5478   0.513   2.467  17.445  1.5460  1.4792 -0.4928
  362TMC3    C7 5479   0.668   2.575  17.268  0.1642 -0.1651  0.2076
  362TMC3    C8 5480   0.390   2.241  17.408 -0.1346  0.5193  0.0352
  362TMC3    O1 5481   0.575   2.636  17.311  0.7582  0.1199  0.1829
  362TMC3    O2 5482   0.334   2.157  17.335  0.2624 -0.7416 -0.0073
  363TMC3    C1 5483   4.105   4.320   9.976  0.1535 -0.1104 -0.2453
  363TMC3    C2 5484   4.144   4.193  10.023  0.6818  0.4252  0.0786
  363TMC3    C3 5485   4.150   4.184  10.158  0.0604 -0.6342  0.7069
  363TMC3    C4 5486   4.089   4.427  10.057 -0.0541  1.1976 -0.1186
  363TMC3    C5 5487   4.098   4.407  10.192  0.1219 -0.1470  0.2269
  363TMC3    C6 5488   4.139   4.290  10.245  0.2706  0.5532 -0.0751
  363TMC3     C 5489   4.108   4.340   9.834  0.2173  0.3075  0.4047
  363TMC3     O 5490   4.100   4.239   9.764 -0.0173 -0.0499 -0.6372
  363TMC3     H 5491   4.144   4.107   9.957 -2.9075  0.8060 -0.4249
  363TMC3    H1 5492   4.063   4.529  10.032  0.2266  1.7289  1.7203
  363TMC3    H2 5493   4.144   4.273  10.352  0.2356  0.5294 -0.0771
  363TMC3    C7 5494   4.132   4.525  10.267 -0.4487 -0.9283 -0.0407
  363TMC3    C8 5495   4.131   4.055  10.215 -0.0812 -0.8467  0.1884
  363TMC3    O1 5496   4.205   4.609  10.211  0.3639  0.0690 -0.4280
  363TMC3    O2 5497   4.073   4.047  10.322  0.1850 -0.0509 -0.0575
  364MPD2     C 5498   2.781   3.675  10.406  1.0301  0.2296 -0.4269
  364MPD2    C1 5499   2.893   3.657  10.481 -0.3680 -0.9006 -0.1958
  364MPD2    C2 5500   2.891   3.540  10.563  0.0687 -0.2957 -0.2117
  364MPD2    C3 5501   2.807   3.435  10.539 -0.5929  0.1201 -0.2395
  364MPD2    C4 5502   2.699   3.455  10.458  0.7843 -0.4371 -0.2994
  364MPD2    C5 5503   2.682   3.576  10.399  0.2795 -0.4914  0.7664
  364MPD2     H 5504   2.973   3.517  10.630 -1.0929  0.1999  1.3738
  364MPD2    H1 5505   2.618   3.384  10.446  0.1252  0.3268 -0.3296
  364MPD2    H2 5506   2.748   3.768  10.360 -0.9218 -0.6015 -0.6938
  364MPD2    H3 5507   2.590   3.592  10.344  1.4521  3.5152  0.0061
  364MPD2     N 5508   2.806   3.313  10.616 -0.3374  0.4544  0.3106
  364MPD2    H5 5509   2.723   3.259  10.594  1.3903 -0.7329 -3.2275
  364MPD2    N1 5510   2.975   3.766  10.504  0.0448 -0.4634  0.3377
  364MPD2    H7 5511   2.964   3.853  10.452 -2.8729 -2.2070 -1.9322
  365TMC3    C1 5512   3.150   3.889  10.604  0.0765  0.0528 -0.3662
  365TMC3    C2 5513   3.158   3.983  10.497  0.4106  0.0661 -0.5130
  365TMC3    C3 5514   3.211   4.109  10.516 -0.1199 -0.0143 -0.4950
  365TMC3    C4 5515   3.206   3.924  10.729  0.0685  0.1941  0.0461
  365TMC3    C5 5516   3.260   4.051  10.741  0.0985  0.2557  0.1562
  365TMC3    C6 5517   3.256   4.139  10.642 -0.4107  1.1355  1.0029
  365TMC3     C 5518   3.078   3.760  10.596  0.6199  0.3208 -0.5555
  365TMC3     O 5519   3.121   3.669  10.665 -0.2537  0.4375 -0.2262
  365TMC3     H 5520   3.125   3.959  10.396  0.8449  0.1215 -0.6656
  365TMC3    H1 5521   3.201   3.848  10.806  1.1090 -0.8832 -0.9485
  365TMC3    H2 5522   3.294   4.238  10.664 -1.5420  1.8859 -0.4034
  365TMC3    C7 5523   3.315   4.085  10.873 -0.0191 -0.1666 -0.4754
  365TMC3    C8 5524   3.258   4.182  10.401 -0.6969  0.5073 -0.7059
  365TMC3    O1 5525   3.403   4.172  10.868  0.0616  0.1728  0.9860
  365TMC3    O2 5526   3.267   4.306  10.402 -0.4048 -0.4087  0.1827
  366MPD2     C 5527   0.835   0.914  15.771  0.3030 -1.0226  0.0905
  366MPD2    C1 5528   0.950   0.916  15.699 -0.0970  0.1955 -0.0987
  366MPD2    C2 5529   0.967   0.813  15.607  0.1334  0.0471  0.9696
  366MPD2    C3 5530   0.872   0.714  15.592 -0.3458 -0.1389  0.2444
  366MPD2    C4 5531   0.755   0.719  15.664  0.2022 -0.2096 -0.4470
  366MPD2    C5 5532   0.742   0.823  15.755  0.0911 -1.0092 -0.5032
  366MPD2     H 5533   1.065   0.810  15.562  0.8364 -0.3924  2.5712
  366MPD2    H1 5534   0.681   0.639  15.658 -1.0499  0.8863  0.4800
  366MPD2    H2 5535   0.821   0.983  15.854  2.0764  0.3308 -0.7281
  366MPD2    H3 5536   0.654   0.837  15.817  0.5305  0.3483 -0.1807
  366MPD2     N 5537   0.912   0.605  15.509 -0.0129 -0.2186 -0.0251
  366MPD2    H5 5538   1.008   0.605  15.476 -0.2301  0.0489 -0.6550
  366MPD2    N1 5539   1.041   1.024  15.707 -0.4121 -0.2050  0.0382
  366MPD2    H7 5540   1.105   1.032  15.630  0.5213 -0.0522  0.8333
  367TMC3    C1 5541   1.171   1.195  15.797 -1.0541  0.1472  0.4387
  367TMC3    C2 5542   1.241   1.231  15.905  0.5458 -0.6561  0.0090
  367TMC3    C3 5543   1.353   1.304  15.881  0.5385  0.3741 -0.4053
  367TMC3    C4 5544   1.183   1.263  15.677 -0.3796 -0.1324 -0.8479
  367TMC3    C5 5545   1.281   1.360  15.658 -0.7085  0.0621 -0.4951
  367TMC3    C6 5546   1.376   1.372  15.759  0.4605  0.1558  0.1491
  367TMC3     C 5547   1.049   1.114  15.811  1.0424 -0.5649 -0.1158
  367TMC3     O 5548   1.011   1.082  15.921 -0.3485 -0.3135  0.8396
  367TMC3     H 5549   1.220   1.190  16.003  2.1274 -0.1492  0.5577
  367TMC3    H1 5550   1.111   1.243  15.598  1.2249 -0.6053 -2.1801
  367TMC3    H2 5551   1.446   1.455  15.756 -0.6508  1.0914 -0.1135
  367TMC3    C7 5552   1.271   1.458  15.550  0.0535  0.0741 -0.6880
  367TMC3    C8 5553   1.450   1.309  15.985 -0.6136  0.4882 -0.6027
  367TMC3    O1 5554   1.362   1.523  15.503  0.1154  0.1618 -0.7526
  367TMC3    O2 5555   1.432   1.234  16.080  0.0353 -0.0210  0.5931
  368MPD2     C 5556   2.909   1.746  13.235  0.0403 -0.3795 -0.3392
  368MPD2    C1 5557   2.844   1.793  13.124  0.2979 -0.2084 -0.3895
  368MPD2    C2 5558   2.900   1.784  12.997 -0.6062  0.4335  0.0375
  368MPD2    C3 5559   3.034   1.746  12.986  0.4783  0.4785 -0.9312
  368MPD2    C4 5560   3.093   1.690  13.097 -0.1016  0.3082 -0.2921
  368MPD2    C5 5561   3.032   1.692  13.218 -0.2930 -0.5616 -0.3858
  368MPD2     H 5562   2.844   1.823  12.913  1.0943  1.7964 -0.4425
  368MPD2    H1 5563   3.190   1.642  13.096  0.1610  0.8926 -3.6784
  368MPD2    H2 5564   2.880   1.758  13.339  1.3146 -0.5374  0.0346
  368MPD2    H3 5565   3.084   1.648  13.302  1.3591  0.2896 -0.9591
  368MPD2     N 5566   3.111   1.753  12.867  0.2283 -0.1979 -0.1021
  368MPD2    H5 5567   3.211   1.736  12.875  0.5582  0.7340 -2.2036
  368MPD2    N1 5568   2.716   1.857  13.133  0.2675  0.2547 -0.7105
  368MPD2    H7 5569   2.676   1.895  13.048 -1.6521  0.4913  0.2995
  369TMC3    C1 5570   2.524   1.945  13.213  0.5550 -0.0865 -0.1272
  369TMC3    C2 5571   2.560   2.061  13.140 -0.2571 -0.0842 -0.5953
  369TMC3    C3 5572   2.453   2.150  13.115 -0.7834  0.0702 -0.2257
  369TMC3    C4 5573   2.401   1.924  13.262 -0.2092 -0.0668 -0.6407
  369TMC3    C5 5574   2.311   2.023  13.244  0.3801  0.1190  0.6474
  369TMC3    C6 5575   2.327   2.142  13.177 -0.0646 -0.6776 -0.3979
  369TMC3     C 5576   2.635   1.859  13.242  0.0044  0.4011  0.1532
  369TMC3     O 5577   2.641   1.786  13.339  0.2376  0.1188 -0.7966
  369TMC3     H 5578   2.660   2.083  13.104  0.3841 -0.3381  1.0154
  369TMC3    H1 5579   2.383   1.825  13.304 -0.2810 -0.0657 -0.6690
  369TMC3    H2 5580   2.248   2.216  13.171 -0.5177 -1.2481 -1.6460
  369TMC3    C7 5581   2.173   1.985  13.288 -0.2980  0.9758 -0.3494
  369TMC3    C8 5582   2.469   2.237  12.997  0.2375 -0.2235  0.3260
  369TMC3    O1 5583   2.164   1.887  13.362  0.0824  0.4049  0.3506
  369TMC3    O2 5584   2.367   2.285  12.951 -0.1805 -0.2472  0.1088
  370TMC3    C1 5585   2.355   2.944  16.351 -0.4905 -0.6919 -0.4711
  370TMC3    C2 5586   2.310   2.907  16.473  0.4503 -0.0932 -0.5737
  370TMC3    C3 5587   2.248   2.786  16.464 -0.4927 -0.2083  0.0312
  370TMC3    C4 5588   2.334   2.875  16.229 -0.2428 -0.0235 -0.5012
  370TMC3    C5 5589   2.279   2.754  16.241 -0.1875 -0.5542 -0.2985
  370TMC3    C6 5590   2.226   2.708  16.357  0.3587  0.2056  0.2267
  370TMC3     C 5591   2.468   3.036  16.356 -0.2274  0.3084 -0.1671
  370TMC3     O 5592   2.552   3.026  16.445 -0.5204 -0.3271  0.5315
  370TMC3     H 5593   2.347   2.955  16.563 -0.7105  0.5957 -0.4722
  370TMC3    H1 5594   2.375   2.906  16.134  1.3669 -0.5475  0.0140
  370TMC3    H2 5595   2.178   2.610  16.357  3.9661 -1.5495  0.4967
  370TMC3    C7 5596   2.288   2.670  16.129 -0.3771  0.1536 -0.2688
  370TMC3    C8 5597   2.212   2.714  16.588  0.3050  0.4290  0.4171
  370TMC3    O1 5598   2.231   2.705  16.027 -0.3288  0.2072  0.1063
  370TMC3    O2 5599   2.199   2.591  16.582 -0.0301  0.0684  0.0439
  371TMC3    C1 5600   3.234   0.891  15.757  0.3726  0.0745  0.1849
  371TMC3    C2 5601   3.144   0.900  15.860  0.4649 -0.4900  0.1683
  371TMC3    C3 5602   3.092   1.023  15.894 -0.3280  0.3860  0.4905
  371TMC3    C4 5603   3.259   0.996  15.675 -0.0799  0.3977 -0.1114
  371TMC3    C5 5604   3.209   1.116  15.714 -0.2937 -0.4003  0.5343
  371TMC3    C6 5605   3.128   1.130  15.819 -0.1139  0.5520  0.3333
  371TMC3     C 5606   3.330   0.784  15.750  0.8215 -0.1111  0.0092
  371TMC3     O 5607   3.427   0.813  15.680  0.7090 -0.1770 -0.1587
  371TMC3     H 5608   3.091   0.814  15.901 -0.5987 -0.6131 -1.4853
  371TMC3    H1 5609   3.331   0.985  15.594  0.2568 -0.6492  0.3184
  371TMC3    H2 5610   3.088   1.229  15.838 -1.8508  0.2070 -1.5084
  371TMC3    C7 5611   3.260   1.238  15.654  0.2955  0.2567 -0.1409
  371TMC3    C8 5612   3.047   1.028  16.035  0.3862  0.1896  0.1732
  371TMC3    O1 5613   3.251   1.339  15.720 -0.3451  0.4179  0.5648
  371TMC3    O2 5614   3.093   0.947  16.112 -0.5437  0.0598  0.1798
  372MPD2     C 5615   2.565   1.987  13.569  0.0830 -0.1795  0.4412
  372MPD2    C1 5616   2.685   1.942  13.619 -0.1883  0.2831  0.4457
  372MPD2    C2 5617   2.690   1.840  13.705 -0.4016  0.2838 -0.4469
  372MPD2    C3 5618   2.568   1.785  13.750 -0.4635  0.0366 -0.0531
  372MPD2    C4 5619   2.444   1.829  13.700  0.0144  0.3653 -0.1722
  372MPD2    C5 5620   2.444   1.934  13.613 -0.1602 -0.0335 -0.0753
  372MPD2     H 5621   2.785   1.804  13.744 -2.4299 -2.1439  2.1907
  372MPD2    H1 5622   2.356   1.786  13.745  1.3759 -1.0523  1.1647
  372MPD2    H2 5623   2.559   2.066  13.495 -1.1031 -2.0954 -1.5143
  372MPD2    H3 5624   2.348   1.974  13.581 -0.6403 -2.1359 -1.2462
  372MPD2     N 5625   2.574   1.671  13.832  0.1020  0.4588 -0.4177
  372MPD2    H5 5626   2.497   1.639  13.890 -1.8395  1.4204 -2.4494
  372MPD2    N1 5627   2.811   1.994  13.589 -0.4289 -0.2550  0.8745
  372MPD2    H7 5628   2.890   1.959  13.642  0.8242 -0.8491 -1.4022
  373TMC3    C1 5629   2.670   1.471  13.914  0.0726  0.5382  0.3560
  373TMC3    C2 5630   2.558   1.453  14.001 -0.0663 -0.2367 -0.0601
  373TMC3    C3 5631   2.562   1.340  14.087 -0.4166 -0.1192 -0.0204
  373TMC3    C4 5632   2.778   1.390  13.911 -0.1293  0.7774  0.1549
  373TMC3    C5 5633   2.787   1.297  14.011 -0.2444  0.4929  0.3603
  373TMC3    C6 5634   2.678   1.259  14.089  0.0386 -0.2255 -0.0360
  373TMC3     C 5635   2.674   1.574  13.813  0.0947  0.3494 -0.2254
  373TMC3     O 5636   2.772   1.582  13.737 -0.6153  0.4707  0.2579
  373TMC3     H 5637   2.473   1.518  13.989  0.3092 -0.2213 -2.6144
  373TMC3    H1 5638   2.858   1.406  13.841 -1.2784  1.4922 -0.9930
  373TMC3    H2 5639   2.682   1.180  14.162 -2.3338 -1.2353 -0.9837
  373TMC3    C7 5640   2.921   1.247  14.029 -0.4648  1.2721  0.1836
  373TMC3    C8 5641   2.449   1.308  14.168  0.4217  0.2299  0.5836
  373TMC3    O1 5642   3.002   1.270  13.943 -0.1465 -0.1221  0.0367
  373TMC3    O2 5643   2.346   1.347  14.112 -0.6389 -0.3077  0.6095
  374TMC3    C1 5644   3.063   2.374   9.833  0.2391  0.0682  0.4434
  374TMC3    C2 5645   3.167   2.433   9.909 -0.1640  0.3356 -0.4064
  374TMC3    C3 5646   3.235   2.542   9.859 -0.4972 -0.5032 -1.0745
  374TMC3    C4 5647   3.035   2.419   9.703 -0.2560  0.1426  0.0997
  374TMC3    C5 5648   3.118   2.514   9.646  0.6155  0.3062 -0.4544
  374TMC3    C6 5649   3.208   2.579   9.729  0.1217  0.4643 -0.3618
  374TMC3     C 5650   2.985   2.266   9.893  0.9457 -0.1808 -0.5282
  374TMC3     O 5651   2.941   2.277  10.006  0.7324 -0.2172  0.0800
  374TMC3     H 5652   3.170   2.407  10.014  2.2584  0.8276 -0.3476
  374TMC3    H1 5653   2.950   2.384   9.645 -0.5466  0.2610  0.4545
  374TMC3    H2 5654   3.272   2.653   9.683  1.3307 -0.8931 -0.8365
  374TMC3    C7 5655   3.073   2.596   9.529  0.1137 -0.0622 -0.1844
  374TMC3    C8 5656   3.339   2.608   9.939 -0.2869 -0.1028  0.0407
  374TMC3    O1 5657   3.131   2.704   9.523  0.3076  0.1994  0.1553
  374TMC3    O2 5658   3.372   2.714   9.889  0.3418 -0.0812  0.2474
  375MPD2     C 5659   3.713   3.609  17.062 -0.0104 -0.0990 -0.7399
  375MPD2    C1 5660   3.606   3.532  17.004 -0.2598  0.0354  0.0466
  375MPD2    C2 5661   3.610   3.397  17.000 -0.6022  0.1284 -0.0794
  375MPD2    C3 5662   3.727   3.330  17.041 -0.1844 -0.0238 -0.1904
  375MPD2    C4 5663   3.832   3.409  17.091  0.2526 -0.0293 -0.9975
  375MPD2    C5 5664   3.821   3.540  17.108  0.0109 -0.2019 -0.3132
  375MPD2     H 5665   3.522   3.352  16.956  0.3834 -0.5224 -1.3778
  375MPD2    H1 5666   3.935   3.381  17.114 -0.1430  0.2777  1.1510
  375MPD2    H2 5667   3.722   3.716  17.071  0.3754 -0.0692 -1.5186
  375MPD2    H3 5668   3.907   3.593  17.147 -0.5318 -0.0457  0.6925
  375MPD2     N 5669   3.760   3.194  17.038 -0.1991 -0.4382 -0.7059
  375MPD2    H5 5670   3.855   3.173  17.067 -0.0054 -2.2247 -2.5463
  375MPD2    N1 5671   3.480   3.580  16.959  0.2268  0.6894 -0.2980
  375MPD2    H7 5672   3.418   3.511  16.917 -2.4508  1.5942  2.2235
  376TMC3    C1 5673   3.714   2.968  17.028  1.3483  0.2835 -0.2437
  376TMC3    C2 5674   3.845   2.944  17.062 -0.1551  0.0448 -0.2086
  376TMC3    C3 5675   3.889   2.818  17.052 -0.0678  0.2711  0.9497
  376TMC3    C4 5676   3.621   2.868  17.018  0.8830 -0.4653 -0.0455
  376TMC3    C5 5677   3.674   2.740  17.009 -0.1514  0.1667 -0.1270
  376TMC3    C6 5678   3.810   2.710  17.038  0.1821 -0.4664 -1.0622
  376TMC3     C 5679   3.666   3.099  17.010 -0.0409  0.0641 -0.6578
  376TMC3     O 5680   3.549   3.129  16.974 -0.4718 -0.0541 -0.4571
  376TMC3     H 5681   3.915   3.022  17.088  0.4218 -0.4076 -0.4260
  376TMC3    H1 5682   3.515   2.887  17.009  1.1176  0.3346 -1.1569
  376TMC3    H2 5683   3.850   2.609  17.036  0.7789 -0.2351 -1.0359
  376TMC3    C7 5684   3.617   2.658  16.905  0.5065 -0.5965 -0.5440
  376TMC3    C8 5685   4.028   2.796  17.063  0.5605 -0.0649  0.5425
  376TMC3    O1 5686   3.641   2.536  16.908 -0.3866  0.0483 -0.7968
  376TMC3    O2 5687   4.055   2.684  17.104  0.0067 -0.1394  0.4199
  377MPD2     C 5688   1.508   2.003  12.920  0.2408  0.8398 -0.1565
  377MPD2    C1 5689   1.512   2.131  12.877 -0.0088 -0.2380 -0.2151
  377MPD2    C2 5690   1.418   2.226  12.929 -0.6216  0.2890  0.2302
  377MPD2    C3 5691   1.327   2.185  13.029 -0.2701  0.0983 -0.4678
  377MPD2    C4 5692   1.327   2.054  13.061 -0.6044 -0.3624 -0.4616
  377MPD2    C5 5693   1.407   1.963  12.998 -0.6973  0.6703  0.9807
  377MPD2     H 5694   1.428   2.330  12.901 -0.6489 -0.1005 -1.2574
  377MPD2    H1 5695   1.271   2.011  13.143  2.3450  0.9922  2.2416
  377MPD2    H2 5696   1.575   1.927  12.883  0.0715 -0.5907  2.4110
  377MPD2    H3 5697   1.395   1.858  13.020 -0.1950  0.2514 -0.7587
  377MPD2     N 5698   1.244   2.274  13.101 -0.1949  0.1767 -0.3245
  377MPD2    H5 5699   1.179   2.238  13.171  0.6193  1.0480  0.8742
  377MPD2    N1 5700   1.595   2.161  12.770 -0.4613  0.5267 -0.5399
  377MPD2    H7 5701   1.654   2.082  12.743 -1.5232 -1.1733  2.0829
  378TMC3    C1 5702   1.711   2.301  12.333 -0.1543  0.0991  0.4695
  378TMC3    C2 5703   1.622   2.305  12.441  0.3228 -0.2595 -0.2524
  378TMC3    C3 5704   1.670   2.265  12.565  0.3891  0.3491  0.0173
  378TMC3    C4 5705   1.846   2.279  12.350 -0.2070 -0.7445  0.4027
  378TMC3    C5 5706   1.891   2.244  12.480 -0.0667  0.5199  0.9244
  378TMC3    C6 5707   1.802   2.237  12.585 -1.1110  0.5864  0.2263
  378TMC3     C 5708   1.652   2.329  12.205 -0.1182 -0.5495 -0.5324
  378TMC3     O 5709   1.530   2.353  12.205  0.1510  0.6550 -0.4234
  378TMC3     H 5710   1.523   2.350  12.440  0.6445  0.4894  2.9648
  378TMC3    H1 5711   1.924   2.289  12.275 -0.8619 -0.3309 -0.2200
  378TMC3    H2 5712   1.845   2.206  12.679  0.4887  0.0603 -0.6801
  378TMC3    C7 5713   2.026   2.198  12.514 -0.1481 -0.3858 -0.4740
  378TMC3    C8 5714   1.577   2.265  12.673  0.6082  0.5622  0.2267
  378TMC3    O1 5715   2.053   2.172  12.632  0.1331 -0.0585  0.3246
  378TMC3    O2 5716   1.479   2.331  12.665 -0.6403  0.3694 -1.0620
  379MPD2     C 5717   2.557   0.943  16.454  0.3601 -0.3768 -0.2360
  379MPD2    C1 5718   2.493   0.882  16.556  0.0263 -0.2190  0.8142
  379MPD2    C2 5719   2.574   0.803  16.644 -0.7042  0.4063  0.1244
  379MPD2    C3 5720   2.713   0.781  16.615 -0.2479 -0.1318 -0.4469
  379MPD2    C4 5721   2.767   0.850  16.508 -0.0730  0.6275  0.1335
  379MPD2    C5 5722   2.690   0.929  16.434 -0.3301  0.7972 -0.3735
  379MPD2     H 5723   2.516   0.760  16.725 -0.8017 -1.1020 -0.7555
  379MPD2    H1 5724   2.871   0.834  16.484 -0.3461 -2.7881  1.2338
  379MPD2    H2 5725   2.509   1.013  16.387  1.2600 -1.8562 -2.4308
  379MPD2    H3 5726   2.727   0.977  16.343 -0.1461 -1.5753 -1.5677
  379MPD2     N 5727   2.787   0.695  16.696  0.0668  0.5005 -0.2278
  379MPD2    H5 5728   2.879   0.665  16.667  0.0384  0.5541 -0.3703
  379MPD2    N1 5729   2.352   0.902  16.581 -0.9975  0.2551 -0.4977
  379MPD2    H7 5730   2.302   0.849  16.652 -0.9363 -0.0906 -0.7147
  380TMC3    C1 5731   2.131   0.980  16.540 -0.2293 -0.2468  1.0937
  380TMC3    C2 5732   2.086   0.866  16.475 -0.2508  0.2220  0.0266
  380TMC3    C3 5733   1.982   0.886  16.393 -0.0055  0.5017  0.0307
  380TMC3    C4 5734   2.063   1.097  16.533  0.7895  0.7245  0.2875
  380TMC3    C5 5735   1.947   1.107  16.464  0.1092 -0.0478 -0.6314
  380TMC3    C6 5736   1.917   1.008  16.374  0.6653  0.1239  0.1117
  380TMC3     C 5737   2.277   0.993  16.525  0.1743 -0.1224  0.0171
  380TMC3     O 5738   2.307   1.092  16.459  0.2116  0.1558  0.2003
  380TMC3     H 5739   2.153   0.781  16.471  1.0271  1.1794  0.8745
  380TMC3    H1 5740   2.104   1.180  16.590  2.3576 -0.6190  1.1309
  380TMC3    H2 5741   1.835   1.011  16.303 -0.6716 -1.5284  1.5809
  380TMC3    C7 5742   1.890   1.234  16.441  0.3656 -0.1219  0.4632
  380TMC3    C8 5743   1.982   0.797  16.281 -0.1243  0.2238  0.8282
  380TMC3    O1 5744   1.931   1.325  16.511  0.6576  0.2168  0.0350
  380TMC3    O2 5745   1.945   0.837  16.168 -0.4453  0.1014 -0.4866
  381TMC3    C1 5746   2.159   2.038  16.435  0.4510  0.0091 -0.1917
  381TMC3    C2 5747   2.238   2.140  16.404 -0.6726  0.1395  0.3609
  381TMC3    C3 5748   2.281   2.227  16.504  0.8219 -0.5917 -0.4196
  381TMC3    C4 5749   2.118   2.014  16.569 -0.0024  0.2785  0.2986
  381TMC3    C5 5750   2.147   2.108  16.667  0.5644 -0.9925 -0.2592
  381TMC3    C6 5751   2.229   2.213  16.638 -1.1631 -0.3676  0.0872
  381TMC3     C 5752   2.142   1.937  16.336 -0.8702 -0.2288  0.0467
  381TMC3     O 5753   2.130   1.983  16.224 -0.6334 -0.3883  0.1575
  381TMC3     H 5754   2.281   2.148  16.305  1.6582 -1.3338  1.2522
  381TMC3    H1 5755   2.036   1.948  16.594 -0.8995  0.7433 -1.3946
  381TMC3    H2 5756   2.277   2.269  16.718  1.8343  0.6372 -2.4430
  381TMC3    C7 5757   2.123   2.071  16.802  0.6009 -0.2703  0.4374
  381TMC3    C8 5758   2.412   2.278  16.486 -0.2813 -0.1750  0.3185
  381TMC3    O1 5759   2.134   1.949  16.823 -0.5571 -0.4737 -0.6885
  381TMC3    O2 5760   2.483   2.209  16.412 -0.2214  0.2738 -0.2836
  382MPD2     C 5761   1.378   3.875   0.092 -0.1428  0.0587 -0.6912
  382MPD2    C1 5762   1.306   3.931  17.725 -0.4201  0.0704 -0.6413
  382MPD2    C2 5763   1.254   3.857  17.621  0.0872  0.3080 -0.4645
  382MPD2    C3 5764   1.282   3.718  17.625  0.2895  0.4221  0.0822
  382MPD2    C4 5765   1.352   3.663  17.730 -0.2361 -0.1363 -0.0380
  382MPD2    C5 5766   1.393   3.744   0.097  0.7102  0.6562  0.0468
  382MPD2     H 5767   1.198   3.902  17.540  1.0025  1.2459 -0.5778
  382MPD2    H1 5768   1.383   3.559  17.729  2.6078  0.6944  1.4729
  382MPD2    H2 5769   1.427   3.931   0.170  0.6947 -2.9122  0.9274
  382MPD2    H3 5770   1.452   3.694   0.173  0.3596 -0.4757 -0.4288
  382MPD2     N 5771   1.241   3.636  17.518  0.8868 -0.1342  0.1273
  382MPD2    H5 5772   1.292   3.549  17.506  0.4134 -0.4134  0.1278
  382MPD2    N1 5773   1.285   4.072  17.731  0.6645  0.4622  0.3554
  382MPD2    H7 5774   1.222   4.105  17.659 -0.9711 -1.5154  0.8558
  383TMC3    C1 5775   1.159   3.568  17.313  0.6252 -0.3950 -0.3048
  383TMC3    C2 5776   1.075   3.587  17.211 -0.3760 -0.0339 -0.7517
  383TMC3    C3 5777   1.037   3.478  17.135 -0.2947  0.7229  0.0327
  383TMC3    C4 5778   1.223   3.444  17.332  0.1258  0.3294  0.2496
  383TMC3    C5 5779   1.192   3.345  17.239  0.2439  0.4096  0.2736
  383TMC3    C6 5780   1.108   3.362  17.133 -0.0824 -0.0787 -0.1319
  383TMC3     C 5781   1.171   3.677  17.410  0.3199 -0.2644 -0.2726
  383TMC3     O 5782   1.127   3.786  17.378  0.2300 -0.4566  0.7020
  383TMC3     H 5783   1.028   3.682  17.186 -1.9338 -0.2746  1.3223
  383TMC3    H1 5784   1.293   3.418  17.410  1.3752  0.3844 -0.8395
  383TMC3    H2 5785   1.073   3.278  17.074  0.4492 -1.1220  1.0358
  383TMC3    C7 5786   1.214   3.206  17.285 -0.1294  0.1867 -0.1666
  383TMC3    C8 5787   0.888   3.451  17.142  0.6634 -0.8481  0.1511
  383TMC3    O1 5788   1.216   3.194  17.408 -0.1280 -0.1811 -0.3060
  383TMC3    O2 5789   0.813   3.547  17.128  0.2929  0.3228  0.4379
  384MPD2     C 5790   2.981   4.714  12.264  0.0574  0.5690  0.5398
  384MPD2    C1 5791   3.078   0.011  12.356 -0.4184  0.1374  0.6368
  384MPD2    C2 5792   3.180   4.653  12.387  0.9615 -0.8259  0.1412
  384MPD2    C3 5793   3.176   4.527  12.326  0.2203 -0.6811  0.0554
  384MPD2    C4 5794   3.074   4.497  12.237  0.3968  0.2849 -0.1453
  384MPD2    C5 5795   2.980   4.595  12.207 -0.6996 -0.5974  0.0510
  384MPD2     H 5796   3.262   4.687  12.448  0.3015  0.9986  0.0021
  384MPD2    H1 5797   3.059   4.400  12.192  2.4656 -0.2524  0.3460
  384MPD2    H2 5798   2.908   0.047  12.220 -1.8198 -1.4351  0.5542
  384MPD2    H3 5799   2.891   4.571  12.149 -1.0808  0.2147  0.3060
  384MPD2     N 5800   3.266   4.427  12.349  0.1591 -0.1240  0.2156
  384MPD2    H5 5801   3.250   4.337  12.306  0.9525  0.6615 -1.7184
  384MPD2    N1 5802   3.071   0.132  12.428  0.2337  0.3302 -0.0532
  384MPD2    H7 5803   3.134   0.141  12.506  1.5258 -1.1905 -0.9241
  385TMC3    C1 5804   3.427   4.306  12.478 -0.2512  0.2557  0.6764
  385TMC3    C2 5805   3.371   4.190  12.436 -0.3000 -0.8566 -0.2787
  385TMC3    C3 5806   3.352   4.090  12.539 -0.0712  0.5617 -0.3719
  385TMC3    C4 5807   3.480   4.318  12.606 -0.3959 -0.0195 -0.3377
  385TMC3    C5 5808   3.448   4.225  12.701 -0.2745 -0.0762 -0.2701
  385TMC3    C6 5809   3.389   4.112  12.669  0.1086  0.1759 -0.0496
  385TMC3     C 5810   3.348   4.424  12.457 -0.4619  0.0560 -1.2926
  385TMC3     O 5811   3.360   4.507  12.550 -0.2630 -0.2867  0.7905
  385TMC3     H 5812   3.333   4.172  12.336 -1.7982  0.0428  0.1100
  385TMC3    H1 5813   3.547   4.401  12.623 -0.4961 -0.0642  0.2546
  385TMC3    H2 5814   3.376   4.038  12.748 -0.2274  0.2893 -0.0005
  385TMC3    C7 5815   3.389   4.274  12.820  0.4832 -0.5914 -0.1192
  385TMC3    C8 5816   3.301   3.961  12.512  0.8252  0.2544 -0.3881
  385TMC3    O1 5817   3.367   4.203  12.914 -0.5493  0.4671  0.0410
  385TMC3    O2 5818   3.241   3.922  12.607 -0.3151  0.2106  0.3348
  386TMC3    C1 5819   3.249   2.075  11.739 -0.4280 -0.0744 -0.1482
  386TMC3    C2 5820   3.275   2.065  11.606  0.2844  0.9679  0.2185
  386TMC3    C3 5821   3.167   2.034  11.523 -0.3204 -0.1651  0.3089
  386TMC3    C4 5822   3.124   2.047  11.798  0.2986  0.1110  0.1483
  386TMC3    C5 5823   3.020   2.030  11.710 -0.6168 -0.3019 -0.2366
  386TMC3    C6 5824   3.037   2.024  11.572 -0.5616 -0.3716 -0.1379
  386TMC3     C 5825   3.365   2.073  11.826 -0.2775 -0.7848  0.1717
  386TMC3     O 5826   3.473   2.129  11.798  0.6774 -0.2088  0.3833
  386TMC3     H 5827   3.376   2.073  11.567  0.7202 -1.1102  0.9107
  386TMC3    H1 5828   3.104   2.053  11.905 -1.7552  0.6458 -0.2651
  386TMC3    H2 5829   2.959   2.026  11.497  1.7806  0.0970 -2.5586
  386TMC3    C7 5830   2.892   2.083  11.757  0.0534  0.1466 -0.0115
  386TMC3    C8 5831   3.172   2.071  11.388  0.2525  0.4212 -0.6150
  386TMC3    O1 5832   2.888   2.102  11.875  0.0454  0.1188  0.1494
  386TMC3    O2 5833   3.079   2.139  11.352 -0.0494 -0.1880 -1.0175
  387MPD2     C 5834   0.639   1.986   9.457 -0.3686 -0.0532 -0.4720
  387MPD2    C1 5835   0.689   2.038   9.572 -0.3608  0.4206  0.3239
  387MPD2    C2 5836   0.725   1.956   9.679  0.3387  0.0174  0.3832
  387MPD2    C3 5837   0.704   1.820   9.667 -0.2406  0.1137  0.0720
  387MPD2    C4 5838   0.649   1.769   9.554 -0.7971 -0.3979  0.1131
  387MPD2    C5 5839   0.608   1.850   9.453 -0.0413  0.6446  0.1713
  387MPD2     H 5840   0.773   2.009   9.760 -1.1195 -0.5846  1.6469
  387MPD2    H1 5841   0.639   1.662   9.536  0.4696 -0.4331 -0.3893
  387MPD2    H2 5842   0.625   2.043   9.366 -1.3680  0.5594  0.0606
  387MPD2    H3 5843   0.549   1.802   9.376  2.3250 -1.2145 -0.4823
  387MPD2     N 5844   0.749   1.749   9.779  0.4546 -0.2564  0.0304
  387MPD2    H5 5845   0.797   1.800   9.853 -0.9340 -0.3176  0.9761
  387MPD2    N1 5846   0.724   2.173   9.579  0.1489  0.0414  0.3844
  387MPD2    H7 5847   0.752   2.190   9.675 -1.9620  0.8517  0.8730
  388TMC3    C1 5848   0.788   2.387   9.513  0.1577 -0.6303  0.0524
  388TMC3    C2 5849   0.730   2.506   9.510 -0.0906  0.0143 -0.4230
  388TMC3    C3 5850   0.799   2.603   9.579 -0.5353  0.6867  0.0765
  388TMC3    C4 5851   0.903   2.371   9.582 -0.1024  0.4434  0.8309
  388TMC3    C5 5852   0.970   2.473   9.642 -0.4320  0.7753 -0.9118
  388TMC3    C6 5853   0.923   2.596   9.636 -0.2435 -0.2532 -0.3076
  388TMC3     C 5854   0.704   2.279   9.486  0.5907 -0.4589  0.1081
  388TMC3     O 5855   0.624   2.290   9.397  0.2227 -0.2695  0.3135
  388TMC3     H 5856   0.635   2.523   9.461  0.3265  1.8885 -0.5835
  388TMC3    H1 5857   0.942   2.270   9.590  1.3351  0.7947 -1.7307
  388TMC3    H2 5858   0.962   2.678   9.695 -0.3568 -2.0617  2.2691
  388TMC3    C7 5859   1.032   2.446   9.775  0.8744  0.2861  0.4408
  388TMC3    C8 5860   0.744   2.735   9.584  0.1598  0.8169 -0.0699
  388TMC3    O1 5861   1.038   2.543   9.853  0.0195 -0.3970  0.1145
  388TMC3    O2 5862   0.754   2.794   9.692  0.1633 -0.3113 -0.0623
  389MPD2     C 5863   4.703   0.336  10.888 -0.5455 -0.2675  0.2521
  389MPD2    C1 5864   0.075   0.387  10.959  0.4476 -0.3190  0.0410
  389MPD2    C2 5865   0.074   0.394  11.098 -0.4950 -0.3916  0.1181
  389MPD2    C3 5866   4.698   0.348  11.166  0.1758  0.2459 -0.7094
  389MPD2    C4 5867   4.599   0.281  11.090  0.3863  0.6634 -0.1744
  389MPD2    C5 5868   4.603   0.273  10.953  0.3678  0.6972  0.4975
  389MPD2     H 5869   0.161   0.428  11.154 -0.6994  1.0051 -0.4093
  389MPD2    H1 5870   4.504   0.249  11.131  0.4677  1.3328  0.5213
  389MPD2    H2 5871   4.713   0.333  10.780  0.6690 -1.6685  0.3892
  389MPD2    H3 5872   4.522   0.214  10.912  1.2422 -0.9595  1.1119
  389MPD2     N 5873   4.675   0.354  11.304  0.2515  0.1158 -0.0868
  389MPD2    H5 5874   4.590   0.319  11.347  0.1253  1.3929  0.6906
  389MPD2    N1 5875   0.180   0.437  10.884  0.3273  0.0168  0.3571
  389MPD2    H7 5876   0.170   0.420  10.784  3.9417  1.6142 -0.2671
  390TMC3    C1 5877   0.001   0.383  11.533  0.8199  0.8673 -0.2897
  390TMC3    C2 5878   4.641   0.289  11.564  0.5296  0.2207 -1.2164
  390TMC3    C3 5879   4.585   0.293  11.694  0.3105  0.1043  0.8012
  390TMC3    C4 5880   0.022   0.484  11.623  0.1768  0.2063 -0.3171
  390TMC3    C5 5881   4.701   0.490  11.746 -0.1922  0.4329 -0.1853
  390TMC3    C6 5882   4.613   0.396  11.786  0.2789 -0.3622 -0.2697
  390TMC3     C 5883   0.031   0.405  11.395 -0.1826  0.5544  0.2037
  390TMC3     O 5884   0.125   0.482  11.375  0.0644  0.0662 -0.0404
  390TMC3     H 5885   4.616   0.207  11.498 -1.2082  0.4367 -0.8226
  390TMC3    H1 5886   0.096   0.557  11.592  0.1291  0.1965 -0.4575
  390TMC3    H2 5887   4.573   0.390  11.886  1.2449  1.6331  0.2244
  390TMC3    C7 5888   0.016   0.589  11.832 -0.1587 -0.3627  0.0263
  390TMC3    C8 5889   4.521   0.167  11.735  0.1070 -0.1325 -0.5945
  390TMC3    O1 5890   0.030   0.702  11.783  0.5064  0.5173 -0.3105
  390TMC3    O2 5891   4.543   0.066  11.670  0.0999  0.3257  0.0697
  391MPD2     C 5892   3.736   1.914  11.314  1.2478  0.2344 -0.2303
  391MPD2    C1 5893   3.792   2.041  11.295 -0.5293 -0.3245  0.3104
  391MPD2    C2 5894   3.802   2.091  11.164  0.1882 -0.0317 -0.3261
  391MPD2    C3 5895   3.730   2.025  11.060 -0.5542 -0.5482 -0.1352
  391MPD2    C4 5896   3.665   1.905  11.084  0.1611  0.0054 -0.2891
  391MPD2    C5 5897   3.678   1.845  11.209 -0.5408  0.3087  0.2996
  391MPD2     H 5898   3.857   2.180  11.135  0.3782  0.0717  0.3552
  391MPD2    H1 5899   3.617   1.849  11.005  0.7907 -0.5525 -0.2743
  391MPD2    H2 5900   3.724   1.869  11.412  2.5207 -0.3920 -0.3534
  391MPD2    H3 5901   3.633   1.748  11.224  0.2761  0.0543  1.1431
  391MPD2     N 5902   3.743   2.083  10.934  0.5251 -0.9187 -0.4742
  391MPD2    H5 5903   3.793   2.172  10.934  0.2519 -0.7608 -0.0627
  391MPD2    N1 5904   3.854   2.106  11.404  0.1304  0.1671  0.0895
  391MPD2    H7 5905   3.857   2.042  11.483 -1.4855 -0.3535 -0.2671
  392TMC3    C1 5906   3.746   2.117  10.705 -0.3979  0.0495  0.8706
  392TMC3    C2 5907   3.677   2.139  10.592  0.2327 -0.3480 -0.2429
  392TMC3    C3 5908   3.746   2.207  10.495  0.2465  0.0545  0.2028
  392TMC3    C4 5909   3.884   2.143  10.714 -0.2527 -0.4452  0.5611
  392TMC3    C5 5910   3.947   2.196  10.605  0.5877  0.4452 -0.1852
  392TMC3    C6 5911   3.875   2.244  10.505  0.2173  0.4235  0.6107
  392TMC3     C 5912   3.684   2.049  10.817 -1.2560 -0.0481  0.5236
  392TMC3     O 5913   3.594   1.970  10.806 -0.1527 -0.0919  0.3931
  392TMC3     H 5914   3.571   2.121  10.588  0.5288 -2.0427 -0.3316
  392TMC3    H1 5915   3.946   2.103  10.794  2.3104  1.2658 -0.5628
  392TMC3    H2 5916   3.919   2.307  10.428 -0.6212  0.0043 -0.2028
  392TMC3    C7 5917   4.086   2.222  10.617  0.6604  0.6856  0.2256
  392TMC3    C8 5918   3.666   2.274  10.394  0.3643  0.0013 -0.0963
  392TMC3    O1 5919   4.137   2.226  10.727  0.0830  0.2612  0.0195
  392TMC3    O2 5920   3.584   2.211  10.330 -0.1524  0.8082  0.1016
  393TMC3    C1 5921   2.764   0.373  11.053  0.3669 -0.5478  0.3481
  393TMC3    C2 5922   2.672   0.390  11.154  0.2687 -0.2722 -0.4691
  393TMC3    C3 5923   2.644   0.289  11.240  0.0994 -0.1492 -0.0079
  393TMC3    C4 5924   2.834   0.256  11.041 -0.2207 -0.0213 -0.9011
  393TMC3    C5 5925   2.801   0.157  11.129 -0.2684  0.3961  0.1801
  393TMC3    C6 5926   2.704   0.167  11.224 -0.1374  0.3466 -0.0198
  393TMC3     C 5927   2.800   0.486  10.967  0.3230  0.1349  0.2187
  393TMC3     O 5928   2.706   0.562  10.947 -0.4709 -0.6075  0.2399
  393TMC3     H 5929   2.628   0.488  11.169 -0.0026 -0.6689  1.3214
  393TMC3    H1 5930   2.917   0.239  10.973  1.3470  0.1431  0.9794
  393TMC3    H2 5931   2.696   0.086  11.296  1.4095  0.8798  0.7573
  393TMC3    C7 5932   2.873   0.030  11.140 -0.2732  0.8756 -0.2513
  393TMC3    C8 5933   2.574   0.334  11.366 -0.2505 -0.5418  0.6697
  393TMC3    O1 5934   2.812   4.658  11.136 -0.5217  0.0002 -0.6961
  393TMC3    O2 5935   2.578   0.456  11.390 -0.8900  0.1044 -0.0063
  394TMC3    C1 5936   0.379   0.528  10.835 -0.5464  0.9632  0.3689
  394TMC3    C2 5937   0.377   0.441  10.727  0.0545  0.2437 -0.3951
  394TMC3    C3 5938   0.423   0.493  10.606 -0.4157  0.5820 -0.6097
  394TMC3    C4 5939   0.435   0.649  10.831  0.8437 -1.1244 -0.2066
  394TMC3    C5 5940   0.481   0.694  10.710  0.0904  0.0717 -0.3045
  394TMC3    C6 5941   0.482   0.618  10.597 -0.3959  0.5117 -0.5523
  394TMC3     C 5942   0.278   0.517  10.935  0.3256  0.5854  0.0063
  394TMC3     O 5943   0.275   0.588  11.039 -0.3638  0.3667  0.1134
  394TMC3     H 5944   0.334   0.342  10.732  0.7761 -0.0047  0.9557
  394TMC3    H1 5945   0.427   0.712  10.919  2.8515 -1.2602  0.0735
  394TMC3    H2 5946   0.518   0.656  10.503 -0.1537 -1.2881 -1.1910
  394TMC3    C7 5947   0.530   0.833  10.696  0.8934 -1.1203  0.0886
  394TMC3    C8 5948   0.411   0.412  10.491 -0.0629 -0.4035 -0.8513
  394TMC3    O1 5949   0.524   0.890  10.588 -0.0792  0.4370 -0.0194
  394TMC3    O2 5950   0.395   0.483  10.396 -0.2688  0.1581 -0.3519
  395TMC3    C1 5951   4.359   2.543  15.449  0.0694 -0.0818 -0.4821
  395TMC3    C2 5952   4.298   2.513  15.331  0.6593  0.4371 -0.3291
  395TMC3    C3 5953   4.367   2.569  15.228 -0.0890  0.3716 -0.4027
  395TMC3    C4 5954   4.471   2.614  15.465 -0.4157 -0.4109 -0.3228
  395TMC3    C5 5955   4.532   2.670  15.361 -0.1104 -0.0535 -0.1446
  395TMC3    C6 5956   4.479   2.652  15.240  0.6573 -0.3521 -0.1234
  395TMC3     C 5957   4.307   2.486  15.573 -0.1245 -0.2225 -0.2155
  395TMC3     O 5958   4.338   2.529  15.685  0.1616  0.0093  0.5055
  395TMC3     H 5959   4.197   2.475  15.321  0.3990  1.1159 -0.2608
  395TMC3    H1 5960   4.527   2.629  15.556  2.4564 -0.5347 -2.0535
  395TMC3    H2 5961   4.511   2.702  15.150 -0.5678  0.1205 -0.2878
  395TMC3    C7 5962   4.600   2.795  15.386 -0.2167 -0.8993 -0.1075
  395TMC3    C8 5963   4.326   2.540  15.091  0.3586  0.6522  0.3179
  395TMC3    O1 5964   4.568   2.861  15.477 -0.5341 -0.1217 -0.0936
  395TMC3    O2 5965   4.364   2.628  15.012 -0.5660  0.2051 -0.6290
  396MPD2     C 5966   3.915   3.875  17.191  0.0563  0.2430  0.2150
  396MPD2    C1 5967   4.025   3.903  17.267 -0.5815  0.2601 -0.5049
  396MPD2    C2 5968   4.124   3.975  17.207 -0.3932 -0.2019  0.0538
  396MPD2    C3 5969   4.125   4.028  17.080 -0.1029 -0.3668  0.0758
  396MPD2    C4 5970   4.006   4.011  17.012 -0.0750  0.0475 -0.0293
  396MPD2    C5 5971   3.901   3.939  17.064 -0.0607  0.5165 -0.0530
  396MPD2     H 5972   4.212   4.009  17.261 -0.7415 -1.1143  1.1823
  396MPD2    H1 5973   3.984   4.060  16.918  0.2796  2.0341  0.9263
  396MPD2    H2 5974   3.841   3.810  17.235  1.0771 -0.9158  0.2101
  396MPD2    H3 5975   3.806   3.934  17.011  0.2135 -0.6517 -0.4270
  396MPD2     N 5976   4.226   4.106  17.022 -0.6356  0.1507  0.7819
  396MPD2    H5 5977   4.311   4.119  17.076  0.8471 -1.6719 -1.1174
  396MPD2    N1 5978   4.037   3.855  17.394 -0.8592  0.0882 -0.0827
  396MPD2    H7 5979   3.963   3.792  17.422 -0.5629 -0.2963 -0.1623
  397TMC3    C1 5980   4.137   3.800  17.600  0.4155 -0.6824  0.2012
  397TMC3    C2 5981   4.267   3.774  17.623  0.2851  0.0519 -0.5175
  397TMC3    C3 5982   4.300   3.645  17.653 -0.2173 -0.0155 -0.1993
  397TMC3    C4 5983   4.035   3.704  17.619 -0.7729  0.6616 -0.5084
  397TMC3    C5 5984   4.072   3.594  17.688 -0.0677 -0.7994  0.3229
  397TMC3    C6 5985   4.203   3.558  17.693  0.0287  0.1910  0.2653
  397TMC3     C 5986   4.139   3.880  17.477  0.1363  0.1521 -0.6325
  397TMC3     O 5987   4.226   3.965  17.471 -0.2320 -0.4489 -0.0235
  397TMC3     H 5988   4.350   3.841  17.604  1.3787 -0.9883  0.5860
  397TMC3    H1 5989   3.929   3.726  17.608 -1.0877 -0.0171  1.2059
  397TMC3    H2 5990   4.243   3.462  17.724 -2.5846 -1.2965 -0.8715
  397TMC3    C7 5991   3.984   3.545   0.051  0.6709 -0.6247  0.1045
  397TMC3    C8 5992   4.425   3.623  17.713 -0.3463 -0.3106  0.6497
  397TMC3    O1 5993   3.872   3.502   0.019  0.4381 -0.3814 -0.3944
  397TMC3    O2 5994   4.416   3.570   0.089 -0.0076  0.4073 -0.2178
  398MPD2     C 5995   2.554   0.793   0.479 -0.2412  0.3598  0.4156
  398MPD2    C1 5996   2.633   0.675   0.499 -1.1027  0.3659  0.2146
  398MPD2    C2 5997   2.762   0.703   0.525 -0.2163  0.0071 -0.1698
  398MPD2    C3 5998   2.821   0.826   0.523 -0.7387  0.0774  0.3927
  398MPD2    C4 5999   2.743   0.941   0.518 -0.4337  0.4458  0.1768
  398MPD2    C5 6000   2.607   0.922   0.497 -0.7007  0.3509  0.2317
  398MPD2     H 6001   2.827   0.618   0.544 -1.3579 -0.5475  1.2996
  398MPD2    H1 6002   2.784   1.041   0.512  0.8865 -0.0863  0.4537
  398MPD2    H2 6003   2.447   0.793   0.461 -0.1482  2.9969 -0.0837
  398MPD2    H3 6004   2.536   1.002   0.481 -1.6335 -0.9633 -2.1730
  398MPD2     N 6005   2.961   0.832   0.547 -0.7844 -0.5913 -0.3828
  398MPD2    H5 6006   3.004   0.744   0.572 -2.1782 -1.5520 -1.3287
  398MPD2    N1 6007   2.596   0.541   0.483 -0.6013 -0.3940  0.0058
  398MPD2    H7 6008   2.664   0.471   0.512 -0.8291 -0.0318  1.4267
  399TMC3    C1 6009   2.460   0.354   0.450 -0.1851 -0.2134  0.4502
  399TMC3    C2 6010   2.541   0.279   0.532  0.1051 -0.6001  0.1161
  399TMC3    C3 6011   2.518   0.142   0.541 -0.1122  0.2990 -0.5787
  399TMC3    C4 6012   2.372   0.293   0.366 -0.6171  0.1997 -0.2066
  399TMC3    C5 6013   2.350   0.161   0.379 -0.2003  0.2033  0.2935
  399TMC3    C6 6014   2.416   0.084   0.469 -0.1044  0.7853 -0.4159
  399TMC3     C 6015   2.467   0.499   0.450 -0.5140 -0.0964 -0.9584
  399TMC3     O 6016   2.377   0.577   0.417 -0.7652 -0.0070 -0.2380
  399TMC3     H 6017   2.613   0.324   0.600 -2.1377  1.2321  1.2788
  399TMC3    H1 6018   2.312   0.354   0.299  2.4782  0.5401 -2.6635
  399TMC3    H2 6019   2.378   4.720   0.493 -0.7320  0.9509 -0.7408
  399TMC3    C7 6020   2.241   0.094   0.308 -0.1773  0.4889 -0.2251
  399TMC3    C8 6021   2.618   0.071   0.613  0.0675 -0.3167 -1.0965
  399TMC3    O1 6022   2.226   4.710   0.324  0.6016 -0.5335  0.0053
  399TMC3    O2 6023   2.695   0.137   0.682 -0.1940  0.9764 -0.7864
  400TMC3    C1 6024   1.349   3.956  17.058 -0.2890 -0.0884  0.3806
  400TMC3    C2 6025   1.239   3.947  16.973 -0.3128  0.1069  0.6376
  400TMC3    C3 6026   1.190   4.069  16.928  0.2444 -0.3067 -0.5190
  400TMC3    C4 6027   1.394   4.077  17.099 -0.4957  0.6201  0.1282
  400TMC3    C5 6028   1.340   4.189  17.053  0.7095 -0.3285  0.9888
  400TMC3    C6 6029   1.234   4.192  16.977 -0.3178 -1.0054 -0.4250
  400TMC3     C 6030   1.402   3.831  17.123 -0.2161  0.6489 -0.3841
  400TMC3     O 6031   1.392   3.728  17.056 -0.5146  0.6451 -0.7124
  400TMC3     H 6032   1.210   3.847  16.944  1.3079 -0.1989  0.0677
  400TMC3    H1 6033   1.489   4.068  17.150 -0.0597 -1.6480 -1.0617
  400TMC3    H2 6034   1.183   4.284  16.953 -0.2765 -0.6962  0.6420
  400TMC3    C7 6035   1.376   4.305  17.128  0.2804 -0.1968  0.3677
  400TMC3    C8 6036   1.055   4.067  16.871 -0.4419  0.0569  0.3410
  400TMC3    O1 6037   1.491   4.338  17.150 -0.5768 -0.3060  0.3768
  400TMC3    O2 6038   1.003   4.175  16.842 -0.1194  0.4208 -0.2316
  401MPD2     C 6039   3.819   1.788   1.565 -0.3985  0.1510  0.2214
  401MPD2    C1 6040   3.875   1.730   1.454  0.6390 -0.4436  0.3068
  401MPD2    C2 6041   3.876   1.592   1.448  0.1529  0.9640  0.1058
  401MPD2    C3 6042   3.820   1.514   1.548  0.3423 -0.0052  0.7506
  401MPD2    C4 6043   3.759   1.572   1.657 -0.1160 -0.3391 -0.2805
  401MPD2    C5 6044   3.761   1.712   1.662 -0.2963 -0.8245 -0.2517
  401MPD2     H 6045   3.931   1.541   1.370  1.1206  1.5536  0.3963
  401MPD2    H1 6046   3.707   1.511   1.730 -0.6302 -2.7260 -2.6474
  401MPD2    H2 6047   3.812   1.895   1.578 -1.6301  0.1250 -0.1750
  401MPD2    H3 6048   3.720   1.756   1.752  0.5721 -1.6745  0.5569
  401MPD2     N 6049   3.817   1.378   1.524  0.6393 -0.1274  0.0155
  401MPD2    H5 6050   3.872   1.345   1.445  1.8865  1.7030  0.1268
  401MPD2    N1 6051   3.937   1.800   1.346  0.3469 -0.2921 -0.1506
  401MPD2    H7 6052   3.965   1.739   1.270 -0.0806  0.4849 -0.9299
  402TMC3    C1 6053   3.779   1.161   1.520  0.5495 -0.3968 -0.1682
  402TMC3    C2 6054   3.869   1.085   1.593 -0.3270 -1.2472 -0.1316
  402TMC3    C3 6055   3.949   1.003   1.526 -0.6210 -0.2781  0.2636
  402TMC3    C4 6056   3.766   1.153   1.387  1.1513  0.3835  0.1386
  402TMC3    C5 6057   3.835   1.049   1.322 -0.2991  0.1109  0.3260
  402TMC3    C6 6058   3.926   0.971   1.395 -0.2956  0.4356 -0.3170
  402TMC3     C 6059   3.747   1.285   1.584  0.6808 -1.1093 -0.7964
  402TMC3     O 6060   3.680   1.287   1.686 -0.7846 -0.2586 -0.6366
  402TMC3     H 6061   3.881   1.094   1.700 -2.5933 -1.6006  0.1594
  402TMC3    H1 6062   3.702   1.222   1.333  0.9903  0.2777  0.1953
  402TMC3    H2 6063   3.980   0.890   1.348 -0.8396  0.1370 -0.4309
  402TMC3    C7 6064   3.828   1.021   1.174  0.4687  0.2163 -0.5614
  402TMC3    C8 6065   4.075   0.952   1.576 -0.3717 -0.7507 -0.0313
  402TMC3    O1 6066   3.716   1.030   1.124 -0.0054 -0.2156  0.0116
  402TMC3    O2 6067   4.124   0.857   1.514  0.1388 -0.0103  0.1401
  403MPD2     C 6068   2.505   0.101  13.491  0.0274 -0.2375 -0.9821
  403MPD2    C1 6069   2.413   0.065  13.588  0.1423  0.1074  0.1425
  403MPD2    C2 6070   2.460   0.074  13.722  0.3576 -0.2692 -0.4172
  403MPD2    C3 6071   2.591   0.108  13.740 -0.8632  0.3951  0.1004
  403MPD2    C4 6072   2.677   0.137  13.636  0.2783  0.0012 -0.2156
  403MPD2    C5 6073   2.631   0.135  13.510  0.1816 -0.2873  0.1018
  403MPD2     H 6074   2.401   0.052  13.810  1.5748  0.3072  0.5250
  403MPD2    H1 6075   2.781   0.162  13.648 -0.2394  1.2159  1.6646
  403MPD2    H2 6076   2.473   0.113  13.388  0.6078  1.3791 -0.9676
  403MPD2    H3 6077   2.687   0.167  13.423  0.2496  0.5478  0.4504
  403MPD2     N 6078   2.642   0.128  13.865 -1.1193  0.5015  0.2496
  403MPD2    H5 6079   2.743   0.132  13.874 -1.1150  1.4133 -0.2818
  403MPD2    N1 6080   2.285   0.040  13.554 -0.0020  0.2396  0.4827
  403MPD2    H7 6081   2.274   0.077  13.461  1.5692 -1.8473 -0.5340
  404TMC3    C1 6082   2.053   4.676  13.556 -0.1096 -0.3293 -0.0611
  404TMC3    C2 6083   1.981   4.575  13.616  0.3118 -0.4610 -0.3654
  404TMC3    C3 6084   1.941   4.480  13.537  0.7522 -0.0912  0.3045
  404TMC3    C4 6085   2.067   4.690  13.420  0.4071 -0.3300 -0.5261
  404TMC3    C5 6086   2.013   4.591  13.345  0.6174  0.7671  0.3433
  404TMC3    C6 6087   1.948   4.488  13.403  0.6615 -0.1177  0.2936
  404TMC3     C 6088   2.180   4.707  13.624  0.2613  0.0702  0.1902
  404TMC3     O 6089   2.198   4.652  13.731 -0.6395 -0.3564  0.1573
  404TMC3     H 6090   1.970   4.565  13.723 -1.8653 -2.3045 -0.7554
  404TMC3    H1 6091   2.120   0.035  13.367  1.7627  0.3509  1.8253
  404TMC3    H2 6092   1.902   4.407  13.348  0.3004 -1.0872  1.9978
  404TMC3    C7 6093   2.040   4.595  13.200 -0.2271 -0.0895  0.3588
  404TMC3    C8 6094   1.913   4.348  13.598  0.1714  0.2177 -0.0746
  404TMC3    O1 6095   2.110   4.685  13.158  0.5475 -0.7287  0.0322
  404TMC3    O2 6096   1.926   4.254  13.522  0.3436 -0.0389 -0.2040
  405MPD2     C 6097   2.310   0.986  15.182  0.2972 -0.1416 -0.1094
  405MPD2    C1 6098   2.250   0.887  15.099 -0.2288  1.1007 -0.0764
  405MPD2    C2 6099   2.139   0.938  15.028 -0.8435 -0.2417 -1.1123
  405MPD2    C3 6100   2.094   1.062  15.032 -0.0952 -0.4168  0.2033
  405MPD2    C4 6101   2.149   1.152  15.118 -0.8506  0.2159  0.1436
  405MPD2    C5 6102   2.259   1.113  15.189  0.0673  0.4716 -0.3603
  405MPD2     H 6103   2.078   0.867  14.974 -1.7057 -1.2850  1.2423
  405MPD2    H1 6104   2.109   1.253  15.121 -0.3823  0.4471 -1.4054
  405MPD2    H2 6105   2.402   0.958  15.231  0.0558  0.0893  0.4848
  405MPD2    H3 6106   2.324   1.187  15.235  0.9696 -1.0552  0.8400
  405MPD2     N 6107   1.982   1.090  14.951 -0.4749  0.6153  0.0061
  405MPD2    H5 6108   1.990   1.030  14.870  2.8918 -0.6462  1.2266
  405MPD2    N1 6109   2.290   0.758  15.084 -0.2672 -0.2310 -0.4472
  405MPD2    H7 6110   2.236   0.710  15.012 -0.9276 -2.6780  1.6563
  406TMC3    C1 6111   1.633   1.268  14.723  0.0148 -0.2638 -0.3694
  406TMC3    C2 6112   1.595   1.144  14.686 -0.4555  0.1333  0.6003
  406TMC3    C3 6113   1.664   1.033  14.737 -0.3037 -0.3641  1.0820
  406TMC3    C4 6114   1.720   1.289  14.822 -0.1736 -1.0247  0.0626
  406TMC3    C5 6115   1.775   1.176  14.873 -0.7539 -0.5308  0.1701
  406TMC3    C6 6116   1.751   1.044  14.838 -0.2751  0.1594 -0.0194
  406TMC3     C 6117   1.586   1.380  14.639 -0.7647  0.0619 -0.1585
  406TMC3     O 6118   1.557   1.490  14.688 -0.2749  0.0313  0.1363
  406TMC3     H 6119   1.520   1.128  14.609 -0.5024 -1.2692  0.9368
  406TMC3    H1 6120   1.751   1.387  14.857 -2.0157 -0.0190 -1.1225
  406TMC3    H2 6121   1.790   0.965  14.900  0.2553 -0.3458 -1.0035
  406TMC3    C7 6122   1.894   1.191  14.960 -0.0307  0.0603 -0.0409
  406TMC3    C8 6123   1.653   0.907  14.667 -0.0194  0.0925  0.1465
  406TMC3    O1 6124   1.897   1.286  15.034  0.4371  0.2978  0.2845
  406TMC3    O2 6125   1.553   0.875  14.596  0.2201  0.0347  0.1238
  407MPD2     C 6126   0.258   1.757   9.361  0.3757  0.1760 -0.2248
  407MPD2    C1 6127   0.275   1.895   9.344 -0.0407 -1.0284  0.2691
  407MPD2    C2 6128   0.251   1.978   9.456 -0.0492 -0.0169  0.0559
  407MPD2    C3 6129   0.244   1.919   9.575  0.4374  1.1881  0.3098
  407MPD2    C4 6130   0.251   1.782   9.595  0.4662 -0.4322 -0.8890
  407MPD2    C5 6131   0.251   1.701   9.484 -0.4154  0.3001  0.0674
  407MPD2     H 6132   0.268   2.083   9.437  0.0065  0.5301  3.0942
  407MPD2    H1 6133   0.246   1.735   9.693 -2.6561  1.8382  0.0536
  407MPD2    H2 6134   0.246   1.690   9.277 -0.2244  1.1869 -0.9491
  407MPD2    H3 6135   0.250   1.592   9.491  0.4925  0.2806 -0.1243
  407MPD2     N 6136   0.241   2.001   9.693  0.0633 -0.0123  0.5037
  407MPD2    H5 6137   0.252   1.943   9.775  0.2757  0.4160  0.7752
  407MPD2    N1 6138   0.318   1.953   9.221  0.2293  0.2877  0.2267
  407MPD2    H7 6139   0.337   2.052   9.228  1.0849  0.2451 -1.5992
  408TMC3    C1 6140   0.424   1.979   9.019 -0.1887 -0.9880  0.1684
  408TMC3    C2 6141   0.546   1.950   8.970  0.1429 -0.6053 -0.9809
  408TMC3    C3 6142   0.597   2.041   8.886 -0.1106 -0.3129 -0.2381
  408TMC3    C4 6143   0.342   2.088   8.987  0.3229  0.3034 -0.1666
  408TMC3    C5 6144   0.402   2.176   8.897 -0.1568 -0.9722  0.1610
  408TMC3    C6 6145   0.528   2.157   8.848 -0.4627  0.4616 -0.6485
  408TMC3     C 6146   0.356   1.884   9.106  0.0685 -0.6068 -0.7122
  408TMC3     O 6147   0.381   1.769   9.089 -0.0612  0.4297  0.1676
  408TMC3     H 6148   0.605   1.870   9.013 -0.6767 -0.5814  0.1804
  408TMC3    H1 6149   0.245   2.091   9.034  1.0250 -3.6303  1.4763
  408TMC3    H2 6150   0.579   2.235   8.792 -1.2344 -1.0808 -3.4807
  408TMC3    C7 6151   0.366   2.315   8.921 -0.1212  0.5138  0.4792
  408TMC3    C8 6152   0.732   2.072   8.929 -0.3065 -0.4781  0.1063
  408TMC3    O1 6153   0.454   2.400   8.933  0.0440 -0.5799  0.3258
  408TMC3    O2 6154   0.806   1.974   8.938  0.2953  0.3484 -0.0936
  409MPD2     C 6155   4.338   3.074   0.038  0.6469 -0.0553 -0.1865
  409MPD2    C1 6156   4.475   3.093   0.054  0.9661  0.6586 -1.0126
  409MPD2    C2 6157   4.544   3.177  17.704  0.1377  0.8953  0.2835
  409MPD2    C3 6158   4.483   3.231  17.587 -0.3430  0.5356 -0.3281
  409MPD2    C4 6159   4.344   3.217  17.577 -0.4235  0.1836 -0.2072
  409MPD2    C5 6160   4.275   3.134  17.663  0.4584 -0.2261 -0.1577
  409MPD2     H 6161   4.647   3.197  17.730  0.3680  0.9227 -0.6563
  409MPD2    H1 6162   4.289   3.255  17.491 -2.5029 -1.0360  0.5735
  409MPD2    H2 6163   4.285   3.005   0.102 -0.1166 -0.6024 -1.4023
  409MPD2    H3 6164   4.171   3.119  17.640  1.0671 -1.0546 -2.3698
  409MPD2     N 6165   4.553   3.317  17.492  0.0876  0.3498  0.2224
  409MPD2    H5 6166   4.500   3.342  17.408 -0.7926 -1.5530  0.2024
  409MPD2    N1 6167   4.555   3.020   0.143  0.0726  0.2050  0.1965
  409MPD2    H7 6168   4.655   3.040   0.140  0.1192  0.2199  1.7433
  410TMC3    C1 6169   0.019   3.415  17.396 -0.3610 -0.1335  0.2978
  410TMC3    C2 6170   0.153   3.434  17.417  0.1050  0.0928  0.2391
  410TMC3    C3 6171   0.227   3.503  17.323  0.6676 -0.4580 -0.1357
  410TMC3    C4 6172   4.691   3.464  17.278  0.1801 -0.3752 -0.6557
  410TMC3    C5 6173   0.033   3.540  17.198 -0.0132 -0.2996 -0.2849
  410TMC3    C6 6174   0.166   3.568  17.223  0.5271  0.4666  0.6124
  410TMC3     C 6175   4.689   3.347  17.507 -0.5736 -0.0808  0.8597
  410TMC3     O 6176   0.023   3.336  17.609 -0.2081 -0.3809 -0.3603
  410TMC3     H 6177   0.205   3.376  17.493  0.2518 -0.4416 -0.2643
  410TMC3    H1 6178   4.585   3.447  17.262 -0.0540  1.3547 -0.9553
  410TMC3    H2 6179   0.231   3.619  17.153 -0.6155  1.4306  0.2505
  410TMC3    C7 6180   4.725   3.567  17.069  0.2240 -0.0881  0.5662
  410TMC3    C8 6181   0.370   3.485  17.304  0.7580  0.3679  0.1760
  410TMC3    O1 6182   4.633   3.496  17.026 -0.0653  0.6451 -0.3132
  410TMC3    O2 6183   0.434   3.569  17.242  0.0301 -0.3428  0.4075
  411MPD2     C 6184   0.087   3.602  14.821 -0.5992 -0.3304  0.1003
  411MPD2    C1 6185   4.712   3.684  14.810 -0.6254 -0.5826 -0.5627
  411MPD2    C2 6186   4.585   3.632  14.831  0.2188  0.0141  0.0144
  411MPD2    C3 6187   4.565   3.513  14.891  0.4464 -0.2237 -0.0329
  411MPD2    C4 6188   4.675   3.431  14.910 -0.4443 -0.1596  0.0796
  411MPD2    C5 6189   0.066   3.476  14.877  0.1615  0.1211  0.1017
  411MPD2     H 6190   4.497   3.693  14.817  1.3627  1.3859 -1.2321
  411MPD2    H1 6191   4.662   3.327  14.937 -2.6209  0.4666  1.4337
  411MPD2    H2 6192   0.187   3.635  14.797 -0.2173 -1.6616 -0.0805
  411MPD2    H3 6193   0.149   3.410  14.900 -0.0214 -0.5475 -1.1292
  411MPD2     N 6194   4.438   3.446  14.923 -1.2981  0.8705  0.2767
  411MPD2    H5 6195   4.455   3.359  14.971 -1.1494 -0.6327 -2.4764
  411MPD2    N1 6196   0.000   3.813  14.776  0.1908  0.1081 -0.1510
  411MPD2    H7 6197   4.651   3.862  14.745 -0.0707  0.7410  1.5818
  412TMC3    C1 6198   4.208   3.391  14.927  0.1980 -0.3442 -0.5992
  412TMC3    C2 6199   4.095   3.419  14.858  0.1079  0.3914 -0.0230
  412TMC3    C3 6200   4.026   3.319  14.800  0.4500 -0.3964 -0.7215
  412TMC3    C4 6201   4.250   3.263  14.927  0.2305 -0.0144  0.3549
  412TMC3    C5 6202   4.183   3.163  14.853 -0.8475 -0.7661 -0.7144
  412TMC3    C6 6203   4.071   3.194  14.791  0.0778 -0.4377 -0.3197
  412TMC3     C 6204   4.312   3.495  14.896  0.2345 -0.4943 -0.1133
  412TMC3     O 6205   4.283   3.611  14.868 -0.3381  0.4623  0.0624
  412TMC3     H 6206   4.056   3.520  14.862 -3.0208 -0.8012 -0.0338
  412TMC3    H1 6207   4.309   3.235  15.013 -1.4280 -1.6827  0.9343
  412TMC3    H2 6208   4.034   3.124  14.717  0.4976 -2.1937  1.1065
  412TMC3    C7 6209   4.271   3.115  14.753  1.3962  0.2552 -0.3297
  412TMC3    C8 6210   3.954   3.364  14.676  0.7217  0.5475 -0.3258
  412TMC3    O1 6211   4.233   3.151  14.641 -0.4839 -0.2073  0.1213
  412TMC3    O2 6212   3.875   3.289  14.620 -0.2591  0.4948 -0.0340
  413MPD2     C 6213   1.486   2.185  15.724 -0.4246 -0.1763  0.0747
  413MPD2    C1 6214   1.464   2.122  15.604 -0.1085  0.7178  0.4528
  413MPD2    C2 6215   1.575   2.083  15.534  0.2386  0.0868 -0.1732
  413MPD2    C3 6216   1.706   2.083  15.584  0.4687 -0.7198  0.3036
  413MPD2    C4 6217   1.727   2.153  15.701 -0.0033 -0.0953 -0.2203
  413MPD2    C5 6218   1.619   2.204  15.769  0.4674  1.0750 -0.5428
  413MPD2     H 6219   1.569   2.045  15.432 -0.5889 -0.0657 -0.0709
  413MPD2    H1 6220   1.822   2.164  15.751  0.2654 -0.2005 -0.7112
  413MPD2    H2 6221   1.409   2.230  15.786  1.3454  1.2230  1.2461
  413MPD2    H3 6222   1.648   2.249  15.863 -1.1071 -1.0783  0.9927
  413MPD2     N 6223   1.804   2.008  15.512  0.1589 -0.7246 -0.1344
  413MPD2    H5 6224   1.777   1.987  15.416  0.5844 -1.7708 -0.0254
  413MPD2    N1 6225   1.332   2.095  15.568 -0.1679 -0.6412  0.0665
  413MPD2    H7 6226   1.260   2.112  15.637  0.1454 -0.5569  0.3695
  414TMC3    C1 6227   1.994   1.883  15.454 -0.1190 -0.2127 -0.7940
  414TMC3    C2 6228   2.037   1.759  15.506  0.4413 -0.3421 -0.3702
  414TMC3    C3 6229   2.019   1.648  15.422 -0.2157  1.0318  0.2157
  414TMC3    C4 6230   1.938   1.897  15.327 -0.2849  0.8918 -0.2196
  414TMC3    C5 6231   1.938   1.785  15.251  0.0491  0.5442 -0.0265
  414TMC3    C6 6232   1.957   1.659  15.300 -0.0023  0.2562  0.4434
  414TMC3     C 6233   1.925   1.964  15.552  0.3224  0.0881  0.7894
  414TMC3     O 6234   1.970   1.988  15.667  0.0014  0.1270  0.5151
  414TMC3     H 6235   2.081   1.745  15.604  1.5477 -1.4404 -1.0323
  414TMC3    H1 6236   1.918   1.992  15.280 -0.4373  1.4779  1.0347
  414TMC3    H2 6237   1.935   1.575  15.235  0.5757  1.4853 -1.3314
  414TMC3    C7 6238   1.861   1.795  15.124 -0.0530  0.0320  0.4255
  414TMC3    C8 6239   2.064   1.516  15.450 -0.1232  0.3694 -0.2584
  414TMC3    O1 6240   1.760   1.864  15.119  0.0836  0.9479 -0.3805
  414TMC3    O2 6241   2.006   1.424  15.394  0.1836 -0.6117 -0.1386
  415TMC3    C1 6242   2.558   4.549  10.727 -0.3374 -0.5237  0.5347
  415TMC3    C2 6243   2.684   4.562  10.775  0.5279 -0.9434 -0.3169
  415TMC3    C3 6244   2.765   4.658  10.717 -0.0589 -0.7987 -0.4128
  415TMC3    C4 6245   2.508   4.637  10.628 -0.2227 -0.5960 -0.0124
  415TMC3    C5 6246   2.595   4.731  10.577 -1.4388  0.5596 -0.3891
  415TMC3    C6 6247   2.723   0.008  10.614  0.1690  0.2260  0.2288
  415TMC3     C 6248   2.473   4.470  10.802  0.5687 -0.1621 -0.2670
  415TMC3     O 6249   2.354   4.495  10.789  0.5443 -0.0584 -0.5387
  415TMC3     H 6250   2.726   4.503  10.855 -0.7885 -2.1826 -0.5365
  415TMC3    H1 6251   2.417   4.619  10.572  0.2835 -2.4035 -0.2602
  415TMC3    H2 6252   2.794   0.069  10.558 -1.8803  0.1664 -2.4185
  415TMC3    C7 6253   2.523   0.097  10.501 -0.0053 -0.6433 -0.7320
  415TMC3    C8 6254   2.901   4.665  10.762 -0.1024 -0.4193 -0.0706
  415TMC3    O1 6255   2.596   0.175  10.443 -0.0965 -0.0733 -0.3306
  415TMC3    O2 6256   2.956   4.562  10.794  0.3871 -0.5460  0.1411
  416MPD2     C 6257   3.397   2.713  11.821 -0.2769 -0.1628 -0.1106
  416MPD2    C1 6258   3.476   2.785  11.732  0.1505 -0.0504  0.1309
  416MPD2    C2 6259   3.498   2.728  11.601 -0.7199  1.1333 -0.1616
  416MPD2    C3 6260   3.462   2.601  11.568 -0.3696  0.3959  0.5980
  416MPD2    C4 6261   3.372   2.542  11.656  0.3404 -0.3100  0.2521
  416MPD2    C5 6262   3.344   2.596  11.781 -0.3409  0.0820 -0.2277
  416MPD2     H 6263   3.541   2.788  11.522  1.0284 -1.5380 -1.2329
  416MPD2    H1 6264   3.359   2.434  11.658 -0.8562 -0.1250  2.0857
  416MPD2    H2 6265   3.368   2.746  11.920  2.5376  0.8914  0.3748
  416MPD2    H3 6266   3.294   2.536  11.857  0.3254  1.8920  1.6312
  416MPD2     N 6267   3.508   2.538  11.446 -0.2553  0.0761 -0.2873
  416MPD2    H5 6268   3.576   2.590  11.392  0.0541 -0.7753 -0.7154
  416MPD2    N1 6269   3.513   2.917  11.767  0.3402  0.0530 -0.9378
  416MPD2    H7 6270   3.465   2.951  11.850 -1.2445 -0.4892 -1.6268
  417TMC3    C1 6271   3.562   3.140  11.741 -0.5239  0.6096 -0.4011
  417TMC3    C2 6272   3.568   3.187  11.871 -0.0274 -0.6387  0.8138
  417TMC3    C3 6273   3.556   3.319  11.887 -0.1456  0.1733  0.5260
  417TMC3    C4 6274   3.545   3.224  11.630  0.2750  0.4452 -0.3118
  417TMC3    C5 6275   3.528   3.356  11.657  0.2874  0.1450 -0.1862
  417TMC3    C6 6276   3.521   3.410  11.786 -0.9518 -0.3549  0.5716
  417TMC3     C 6277   3.594   3.005  11.696 -0.2569 -0.1654 -0.4805
  417TMC3     O 6278   3.653   2.990  11.590  0.0653 -0.3935 -0.1714
  417TMC3     H 6279   3.597   3.120  11.951 -0.5013 -3.6213 -1.5209
  417TMC3    H1 6280   3.554   3.190  11.527  0.5248 -1.2884  0.2900
  417TMC3    H2 6281   3.490   3.512  11.803 -3.6237 -0.7184 -2.1060
  417TMC3    C7 6282   3.518   3.460  11.554 -0.0511  0.1560 -0.5982
  417TMC3    C8 6283   3.546   3.367  12.018  0.4340 -0.4351 -0.4057
  417TMC3    O1 6284   3.532   3.578  11.585  0.3501  0.3257 -0.6254
  417TMC3    O2 6285   3.558   3.489  12.038 -0.3816 -0.0187 -0.0962
  418TMC3    C1 6286   3.365   0.843   0.438  0.7421  0.3329  0.6037
  418TMC3    C2 6287   3.249   0.915   0.444 -0.2830  0.5949  0.4311
  418TMC3    C3 6288   3.178   0.916   0.555  0.5302  0.2949 -0.2862
  418TMC3    C4 6289   3.422   0.774   0.550 -0.0656  0.1079  0.2835
  418TMC3    C5 6290   3.346   0.776   0.666 -0.8584  0.8383  0.1283
  418TMC3    C6 6291   3.227   0.848   0.666  0.4968  0.1308  0.4402
  418TMC3     C 6292   3.422   0.818   0.309  0.0367  0.6202 -0.1116
  418TMC3     O 6293   3.408   0.895   0.214 -0.0266  0.3671  0.0104
  418TMC3     H 6294   3.212   0.956   0.351 -0.6116  0.7774  0.6436
  418TMC3    H1 6295   3.512   0.714   0.552 -0.6100 -0.6924  0.5857
  418TMC3    H2 6296   3.164   0.841   0.753  0.6526  0.8834  0.6101
  418TMC3    C7 6297   3.360   0.665   0.768  0.0054 -0.0211  0.3609
  418TMC3    C8 6298   3.039   0.944   0.535 -0.3029  0.1341  0.4679
  418TMC3    O1 6299   3.388   0.554   0.724  0.4682 -0.4363  0.4626
  418TMC3    O2 6300   3.008   1.054   0.492  0.2519  0.1729 -0.2535
  419MPD2     C 6301   2.028   3.008  12.398  0.8336 -0.7274  0.6289
  419MPD2    C1 6302   1.931   3.099  12.404  0.9484 -0.6644  0.1050
  419MPD2    C2 6303   1.888   3.127  12.533  0.2339 -0.1359 -0.4806
  419MPD2    C3 6304   1.924   3.060  12.652  0.1352  0.0108 -1.0054
  419MPD2    C4 6305   2.019   2.960  12.639  0.4434 -0.5316 -0.4969
  419MPD2    C5 6306   2.072   2.946  12.513  0.5294  0.4835  0.2743
  419MPD2     H 6307   1.816   3.207  12.548  1.9733  1.1299  1.1457
  419MPD2    H1 6308   2.041   2.896  12.724 -2.9757 -0.3952  0.5057
  419MPD2    H2 6309   2.083   2.986  12.307  1.5130  0.2390  0.8024
  419MPD2    H3 6310   2.156   2.879  12.499  0.0988 -0.0968  0.4381
  419MPD2     N 6311   1.859   3.106  12.768  0.3940  0.6366 -0.0440
  419MPD2    H5 6312   1.794   3.183  12.756  0.5041  0.9118  1.1407
  419MPD2    N1 6313   1.877   3.164  12.294  0.1068  0.1931 -0.1225
  419MPD2    H7 6314   1.808   3.237  12.308 -1.0725 -1.1770  1.2153
  420TMC3    C1 6315   1.783   3.119  12.989 -0.2084 -0.4529  0.5564
  420TMC3    C2 6316   1.668   3.188  12.948 -0.5907 -0.9025 -0.3528
  420TMC3    C3 6317   1.586   3.245  13.044 -0.0237  0.4177 -0.6947
  420TMC3    C4 6318   1.819   3.115  13.122 -0.0393 -0.4781  0.0669
  420TMC3    C5 6319   1.729   3.172  13.212  0.3922  0.0299 -0.3600
  420TMC3    C6 6320   1.613   3.232  13.179  0.5023 -0.1554 -0.6267
  420TMC3     C 6321   1.876   3.065  12.894  0.7087  0.3492 -0.0664
  420TMC3     O 6322   1.951   2.975  12.931  0.1054 -0.7899 -0.3344
  420TMC3     H 6323   1.642   3.202  12.844 -1.5358 -0.3593 -0.0413
  420TMC3    H1 6324   1.916   3.079  13.156  1.6753  1.1980 -2.9875
  420TMC3    H2 6325   1.555   3.287  13.251  1.5604 -1.7699  1.4507
  420TMC3    C7 6326   1.757   3.175  13.357 -0.1831 -0.5058 -0.5000
  420TMC3    C8 6327   1.464   3.291  12.995 -0.4738 -0.2019  0.2546
  420TMC3    O1 6328   1.665   3.158  13.439 -0.3979 -0.0457 -0.0889
  420TMC3    O2 6329   1.457   3.322  12.875 -0.2388 -0.4371  0.1266
  421TMC3    C1 6330   2.638   0.159  14.104 -0.6331 -0.6418 -0.3638
  421TMC3    C2 6331   2.580   0.233  14.209  0.1065 -0.7400  0.2546
  421TMC3    C3 6332   2.646   0.232  14.329  0.4926  0.5508 -0.5713
  421TMC3    C4 6333   2.751   0.084  14.121 -0.4578 -0.5212 -0.2873
  421TMC3    C5 6334   2.809   0.084  14.243 -0.0701  0.1357 -0.3223
  421TMC3    C6 6335   2.759   0.156  14.350 -0.4803  0.0430  0.7399
  421TMC3     C 6336   2.566   0.153  13.978 -0.2162  0.1895  0.1165
  421TMC3     O 6337   2.453   0.201  13.981  0.4664  0.3456  0.0043
  421TMC3     H 6338   2.481   0.275  14.197  1.6944  2.2823 -2.1544
  421TMC3    H1 6339   2.794   0.014  14.050  0.8861 -0.9183  0.9074
  421TMC3    H2 6340   2.831   0.160  14.430 -1.1014  2.2066  1.1657
  421TMC3    C7 6341   2.912   4.717  14.280  0.6779 -0.3461 -0.2006
  421TMC3    C8 6342   2.597   0.324  14.431  1.0097  0.2738 -0.5066
  421TMC3    O1 6343   3.016   4.718  14.215  0.0931 -0.1775 -0.1275
  421TMC3    O2 6344   2.505   0.398  14.402 -0.2535  0.5581 -0.2944
  422TMC3    C1 6345   0.007   1.718  12.897 -0.8680  0.8691  0.2420
  422TMC3    C2 6346   4.719   1.815  12.992 -0.1724  0.2038  0.2696
  422TMC3    C3 6347   4.673   1.776  13.114 -0.7196  0.7163 -0.1716
  422TMC3    C4 6348   4.722   1.586  12.920 -0.2064 -0.6127 -0.0305
  422TMC3    C5 6349   4.674   1.553  13.043  0.1859 -0.3809 -0.8453
  422TMC3    C6 6350   4.651   1.645  13.139  0.0855  0.0677 -0.1829
  422TMC3     C 6351   0.048   1.765  12.767 -0.0345 -0.8530  0.0258
  422TMC3     O 6352   0.017   1.876  12.724 -0.4832  0.3372  0.2047
  422TMC3     H 6353   0.004   1.920  12.972 -2.2537  0.9391  2.0973
  422TMC3    H1 6354   4.714   1.519  12.835  1.9455 -1.9131  0.8057
  422TMC3    H2 6355   4.628   1.614  13.240  0.1931  0.0188 -0.1744
  422TMC3    C7 6356   4.614   1.423  13.050 -0.4662 -0.5505 -0.4183
  422TMC3    C8 6357   4.704   1.864  13.223 -0.5093  0.5869  0.7320
  422TMC3    O1 6358   4.666   1.341  12.981 -0.2167 -0.0317 -0.6216
  422TMC3    O2 6359   0.045   1.954  13.199  0.3392  0.6690 -0.0552
  423MPD2     C 6360   1.700   3.003   0.726  0.4012 -0.5005 -0.4186
  423MPD2    C1 6361   1.748   2.874   0.760 -0.0155  0.3874 -0.0638
  423MPD2    C2 6362   1.820   2.806   0.665  0.2381 -0.0394 -0.1570
  423MPD2    C3 6363   1.848   2.859   0.540 -0.3453 -0.5580  0.0747
  423MPD2    C4 6364   1.802   2.985   0.509  0.3954 -0.8531 -0.1051
  423MPD2    C5 6365   1.725   3.056   0.599  0.0763  1.0680 -0.4981
  423MPD2     H 6366   1.852   2.705   0.690 -1.1142 -0.6418 -0.8974
  423MPD2    H1 6367   1.802   3.025   0.409 -1.7410 -0.7931 -0.0648
  423MPD2    H2 6368   1.630   3.063   0.783  0.3314  0.1745 -1.2117
  423MPD2    H3 6369   1.668   3.140   0.563 -0.0480  1.5823  0.8807
  423MPD2     N 6370   1.916   2.792   0.430  0.0480 -0.1917  0.1954
  423MPD2    H5 6371   1.939   2.852   0.351 -1.1150  0.3737  0.2821
  423MPD2    N1 6372   1.718   2.811   0.882  0.4309  0.3357 -0.2125
  423MPD2    H7 6373   1.763   2.721   0.893 -2.4608 -1.3506 -1.9927
  424TMC3    C1 6374   1.641   2.797   1.111  0.0307  0.6574 -1.2435
  424TMC3    C2 6375   1.757   2.746   1.158  0.1751 -1.2596 -0.2377
  424TMC3    C3 6376   1.752   2.676   1.271 -0.3957 -0.4924  0.1340
  424TMC3    C4 6377   1.538   2.807   1.197 -0.0800  0.2818 -0.4710
  424TMC3    C5 6378   1.537   2.736   1.317  0.5340  0.0540  0.1316
  424TMC3    C6 6379   1.641   2.661   1.356  0.1733 -0.4226 -0.3178
  424TMC3     C 6380   1.646   2.870   0.988  0.2983  0.5277 -0.2468
  424TMC3     O 6381   1.580   2.976   0.979 -0.0631 -0.0329 -0.6073
  424TMC3     H 6382   1.849   2.746   1.102 -0.5914 -1.0677 -1.5037
  424TMC3    H1 6383   1.458   2.877   1.174 -0.4839  0.3424  1.0993
  424TMC3    H2 6384   1.642   2.595   1.442 -2.0635 -0.1650 -0.1025
  424TMC3    C7 6385   1.437   2.758   1.419  1.1936  0.5739 -0.7780
  424TMC3    C8 6386   1.865   2.593   1.305  0.5197 -0.1272  0.0351
  424TMC3    O1 6387   1.458   2.720   1.534  0.0202  0.0216 -0.0485
  424TMC3    O2 6388   1.836   2.479   1.348 -0.2044  0.3204 -0.1687
  425MPD2     C 6389   0.851   2.210  17.577  0.3185  0.7300  0.7589
  425MPD2    C1 6390   0.808   2.076  17.559  0.3294  0.2061  0.6679
  425MPD2    C2 6391   0.682   2.038  17.604 -0.3891  0.3510  0.1046
  425MPD2    C3 6392   0.610   2.129  17.678 -0.7731 -0.2029 -0.7162
  425MPD2    C4 6393   0.660   2.255  17.706  0.4751  0.0437  0.3604
  425MPD2    C5 6394   0.777   2.293  17.650 -0.4668  0.4320  0.7101
  425MPD2     H 6395   0.638   1.940  17.589 -1.5556  0.8860 -0.0286
  425MPD2    H1 6396   0.615   2.334   0.031  2.8311  0.0145  2.1432
  425MPD2    H2 6397   0.947   2.238  17.535 -1.7534  2.7283 -2.6740
  425MPD2    H3 6398   0.815   2.390  17.683 -0.2860  0.6960 -0.2823
  425MPD2     N 6399   0.483   2.084  17.721  0.0805 -0.3728 -0.2057
  425MPD2    H5 6400   0.456   1.999  17.671  1.5894 -0.0580 -1.5578
  425MPD2    N1 6401   0.886   1.997  17.474  0.5965  0.2193 -0.3807
  425MPD2    H7 6402   0.983   2.018  17.453  0.3501  0.6244 -1.1374
  426TMC3    C1 6403   0.945   1.802  17.357  0.1895 -0.4679  0.6823
  426TMC3    C2 6404   0.912   1.732  17.240 -0.2136 -0.1214 -0.0843
  426TMC3    C3 6405   0.996   1.637  17.201 -0.1253  0.6414  0.1315
  426TMC3    C4 6406   1.061   1.779  17.438  0.6673 -0.6769  0.8861
  426TMC3    C5 6407   1.130   1.669  17.402 -0.3740 -0.0200  1.0865
  426TMC3    C6 6408   1.107   1.608  17.279 -0.6926  0.1197 -0.7249
  426TMC3     C 6409   0.839   1.874  17.422  0.2674  0.7561  0.7019
  426TMC3     O 6410   0.725   1.839  17.394  0.8330 -0.2600  0.7436
  426TMC3     H 6411   0.839   1.777  17.173 -0.1101  0.4185  0.1700
  426TMC3    H1 6412   1.062   1.834  17.531  1.0346  1.2169 -0.2476
  426TMC3    H2 6413   1.181   1.536  17.247 -2.0190 -1.9812  0.8947
  426TMC3    C7 6414   1.128   1.574  17.507 -0.2384 -0.3036  0.2685
  426TMC3    C8 6415   0.964   1.541  17.101  0.0317 -0.2637  0.3639
  426TMC3    O1 6416   1.076   1.611  17.609 -0.5954  0.0471  0.1987
  426TMC3    O2 6417   1.047   1.459  17.073  0.0498  0.6184 -0.1133
  427MPD2     C 6418   3.825   3.178  15.064  0.3722  0.2761  0.8163
  427MPD2    C1 6419   3.875   3.278  15.145  0.2343 -0.2801  0.1560
  427MPD2    C2 6420   3.846   3.411  15.117  0.5149 -0.2279 -0.2734
  427MPD2    C3 6421   3.755   3.446  15.012 -0.2217 -0.0690 -0.2119
  427MPD2    C4 6422   3.714   3.347  14.923 -0.0198  0.4076 -0.3117
  427MPD2    C5 6423   3.750   3.217  14.952 -1.3229  0.1107 -0.5736
  427MPD2     H 6424   3.873   3.486  15.190 -0.9755  0.4846 -0.4611
  427MPD2    H1 6425   3.663   3.373  14.832 -1.7256  0.3789  0.6438
  427MPD2    H2 6426   3.849   3.073  15.077  0.3430  0.2181  0.4058
  427MPD2    H3 6427   3.719   3.142  14.881  0.7571 -1.5775  0.3121
  427MPD2     N 6428   3.698   3.578  15.006  0.1625 -0.4229 -0.3539
  427MPD2    H5 6429   3.619   3.587  14.942 -0.9217 -0.5181  0.9789
  427MPD2    N1 6430   3.933   3.262  15.274  0.1817 -0.0197  0.2414
  427MPD2    H7 6431   3.975   3.340  15.323 -0.5074  0.4248  0.1225
  428TMC3    C1 6432   4.004   3.133  15.468 -0.6947  0.2309 -0.2500
  428TMC3    C2 6433   3.945   3.089  15.582 -0.0395 -0.1502 -0.2656
  428TMC3    C3 6434   4.005   3.121  15.697  0.2717  0.0730 -0.6301
  428TMC3    C4 6435   4.125   3.192  15.465  0.4894 -0.7761  0.1226
  428TMC3    C5 6436   4.194   3.213  15.586 -0.2911 -0.0551 -0.2402
  428TMC3    C6 6437   4.130   3.178  15.698 -0.8007  0.3149 -0.4725
  428TMC3     C 6438   3.922   3.137  15.341  0.1506  0.2103 -0.3963
  428TMC3     O 6439   3.852   3.038  15.324 -0.4286 -0.0421 -0.6596
  428TMC3     H 6440   3.865   3.016  15.582 -0.5092  0.3697 -0.1978
  428TMC3    H1 6441   4.161   3.217  15.366 -0.4110 -0.6355 -0.1657
  428TMC3    H2 6442   4.185   3.186  15.792 -1.3869  1.6071 -0.2451
  428TMC3    C7 6443   4.256   3.343  15.582  0.2610  0.1748  0.2244
  428TMC3    C8 6444   3.953   3.064  15.823 -0.0634 -0.6912  0.2067
  428TMC3    O1 6445   4.203   3.433  15.643  0.3123 -0.6010 -0.1653
  428TMC3    O2 6446   3.897   2.956  15.810  0.2198 -0.0620 -0.7849
  429MPD2     C 6447   0.399   4.222   0.052  0.3707 -0.9233  0.4872
  429MPD2    C1 6448   0.443   4.213  17.655  0.0029 -0.9359 -0.4139
  429MPD2    C2 6449   0.463   4.328  17.586 -0.2131 -0.3472  0.6352
  429MPD2    C3 6450   0.466   4.454  17.644  0.5576  0.4225 -0.7335
  429MPD2    C4 6451   0.442   4.460   0.041  0.2086 -0.0869 -0.7009
  429MPD2    C5 6452   0.386   4.348   0.105  0.5369 -0.4455 -0.1783
  429MPD2     H 6453   0.494   4.331  17.482 -1.4829  0.1770  0.2723
  429MPD2    H1 6454   0.436   4.554   0.094  0.9544 -0.8290  0.6857
  429MPD2    H2 6455   0.385   4.138   0.118 -0.9161  0.3269  1.8237
  429MPD2    H3 6456   0.362   4.351   0.211  0.1513  3.8468 -0.4058
  429MPD2     N 6457   0.506   4.575  17.573  0.1828 -0.6539  0.1165
  429MPD2    H5 6458   0.521   4.570  17.473 -1.4819  0.8103 -0.2062
  429MPD2    N1 6459   0.461   4.082  17.591  0.6620 -0.1863  0.9197
  429MPD2    H7 6460   0.516   4.085  17.506 -0.1534  0.6278  0.4232
  430TMC3    C1 6461   0.622   0.037  17.529 -1.1394 -0.4548 -0.9023
  430TMC3    C2 6462   0.563   0.042  17.409  0.3631 -0.1549 -0.0744
  430TMC3    C3 6463   0.637   0.082  17.303  0.4179  0.0974 -0.2046
  430TMC3    C4 6464   0.752   0.084  17.550  0.0008 -0.2262  0.0159
  430TMC3    C5 6465   0.828   0.122  17.443  0.4903  0.2875 -0.3217
  430TMC3    C6 6466   0.765   0.118  17.316  0.5076 -0.2774 -0.3880
  430TMC3     C 6467   0.571   4.680  17.632 -0.0769 -0.0902 -0.3285
  430TMC3     O 6468   0.601   4.706   0.013  0.2681  0.0362  0.0653
  430TMC3     H 6469   0.461   0.014  17.385  0.0876 -0.1376  1.0695
  430TMC3    H1 6470   0.800   0.072  17.646 -1.0530  1.1305  0.7142
  430TMC3    H2 6471   0.826   0.142  17.229  1.1102  0.5078  0.2605
  430TMC3    C7 6472   0.970   0.099  17.453 -0.0934 -0.4789  0.0160
  430TMC3    C8 6473   0.579   0.056  17.173 -0.1739 -0.0081  0.0755
  430TMC3    O1 6474   1.030   0.154  17.545  0.2954 -0.5858 -0.1947
  430TMC3    O2 6475   0.655   0.022  17.085  0.3855 -0.3170  0.2095
  431MPD2     C 6476   1.423   3.602  12.609 -0.2578 -0.4404 -0.3006
  431MPD2    C1 6477   1.483   3.669  12.503  0.3869  0.2267 -0.3470
  431MPD2    C2 6478   1.503   3.602  12.380 -1.1982 -0.8223  0.4717
  431MPD2    C3 6479   1.465   3.467  12.378  0.1032  0.3535  0.4359
  431MPD2    C4 6480   1.417   3.399  12.488 -0.0189 -0.1087  0.8975
  431MPD2    C5 6481   1.385   3.469  12.600 -0.6276  0.8424 -0.0548
  431MPD2     H 6482   1.563   3.653  12.305 -0.1767 -0.1953  1.7060
  431MPD2    H1 6483   1.384   3.297  12.473  0.6852 -0.4656  1.7637
  431MPD2    H2 6484   1.391   3.654  12.699  1.7128  1.0268 -0.4423
  431MPD2    H3 6485   1.333   3.416  12.679  2.0334 -1.7100 -0.0057
  431MPD2     N 6486   1.495   3.382  12.262  0.2903 -0.0628  0.3455
  431MPD2    H5 6487   1.493   3.281  12.273 -1.0620 -0.0820 -0.1889
  431MPD2    N1 6488   1.505   3.810  12.497  0.3340 -0.2497 -0.1646
  431MPD2    H7 6489   1.544   3.851  12.413 -2.9244  1.8604 -0.6522
  432TMC3    C1 6490   1.614   3.343  12.062  0.4781  0.2581 -0.3045
  432TMC3    C2 6491   1.662   3.394  11.940  0.3727 -0.0611  0.1556
  432TMC3    C3 6492   1.788   3.356  11.898 -0.0982  0.3663  0.8239
  432TMC3    C4 6493   1.692   3.249  12.134  0.0099  0.3401 -0.1339
  432TMC3    C5 6494   1.808   3.210  12.083 -0.1586  0.1717 -0.0028
  432TMC3    C6 6495   1.860   3.261  11.966 -0.3559 -0.0525  0.5524
  432TMC3     C 6496   1.544   3.441  12.144  0.1508  0.7908  0.4451
  432TMC3     O 6497   1.541   3.555  12.105  1.2237  0.3590  0.3164
  432TMC3     H 6498   1.596   3.470  11.899  0.5802 -0.6763 -1.2882
  432TMC3    H1 6499   1.647   3.201  12.220  0.9154  1.6697  1.0795
  432TMC3    H2 6500   1.956   3.224  11.932  0.7700  0.7633  2.8336
  432TMC3    C7 6501   1.899   3.136  12.163 -0.0799  0.5571  0.8146
  432TMC3    C8 6502   1.853   3.446  11.813 -0.2384 -0.0934 -0.7360
  432TMC3    O1 6503   1.985   3.066  12.109 -0.1247 -0.6195  0.2862
  432TMC3    O2 6504   1.788   3.516  11.732 -0.1808  0.1079  1.1311
  433MPD2     C 6505   0.290   2.324  10.684 -0.0070 -0.2851  0.1358
  433MPD2    C1 6506   0.186   2.313  10.767 -0.5828  0.0854 -0.0212
  433MPD2    C2 6507   0.180   2.376  10.887  0.0218  0.1118  0.4161
  433MPD2    C3 6508   0.279   2.462  10.932 -0.1360 -0.0008 -0.4566
  433MPD2    C4 6509   0.387   2.475  10.843 -0.1211  0.5269 -0.0639
  433MPD2    C5 6510   0.391   2.412  10.726  0.3682  0.2510  0.0215
  433MPD2     H 6511   0.090   2.360  10.945 -0.2611  1.3627  0.3023
  433MPD2    H1 6512   0.472   2.537  10.868 -1.5781  1.6372  2.1578
  433MPD2    H2 6513   0.300   2.272  10.590  1.7495 -0.8389  0.6267
  433MPD2    H3 6514   0.482   2.427  10.668 -0.7532  0.5109 -1.6687
  433MPD2     N 6515   0.278   2.522  11.059 -0.1706 -0.0143 -0.0888
  433MPD2    H5 6516   0.226   2.476  11.133 -1.2204  1.4820  0.0795
  433MPD2    N1 6517   0.086   2.231  10.707 -0.0222  0.5795 -0.4165
  433MPD2    H7 6518   0.124   2.177  10.630 -0.7245 -1.1137  0.4183
  434TMC3    C1 6519   4.653   2.052  10.712 -0.5150 -0.2966 -0.6858
  434TMC3    C2 6520   4.548   1.992  10.777  0.0367 -0.0690 -0.1685
  434TMC3    C3 6521   4.497   1.879  10.725 -0.2291  0.3499 -0.2631
  434TMC3    C4 6522   4.691   2.008  10.588  0.1048 -0.3921 -0.5598
  434TMC3    C5 6523   4.633   1.900  10.538 -0.3180  0.3730 -0.2078
  434TMC3    C6 6524   4.532   1.836  10.596 -0.2760  0.2427 -0.0996
  434TMC3     C 6525   4.710   2.177  10.775  0.7344 -0.0156 -0.2084
  434TMC3     O 6526   4.658   2.221  10.874  0.2443  0.4698 -0.2186
  434TMC3     H 6527   4.515   2.023  10.875  3.4354  0.8704  0.6623
  434TMC3    H1 6528   0.044   2.046  10.537 -1.2547  1.2650 -1.6340
  434TMC3    H2 6529   4.484   1.753  10.545 -1.4600  0.2825  0.9583
  434TMC3    C7 6530   4.730   1.830  10.451  0.2900 -0.0966  0.3852
  434TMC3    C8 6531   4.433   1.781  10.809 -0.5712  0.3958  0.2425
  434TMC3    O1 6532   0.073   1.885  10.373 -0.2593  0.9509 -0.1458
  434TMC3    O2 6533   4.377   1.685  10.757 -0.1994  0.0016 -0.4874
  435MPD2     C 6534   2.295   2.861  15.541  0.2887 -0.1280  0.1794
  435MPD2    C1 6535   2.285   2.857  15.675  0.3977  0.6672  0.6801
  435MPD2    C2 6536   2.381   2.797  15.752  0.2194 -0.0412 -0.0893
  435MPD2    C3 6537   2.486   2.737  15.691 -0.5989 -0.2967 -0.4386
  435MPD2    C4 6538   2.495   2.733  15.557  0.2429  0.0850 -0.5054
  435MPD2    C5 6539   2.397   2.793  15.484  0.0081 -0.9182 -0.3655
  435MPD2     H 6540   2.379   2.799  15.860  1.3149  1.1004 -0.0835
  435MPD2    H1 6541   2.578   2.686  15.504  1.0176  1.5022 -0.5409
  435MPD2    H2 6542   2.221   2.894  15.469  0.4589 -1.8609 -0.8005
  435MPD2    H3 6543   2.406   2.781  15.377  4.4552  3.4546 -0.4246
  435MPD2     N 6544   2.591   2.677  15.770 -0.0164 -0.1488 -0.0806
  435MPD2    H5 6545   2.597   2.709  15.866 -0.2004 -0.9898  0.2107
  435MPD2    N1 6546   2.176   2.900  15.742 -0.3397 -0.0777  0.9629
  435MPD2    H7 6547   2.178   2.900  15.843 -0.8418  1.0068  0.9734
  436TMC3    C1 6548   1.864   2.914  16.003  0.1863 -0.2567 -0.5695
  436TMC3    C2 6549   1.973   2.919  15.922 -0.0726  0.8182 -0.5345
  436TMC3    C3 6550   1.948   2.943  15.791  1.1519  0.4481 -1.0822
  436TMC3    C4 6551   1.737   2.910  15.959  0.4723 -0.6492 -0.4450
  436TMC3    C5 6552   1.711   2.920  15.824 -0.1252  0.3317 -0.1686
  436TMC3    C6 6553   1.818   2.942  15.740  0.0894  1.0202 -0.1120
  436TMC3     C 6554   1.884   2.908  16.146  0.1548 -0.9953 -0.1456
  436TMC3     O 6555   2.002   2.882  16.179  0.1823  0.0364 -0.1869
  436TMC3     H 6556   2.075   2.919  15.958  0.8671  0.2345 -3.1603
  436TMC3    H1 6557   1.651   2.902  16.024  1.5707  0.3861  1.1396
  436TMC3    H2 6558   1.805   2.945  15.632  0.2296 -1.6095 -0.2122
  436TMC3    C7 6559   1.567   2.917  15.785  0.5883 -0.4603 -0.0026
  436TMC3    C8 6560   2.057   2.940  15.687  0.1791 -0.1165  0.2602
  436TMC3    O1 6561   1.487   2.909  15.879  0.3213  0.1599  0.5986
  436TMC3    O2 6562   2.032   2.969  15.571  0.4873 -0.0726 -0.3421
  437TMC3    C1 6563   1.276   0.184  11.833 -0.1384  0.4831  0.8238
  437TMC3    C2 6564   1.230   0.145  11.710  0.0641 -0.0687  0.0352
  437TMC3    C3 6565   1.305   0.049  11.642 -0.5179 -0.2184  0.2903
  437TMC3    C4 6566   1.388   0.132  11.893 -0.3134  0.4693  0.0164
  437TMC3    C5 6567   1.452   0.031  11.828 -0.3310 -0.9909 -0.3441
  437TMC3    C6 6568   1.415   4.728  11.698 -0.1912 -0.0139 -0.2133
  437TMC3     C 6569   1.187   0.278  11.898  0.2347  0.0747  0.2572
  437TMC3     O 6570   1.120   0.364  11.833 -0.2873  0.5422 -0.6390
  437TMC3     H 6571   1.139   0.191  11.671  1.3850  2.2239 -0.3750
  437TMC3    H1 6572   1.422   0.176  11.986 -3.1057 -0.4383  1.4900
  437TMC3    H2 6573   1.470   4.650  11.649 -1.0361 -0.2559 -0.7723
  437TMC3    C7 6574   1.561   4.681  11.886  0.8150 -0.1714 -0.4268
  437TMC3    C8 6575   1.258   0.022  11.507 -0.6135 -0.2833 -0.9829
  437TMC3    O1 6576   1.617   4.609  11.804 -0.0781  0.9973  0.4681
  437TMC3    O2 6577   1.153   0.081  11.483  0.1666 -0.1235 -0.4733
  438MPD2     C 6578   3.347   0.539  17.031  0.0074  1.0473 -0.3257
  438MPD2    C1 6579   3.418   0.435  17.083 -0.2852 -0.2389  0.5623
  438MPD2    C2 6580   3.399   0.401  17.217 -0.3503  0.2148 -0.1227
  438MPD2    C3 6581   3.327   0.487  17.307 -0.1129 -0.0361 -0.6724
  438MPD2    C4 6582   3.265   0.598  17.243  0.3983 -0.8963  0.3412
  438MPD2    C5 6583   3.278   0.628  17.109 -0.1799 -0.0310  0.4517
  438MPD2     H 6584   3.452   0.313  17.250 -0.1948 -0.5656 -2.4605
  438MPD2    H1 6585   3.192   0.659  17.295  2.9693  3.2027 -0.8434
  438MPD2    H2 6586   3.348   0.563  16.926 -2.0789  4.1942  0.3592
  438MPD2    H3 6587   3.230   0.713  17.062 -0.6964  0.5705  2.0674
  438MPD2     N 6588   3.328   0.473  17.449 -0.2626 -0.5606  0.3511
  438MPD2    H5 6589   3.273   0.543  17.498  0.5881 -0.4634  1.1641
  438MPD2    N1 6590   3.518   0.360  17.013  0.3463 -0.1514  0.1155
  438MPD2    H7 6591   3.575   0.291  17.061  2.7413  1.0653 -1.0165
  439TMC3    C1 6592   3.629   0.258  16.832  0.7028  0.3301 -0.4775
  439TMC3    C2 6593   3.610   0.203  16.710  0.3803  0.0493 -0.6509
  439TMC3    C3 6594   3.668   0.086  16.678  0.1853 -0.5391 -0.4151
  439TMC3    C4 6595   3.735   0.211  16.904  0.4072 -0.9918 -0.0584
  439TMC3    C5 6596   3.793   0.090  16.876  0.6550  0.2218 -0.5175
  439TMC3    C6 6597   3.765   0.027  16.756 -0.2575 -0.1458 -0.7552
  439TMC3     C 6598   3.530   0.359  16.878  0.3748 -0.1600  0.0980
  439TMC3     O 6599   3.461   0.404  16.787  0.1665  0.3764 -0.1784
  439TMC3     H 6600   3.522   0.228  16.650 -1.1993 -1.2287  1.1224
  439TMC3    H1 6601   3.769   0.270  16.988 -0.8401 -1.5300  0.8282
  439TMC3    H2 6602   3.828   4.680  16.719 -0.5036 -0.6507 -0.0663
  439TMC3    C7 6603   3.881   0.023  16.973 -0.0345  0.1346  0.8151
  439TMC3    C8 6604   3.666   0.051  16.539  0.7184 -0.2962 -0.4038
  439TMC3    O1 6605   3.907   0.077  17.077  0.4345  1.1844 -0.2338
  439TMC3    O2 6606   3.718   4.681  16.505 -0.6835  0.3403 -0.4203
  440MPD2     C 6607   1.600   0.872  15.091  0.3089 -0.0704 -0.4908
  440MPD2    C1 6608   1.646   0.953  15.195 -0.3983 -0.7156  0.3144
  440MPD2    C2 6609   1.749   0.913  15.275  0.3511 -0.0354 -0.2569
  440MPD2    C3 6610   1.812   0.794  15.261 -0.2805  1.2919 -0.2407
  440MPD2    C4 6611   1.764   0.709  15.166  1.0325  0.0890  0.2386
  440MPD2    C5 6612   1.660   0.747  15.081 -0.6303  0.8850  0.1506
  440MPD2     H 6613   1.772   0.966  15.366 -1.4516  0.7055 -0.2325
  440MPD2    H1 6614   1.815   0.615  15.151  2.4606  0.3551  3.5370
  440MPD2    H2 6615   1.515   0.891  15.026 -0.9183  1.1234  1.4811
  440MPD2    H3 6616   1.633   0.672  15.007 -1.4922  0.0401  1.3193
  440MPD2     N 6617   1.912   0.768  15.360 -0.0451 -0.0064 -0.5828
  440MPD2    H5 6618   1.948   0.850  15.408  1.8084 -0.2984 -1.4917
  440MPD2    N1 6619   1.607   1.086  15.210  0.3706 -0.1310  0.1143
  440MPD2    H7 6620   1.666   1.139  15.273  0.3167  1.9730 -1.6281
  441TMC3    C1 6621   2.089   0.672  15.484 -0.0431  0.4316  0.4863
  441TMC3    C2 6622   2.164   0.784  15.467  0.2563 -0.2068 -0.2366
  441TMC3    C3 6623   2.268   0.806  15.550  0.8363  0.3411  0.5962
  441TMC3    C4 6624   2.107   0.581  15.586  0.2464 -0.5583 -0.7148
  441TMC3    C5 6625   2.209   0.607  15.676  0.1396  0.5233 -0.6437
  441TMC3    C6 6626   2.292   0.716  15.652  0.6000 -0.4120 -0.3411
  441TMC3     C 6627   1.972   0.653  15.388 -0.8357  0.2204  0.0396
  441TMC3     O 6628   1.953   0.542  15.343 -0.1175 -0.1941  0.6255
  441TMC3     H 6629   2.153   0.855  15.386 -0.7558  0.2520  0.3044
  441TMC3    H1 6630   2.033   0.502  15.594  0.0387 -0.1707  1.3274
  441TMC3    H2 6631   2.375   0.730  15.721 -1.5780 -0.2186  2.2579
  441TMC3    C7 6632   2.149   0.625  15.802  0.1650 -0.1818 -0.0863
  441TMC3    C8 6633   2.340   0.934  15.552 -0.0491  0.3092  0.3666
  441TMC3    O1 6634   2.155   0.737  15.853 -0.2700  0.3246  0.0579
  441TMC3    O2 6635   2.450   0.933  15.602  0.1452 -0.1561 -0.6333
  442MPD2     C 6636   0.267   1.360  16.741 -0.4953  0.2232  0.1023
  442MPD2    C1 6637   0.189   1.245  16.786  1.0464 -0.0713  0.0609
  442MPD2    C2 6638   0.172   1.138  16.700 -0.6573 -0.0571  0.4866
  442MPD2    C3 6639   0.217   1.138  16.567  0.3528  0.9156  0.1641
  442MPD2    C4 6640   0.286   1.248  16.520  0.3235  0.1443  0.4743
  442MPD2    C5 6641   0.305   1.355  16.607 -0.2702  0.2050 -0.7233
  442MPD2     H 6642   0.114   1.053  16.733  1.1157 -1.7427 -0.7935
  442MPD2    H1 6643   0.325   1.261  16.419  0.5931 -0.6723  0.4653
  442MPD2    H2 6644   0.299   1.451  16.792 -1.0967 -1.1473  2.9321
  442MPD2    H3 6645   0.349   1.439  16.554  0.6116  0.4089  0.3175
  442MPD2     N 6646   0.205   1.025  16.476  0.2369 -0.1235 -0.1417
  442MPD2    H5 6647   0.274   1.020  16.401  0.2131  1.2769 -0.2640
  442MPD2    N1 6648   0.130   1.231  16.910 -0.2868 -0.1169  0.5576
  442MPD2    H7 6649   0.065   1.155  16.925 -0.7133  0.2595  0.6372
  443TMC3    C1 6650   0.049   1.307  17.118 -0.1817  0.8552 -0.0168
  443TMC3    C2 6651   0.012   1.412  17.203  0.3695  0.1351  0.3040
  443TMC3    C3 6652   4.640   1.385  17.293 -0.4098 -0.5431 -0.0644
  443TMC3    C4 6653   0.023   1.178  17.152 -0.4709  0.1849 -0.5382
  443TMC3    C5 6654   4.671   1.157  17.254 -0.0820  0.6793 -0.2411
  443TMC3    C6 6655   4.610   1.256  17.326  0.1050 -0.1770  0.6890
  443TMC3     C 6656   0.125   1.336  17.001  0.0237  0.0372  0.8101
  443TMC3     O 6657   0.166   1.452  17.001  0.2159  0.4031 -0.1685
  443TMC3     H 6658   0.044   1.514  17.183  1.3148  0.4155  3.3275
  443TMC3    H1 6659   0.071   1.098  17.098 -0.4583 -0.2181  0.0680
  443TMC3    H2 6660   4.514   1.244  17.375  0.6576  0.2920  1.8949
  443TMC3    C7 6661   4.647   1.022  17.293 -0.3287 -0.4696  0.1975
  443TMC3    C8 6662   4.554   1.485  17.354 -0.0024  0.5171  0.1361
  443TMC3    O1 6663   4.656   0.939  17.205 -0.4320 -0.3257 -0.0898
  443TMC3    O2 6664   4.505   1.455  17.461 -0.2650 -0.1029 -0.0049
  444MPD2     C 6665   0.406   1.051  17.097  0.4943  0.0691 -0.1758
  444MPD2    C1 6666   0.396   0.925  17.156  0.9600  0.2835  0.1453
  444MPD2    C2 6667   0.454   0.816  17.097 -0.2879 -0.4008 -0.0201
  444MPD2    C3 6668   0.540   0.832  16.988  0.6267  0.1554  0.5773
  444MPD2    C4 6669   0.565   0.958  16.939 -0.1436 -0.3051  0.3481
  444MPD2    C5 6670   0.491   1.063  16.990  0.0343 -0.2702  0.3428
  444MPD2     H 6671   0.450   0.723  17.153 -2.2284 -0.1462  0.2721
  444MPD2    H1 6672   0.640   0.978  16.863  1.3349 -0.9945  1.6458
  444MPD2    H2 6673   0.344   1.138  17.118  0.8236  0.5885 -1.3878
  444MPD2    H3 6674   0.500   1.163  16.948 -0.3713 -0.8950 -1.2127
  444MPD2     N 6675   0.610   0.715  16.946  0.0751 -0.4058 -0.1379
  444MPD2    H5 6676   0.554   0.632  16.960 -1.8981  0.9581  0.0108
  444MPD2    N1 6677   0.319   0.899  17.261 -0.0403 -0.3578 -0.2308
  444MPD2    H7 6678   0.317   0.800  17.286 -1.3451 -0.9751 -2.7682
  445TMC3    C1 6679   0.792   0.593  16.884  0.5650 -0.5993 -0.4625
  445TMC3    C2 6680   0.712   0.481  16.867 -0.6804 -0.1071 -0.2866
  445TMC3    C3 6681   0.784   0.363  16.855  0.4733  0.4855 -0.3194
  445TMC3    C4 6682   0.931   0.593  16.900 -0.5818  0.5951  0.6503
  445TMC3    C5 6683   0.992   0.468  16.892 -0.1060  0.3704  0.5696
  445TMC3    C6 6684   0.917   0.351  16.877  0.2940 -0.6603  0.1620
  445TMC3     C 6685   0.732   0.722  16.882  0.3801  0.4291 -0.3530
  445TMC3     O 6686   0.805   0.818  16.857  0.5077  0.8215  0.2544
  445TMC3     H 6687   0.604   0.476  16.872 -0.6944  1.5340  1.1462
  445TMC3    H1 6688   0.986   0.685  16.917  1.4940 -0.3607 -0.8781
  445TMC3    H2 6689   0.977   0.263  16.855 -1.4739 -1.4386 -1.5106
  445TMC3    C7 6690   1.128   0.476  16.846  0.5385  0.2793  0.0956
  445TMC3    C8 6691   0.717   0.256  16.787 -0.1372  0.2832 -0.0682
  445TMC3    O1 6692   1.162   0.571  16.780 -0.1789 -0.5515 -0.8088
  445TMC3    O2 6693   0.784   0.153  16.780  0.0434 -0.2011  0.0888
  446MPD2     C 6694   4.517   2.208  11.380  0.0374 -0.2499  0.1164
  446MPD2    C1 6695   4.493   2.134  11.268 -0.4855  0.2583 -0.0575
  446MPD2    C2 6696   4.606   2.115  11.188  0.1801 -0.1677 -0.4230
  446MPD2    C3 6697   4.730   2.168  11.204  0.2149  0.1760  1.0292
  446MPD2    C4 6698   0.010   2.257  11.306  0.0468 -0.1195  1.2595
  446MPD2    C5 6699   4.636   2.274  11.396 -0.2293 -0.0291 -0.3351
  446MPD2     H 6700   4.600   2.042  11.107  1.0424 -0.9962  0.2651
  446MPD2    H1 6701   0.089   2.332  11.307  0.8395 -0.9344 -0.6700
  446MPD2    H2 6702   4.451   2.209  11.466 -0.4272  0.5343 -0.2603
  446MPD2    H3 6703   4.644   2.346  11.477 -1.6163  0.1575 -0.3723
  446MPD2     N 6704   0.092   2.130  11.115 -0.2093  0.4073  0.0743
  446MPD2    H5 6705   0.062   2.050  11.061 -1.9460  1.6558 -0.8094
  446MPD2    N1 6706   4.378   2.052  11.237  0.1737  0.0816 -0.0961
  446MPD2    H7 6707   4.378   2.000  11.150  2.2605 -0.5625  0.2826
  447TMC3    C1 6708   0.307   2.059  11.085  0.0307  0.3471  0.0445
  447TMC3    C2 6709   0.314   2.056  10.953 -0.2779 -0.3877 -0.1299
  447TMC3    C3 6710   0.433   2.027  10.895 -0.0994 -0.7294 -0.0933
  447TMC3    C4 6711   0.407   2.018  11.168 -0.6585  0.2489  0.5633
  447TMC3    C5 6712   0.529   1.987  11.105  0.1244 -0.3749  0.8389
  447TMC3    C6 6713   0.542   2.001  10.968 -0.2494 -0.1424 -0.2208
  447TMC3     C 6714   0.222   2.158  11.140 -0.3384  0.1361  0.3503
  447TMC3     O 6715   0.277   2.246  11.204  0.1783 -0.1560  0.3167
  447TMC3     H 6716   0.230   2.084  10.890  0.8182 -0.1381 -1.5054
  447TMC3    H1 6717   0.391   2.034  11.274 -0.1561 -0.8305  0.8005
  447TMC3    H2 6718   0.633   1.973  10.916  0.3737  1.7683 -0.1793
  447TMC3    C7 6719   0.639   1.945  11.187  0.2016  0.3949 -0.4908
  447TMC3    C8 6720   0.439   2.043  10.753 -0.3212 -0.2408  0.0643
  447TMC3    O1 6721   0.726   1.893  11.122  0.1820  0.0670  0.0891
  447TMC3    O2 6722   0.335   2.026  10.694 -0.8155  0.1122  0.5606
  448TMC3    C1 6723   4.179   1.642  17.720 -0.6659 -0.4937  0.1377
  448TMC3    C2 6724   4.065   1.588  17.666 -0.8497  0.0035  0.5551
  448TMC3    C3 6725   4.028   1.480   0.005  0.4535  0.3825 -0.1906
  448TMC3    C4 6726   4.233   1.610   0.109 -0.4796 -0.3442  0.0401
  448TMC3    C5 6727   4.175   1.515   0.182 -0.2931  0.5570 -0.3169
  448TMC3    C6 6728   4.074   1.438   0.126 -0.0362  0.8125  0.8012
  448TMC3     C 6729   4.259   1.721  17.625 -0.2343  0.2276 -0.0259
  448TMC3     O 6730   4.193   1.777  17.537 -1.1843 -0.0330 -0.0112
  448TMC3     H 6731   4.042   1.605  17.561  2.2711 -0.3370 -0.1714
  448TMC3    H1 6732   4.313   1.665   0.158 -0.6532 -0.1791  0.1405
  448TMC3    H2 6733   4.029   1.362   0.189 -0.8298  0.1036 -0.6207
  448TMC3    C7 6734   4.216   1.499   0.322 -0.4618 -0.1580 -0.0482
  448TMC3    C8 6735   3.928   1.394  17.682 -0.9417  0.2442  0.1439
  448TMC3    O1 6736   4.325   1.532   0.359  0.1134 -0.5567 -0.0180
  448TMC3    O2 6737   3.926   1.273  17.706  0.1645 -0.3824  0.1154
  449MPD2     C 6738   0.026   0.291  14.166  0.0125  0.5532 -0.2479
  449MPD2    C1 6739   4.639   0.338  14.116  0.6349  0.1087 -0.5705
  449MPD2    C2 6740   4.519   0.285  14.163  0.3563  0.1879 -0.7686
  449MPD2    C3 6741   4.519   0.201  14.267  0.1888  0.5278 -0.3837
  449MPD2    C4 6742   4.640   0.155  14.315 -0.2169 -0.2109 -0.0622
  449MPD2    C5 6743   0.023   0.198  14.267  0.0519 -0.1544  0.1151
  449MPD2     H 6744   4.424   0.322  14.127  0.8207  2.7559  0.6582
  449MPD2    H1 6745   4.646   0.071  14.383 -2.9203 -1.4617 -1.3667
  449MPD2    H2 6746   0.121   0.320  14.124  0.1686 -1.0358 -1.0074
  449MPD2    H3 6747   0.114   0.146  14.293  0.0006 -0.2540  0.0955
  449MPD2     N 6748   4.395   0.153  14.321 -0.4681  0.5805  0.1438
  449MPD2    H5 6749   4.312   0.177  14.269  1.0226  0.4950 -2.2808
  449MPD2    N1 6750   4.631   0.424  14.005  0.3872 -0.1923  0.4123
  449MPD2    H7 6751   4.542   0.461  13.974  1.0581 -0.1412 -1.5014
  450TMC3    C1 6752   4.679   0.518  13.800  0.2114 -0.5598 -0.0070
  450TMC3    C2 6753   4.734   0.436  13.704 -0.3305 -0.5570 -0.2140
  450TMC3    C3 6754   4.650   0.373  13.614 -0.1890  0.2219 -0.4038
  450TMC3    C4 6755   4.546   0.551  13.807 -0.1775  0.0154  0.6761
  450TMC3    C5 6756   4.470   0.487  13.718 -0.3532  0.6809  0.4161
  450TMC3    C6 6757   4.512   0.394  13.629 -0.3320 -0.1428  0.3471
  450TMC3     C 6758   4.731   0.465  13.927 -0.5201 -0.6379 -0.8354
  450TMC3     O 6759   0.119   0.449  13.934  0.3827 -0.2029  0.6558
  450TMC3     H 6760   0.107   0.418  13.701  0.2321  2.8804 -0.5147
  450TMC3    H1 6761   4.501   0.621  13.876 -0.1147  0.9714 -0.2567
  450TMC3    H2 6762   4.437   0.354  13.561 -0.4615 -0.1348  0.4850
  450TMC3    C7 6763   4.352   0.444  13.791 -0.2529  0.4416 -0.1380
  450TMC3    C8 6764   4.678   0.251  13.544  0.8485  0.2320 -0.5931
  450TMC3    O1 6765   4.356   0.331  13.838 -0.1774  0.0901 -0.2743
  450TMC3    O2 6766   4.583   0.178  13.522  0.3896 -0.7685  0.5268
  451MPD2     C 6767   2.067   4.066   1.588 -1.4935 -0.3148  0.2598
  451MPD2    C1 6768   1.995   4.061   1.472  0.2943  0.4850 -0.6148
  451MPD2    C2 6769   2.058   4.016   1.354 -0.0099 -0.0070 -0.6283
  451MPD2    C3 6770   2.189   3.971   1.359 -0.1800 -0.2869 -0.6865
  451MPD2    C4 6771   2.261   3.984   1.478 -0.3592 -0.1354 -0.6043
  451MPD2    C5 6772   2.196   4.026   1.590 -0.4407 -0.5228  0.1012
  451MPD2     H 6773   2.004   4.024   1.260 -2.1988  2.2106  0.8160
  451MPD2    H1 6774   2.366   3.956   1.483  0.3401  2.7254  0.6704
  451MPD2    H2 6775   2.027   4.103   1.682 -0.5417 -0.0615  0.5664
  451MPD2    H3 6776   2.264   4.033   1.674 -0.4928  1.5023 -0.0268
  451MPD2     N 6777   2.259   3.911   1.247  0.3806  0.1433 -0.2051
  451MPD2    H5 6778   2.355   3.878   1.249  1.0328  1.9389 -1.0964
  451MPD2    N1 6779   1.856   4.092   1.476  0.4401  0.1378  0.2375
  451MPD2    H7 6780   1.831   4.131   1.566 -1.6453 -0.9426  0.1431
  452TMC3    C1 6781   2.082   3.813   1.118 -0.1181  0.3246 -0.0317
  452TMC3    C2 6782   2.025   3.743   1.225  0.7695 -0.1979 -0.0485
  452TMC3    C3 6783   1.897   3.687   1.197  0.1860 -0.5494 -0.3781
  452TMC3    C4 6784   2.019   3.823   0.996  0.4273  0.1418  0.0878
  452TMC3    C5 6785   1.904   3.752   0.972  0.0592 -0.3937 -0.2817
  452TMC3    C6 6786   1.839   3.681   1.070  0.3054 -0.7434  0.1310
  452TMC3     C 6787   2.202   3.886   1.124  0.0375  0.2363  0.5369
  452TMC3     O 6788   2.268   3.864   1.024 -0.1338  0.5621  0.0732
  452TMC3     H 6789   2.078   3.726   1.318 -0.5718 -0.1952  0.7104
  452TMC3    H1 6790   2.067   3.875   0.915 -0.9357  0.8452 -0.2774
  452TMC3    H2 6791   1.737   3.646   1.056  0.5904 -1.3665 -0.4047
  452TMC3    C7 6792   1.817   3.822   0.880  0.8535 -0.4415 -0.6706
  452TMC3    C8 6793   1.798   3.692   1.300  0.6452 -1.0683  0.8102
  452TMC3    O1 6794   1.856   3.934   0.847 -0.1763 -0.2321 -0.0175
  452TMC3    O2 6795   1.687   3.654   1.261  0.0811 -0.1319 -0.3271
  453TMC3    C1 6796   2.248   1.055  12.638  0.4083  0.0613 -0.4777
  453TMC3    C2 6797   2.161   0.949  12.649  0.2906 -0.4066 -0.0583
  453TMC3    C3 6798   2.045   0.971  12.578  0.7537  0.0837  0.9914
  453TMC3    C4 6799   2.221   1.176  12.571  0.1874  0.8433  0.4299
  453TMC3    C5 6800   2.104   1.194  12.504  0.4988  0.2414  0.1914
  453TMC3    C6 6801   2.018   1.081  12.498  0.2251 -0.4752 -0.1287
  453TMC3     C 6802   2.393   1.025  12.642  0.7713  0.0975  0.1427
  453TMC3     O 6803   2.466   1.124  12.644 -0.0613  0.6283 -0.2866
  453TMC3     H 6804   2.175   0.857  12.704  0.8898 -0.1535  0.2214
  453TMC3    H1 6805   2.296   1.253  12.588 -0.3213  1.5378 -0.5043
  453TMC3    H2 6806   1.929   1.092  12.436  0.6715 -1.4247 -0.9370
  453TMC3    C7 6807   2.121   1.260  12.373 -0.1266 -0.4743 -0.4051
  453TMC3    C8 6808   1.984   0.848  12.543 -0.3027 -0.2469 -0.7309
  453TMC3    O1 6809   2.046   1.225  12.280 -0.6159 -0.4366 -0.5609
  453TMC3    O2 6810   1.864   0.843  12.547  0.5011 -0.1777  0.0677
  454MPD2     C 6811   1.327   0.388  16.253  0.0844 -0.3390 -0.1193
  454MPD2    C1 6812   1.274   0.476  16.154  1.0371 -0.6962  0.8889
  454MPD2    C2 6813   1.262   0.605  16.187 -0.2930 -0.4756 -0.4932
  454MPD2    C3 6814   1.277   0.650  16.319  0.4940 -0.1727  0.3409
  454MPD2    C4 6815   1.309   0.556  16.417 -0.5766 -0.4747 -0.0470
  454MPD2    C5 6816   1.336   0.422  16.379  0.2238 -0.2393 -0.0893
  454MPD2     H 6817   1.227   0.675  16.112  0.6938 -1.3633 -1.7849
  454MPD2    H1 6818   1.302   0.579  16.523 -0.8942 -0.4015 -0.0831
  454MPD2    H2 6819   1.351   0.284  16.234 -1.0614 -0.3948 -1.2409
  454MPD2    H3 6820   1.359   0.351  16.458  0.7087 -0.8985 -0.8272
  454MPD2     N 6821   1.242   0.789  16.343  0.1867 -0.1896 -0.1565
  454MPD2    H5 6822   1.206   0.844  16.266 -0.7638 -0.1691  0.2976
  454MPD2    N1 6823   1.238   0.435  16.025  0.1412  0.3513 -0.1832
  454MPD2    H7 6824   1.188   0.506  15.972  2.0425  2.0492  0.2926
  455TMC3    C1 6825   1.095   0.921  16.462  0.9936 -0.4751 -0.1280
  455TMC3    C2 6826   1.089   1.010  16.566 -0.8370 -0.6192  0.7817
  455TMC3    C3 6827   0.970   1.026  16.634 -0.1047 -0.5829 -0.3205
  455TMC3    C4 6828   0.987   0.851  16.428 -0.9323  0.0681  0.3486
  455TMC3    C5 6829   0.874   0.862  16.499  0.4222 -0.3852  0.0673
  455TMC3    C6 6830   0.859   0.958  16.594 -0.3663 -0.5417  0.0114
  455TMC3     C 6831   1.220   0.836  16.468  0.0020  0.0123  0.3853
  455TMC3     O 6832   1.265   0.809  16.578  0.2627  0.0660  0.2732
  455TMC3     H 6833   1.179   1.059  16.600 -1.6951  0.0796  2.0379
  455TMC3    H1 6834   1.005   0.771  16.358 -1.6109  1.3054 -1.2228
  455TMC3    H2 6835   0.761   0.962  16.640 -1.1829  0.8393 -1.8559
  455TMC3    C7 6836   0.805   0.738  16.515 -0.3816  0.4355 -0.7576
  455TMC3    C8 6837   0.952   1.137  16.725  0.1229  0.8100  0.0166
  455TMC3    O1 6838   0.683   0.741  16.541 -0.1260  0.4319  1.0493
  455TMC3    O2 6839   1.060   1.168  16.773  0.6465  0.1473 -0.2101
  456MPD2     C 6840   3.605   0.703  16.453  0.5183 -0.1672  0.2034
  456MPD2    C1 6841   3.702   0.628  16.515 -0.0318  0.1727  0.3030
  456MPD2    C2 6842   3.698   0.626  16.655  0.8987 -0.2728  0.0051
  456MPD2    C3 6843   3.611   0.707  16.727  0.1885 -0.6005  0.4658
  456MPD2    C4 6844   3.519   0.784  16.658  0.3994  0.3545 -0.3918
  456MPD2    C5 6845   3.507   0.774  16.521 -0.2686 -0.0008 -0.2414
  456MPD2     H 6846   3.772   0.572  16.712  1.6113  1.2201  0.5030
  456MPD2    H1 6847   3.445   0.847  16.706  2.6121 -0.3228  3.8706
  456MPD2    H2 6848   3.593   0.715  16.346  0.0597  1.1085  0.3913
  456MPD2    H3 6849   3.436   0.841  16.472 -0.7220 -0.4039 -0.1325
  456MPD2     N 6850   3.631   0.714  16.867  0.5196  0.2737  0.2186
  456MPD2    H5 6851   3.696   0.652  16.914  0.5560  0.0461 -0.1324
  456MPD2    N1 6852   3.793   0.549  16.439 -0.0647  0.2705  0.4618
  456MPD2    H7 6853   3.774   0.561  16.340  0.2965  4.2229  0.8914
  457TMC3    C1 6854   3.608   0.800  17.083 -0.1840  1.3341 -0.3213
  457TMC3    C2 6855   3.587   0.911  17.149  0.5636  0.0326  0.2570
  457TMC3    C3 6856   3.599   0.913  17.283  0.0891  0.1149 -0.2773
  457TMC3    C4 6857   3.638   0.686  17.154  0.3164  0.5115  0.3424
  457TMC3    C5 6858   3.647   0.684  17.288 -0.0709  0.7496  0.2564
  457TMC3    C6 6859   3.618   0.796  17.357 -0.0460 -0.4957  0.2148
  457TMC3     C 6860   3.570   0.811  16.949 -0.1576 -0.0673  0.2886
  457TMC3     O 6861   3.488   0.893  16.920  0.3451 -0.3529  0.1501
  457TMC3     H 6862   3.583   1.005  17.096  3.0709  0.5983  1.0417
  457TMC3    H1 6863   3.660   0.593  17.102 -2.0528 -0.3067  0.7986
  457TMC3    H2 6864   3.612   0.798  17.466 -3.1537  1.0414  0.0107
  457TMC3    C7 6865   3.749   0.607  17.351 -0.9284 -0.4137 -0.0739
  457TMC3    C8 6866   3.649   1.028  17.354  0.5415 -0.6005 -0.2419
  457TMC3    O1 6867   3.764   0.484  17.339 -0.1141 -0.2349 -0.1477
  457TMC3    O2 6868   3.719   1.016  17.454  0.4610 -0.4810  0.0415
  458MPD2     C 6869   1.914   4.529  12.212  0.0191 -0.0242 -0.2676
  458MPD2    C1 6870   1.838   4.621  12.278  0.0663 -0.1183 -0.3706
  458MPD2    C2 6871   1.727   4.667  12.210 -0.0013  0.0416  0.5718
  458MPD2    C3 6872   1.699   4.636  12.079  0.0346 -0.0118  0.0611
  458MPD2    C4 6873   1.780   4.536  12.025 -0.2336  0.2254 -0.1554
  458MPD2    C5 6874   1.884   4.488  12.090 -0.2302  0.1981  0.0703
  458MPD2     H 6875   1.668   0.013  12.254  0.3440  0.5317  0.1565
  458MPD2    H1 6876   1.767   4.505  11.922  3.0261 -2.5577  0.2626
  458MPD2    H2 6877   2.010   4.496  12.250 -0.0981 -2.0932 -1.8117
  458MPD2    H3 6878   1.941   4.409  12.041  2.5782  2.1475  0.2103
  458MPD2     N 6879   1.588   4.696  12.014  0.3508  0.1915  0.2652
  458MPD2    H5 6880   1.536   0.034  12.064  2.0437  0.0068  2.3325
  458MPD2    N1 6881   1.869   4.654  12.417  0.4431 -0.6515  0.3164
  458MPD2    H7 6882   1.957   4.621  12.455  1.0510  1.3420  0.6408
  459TMC3    C1 6883   1.856   0.000  12.623 -0.0145 -0.0624 -0.4196
  459TMC3    C2 6884   1.983   0.042  12.643  0.3554  0.1977  1.0881
  459TMC3    C3 6885   2.028   0.062  12.769 -0.1250  0.3274  0.0712
  459TMC3    C4 6886   1.772   4.721  12.728 -0.4545 -0.1067  0.1943
  459TMC3    C5 6887   1.820   0.025  12.852 -0.9179  0.3570  0.2189
  459TMC3    C6 6888   1.943   0.063  12.879 -0.2306  0.4833  0.0188
  459TMC3     C 6889   1.802   0.014  12.494  0.0052  0.5606 -0.0925
  459TMC3     O 6890   1.701   0.079  12.465 -0.5339 -0.0393  0.5420
  459TMC3     H 6891   2.056   0.053  12.564  0.1895 -0.7435  0.8034
  459TMC3    H1 6892   1.673   4.678  12.712 -0.8134  0.3915  1.0896
  459TMC3    H2 6893   1.980   0.072  12.980 -2.5176  2.1524  0.6987
  459TMC3    C7 6894   1.745   4.710  12.969  0.0946  0.0145  0.4234
  459TMC3    C8 6895   2.171   0.088  12.779  0.4184 -0.1104  0.3227
  459TMC3    O1 6896   1.661   4.619  12.966 -0.8551  0.1761 -0.5860
  459TMC3    O2 6897   2.247   0.087  12.682  0.0774  0.1542 -0.2138
  460MPD2     C 6898   0.731   2.074  10.542 -0.5120  0.0332 -0.5107
  460MPD2    C1 6899   0.605   2.080  10.569 -0.5770  0.1203  0.5920
  460MPD2    C2 6900   0.518   2.125  10.475 -0.6055 -0.0182  0.0595
  460MPD2    C3 6901   0.552   2.144  10.349 -0.3778  0.4689 -0.1295
  460MPD2    C4 6902   0.681   2.148  10.321 -0.1497  0.5369  0.3462
  460MPD2    C5 6903   0.770   2.107  10.417  0.0929  0.4227 -0.1082
  460MPD2     H 6904   0.413   2.124  10.505  0.4722  0.1427  3.8580
  460MPD2    H1 6905   0.713   2.173  10.221 -3.0531 -2.8300 -1.4154
  460MPD2    H2 6906   0.801   2.058  10.623 -1.0651  0.3196  0.0254
  460MPD2    H3 6907   0.875   2.108  10.392  0.0387  0.7184 -0.3168
  460MPD2     N 6908   0.449   2.164  10.259  0.7835 -0.0659 -0.7379
  460MPD2    H5 6909   0.362   2.203  10.294  0.7063 -0.6905 -0.2329
  460MPD2    N1 6910   0.565   2.055  10.705 -0.9109  0.3155 -0.2363
  460MPD2    H7 6911   0.640   2.054  10.774 -1.9166 -0.7502  0.8335
  461TMC3    C1 6912   0.352   2.194  10.043 -0.8052  0.3280  0.8471
  461TMC3    C2 6913   0.336   2.137   9.914  0.3307 -0.1013 -0.1996
  461TMC3    C3 6914   0.256   2.195   9.826 -0.5941 -0.3921 -0.3611
  461TMC3    C4 6915   0.297   2.315  10.077 -0.2401  0.3900  0.3937
  461TMC3    C5 6916   0.222   2.370   9.974 -0.1240 -0.4315 -0.2001
  461TMC3    C6 6917   0.196   2.316   9.850  0.4875 -0.5210 -0.1692
  461TMC3     C 6918   0.461   2.143  10.125 -0.1443  0.1101  0.5924
  461TMC3     O 6919   0.551   2.081  10.069 -0.3980 -0.0562 -0.0321
  461TMC3     H 6920   0.390   2.047   9.885 -0.5799 -0.2812 -1.3701
  461TMC3    H1 6921   0.314   2.358  10.175  1.3732  1.4534 -0.3402
  461TMC3    H2 6922   0.118   2.349   9.782 -0.0429 -3.3917 -0.9807
  461TMC3    C7 6923   0.178   2.511   9.986  0.2383 -0.1740 -0.6594
  461TMC3    C8 6924   0.229   2.135   9.697 -0.6491  0.8562 -0.2134
  461TMC3    O1 6925   0.109   2.549   9.894  0.1288 -0.4664  0.2792
  461TMC3    O2 6926   0.204   2.209   9.603 -0.0513 -0.3570 -0.1194
  462TMC3    C1 6927   0.827   3.368   0.231 -0.5746 -0.8872  0.1727
  462TMC3    C2 6928   0.912   3.261   0.202 -0.9087 -1.2891  0.0501
  462TMC3    C3 6929   0.900   3.147   0.278 -0.1559  0.3979 -0.3170
  462TMC3    C4 6930   0.723   3.364   0.329 -0.4920  0.2378  0.0454
  462TMC3    C5 6931   0.713   3.242   0.392 -0.4564  0.3087  0.0889
  462TMC3    C6 6932   0.797   3.133   0.371  0.0213  0.6964  0.1263
  462TMC3     C 6933   0.850   3.493   0.155  0.1593 -0.5071  0.4908
  462TMC3     O 6934   0.954   3.498   0.092 -0.7344 -0.7244  0.0789
  462TMC3     H 6935   0.991   3.274   0.128 -0.8393  0.6306  0.4510
  462TMC3    H1 6936   0.649   3.442   0.339  1.7736  2.2626  1.0798
  462TMC3    H2 6937   0.795   3.058   0.450 -0.0138 -0.6177 -1.1206
  462TMC3    C7 6938   0.593   3.212   0.475 -0.8863 -0.1836 -0.2632
  462TMC3    C8 6939   1.002   3.038   0.257 -0.2177  0.2157 -0.2064
  462TMC3    O1 6940   0.594   3.105   0.538 -0.1022  0.3104  0.0171
  462TMC3    O2 6941   0.984   2.934   0.317  0.4485 -0.3547  0.5256
  463MPD2     C 6942   4.518   2.930   1.808  0.2684  0.0205  0.0650
  463MPD2    C1 6943   4.606   2.883   1.717 -0.2898 -0.1399  0.8547
  463MPD2    C2 6944   0.007   2.904   1.733 -0.0941  0.3419  0.1517
  463MPD2    C3 6945   0.050   2.977   1.844 -0.3049  0.1412 -0.0091
  463MPD2    C4 6946   4.693   3.030   1.933  0.2509  0.3862  0.4397
  463MPD2    C5 6947   4.562   3.004   1.914  0.0338  0.2804  0.1430
  463MPD2     H 6948   0.077   2.871   1.657  0.6848  1.5155  0.3568
  463MPD2    H1 6949   4.720   3.103   2.009  1.0867 -1.1530  1.6277
  463MPD2    H2 6950   4.411   2.916   1.795  0.2009  1.5695 -0.9110
  463MPD2    H3 6951   4.494   3.060   1.977 -0.8407  0.4570 -0.9549
  463MPD2     N 6952   0.181   3.023   1.857 -0.4822 -0.0150 -0.2616
  463MPD2    H5 6953   0.201   3.093   1.928  0.6874  0.2052 -0.8020
  463MPD2    N1 6954   4.574   2.794   1.610  0.0333  0.3862 -0.1211
  463MPD2    H7 6955   4.641   2.757   1.543  0.2042 -1.0732  0.8592
  464TMC3    C1 6956   4.437   2.660   1.466 -0.3603 -0.9982 -0.1306
  464TMC3    C2 6957   4.530   2.686   1.375 -0.4366 -0.3355 -0.0974
  464TMC3    C3 6958   4.559   2.591   1.278 -0.1328 -0.3065 -0.0342
  464TMC3    C4 6959   4.376   2.537   1.479  0.2731  0.6329 -0.1644
  464TMC3    C5 6960   4.429   2.442   1.398 -0.5701  0.0608  0.3972
  464TMC3    C6 6961   4.508   2.467   1.294 -0.3630  0.8981 -0.0737
  464TMC3     C 6962   4.450   2.749   1.579  0.3223  0.4577  0.2604
  464TMC3     O 6963   4.342   2.763   1.637  0.1176  0.0630 -0.0962
  464TMC3     H 6964   4.574   2.785   1.376 -0.9721 -0.0912 -0.8519
  464TMC3    H1 6965   4.319   2.514   1.567  0.9569  0.4925  0.2422
  464TMC3    H2 6966   4.525   2.396   1.213 -1.8519  1.2325 -0.6758
  464TMC3    C7 6967   4.374   2.313   1.427 -0.1696 -0.0288  0.7555
  464TMC3    C8 6968   4.682   2.598   1.205  0.4966  0.4650  0.5967
  464TMC3    O1 6969   4.263   2.307   1.481  0.1865  0.6348  0.0714
  464TMC3    O2 6970   0.020   2.497   1.199 -0.0127  0.1479 -0.0453
  465MPD2     C 6971   2.961   0.830  17.249  0.2617  1.2837 -0.2451
  465MPD2    C1 6972   2.832   0.854  17.290 -0.3954 -0.1283  0.5166
  465MPD2    C2 6973   2.741   0.906  17.204 -0.5421 -0.6848  0.3220
  465MPD2    C3 6974   2.780   0.945  17.072 -0.6470  0.1731  0.4169
  465MPD2    C4 6975   2.919   0.928  17.036 -0.0516 -0.4634 -0.8233
  465MPD2    C5 6976   3.003   0.873  17.128 -0.0781  0.2883  0.0681
  465MPD2     H 6977   2.637   0.918  17.232 -0.3207  0.3150  0.7356
  465MPD2    H1 6978   2.959   0.970  16.944 -0.5200 -1.8586 -1.6665
  465MPD2    H2 6979   3.037   0.783  17.311 -0.9085 -0.6031 -0.2360
  465MPD2    H3 6980   3.109   0.862  17.111  0.0337  2.5441 -0.7859
  465MPD2     N 6981   2.685   1.007  16.990 -0.6116 -0.3386 -0.0423
  465MPD2    H5 6982   2.594   1.030  17.028 -0.1723 -0.0852  0.8476
  465MPD2    N1 6983   2.774   0.810  17.412 -0.4083  0.2589 -0.7834
  465MPD2    H7 6984   2.674   0.814  17.427 -0.5233 -0.9408 -1.1722
  466TMC3    C1 6985   2.349   1.164  16.844  0.9955  0.5467 -0.2878
  466TMC3    C2 6986   2.368   1.255  16.739 -0.6769 -0.3398 -0.7039
  466TMC3    C3 6987   2.488   1.283  16.683  0.4940  0.1698 -0.5839
  466TMC3    C4 6988   2.459   1.089  16.878 -0.5329 -0.2167  0.3392
  466TMC3    C5 6989   2.579   1.109  16.808  0.6182  0.1682 -0.2359
  466TMC3    C6 6990   2.596   1.203  16.709  0.2574 -0.3437  0.1780
  466TMC3     C 6991   2.265   1.198  16.958 -0.7029 -0.6141 -1.1493
  466TMC3     O 6992   2.269   1.127  17.058  0.1590  0.3086 -0.4717
  466TMC3     H 6993   2.279   1.311  16.715  1.5978  2.8673 -1.5595
  466TMC3    H1 6994   2.436   1.024  16.962  0.3057 -2.5345 -1.2384
  466TMC3    H2 6995   2.696   1.233  16.679  0.3817  0.2514  1.1859
  466TMC3    C7 6996   2.700   1.044  16.857 -0.0114 -0.2816  0.4831
  466TMC3    C8 6997   2.494   1.406  16.610  0.0865 -0.0315 -0.2696
  466TMC3    O1 6998   2.803   1.043  16.787  0.1236  0.1558 -0.1650
  466TMC3    O2 6999   2.563   1.406  16.507 -0.5614  0.1902 -0.2115
  467TMC3    C1 7000   3.408   4.165  14.227 -0.2167 -0.2007  0.0761
  467TMC3    C2 7001   3.338   4.259  14.157 -0.5538  0.5839  0.6260
  467TMC3    C3 7002   3.235   4.222  14.074  0.9343 -0.4314 -0.1920
  467TMC3    C4 7003   3.357   4.041  14.248  0.0892  0.7478  0.2696
  467TMC3    C5 7004   3.247   4.006  14.172 -0.1235 -0.1585 -0.8154
  467TMC3    C6 7005   3.192   4.093  14.078  0.1817  0.4922  0.5087
  467TMC3     C 7006   3.552   4.180  14.227  0.2002  0.4270  0.3144
  467TMC3     O 7007   3.598   4.258  14.311 -0.2541  0.2504  0.3131
  467TMC3     H 7008   3.381   4.358  14.151 -0.1795  0.5303  2.3579
  467TMC3    H1 7009   3.411   3.971  14.311  1.3205  1.0128 -0.4935
  467TMC3    H2 7010   3.115   4.057  14.011 -0.7468  0.7640  1.4309
  467TMC3    C7 7011   3.186   3.869  14.198 -0.1090  0.2758  0.1519
  467TMC3    C8 7012   3.271   4.270  13.943  0.0808  0.0820  0.8126
  467TMC3    O1 7013   3.260   3.776  14.228  0.3279 -0.1514 -0.0542
  467TMC3    O2 7014   3.308   4.386  13.938 -0.5890 -0.0081 -0.0303
  468MPD2     C 7015   2.422   1.762  10.356  0.1496  0.6574 -0.2540
  468MPD2    C1 7016   2.421   1.805  10.487  0.8118 -0.5440 -0.6136
  468MPD2    C2 7017   2.336   1.744  10.579  0.2167 -0.0480  0.5674
  468MPD2    C3 7018   2.256   1.640  10.543  0.4580 -0.4592  0.0815
  468MPD2    C4 7019   2.254   1.610  10.412 -0.6606  0.5072 -0.0856
  468MPD2    C5 7020   2.330   1.672  10.320 -0.1403  0.3195  0.3770
  468MPD2     H 7021   2.325   1.783  10.679  2.1436 -0.8402  1.0780
  468MPD2    H1 7022   2.191   1.533  10.371  1.5445 -1.6502  0.6067
  468MPD2    H2 7023   2.496   1.796  10.284  0.8652  0.7563  0.5346
  468MPD2    H3 7024   2.323   1.640  10.217  0.3607  1.8799 -0.1394
  468MPD2     N 7025   2.183   1.563  10.635  0.0418  0.1273 -0.2980
  468MPD2    H5 7026   2.152   1.475  10.596 -0.2731 -0.0929  0.4546
  468MPD2    N1 7027   2.509   1.905  10.540  0.7317  0.0008 -0.3543
  468MPD2    H7 7028   2.495   1.927  10.638  0.4569 -2.3163  0.1209
  469TMC3    C1 7029   2.688   2.059  10.560 -0.4605  0.0277 -0.3372
  469TMC3    C2 7030   2.800   2.000  10.600 -0.3992 -0.1775 -0.5097
  469TMC3    C3 7031   2.860   2.052  10.713 -0.9595  0.6436  0.6068
  469TMC3    C4 7032   2.636   2.162  10.631  0.3214 -0.2713  0.4570
  469TMC3    C5 7033   2.706   2.221  10.733 -0.0223  0.5120  0.4123
  469TMC3    C6 7034   2.824   2.167  10.777 -0.0785  0.2010 -0.0328
  469TMC3     C 7035   2.602   1.981  10.467  0.2423 -0.1838 -0.1941
  469TMC3     O 7036   2.651   1.967  10.357  0.5238 -0.8310  0.0589
  469TMC3     H 7037   2.812   1.898  10.565  0.4920 -0.1129 -0.3904
  469TMC3    H1 7038   2.541   2.205  10.601  0.2887  0.0840  1.0686
  469TMC3    H2 7039   2.888   2.217  10.849  0.6451  0.0578 -0.5711
  469TMC3    C7 7040   2.653   2.346  10.781 -0.9826  0.1296  0.7255
  469TMC3    C8 7041   2.972   1.974  10.767 -0.2526  0.1249 -0.3616
  469TMC3    O1 7042   2.548   2.393  10.737  0.5861 -0.3086 -0.6189
  469TMC3    O2 7043   2.977   1.858  10.724  0.2976  0.0050  0.5106
  470TMC3    C1 7044   4.685   3.529   1.026 -0.2586 -0.0461  0.1726
  470TMC3    C2 7045   0.081   3.548   1.052 -0.4664 -0.3987  0.1172
  470TMC3    C3 7046   0.120   3.542   1.182  0.9689  0.5215  0.6680
  470TMC3    C4 7047   4.594   3.499   1.126  0.3182  0.3870  0.2290
  470TMC3    C5 7048   4.639   3.495   1.256 -0.2354 -0.0437 -0.1712
  470TMC3    C6 7049   0.036   3.516   1.288  0.4719  0.7027 -0.9860
  470TMC3     C 7050   4.656   3.525   0.887  0.2864 -0.0688  0.2263
  470TMC3     O 7051   4.730   3.594   0.816  0.6149 -0.3089 -0.2475
  470TMC3     H 7052   0.151   3.590   0.981 -0.7851  1.0952  0.6723
  470TMC3    H1 7053   4.490   3.493   1.096  0.7543  1.9577 -1.5845
  470TMC3    H2 7054   0.075   3.524   1.389 -2.3320  0.3269  0.1562
  470TMC3    C7 7055   4.537   3.479   1.357 -0.8373  0.1899 -0.4934
  470TMC3    C8 7056   0.232   3.632   1.213  0.3066 -0.4921 -0.1450
  470TMC3    O1 7057   4.429   3.442   1.321 -0.2934 -0.5750 -0.5974
  470TMC3    O2 7058   0.220   3.749   1.190  0.6525 -0.9517  0.0995
  471MPD2     C 7059   0.176   4.713  16.863  0.8855  0.0905  0.5687
  471MPD2    C1 7060   0.298   4.648  16.869  0.5057  0.1312  0.3850
  471MPD2    C2 7061   0.393   4.688  16.963 -0.1105  0.2757 -0.6828
  471MPD2    C3 7062   0.363   0.052  17.054  0.5177  0.1149  0.1678
  471MPD2    C4 7063   0.245   0.112  17.053  0.1341  1.0626 -0.1524
  471MPD2    C5 7064   0.152   0.075  16.957  0.2865 -0.0648  0.2107
  471MPD2     H 7065   0.483   4.627  16.970  0.8032  1.9107  1.8522
  471MPD2    H1 7066   0.235   0.192  17.125 -1.6057 -0.7795  1.6410
  471MPD2    H2 7067   0.097   4.691  16.793  0.5825 -1.6720  1.4632
  471MPD2    H3 7068   0.057   0.127  16.948 -0.2578 -1.1209 -0.1331
  471MPD2     N 7069   0.449   0.099  17.157 -0.1408 -0.0363  0.3476
  471MPD2    H5 7070   0.408   0.157  17.230 -1.5848 -1.2872  0.5404
  471MPD2    N1 7071   0.335   4.545  16.774 -0.5750  0.2239  0.2470
  471MPD2    H7 7072   0.429   4.506  16.778  0.1007  1.6628 -1.5951
  472TMC3    C1 7073   0.315   4.389  16.598 -0.0103  0.3354  0.3439
  472TMC3    C2 7074   0.270   4.385  16.467 -0.1780  0.5452 -0.2874
  472TMC3    C3 7075   0.256   4.259  16.410 -0.1010 -0.0602 -0.1218
  472TMC3    C4 7076   0.343   4.275  16.672  0.2932  0.6513 -0.4168
  472TMC3    C5 7077   0.326   4.152  16.609 -0.1351  0.1790  0.4704
  472TMC3    C6 7078   0.294   4.146  16.475  0.6034 -0.1144 -1.0012
  472TMC3     C 7079   0.258   4.502  16.673 -0.7567  0.4255 -0.1441
  472TMC3     O 7080   0.139   4.528  16.652 -0.3782 -0.2138  0.5099
  472TMC3     H 7081   0.234   4.472  16.414  1.2259  0.5867 -1.1681
  472TMC3    H1 7082   0.360   4.270  16.779  1.0146 -0.3083 -0.5712
  472TMC3    H2 7083   0.294   4.050  16.424  2.7583 -0.9693  0.6167
  472TMC3    C7 7084   0.288   4.039  16.695  0.4513 -0.1898 -0.2104
  472TMC3    C8 7085   0.121   4.250  16.352 -0.4321  0.0839 -0.2650
  472TMC3    O1 7086   0.298   4.057  16.813  0.9323  0.1431 -0.0744
  472TMC3    O2 7087   0.092   4.317  16.257 -0.0801 -0.1548 -0.1089
  473MPD2     C 7088   4.733   1.969  14.753  0.1894  0.6891  0.4076
  473MPD2    C1 7089   0.092   2.039  14.679 -0.2486  0.0435 -0.0022
  473MPD2    C2 7090   0.180   2.123  14.741 -1.4695  0.9518 -0.3034
  473MPD2    C3 7091   0.175   2.140  14.878  0.1013  0.7819  0.5536
  473MPD2    C4 7092   0.081   2.071  14.953 -0.1845  0.0876  0.5490
  473MPD2    C5 7093   4.734   1.982  14.889  0.6095  0.2396 -0.6510
  473MPD2     H 7094   0.251   2.177  14.680 -0.4968  0.0789  0.0587
  473MPD2    H1 7095   0.076   2.086  15.060 -4.3659 -0.6837  0.4578
  473MPD2    H2 7096   4.663   1.898  14.711  1.4925 -0.4563  0.1563
  473MPD2    H3 7097   4.649   1.940  14.942  1.5660  1.9780  2.2390
  473MPD2     N 7098   0.267   2.226  14.941 -1.0954 -0.2364  0.0262
  473MPD2    H5 7099   0.259   2.240  15.042 -1.0027 -0.7922  0.1121
  473MPD2    N1 7100   0.111   2.015  14.539 -0.0599  0.4801 -0.0509
  473MPD2    H7 7101   0.183   2.064  14.487 -3.0275  3.8551 -1.0047
  474TMC3    C1 7102   0.441   2.375  14.970 -0.1009 -0.1282  0.1932
  474TMC3    C2 7103   0.393   2.472  15.040  0.2385 -0.6380 -0.0845
  474TMC3    C3 7104   0.469   2.522  15.141  0.0864 -0.5469  0.0710
  474TMC3    C4 7105   0.564   2.327  14.993 -0.3763  0.2984 -0.2312
  474TMC3    C5 7106   0.629   2.368  15.107 -1.1154  0.1323  0.3256
  474TMC3    C6 7107   0.588   2.470  15.180 -0.2651  0.0406 -0.0001
  474TMC3     C 7108   0.372   2.296  14.880 -0.1700  0.1230  0.1305
  474TMC3     O 7109   0.388   2.324  14.762  0.3634 -0.5280 -0.2023
  474TMC3     H 7110   0.296   2.507  15.005 -0.5375 -2.1247  0.5631
  474TMC3    H1 7111   0.601   2.236  14.948  1.6898  1.5365 -1.0251
  474TMC3    H2 7112   0.645   2.514  15.262 -0.8905 -2.7843  1.9206
  474TMC3    C7 7113   0.771   2.348  15.115 -0.6357 -0.8487 -0.2354
  474TMC3    C8 7114   0.441   2.655  15.186  0.6723 -0.7402  0.3948
  474TMC3    O1 7115   0.818   2.299  15.010 -0.3720  0.4002  0.4256
  474TMC3    O2 7116   0.496   2.682  15.290  0.9183  0.1489 -1.0897
  475MPD2     C 7117   3.327   4.514  11.201 -0.5149  0.8762  0.2477
  475MPD2    C1 7118   3.343   4.648  11.247 -0.6280 -0.2698  0.0662
  475MPD2    C2 7119   3.238   0.002  11.218 -0.6346 -0.6224  0.3107
  475MPD2    C3 7120   3.114   4.693  11.163  0.1325  0.3775 -0.4491
  475MPD2    C4 7121   3.102   4.559  11.130  0.4575 -0.5845  0.2456
  475MPD2    C5 7122   3.209   4.472  11.143  0.1014 -0.6747 -0.4403
  475MPD2     H 7123   3.243   0.103  11.259 -1.4905  0.2873 -1.8090
  475MPD2    H1 7124   3.012   4.526  11.081  0.2889 -1.6256  1.2669
  475MPD2    H2 7125   3.407   4.448  11.231 -1.8664 -1.0318 -0.3808
  475MPD2    H3 7126   3.191   4.372  11.106 -0.8063 -1.2180  1.4639
  475MPD2     N 7127   3.007   0.052  11.149  0.0052 -0.4540  0.8097
  475MPD2    H5 7128   3.033   0.150  11.153  0.7652 -0.5783 -0.8673
  475MPD2    N1 7129   3.461   4.694  11.318 -0.1292  1.0326 -0.1227
  475MPD2    H7 7130   3.465   0.060  11.330  0.5777  0.9941 -0.0225
  476TMC3    C1 7131   3.649   4.697  11.425 -1.0067 -0.5867  0.5569
  476TMC3    C2 7132   3.693   0.055  11.339  0.1543 -0.3297 -0.1259
  476TMC3    C3 7133   3.766   0.156  11.396 -0.3939 -0.1624  0.5473
  476TMC3    C4 7134   3.659   4.709  11.565 -0.1913 -0.2529 -0.1136
  476TMC3    C5 7135   3.714   0.087  11.617 -0.6677 -0.2942  0.0835
  476TMC3    C6 7136   3.777   0.176  11.535  0.3559  0.4346 -0.3172
  476TMC3     C 7137   3.538   4.612  11.383 -0.3253  0.6427 -0.0426
  476TMC3     O 7138   3.516   4.500  11.432  0.6537 -0.6475  0.7795
  476TMC3     H 7139   3.680   0.054  11.232  0.0731  2.0173 -0.1416
  476TMC3    H1 7140   3.609   4.646  11.638 -1.9558  0.5267 -0.6553
  476TMC3    H2 7141   3.834   0.264  11.565  0.0803  0.5169 -0.0300
  476TMC3    C7 7142   3.635   0.148  11.726 -0.0032 -0.1922  0.1473
  476TMC3    C8 7143   3.776   0.289  11.330 -0.2052  0.2610  0.3730
  476TMC3    O1 7144   3.579   0.079  11.809  0.7709 -0.0450 -0.7372
  476TMC3    O2 7145   3.753   0.396  11.392  0.4228 -0.0544 -0.1506
  477MPD2     C 7146   0.361   1.408  11.632  0.0665  0.5304 -0.0667
  477MPD2    C1 7147   0.300   1.444  11.749  0.0944 -0.1631  0.3552
  477MPD2    C2 7148   0.373   1.431  11.865  0.7423 -0.6101  0.0567
  477MPD2    C3 7149   0.505   1.387  11.874 -0.0456  0.2837 -0.5437
  477MPD2    C4 7150   0.567   1.364  11.754 -0.4701  0.3915 -0.5888
  477MPD2    C5 7151   0.489   1.358  11.641 -0.2936  0.1032 -0.3697
  477MPD2     H 7152   0.321   1.457  11.957 -1.9859 -0.6955 -1.4863
  477MPD2    H1 7153   0.672   1.338  11.748 -0.8042 -0.5679 -2.2417
  477MPD2    H2 7154   0.317   1.411  11.533  1.4060  2.5031 -0.6141
  477MPD2    H3 7155   0.543   1.336  11.550  0.9796 -1.6613  0.8015
  477MPD2     N 7156   0.565   1.392  12.001  0.2282 -0.0713 -0.2827
  477MPD2    H5 7157   0.500   1.415  12.075  0.0975 -1.5560  0.0714
  477MPD2    N1 7158   0.169   1.504  11.731  0.5214  0.1493 -0.3974
  477MPD2    H7 7159   0.144   1.528  11.635 -0.2624  1.1020  0.0366
  478TMC3    C1 7160   4.712   1.623  11.773 -0.4037 -0.3424 -0.2361
  478TMC3    C2 7161   4.723   1.742  11.840  0.4034  0.1419 -0.6903
  478TMC3    C3 7162   4.693   1.856  11.782  0.6401 -0.0773  0.2871
  478TMC3    C4 7163   4.666   1.617  11.643 -0.4214 -0.5287  0.8467
  478TMC3    C5 7164   4.629   1.739  11.587 -0.7287 -0.3375 -0.0545
  478TMC3    C6 7165   4.649   1.856  11.654 -0.1374 -0.6594  0.3927
  478TMC3     C 7166   0.082   1.528  11.830 -0.0073 -0.9141  0.4151
  478TMC3     O 7167   0.097   1.516  11.951 -0.2288  0.1544  0.1764
  478TMC3     H 7168   0.027   1.753  11.941 -0.2723 -1.2772 -0.2891
  478TMC3    H1 7169   4.664   1.523  11.588 -1.6839 -0.7733  1.3120
  478TMC3    H2 7170   4.628   1.951  11.608 -0.8636 -0.8945  0.2441
  478TMC3    C7 7171   4.631   1.742  11.441  0.1598 -0.1146  0.2734
  478TMC3    C8 7172   4.706   1.977  11.858  0.4012 -0.7489 -0.7501
  478TMC3    O1 7173   4.688   1.839  11.388  0.1441 -0.3591 -0.2300
  478TMC3    O2 7174   4.681   1.982  11.975 -0.2759 -0.2228  0.0607
  479MPD2     C 7175   4.474   3.459  15.310  0.0761 -0.4620 -0.5832
  479MPD2    C1 7176   4.394   3.472  15.416 -0.4677  0.4460  0.1844
  479MPD2    C2 7177   4.382   3.601  15.467 -0.5509 -0.2879 -0.0598
  479MPD2    C3 7178   4.456   3.710  15.425 -0.1163 -0.6963  0.3742
  479MPD2    C4 7179   4.545   3.687  15.326 -0.9478  0.2695 -0.0705
  479MPD2    C5 7180   4.544   3.566  15.269  0.1557  0.2639 -0.0500
  479MPD2     H 7181   4.308   3.611  15.546 -0.3923  0.4400 -0.0073
  479MPD2    H1 7182   4.612   3.767  15.299 -1.1630 -0.3038 -2.3167
  479MPD2    H2 7183   4.493   3.361  15.267 -0.7765 -0.6810 -0.4688
  479MPD2    H3 7184   4.622   3.544  15.197  0.3746  0.8623  0.0030
  479MPD2     N 7185   4.457   3.836  15.482  0.5677  0.0388  0.0059
  479MPD2    H5 7186   4.529   3.900  15.448  1.5475 -0.5948  0.8980
  479MPD2    N1 7187   4.337   3.354  15.471  0.1258 -0.4262  0.7465
  479MPD2    H7 7188   4.357   3.268  15.420 -0.0455 -0.8682  1.4282
  480TMC3    C1 7189   4.530   4.007  15.903 -0.6655 -0.3888 -1.0672
  480TMC3    C2 7190   4.616   4.106  15.857  0.8525  0.0271  0.0705
  480TMC3    C3 7191   4.621   4.127  15.718  0.2020  0.3197  0.1204
  480TMC3    C4 7192   4.443   3.944  15.820  0.2147  0.2305  0.5670
  480TMC3    C5 7193   4.451   3.967  15.683  0.1013  0.1878  0.0952
  480TMC3    C6 7194   4.543   4.061  15.630  0.9896 -0.0295  0.5833
  480TMC3     C 7195   4.536   3.946  16.035  0.8514 -0.4024  0.0249
  480TMC3     O 7196   4.645   3.918  16.075 -0.0272  0.3195 -0.7034
  480TMC3     H 7197   4.682   4.167  15.916 -0.1751  0.1377  1.1005
  480TMC3    H1 7198   4.371   3.873  15.858 -2.0257 -0.1299 -4.2560
  480TMC3    H2 7199   4.538   4.089  15.525 -2.8225 -1.0436  0.5210
  480TMC3    C7 7200   4.388   3.868  15.595 -0.6604 -0.2260 -0.4657
  480TMC3    C8 7201   4.723   4.211  15.660 -0.0110  0.0472 -0.6922
  480TMC3    O1 7202   4.289   3.810  15.640  0.0398 -0.1511  0.2119
  480TMC3    O2 7203   0.060   4.276  15.736 -0.4153 -1.3129 -0.3700
  481MPD2     C 7204   1.975   3.391  14.630 -0.2882  0.6504 -0.1196
  481MPD2    C1 7205   1.886   3.280  14.621 -0.4235 -1.0784  0.2085
  481MPD2    C2 7206   1.879   3.194  14.728 -0.2625 -0.6135  0.6128
  481MPD2    C3 7207   1.959   3.206  14.835 -0.1252  0.0885 -0.2068
  481MPD2    C4 7208   2.050   3.312  14.841  0.2505  0.1062 -0.5793
  481MPD2    C5 7209   2.055   3.407  14.743  0.0557 -0.1751  1.1035
  481MPD2     H 7210   1.819   3.105  14.712  0.8263 -1.1270 -0.5982
  481MPD2    H1 7211   2.123   3.327  14.920 -2.1206 -1.3302  1.9299
  481MPD2    H2 7212   1.993   3.454  14.545 -0.8790  0.5096 -0.3534
  481MPD2    H3 7213   2.117   3.496  14.745  0.7286 -0.5977 -1.2715
  481MPD2     N 7214   1.963   3.117  14.947 -0.4620 -0.3812 -0.2084
  481MPD2    H5 7215   2.030   3.128  15.023 -2.2246  0.8043  1.1758
  481MPD2    N1 7216   1.824   3.258  14.493 -0.3141  0.0696 -0.1314
  481MPD2    H7 7217   1.840   3.319  14.414  0.6983 -0.1240 -0.0811
  482TMC3    C1 7218   1.711   3.163  14.312 -0.4002 -0.1245  0.2096
  482TMC3    C2 7219   1.594   3.111  14.264  0.0568  0.6415  0.7679
  482TMC3    C3 7220   1.571   3.095  14.133 -0.2338 -0.0892 -0.5554
  482TMC3    C4 7221   1.819   3.190  14.224  0.0624 -0.1259  0.9793
  482TMC3    C5 7222   1.789   3.161  14.093  1.1010 -0.0801  0.1486
  482TMC3    C6 7223   1.669   3.115  14.045 -0.2452  0.1834  0.1139
  482TMC3     C 7224   1.740   3.159  14.456  0.3850  0.1457  0.4572
  482TMC3     O 7225   1.684   3.071  14.527 -0.5679 -0.2335 -0.0419
  482TMC3     H 7226   1.516   3.088  14.336 -0.4814  1.4170  0.4314
  482TMC3    H1 7227   1.913   3.232  14.258  0.1959  0.9376 -0.7662
  482TMC3    H2 7228   1.668   3.078  13.943  2.9048  0.1693  0.0891
  482TMC3    C7 7229   1.901   3.197  14.001  0.2725 -0.7689  0.0254
  482TMC3    C8 7230   1.442   3.044  14.085 -0.4886 -1.0679 -0.4007
  482TMC3    O1 7231   2.008   3.233  14.047 -0.3834 -0.3511  0.6259
  482TMC3    O2 7232   1.374   2.986  14.169  0.1194  0.2907 -0.1235
  483TMC3    C1 7233   4.072   1.956   1.233 -0.2414  0.5783 -0.4442
  483TMC3    C2 7234   4.099   2.087   1.213  0.7923  0.3410 -0.1388
  483TMC3    C3 7235   4.204   2.110   1.124 -0.3014  0.0319 -0.1762
  483TMC3    C4 7236   4.137   1.855   1.175 -0.0381 -0.5534 -0.5501
  483TMC3    C5 7237   4.236   1.879   1.092 -0.4308 -0.4357  0.9658
  483TMC3    C6 7238   4.267   2.009   1.057 -0.5653 -0.0328 -0.5968
  483TMC3     C 7239   3.981   1.933   1.343 -0.2634  0.0706  0.1733
  483TMC3     O 7240   3.974   2.011   1.436  0.3593 -0.3222  0.0868
  483TMC3     H 7241   4.031   2.158   1.259 -0.0758 -0.7119  0.2190
  483TMC3    H1 7242   4.123   1.751   1.201  0.2589 -0.6167 -0.6406
  483TMC3    H2 7243   4.350   2.030   0.990  0.8101  2.1572  1.8128
  483TMC3    C7 7244   4.325   1.764   1.060  0.0663 -0.1758 -0.1913
  483TMC3    C8 7245   4.233   2.243   1.101  0.4154  0.0898  0.6097
  483TMC3    O1 7246   4.317   1.672   1.142  0.2034 -0.0286  0.2812
  483TMC3    O2 7247   4.308   2.260   1.007  0.0614  0.4035 -0.0199
  484MPD2     C 7248   2.313   0.225  13.088  0.2085  0.1472  0.0088
  484MPD2    C1 7249   2.316   0.181  12.957 -1.0927  0.3421 -0.5089
  484MPD2    C2 7250   2.434   0.190  12.884  0.1890 -1.0073  0.0880
  484MPD2    C3 7251   2.550   0.245  12.945 -0.0074 -0.0379  0.3398
  484MPD2    C4 7252   2.540   0.295  13.074  0.4938 -0.2361 -0.4857
  484MPD2    C5 7253   2.428   0.279  13.144  0.2245 -0.4084 -0.2452
  484MPD2     H 7254   2.446   0.140  12.788  1.0894 -1.8956  0.6591
  484MPD2    H1 7255   2.627   0.325  13.132  0.5746  0.3524 -0.9079
  484MPD2    H2 7256   2.217   0.220  13.139  0.6233  0.4180  0.8206
  484MPD2    H3 7257   2.415   0.317  13.245 -0.2740  2.0598 -1.2424
  484MPD2     N 7258   2.672   0.259  12.872 -0.6162 -0.1291 -0.0557
  484MPD2    H5 7259   2.750   0.305  12.918 -0.2828 -0.4047 -0.3479
  484MPD2    N1 7260   2.197   0.129  12.909 -0.0556  0.3806  0.6930
  484MPD2    H7 7261   2.125   0.104  12.976  0.0501 -0.4846  0.4863
  485TMC3    C1 7262   2.843   0.256  12.707  0.5999  0.0611 -0.5743
  485TMC3    C2 7263   2.952   0.237  12.785  0.0553 -0.0436 -0.8056
  485TMC3    C3 7264   3.078   0.253  12.731 -0.3176  0.1612 -0.0930
  485TMC3    C4 7265   2.856   0.299  12.580  0.4574 -0.6789  0.6971
  485TMC3    C5 7266   2.978   0.310  12.524 -0.6516 -0.2222  0.2436
  485TMC3    C6 7267   3.091   0.283  12.598 -0.2838 -0.6667 -0.2193
  485TMC3     C 7268   2.709   0.209  12.748  0.3509 -0.0142 -0.2304
  485TMC3     O 7269   2.647   0.144  12.667  0.1044 -0.1290  0.2318
  485TMC3     H 7270   2.941   0.215  12.891  3.0611  1.8951 -0.1252
  485TMC3    H1 7271   2.770   0.322  12.518  1.0059  0.3953  0.3353
  485TMC3    H2 7272   3.194   0.300  12.569  0.6622 -1.5609  2.5932
  485TMC3    C7 7273   2.983   0.233  12.405  0.2519 -0.1523 -0.0470
  485TMC3    C8 7274   3.172   0.153  12.779  0.6245  0.2315  0.3529
  485TMC3    O1 7275   2.888   0.248  12.327 -0.0862 -0.9172 -0.7182
  485TMC3    O2 7276   3.253   0.117  12.692 -0.1135 -0.0535  0.3465
  486MPD2     C 7277   4.145   3.447  13.005  0.4513  0.3500  0.6134
  486MPD2    C1 7278   4.263   3.519  13.021 -0.1259 -0.0921  0.3581
  486MPD2    C2 7279   4.261   3.655  13.002 -0.7232 -0.7000 -0.4013
  486MPD2    C3 7280   4.141   3.724  12.980  0.0306  0.9614  0.5009
  486MPD2    C4 7281   4.020   3.655  12.971 -0.5406  0.7465 -0.7730
  486MPD2    C5 7282   4.031   3.516  12.985  0.1991  0.1797 -0.2254
  486MPD2     H 7283   4.356   3.708  13.003 -0.9073 -0.4737  2.8414
  486MPD2    H1 7284   3.922   3.690  12.942 -0.5779  2.5135  1.4172
  486MPD2    H2 7285   4.162   3.341  12.998  0.7998  0.5925 -2.4382
  486MPD2    H3 7286   3.936   3.466  12.970  1.2221 -1.7346 -0.2863
  486MPD2     N 7287   4.150   3.858  12.948  0.0548  0.0365 -0.3300
  486MPD2    H5 7288   4.247   3.887  12.935  0.1611  0.0314  0.4442
  486MPD2    N1 7289   4.387   3.454  13.055 -0.0758 -0.1778 -0.3191
  486MPD2    H7 7290   4.391   3.352  13.055  0.4685 -0.1567 -0.0005
  487TMC3    C1 7291   4.588   3.417  13.142  0.0462  0.3449  0.5602
  487TMC3    C2 7292   4.582   3.287  13.095  0.0987  0.6335  0.1957
  487TMC3    C3 7293   4.562   3.178  13.178 -0.0253 -0.1967  0.2620
  487TMC3    C4 7294   4.591   3.440  13.274 -0.2172  1.2030  1.2410
  487TMC3    C5 7295   4.593   3.327  13.360  0.1523  0.0023  0.1200
  487TMC3    C6 7296   4.565   3.202  13.309 -0.5711  0.3839 -0.3798
  487TMC3     C 7297   4.508   3.513  13.079  0.3293  0.0955 -0.2903
  487TMC3     O 7298   4.540   3.631  13.081  0.2787  0.4487  0.4223
  487TMC3     H 7299   4.565   3.268  12.989  1.0214  0.8576  0.0037
  487TMC3    H1 7300   4.636   3.531  13.310 -0.0610  0.6166  2.5563
  487TMC3    H2 7301   4.589   3.113  13.367 -1.4705  0.4996  0.1603
  487TMC3    C7 7302   4.590   3.346  13.498 -0.5296 -0.0462  0.2797
  487TMC3    C8 7303   4.479   3.073  13.126 -0.9718 -0.5305  0.7041
  487TMC3    O1 7304   4.560   3.456  13.545  0.5447 -0.5911  0.5543
  487TMC3    O2 7305   4.507   3.042  13.011  0.3073 -0.1047  0.1938
  488MPD2     C 7306   4.251   0.688  16.568 -0.0921 -0.6946 -0.6281
  488MPD2    C1 7307   4.340   0.729  16.666  0.5575  0.2381  0.1903
  488MPD2    C2 7308   4.341   0.658  16.786 -0.2612 -0.2818 -0.1153
  488MPD2    C3 7309   4.269   0.543  16.799  0.3490 -0.0316  0.1748
  488MPD2    C4 7310   4.199   0.490  16.692 -0.5545 -0.2329 -0.2145
  488MPD2    C5 7311   4.189   0.568  16.580 -0.3248 -0.0323  0.0002
  488MPD2     H 7312   4.407   0.693  16.864 -2.0467  0.7856  0.9144
  488MPD2    H1 7313   4.157   0.390  16.692 -2.2004  0.4587  0.1226
  488MPD2    H2 7314   4.230   0.744  16.478 -0.5650  0.7192  0.3527
  488MPD2    H3 7315   4.131   0.535  16.494  2.0379  0.2742 -1.6885
  488MPD2     N 7316   4.267   0.479  16.923  1.0228  0.6644 -0.4036
  488MPD2    H5 7317   4.345   0.504  16.982 -0.3957 -0.8824  2.1189
  488MPD2    N1 7318   4.419   0.849  16.660 -0.2149  0.2408  1.2845
  488MPD2    H7 7319   4.474   0.876  16.741  1.6516 -0.7165  0.3369
  489TMC3    C1 7320   4.238   0.338  17.106  0.3782  0.1055  0.1874
  489TMC3    C2 7321   4.354   0.391  17.154  0.1422 -0.3205  0.1985
  489TMC3    C3 7322   4.364   0.415  17.284  0.1015  0.6548  0.0188
  489TMC3    C4 7323   4.139   0.303  17.194 -0.8684 -0.4260 -0.2465
  489TMC3    C5 7324   4.167   0.314  17.329  0.0198  0.3985 -0.0565
  489TMC3    C6 7325   4.279   0.373  17.379  0.6914 -0.1348  0.3202
  489TMC3     C 7326   4.193   0.369  16.971 -0.3629  0.0688 -0.6664
  489TMC3     O 7327   4.101   0.302  16.929 -0.5435  0.8414  0.5197
  489TMC3     H 7328   4.438   0.415  17.090 -1.1719  3.5825 -0.0299
  489TMC3    H1 7329   4.050   0.251  17.160 -2.2407  0.8710  1.3892
  489TMC3    H2 7330   4.265   0.408  17.481 -0.2767 -0.1296  0.1908
  489TMC3    C7 7331   4.106   0.222  17.430  0.6895 -0.3347 -0.1433
  489TMC3    C8 7332   4.431   0.537  17.314  0.1383  0.3641  0.3978
  489TMC3    O1 7333   4.159   0.220  17.538 -0.0817  0.1719 -0.5299
  489TMC3    O2 7334   4.465   0.605  17.216  0.7576  0.2030 -0.0079
  490MPD2     C 7335   0.627   0.446  17.364  0.3767  0.7367 -0.0436
  490MPD2    C1 7336   0.594   0.450  17.495 -0.4005  0.2828  0.5189
  490MPD2    C2 7337   0.674   0.520  17.580 -0.2531  0.0889  0.4188
  490MPD2    C3 7338   0.791   0.575  17.526 -0.3668 -0.2509 -0.3084
  490MPD2    C4 7339   0.835   0.550  17.401  0.2273 -0.1851  0.3248
  490MPD2    C5 7340   0.746   0.492  17.309  0.3914 -0.0529  0.0553
  490MPD2     H 7341   0.637   0.522  17.682  0.1772 -4.3869  0.6695
  490MPD2    H1 7342   0.936   0.564  17.366 -0.0296  2.1250  0.5228
  490MPD2    H2 7343   0.573   0.385  17.292  0.1490  1.1700 -0.2370
  490MPD2    H3 7344   0.775   0.467  17.207 -4.7440  0.2205 -1.4595
  490MPD2     N 7345   0.882   0.651  17.599  0.0260  0.4646  0.8108
  490MPD2    H5 7346   0.966   0.682  17.550 -0.8668 -2.2640 -2.4477
  490MPD2    N1 7347   0.474   0.400  17.542 -1.1245 -0.3220 -0.5051
  490MPD2    H7 7348   0.448   0.421  17.638  0.5754  1.7751 -0.4924
  491TMC3    C1 7349   0.300   0.261  17.574  0.7109  0.1692  0.1448
  491TMC3    C2 7350   0.352   0.233  17.695 -0.5396 -0.1259 -0.1429
  491TMC3    C3 7351   0.296   0.121   0.027 -0.0870 -0.1166 -0.3224
  491TMC3    C4 7352   0.208   0.179  17.515  0.8802 -0.6191 -0.1576
  491TMC3    C5 7353   0.159   0.066  17.586  0.1382 -0.3012  0.4055
  491TMC3    C6 7354   0.204   0.036  17.714 -0.2004  0.7573  0.9202
  491TMC3     C 7355   0.386   0.321  17.479 -0.5192  0.6006  0.2091
  491TMC3     O 7356   0.379   0.282  17.361 -0.2532 -0.1885 -0.3692
  491TMC3     H 7357   0.414   0.299   0.019 -0.0251  0.2684 -1.1181
  491TMC3    H1 7358   0.172   0.201  17.416 -0.0252  0.1472  0.3520
  491TMC3    H2 7359   0.161   4.687   0.033  0.1228 -0.0012  0.0234
  491TMC3    C7 7360   0.090   4.702  17.513  0.3846 -0.1410  0.8496
  491TMC3    C8 7361   0.313   0.111   0.173 -0.1238 -0.0473  0.2615
  491TMC3    O1 7362   0.050   0.007  17.404 -0.3762 -0.1840 -0.5322
  491TMC3    O2 7363   0.250   0.016   0.224 -0.3552  0.1301  0.6860
  492MPD2     C 7364   0.678   0.332  12.228 -0.3312 -0.7466 -0.3053
  492MPD2    C1 7365   0.691   0.240  12.126  0.1363  0.9646  0.1504
  492MPD2    C2 7366   0.670   0.110  12.161 -0.2137 -0.2372 -0.1474
  492MPD2    C3 7367   0.668   0.060  12.292  0.2949  0.5793  0.2570
  492MPD2    C4 7368   0.673   0.160  12.390 -0.0188  0.0845 -0.2637
  492MPD2    C5 7369   0.671   0.295  12.358 -0.2459  0.3570 -0.1617
  492MPD2     H 7370   0.653   0.040  12.080  1.0489 -0.1831 -0.4637
  492MPD2    H1 7371   0.659   0.131  12.493  1.7186  1.2041  0.2799
  492MPD2    H2 7372   0.675   0.439  12.209 -0.0862 -0.8512 -0.9460
  492MPD2    H3 7373   0.645   0.370  12.431 -0.4970  0.4074 -0.3013
  492MPD2     N 7374   0.641   4.665  12.332  0.2416 -0.1269  0.4448
  492MPD2    H5 7375   0.645   4.641  12.430 -1.0932  1.1486  0.7976
  492MPD2    N1 7376   0.692   0.285  11.993 -0.5408  0.1193 -0.0419
  492MPD2    H7 7377   0.715   0.383  11.989 -0.4521  0.0714 -0.7685
  493TMC3    C1 7378   0.676   0.285  11.753  0.3347 -0.9767  0.1030
  493TMC3    C2 7379   0.684   0.420  11.751 -0.2317  0.0068 -0.3702
  493TMC3    C3 7380   0.705   0.487  11.634  0.4511  0.3413 -0.1830
  493TMC3    C4 7381   0.687   0.223  11.636 -0.0690  0.4824 -0.1303
  493TMC3    C5 7382   0.701   0.296  11.521 -0.0132 -0.1164  0.1275
  493TMC3    C6 7383   0.719   0.427  11.512 -0.7073 -0.3858 -0.3247
  493TMC3     C 7384   0.677   0.206  11.877  0.9910  0.2413 -0.3611
  493TMC3     O 7385   0.651   0.083  11.873 -0.5430  0.1696 -0.4900
  493TMC3     H 7386   0.648   0.466  11.842  1.1480  0.4448 -0.0454
  493TMC3    H1 7387   0.674   0.116  11.646 -1.2898  0.7328  0.9139
  493TMC3    H2 7388   0.727   0.472  11.414  4.4361 -0.0756  0.2378
  493TMC3    C7 7389   0.707   0.231  11.391  0.4745 -0.4790 -0.5462
  493TMC3    C8 7390   0.727   0.632  11.641 -0.2139  0.3626  0.0808
  493TMC3    O1 7391   0.668   0.285  11.287 -0.1011 -0.6444 -0.0792
  493TMC3    O2 7392   0.740   0.682  11.753 -0.2478  0.2849 -0.1386
  494TMC3    C1 7393   1.544   2.492   0.804 -0.0835 -0.5433 -0.3973
  494TMC3    C2 7394   1.570   2.353   0.788  0.4037 -0.3921  0.8509
  494TMC3    C3 7395   1.555   2.306   0.664 -0.5682 -0.9015  0.4023
  494TMC3    C4 7396   1.524   2.570   0.695 -0.6425  0.7557 -0.0703
  494TMC3    C5 7397   1.533   2.516   0.570 -0.4712  0.3630 -0.0906
  494TMC3    C6 7398   1.542   2.382   0.554 -0.2944 -0.0355  0.2411
  494TMC3     C 7399   1.480   2.531   0.929  0.1441 -0.3826  0.8156
  494TMC3     O 7400   1.411   2.632   0.931 -0.5447  0.3970  0.3041
  494TMC3     H 7401   1.582   2.288   0.874  2.7105 -1.6162 -0.3923
  494TMC3    H1 7402   1.514   2.678   0.704 -0.3943  0.9028 -1.5679
  494TMC3    H2 7403   1.544   2.329   0.459  0.4702 -0.4122  0.4682
  494TMC3    C7 7404   1.545   2.592   0.452  0.3178  0.0518 -0.5472
  494TMC3    C8 7405   1.541   2.159   0.653  0.6488 -0.3045 -0.2925
  494TMC3    O1 7406   1.565   2.522   0.349 -0.3048 -0.0596  0.2031
  494TMC3    O2 7407   1.587   2.094   0.743 -0.1903 -0.0154  0.2335
  495TMC3    C1 7408   0.112   4.019  14.761  0.0484 -0.6235 -1.0517
  495TMC3    C2 7409   0.032   4.060  14.659 -0.0958 -0.2594  0.1355
  495TMC3    C3 7410   4.699   4.178  14.684 -1.2064  0.1142 -0.0206
  495TMC3    C4 7411   0.157   4.102  14.861 -0.1285  0.2576 -0.5895
  495TMC3    C5 7412   0.084   4.214  14.886 -0.2926  0.3051 -0.0336
  495TMC3    C6 7413   4.722   4.245  14.794  0.0224  0.7125 -0.5642
  495TMC3     C 7414   0.119   3.878  14.783 -0.8454  0.3773  0.2409
  495TMC3     O 7415   0.212   3.849  14.857  0.3432 -0.6038 -0.0542
  495TMC3     H 7416   4.721   3.996  14.584 -0.3136 -0.2082  0.2246
  495TMC3    H1 7417   0.216   4.076  14.948 -1.2673 -1.6577 -0.3815
  495TMC3    H2 7418   4.670   4.338  14.816  2.8278  1.6384  2.0646
  495TMC3    C7 7419   0.040   4.241  15.024 -0.6106 -0.9348  0.4418
  495TMC3    C8 7420   4.578   4.204  14.610 -0.0686 -0.5387 -0.6391
  495TMC3    O1 7421   4.660   4.209  15.056  0.1011  0.0267  0.0897
  495TMC3    O2 7422   4.470   4.201  14.674  0.2863  0.1767  0.0586
  496MPD2     C 7423   1.415   3.561  15.460  0.0285 -0.0718  0.8275
  496MPD2    C1 7424   1.537   3.621  15.481 -0.0316 -0.2553  0.4153
  496MPD2    C2 7425   1.541   3.710  15.581 -0.1462 -0.2695 -0.0599
  496MPD2    C3 7426   1.427   3.743  15.651  0.5401 -0.1123 -0.1185
  496MPD2    C4 7427   1.308   3.681  15.625  0.2371 -0.6145 -0.0619
  496MPD2    C5 7428   1.301   3.585  15.528  0.6246  0.5423 -0.0367
  496MPD2     H 7429   1.640   3.750  15.598  0.1943 -0.4958 -1.4371
  496MPD2    H1 7430   1.221   3.695  15.688  0.1345 -1.4995 -0.0011
  496MPD2    H2 7431   1.413   3.491  15.378 -2.5294 -0.4246  1.1831
  496MPD2    H3 7432   1.213   3.522  15.515  0.0299  1.4689 -0.5716
  496MPD2     N 7433   1.439   3.848  15.744 -0.6831 -0.1999  0.3590
  496MPD2    H5 7434   1.529   3.891  15.765 -0.5735  0.0908 -0.6919
  496MPD2    N1 7435   1.641   3.600  15.389  0.9226  0.6435  0.4569
  496MPD2    H7 7436   1.632   3.516  15.333 -0.3987 -0.3721  2.1874
  497TMC3    C1 7437   1.375   4.021  15.887 -0.2737  0.4620  0.0101
  497TMC3    C2 7438   1.307   4.145  15.891 -1.1034  0.7666 -0.2959
  497TMC3    C3 7439   1.355   4.247  15.971  0.7235 -0.6689 -0.3944
  497TMC3    C4 7440   1.479   4.005  15.966  0.0668  0.2569  0.0627
  497TMC3    C5 7441   1.515   4.104  16.053 -0.3430 -0.1212  0.1387
  497TMC3    C6 7442   1.462   4.229  16.059 -0.4258  0.1402  1.3139
  497TMC3     C 7443   1.333   3.927  15.783 -0.4210  0.0682  0.0117
  497TMC3     O 7444   1.215   3.932  15.755 -0.0745  0.8316  0.7430
  497TMC3     H 7445   1.229   4.156  15.816 -1.0881  0.9247 -0.2894
  497TMC3    H1 7446   1.523   3.905  15.966  0.3710  0.3879 -0.8294
  497TMC3    H2 7447   1.494   4.312  16.120 -1.7171  1.4034  0.2803
  497TMC3    C7 7448   1.611   4.071  16.154  0.4593 -0.4162 -0.3327
  497TMC3    C8 7449   1.338   4.387  15.922  0.2716  0.0709  0.2004
  497TMC3    O1 7450   1.644   3.951  16.152 -0.1689 -0.5305 -0.3733
  497TMC3    O2 7451   1.399   4.477  15.977 -0.9722 -0.7105  0.0291
  498MPD2     C 7452   3.351   0.176  10.827 -0.0709 -0.0238  0.4936
  498MPD2    C1 7453   3.264   0.262  10.759  0.1974 -0.0439  0.4868
  498MPD2    C2 7454   3.136   0.224  10.730  0.1085  0.0796 -0.5051
  498MPD2    C3 7455   3.091   0.097  10.772  0.0573 -0.6319  0.1334
  498MPD2    C4 7456   3.180   0.013  10.833  0.1008 -0.6145  0.2219
  498MPD2    C5 7457   3.308   0.051  10.864 -0.0337  0.4668 -0.3780
  498MPD2     H 7458   3.070   0.280  10.664 -1.8762 -1.1105  0.4704
  498MPD2    H1 7459   3.154   4.647  10.867 -0.2085  0.2287  2.4936
  498MPD2    H2 7460   3.453   0.203  10.849  0.4278 -1.3267 -0.1881
  498MPD2    H3 7461   3.376   4.712  10.906  3.1293  3.4067 -0.3723
  498MPD2     N 7462   2.955   0.057  10.744 -0.7562 -0.5533  0.1337
  498MPD2    H5 7463   2.899   0.132  10.705  0.5602  0.9118  1.0749
  498MPD2    N1 7464   3.312   0.385  10.699  0.6235  0.0277 -0.2718
  498MPD2    H7 7465   3.236   0.442  10.665  1.9133  1.4809 -0.7294
  499TMC3    C1 7466   3.467   0.565  10.652  0.0545  0.1002 -0.2050
  499TMC3    C2 7467   3.542   0.639  10.741  1.1467 -0.2889 -0.2276
  499TMC3    C3 7468   3.579   0.766  10.709  0.8227 -0.4705  0.0340
  499TMC3    C4 7469   3.411   0.618  10.544 -0.5297 -0.1845 -0.4414
  499TMC3    C5 7470   3.439   0.748  10.518  0.6872  0.2335  0.2927
  499TMC3    C6 7471   3.525   0.820  10.594 -0.4492 -0.9607  0.1091
  499TMC3     C 7472   3.443   0.433  10.702  0.3646 -0.1114  0.4107
  499TMC3     O 7473   3.542   0.380  10.748  0.3743  0.1515 -0.1647
  499TMC3     H 7474   3.574   0.592  10.833 -2.4484  0.4596  1.4124
  499TMC3    H1 7475   3.374   0.553  10.466  1.4216 -0.3347 -1.2352
  499TMC3    H2 7476   3.531   0.926  10.575  1.6633 -1.1149 -0.0777
  499TMC3    C7 7477   3.360   0.814  10.416  0.1907 -0.6596  0.9793
  499TMC3    C8 7478   3.671   0.844  10.789 -0.4059  0.1746  0.2520
  499TMC3    O1 7479   3.409   0.921  10.369 -0.3519 -0.2038 -0.2277
  499TMC3    O2 7480   3.738   0.923  10.729  0.3292  0.5744 -0.1016
  500MPD2     C 7481   4.340   0.765  10.762  0.1342  0.1351  0.3880
  500MPD2    C1 7482   4.381   0.886  10.712  0.0943 -0.1631  0.1534
  500MPD2    C2 7483   4.283   0.985  10.692 -0.3767 -0.4853 -0.3389
  500MPD2    C3 7484   4.146   0.968  10.710  0.2520 -0.0307 -0.4956
  500MPD2    C4 7485   4.108   0.842  10.764  0.4600 -0.5600 -0.0320
  500MPD2    C5 7486   4.206   0.743  10.790 -0.1304  0.7481 -0.5594
  500MPD2     H 7487   4.317   1.074  10.641  0.5829  0.4999  2.0339
  500MPD2    H1 7488   4.003   0.818  10.774 -0.6237  4.1798 -0.1533
  500MPD2    H2 7489   4.412   0.687  10.782  0.1200  0.7881  2.9151
  500MPD2    H3 7490   4.180   0.643  10.823 -2.1649  1.0356 -1.3093
  500MPD2     N 7491   4.045   1.063  10.696  0.7538  0.1293  0.0965
  500MPD2    H5 7492   3.948   1.034  10.708  0.2454  0.9440 -1.9369
  500MPD2    N1 7493   4.516   0.909  10.682 -0.2759 -0.4621 -0.5050
  500MPD2    H7 7494   4.519   1.000  10.637  0.0599 -0.3386 -0.2352
  501TMC3    C1 7495   0.024   0.869  10.659 -0.0788  0.1860 -0.1975
  501TMC3    C2 7496   0.042   0.975  10.569  0.0517 -0.1659  0.1007
  501TMC3    C3 7497   0.149   1.056  10.588  0.2454  0.5352 -0.0094
  501TMC3    C4 7498   0.117   0.848  10.756  1.2498 -0.1271 -0.3201
  501TMC3    C5 7499   0.218   0.936  10.777 -0.1002 -0.0986 -0.0970
  501TMC3    C6 7500   0.246   1.035  10.683  1.1226  0.2224 -0.9625
  501TMC3     C 7501   4.622   0.822  10.697 -0.1728  0.4340 -0.1192
  501TMC3     O 7502   4.627   0.720  10.764  0.7370 -0.2398 -0.2261
  501TMC3     H 7503   4.704   1.007  10.494 -1.1523  1.1107  1.7865
  501TMC3    H1 7504   0.102   0.773  10.833  3.8226 -0.1976  0.1193
  501TMC3    H2 7505   0.332   1.101  10.691  2.1448 -1.4043  1.5939
  501TMC3    C7 7506   0.236   0.972  10.911  0.3144  0.8539 -0.6126
  501TMC3    C8 7507   0.131   1.195  10.552  0.0267 -0.7588 -0.2805
  501TMC3    O1 7508   0.228   0.887  10.996  0.4894 -0.5877  0.1137
  501TMC3    O2 7509   0.179   1.273  10.637 -0.2792 -0.2996 -0.2823
  502TMC3    C1 7510   4.065   0.212  15.041  0.1815  0.4085 -0.2800
  502TMC3    C2 7511   4.023   0.340  15.048  0.1911  0.7973  0.1668
  502TMC3    C3 7512   3.896   0.367  15.087 -0.3995  0.6311  0.0790
  502TMC3    C4 7513   3.983   0.113  15.072  0.1228  0.0250  0.1792
  502TMC3    C5 7514   3.857   0.140  15.117  0.3217  0.3820  0.0612
  502TMC3    C6 7515   3.813   0.269  15.128 -0.1662 -0.6056  0.8248
  502TMC3     C 7516   4.189   0.210  15.109 -0.3982  0.1880  0.4950
  502TMC3     O 7517   4.279   0.289  15.069  0.5011  0.1523 -0.1620
  502TMC3     H 7518   4.099   0.415  15.027 -0.5771  1.3670 -0.5696
  502TMC3    H1 7519   4.009   0.008  15.072  0.2585  0.0569 -0.3712
  502TMC3    H2 7520   3.715   0.288  15.169  0.6225  1.6443  1.7248
  502TMC3    C7 7521   3.824   0.060  15.233 -0.6345  0.7615 -0.2338
  502TMC3    C8 7522   3.871   0.505  15.108 -0.8619 -0.1953 -0.3540
  502TMC3    O1 7523   3.918   0.021  15.292 -0.0365 -0.2772 -0.1565
  502TMC3    O2 7524   3.952   0.583  15.055 -0.2302  0.2824  0.4662
  503MPD2     C 7525   1.808   1.320  16.890 -0.6257  0.9811  0.1689
  503MPD2    C1 7526   1.806   1.322  17.026 -0.1397  0.2946  0.0888
  503MPD2    C2 7527   1.850   1.215  17.092  0.3498  0.1244 -0.7456
  503MPD2    C3 7528   1.899   1.103  17.022 -0.3236  0.2835 -0.1513
  503MPD2    C4 7529   1.880   1.097  16.884 -0.3186 -0.6678  0.0431
  503MPD2    C5 7530   1.845   1.207  16.820 -0.0257  0.2792  0.4632
  503MPD2     H 7531   1.854   1.220  17.200 -1.1887  1.6315 -0.7465
  503MPD2    H1 7532   1.907   1.014  16.820  2.9531  0.2358  0.2619
  503MPD2    H2 7533   1.769   1.401  16.829  0.0919  0.2741 -1.2271
  503MPD2    H3 7534   1.828   1.206  16.713  1.2601 -1.7965  0.2799
  503MPD2     N 7535   1.945   0.997  17.102 -0.1463 -0.1727  0.2333
  503MPD2    H5 7536   1.937   0.993  17.203 -0.2548 -0.6858  0.2056
  503MPD2    N1 7537   1.751   1.426  17.105 -0.2647 -0.0390 -0.2513
  503MPD2    H7 7538   1.754   1.414  17.206  0.0387 -0.7677 -0.3468
  504TMC3    C1 7539   1.992   0.786  17.163  0.4622  0.4180  0.3441
  504TMC3    C2 7540   1.928   0.810  17.284  0.4839  0.2864 -0.2921
  504TMC3    C3 7541   1.966   0.732  17.387 -0.0169 -1.8163 -0.0483
  504TMC3    C4 7542   2.076   0.677  17.137  0.0291  0.4197 -0.2646
  504TMC3    C5 7543   2.115   0.601  17.246 -0.5459 -0.9587 -0.2267
  504TMC3    C6 7544   2.061   0.627  17.371  0.2002  0.1038 -0.2312
  504TMC3     C 7545   1.978   0.873  17.056 -0.5475  0.5310 -0.3146
  504TMC3     O 7546   2.000   0.834  16.944  0.0693 -0.0983  0.0957
  504TMC3     H 7547   1.854   0.887  17.304  1.2421  0.8003  0.5438
  504TMC3    H1 7548   2.141   0.674  17.050 -0.9345 -0.4333 -0.9572
  504TMC3    H2 7549   2.105   0.587  17.462 -0.3973 -0.0637 -0.0129
  504TMC3    C7 7550   2.257   0.547  17.242  0.0406  0.3725 -0.3163
  504TMC3    C8 7551   1.867   0.723  17.494  0.2144 -0.0415  0.2582
  504TMC3    O1 7552   2.324   0.567  17.143  0.3841 -0.4610  0.5685
  504TMC3    O2 7553   1.752   0.757  17.469  0.7597 -0.5901  0.0087
  505MPD2     C 7554   1.662   0.153  11.331  0.7876  0.2677  0.2488
  505MPD2    C1 7555   1.660   0.075  11.215 -0.0818 -0.5751  0.2934
  505MPD2    C2 7556   1.684   4.672  11.234  0.8806  0.8075  0.4504
  505MPD2    C3 7557   1.681   4.614  11.359 -0.2446  0.2770 -0.0905
  505MPD2    C4 7558   1.684   4.689  11.473  0.4402 -0.2333 -0.1298
  505MPD2    C5 7559   1.673   0.092  11.455 -0.2213 -0.5218  0.3146
  505MPD2     H 7560   1.681   4.607  11.147  5.5073  0.4620  0.5815
  505MPD2    H1 7561   1.703   4.638  11.567 -0.3278  0.2543  0.2927
  505MPD2    H2 7562   1.642   0.260  11.328 -0.2795  0.0426 -0.5119
  505MPD2    H3 7563   1.669   0.158  11.541 -1.8446  0.5808 -0.6138
  505MPD2     N 7564   1.695   4.470  11.365 -0.9177  0.0456  0.1909
  505MPD2    H5 7565   1.674   4.412  11.285 -0.9888 -2.6398  2.1344
  505MPD2    N1 7566   1.657   0.147  11.088 -0.1526  0.1642  0.1160
  505MPD2    H7 7567   1.647   0.247  11.097 -0.8969  0.3903 -2.9648
  506TMC3    C1 7568   1.636   0.165  10.857  0.6401  0.5364 -0.9123
  506TMC3    C2 7569   1.737   0.204  10.776  0.0050 -0.0757 -0.5322
  506TMC3    C3 7570   1.726   0.217  10.634 -0.0079  0.3188 -0.1642
  506TMC3    C4 7571   1.528   0.109  10.794 -0.5941 -0.1991 -0.1931
  506TMC3    C5 7572   1.536   0.082  10.656 -0.4236  0.0833 -0.1554
  506TMC3    C6 7573   1.617   0.162  10.571  0.2388 -0.7780 -0.0079
  506TMC3     C 7574   1.681   0.087  10.969  0.1144 -0.1397  0.5110
  506TMC3     O 7575   1.697   4.703  10.947  0.1010  0.4942  0.0080
  506TMC3     H 7576   1.826   0.239  10.826  0.2237 -1.5602  0.1214
  506TMC3    H1 7577   1.457   0.056  10.856 -2.7023  4.1190  1.1180
  506TMC3    H2 7578   1.624   0.134  10.466 -0.9623  0.7773 -0.4957
  506TMC3    C7 7579   1.510   4.672  10.625 -0.8562 -0.1890 -0.5590
  506TMC3    C8 7580   1.827   0.270  10.550  0.0094  0.6762  0.2959
  506TMC3    O1 7581   1.517   4.643  10.504  0.3517  0.0963  0.6770
  506TMC3    O2 7582   1.791   0.274  10.428  0.4589 -0.0962  0.0879
  507TMC3    C1 7583   2.225   0.377  15.226 -0.0168  0.5667  0.8150
  507TMC3    C2 7584   2.155   0.365  15.109 -0.5084  0.1034  0.0531
  507TMC3    C3 7585   2.197   0.441  15.001  0.6115  0.5732 -0.0554
  507TMC3    C4 7586   2.325   0.471  15.247  0.0495 -0.4903  0.3046
  507TMC3    C5 7587   2.362   0.552  15.140 -0.7297 -0.5652  0.1463
  507TMC3    C6 7588   2.303   0.528  15.018  0.2398 -0.1950 -0.1765
  507TMC3     C 7589   2.182   0.299  15.339  0.2426  0.1274  0.4539
  507TMC3     O 7590   2.070   0.257  15.342  0.9862 -0.0399 -0.0941
  507TMC3     H 7591   2.061   0.312  15.104 -0.4769 -0.1368  1.8018
  507TMC3    H1 7592   2.359   0.493  15.347  0.9853 -0.2669 -0.0528
  507TMC3    H2 7593   2.326   0.585  14.929  0.0673  1.9472  1.1605
  507TMC3    C7 7594   2.369   0.690  15.171  0.6212  1.3611  0.4485
  507TMC3    C8 7595   2.098   0.502  14.914  0.2872 -0.0239 -0.6413
  507TMC3    O1 7596   2.412   0.725  15.280  0.1729  0.2549 -0.3415
  507TMC3    O2 7597   2.129   0.612  14.867  0.1444 -0.2414  0.3638
  508MPD2     C 7598   3.557   2.544  16.623 -0.1331 -0.5318  0.1083
  508MPD2    C1 7599   3.575   2.677  16.657  0.1855  0.1939 -0.3071
  508MPD2    C2 7600   3.565   2.772  16.558  0.2788 -0.4051 -1.2790
  508MPD2    C3 7601   3.548   2.735  16.430 -0.1343 -0.0206  0.5787
  508MPD2    C4 7602   3.530   2.605  16.402  0.2450  0.1052 -0.4757
  508MPD2    C5 7603   3.533   2.511  16.496  0.4615  0.1011 -0.3926
  508MPD2     H 7604   3.583   2.878  16.570 -0.1217 -0.7857  2.5362
  508MPD2    H1 7605   3.521   2.578  16.297  1.4617 -2.3794  0.0722
  508MPD2    H2 7606   3.547   2.460  16.691 -1.9758 -0.3233  0.0851
  508MPD2    H3 7607   3.530   2.407  16.467  1.7350  0.0955 -0.5087
  508MPD2     N 7608   3.545   2.842  16.334 -0.1663  0.1203 -0.3474
  508MPD2    H5 7609   3.560   2.930  16.382  4.1445 -1.3779  1.0265
  508MPD2    N1 7610   3.596   2.731  16.788 -0.3176 -0.4019 -0.0470
  508MPD2    H7 7611   3.608   2.832  16.786  0.3996 -0.4613  1.5950
  509TMC3    C1 7612   3.579   3.091  15.921  0.4821  0.6691  0.3701
  509TMC3    C2 7613   3.602   3.205  15.995  0.1402  0.3734  0.3672
  509TMC3    C3 7614   3.613   3.200  16.129  0.2733 -0.1920 -0.3314
  509TMC3    C4 7615   3.566   2.971  15.992  0.2442  0.2609 -0.3868
  509TMC3    C5 7616   3.582   2.969  16.131 -0.3450  0.3799 -0.3431
  509TMC3    C6 7617   3.605   3.084  16.197  0.5992  0.0707 -0.2687
  509TMC3     C 7618   3.511   3.091  15.794  0.4227 -0.0243 -0.8130
  509TMC3     O 7619   3.461   2.986  15.748 -0.0089  0.3453 -0.1412
  509TMC3     H 7620   3.589   3.296  15.937  0.0747 -0.6294 -1.1951
  509TMC3    H1 7621   3.524   2.888  15.937  0.1752 -0.8590  1.3679
  509TMC3    H2 7622   3.622   3.081  16.304  2.2689 -1.3435 -0.5804
  509TMC3    C7 7623   3.550   2.841  16.195 -0.4142  0.2254  0.0238
  509TMC3    C8 7624   3.666   3.314  16.200  0.6233 -0.3921  0.4770
  509TMC3    O1 7625   3.546   2.744  16.119 -0.6509  0.0487  0.0039
  509TMC3    O2 7626   3.679   3.303  16.319  0.3259 -0.1087  0.4732
  510MPD2     C 7627   1.149   4.432  14.906  0.4397 -0.5525  0.3945
  510MPD2    C1 7628   1.150   4.295  14.933 -0.2677  0.3145  0.4084
  510MPD2    C2 7629   1.222   4.211  14.847 -0.6168  0.0948 -0.8762
  510MPD2    C3 7630   1.300   4.258  14.743 -0.1574  0.6597 -0.2056
  510MPD2    C4 7631   1.294   4.393  14.717  0.4562  0.8026 -0.2615
  510MPD2    C5 7632   1.216   4.482  14.797 -0.2354 -0.0219  0.0571
  510MPD2     H 7633   1.217   4.105  14.871 -0.2525  0.4633  0.8495
  510MPD2    H1 7634   1.333   4.434  14.624  2.0760  0.4687  0.2722
  510MPD2    H2 7635   1.088   4.501  14.965 -2.2740  0.7049 -3.8667
  510MPD2    H3 7636   1.216   4.586  14.768 -0.6037 -0.0297  0.0266
  510MPD2     N 7637   1.368   4.169  14.659 -0.5688  0.2088  0.5417
  510MPD2    H5 7638   1.348   4.070  14.667 -0.6555  0.3910  2.4018
  510MPD2    N1 7639   1.084   4.257  15.057 -0.3159 -0.4539  0.4158
  510MPD2    H7 7640   1.038   4.334  15.104 -0.5791 -0.5181  0.2665
  511TMC3    C1 7641   0.992   4.113  15.223 -0.8378 -0.4766  0.2054
  511TMC3    C2 7642   0.945   4.224  15.288 -0.6221 -0.1344  1.1966
  511TMC3    C3 7643   0.845   4.199  15.376 -0.1318 -0.8846  0.2783
  511TMC3    C4 7644   0.934   3.991  15.231  0.0701  0.0835 -0.7945
  511TMC3    C5 7645   0.837   3.972  15.322  0.6223 -0.2480 -0.2854
  511TMC3    C6 7646   0.789   4.075  15.388 -0.4983 -0.3143  0.2671
  511TMC3     C 7647   1.076   4.130  15.109 -0.1689  0.3980  0.1529
  511TMC3     O 7648   1.112   4.028  15.049 -0.3403  0.2679 -0.1920
  511TMC3     H 7649   0.990   4.322  15.280  1.2176 -1.1011 -0.1872
  511TMC3    H1 7650   0.969   3.912  15.165 -0.7666  0.9714 -2.2998
  511TMC3    H2 7651   0.721   4.056  15.470 -0.1243 -1.9941  0.1908
  511TMC3    C7 7652   0.761   3.851  15.304  0.0918  0.1260  0.0987
  511TMC3    C8 7653   0.788   4.305  15.454  0.1898  0.4157  0.4244
  511TMC3    O1 7654   0.778   3.786  15.205  0.6357  0.1178 -0.7956
  511TMC3    O2 7655   0.774   4.284  15.570  0.3456  0.4127 -0.8577
  512TMC3    C1 7656   0.100   3.667  13.823  0.1005 -0.0824 -0.4252
  512TMC3    C2 7657   0.182   3.695  13.927  0.9496  0.8873 -0.3092
  512TMC3    C3 7658   0.261   3.591  13.977 -0.3764  0.1504 -0.3465
  512TMC3    C4 7659   0.100   3.540  13.766 -0.2785 -0.0965 -0.7592
  512TMC3    C5 7660   0.175   3.441  13.830  0.1432  0.1970  0.4978
  512TMC3    C6 7661   0.251   3.457  13.944 -0.0134 -0.0610  0.0975
  512TMC3     C 7662   0.019   3.777  13.768 -0.3362 -0.1797 -0.4077
  512TMC3     O 7663   0.039   3.885  13.813  0.6094  0.0021  0.2672
  512TMC3     H 7664   0.186   3.800  13.954 -0.9108  0.8017  0.2618
  512TMC3    H1 7665   0.039   3.511  13.681  0.3079  2.2707 -2.0045
  512TMC3    H2 7666   0.302   3.379  13.998 -2.3126 -1.2145  0.5895
  512TMC3    C7 7667   0.243   3.360  13.729  0.0159  0.0902 -0.1743
  512TMC3    C8 7668   0.370   3.619  14.059  0.3586  0.1070 -0.3335
  512TMC3    O1 7669   0.240   3.401  13.610 -0.0175 -0.2753  0.4053
  512TMC3    O2 7670   0.425   3.522  14.107  0.0936 -0.1420 -0.4033
  513MPD2     C 7671   2.220   4.188  13.239  0.0244 -0.2147  0.0293
  513MPD2    C1 7672   2.213   4.055  13.228  0.0562 -0.3663 -0.0074
  513MPD2    C2 7673   2.217   3.984  13.351 -0.0253  0.1123  0.1716
  513MPD2    C3 7674   2.241   4.054  13.472  0.4999  0.3254 -0.2612
  513MPD2    C4 7675   2.265   4.188  13.474  0.6312 -0.1867 -0.5392
  513MPD2    C5 7676   2.243   4.252  13.358 -0.8258 -0.4409 -0.0316
  513MPD2     H 7677   2.187   3.881  13.359  2.4166 -0.5161  1.3053
  513MPD2    H1 7678   2.301   4.245  13.559 -0.5739 -1.0083  0.5277
  513MPD2    H2 7679   2.226   4.246  13.148  0.9046  2.5661  1.8440
  513MPD2    H3 7680   2.253   4.359  13.368  0.4788 -0.2868 -2.8039
  513MPD2     N 7681   2.256   3.966  13.588  0.7272 -0.1923  0.3425
  513MPD2    H5 7682   2.252   3.867  13.567 -0.6325  0.5169 -2.6955
  513MPD2    N1 7683   2.197   3.992  13.101 -0.2318  0.0883 -0.4804
  513MPD2    H7 7684   2.205   4.059  13.025 -0.5536  0.6014 -0.0604
  514TMC3    C1 7685   2.208   3.829  12.936  0.2337  0.0759 -0.9515
  514TMC3    C2 7686   2.319   3.881  12.878 -0.6543  0.4768  0.6878
  514TMC3    C3 7687   2.399   3.802  12.793  0.3839 -0.5753 -0.0949
  514TMC3    C4 7688   2.188   3.695  12.917  0.0149  0.2549  0.0319
  514TMC3    C5 7689   2.277   3.612  12.852 -0.2009  0.0873  0.3379
  514TMC3    C6 7690   2.381   3.667  12.783 -0.7676  0.0041  0.4439
  514TMC3     C 7691   2.187   3.860  13.079  0.4081  0.2260  0.1285
  514TMC3     O 7692   2.177   3.767  13.158  0.1372 -0.0417  0.1914
  514TMC3     H 7693   2.354   3.980  12.905  1.3694 -0.6356  2.1771
  514TMC3    H1 7694   2.112   3.642  12.973  0.4509 -0.8333 -0.3960
  514TMC3    H2 7695   2.444   3.598  12.728 -2.4567 -1.9960  0.9932
  514TMC3    C7 7696   2.314   3.486  12.930  0.3728 -0.4905  0.1136
  514TMC3    C8 7697   2.535   3.840  12.758  0.4399  0.2658 -0.2012
  514TMC3    O1 7698   2.368   3.395  12.873 -0.4329  0.4373  0.1629
  514TMC3    O2 7699   2.600   3.897  12.842 -0.0514  0.3172 -0.0611
  515MPD2     C 7700   0.627   0.834  14.643  0.1332 -0.6468 -0.1889
  515MPD2    C1 7701   0.509   0.827  14.715 -0.3471 -0.7940  0.5025
  515MPD2    C2 7702   0.494   0.884  14.841  0.1980  0.0759  0.1854
  515MPD2    C3 7703   0.594   0.956  14.893 -0.1471  0.2618 -0.2163
  515MPD2    C4 7704   0.709   0.967  14.826 -0.4303  0.1173  0.3572
  515MPD2    C5 7705   0.727   0.905  14.707  0.6375  0.1351 -0.0777
  515MPD2     H 7706   0.397   0.871  14.888 -0.4013  3.4279 -0.1365
  515MPD2    H1 7707   0.786   1.034  14.864  0.0738  0.1946 -0.8024
  515MPD2    H2 7708   0.642   0.776  14.553  3.8220 -1.2756  0.8164
  515MPD2    H3 7709   0.828   0.897  14.668  1.3024 -3.3427  2.3959
  515MPD2     N 7710   0.577   1.039  15.008  0.7346 -0.0512 -0.1564
  515MPD2    H5 7711   0.649   1.106  15.033 -1.3812  1.7125  1.1842
  515MPD2    N1 7712   0.406   0.739  14.664  0.3986  0.4683 -0.1070
  515MPD2    H7 7713   0.337   0.709  14.731  1.2873  2.4314  1.6942
  516TMC3    C1 7714   0.286   0.612  14.509  0.0439 -0.0125 -0.9886
  516TMC3    C2 7715   0.187   0.631  14.416  0.2074  0.2531  0.3037
  516TMC3    C3 7716   0.092   0.531  14.413 -0.4214  0.5620 -0.1575
  516TMC3    C4 7717   0.292   0.502  14.589  0.3026 -0.1998  0.7419
  516TMC3    C5 7718   0.200   0.404  14.575  0.7803 -0.5992 -0.5082
  516TMC3    C6 7719   0.090   0.416  14.488 -0.6569  0.7731 -0.0404
  516TMC3     C 7720   0.373   0.723  14.534 -0.0017 -0.2937 -0.7902
  516TMC3     O 7721   0.413   0.788  14.438 -0.4954  0.7055 -0.2505
  516TMC3     H 7722   0.186   0.727  14.367  2.9533 -1.4892 -3.2161
  516TMC3    H1 7723   0.376   0.494  14.657  1.4372  1.1531 -0.5102
  516TMC3    H2 7724   0.006   0.347  14.485 -0.1242  0.1302 -0.0904
  516TMC3    C7 7725   0.195   0.300  14.673 -0.6921  0.3336  0.2405
  516TMC3    C8 7726   4.698   0.581  14.375  0.1028  0.5961 -0.0040
  516TMC3    O1 7727   0.273   0.312  14.770  0.4316 -0.6923  0.0286
  516TMC3    O2 7728   4.603   0.530  14.432 -0.2849  0.0916  0.3375
  517MPD2     C 7729   4.449   2.297   0.241 -0.0313  0.3048 -0.0186
  517MPD2    C1 7730   4.570   2.299   0.309  0.0908 -0.0394  0.0979
  517MPD2    C2 7731   4.593   2.405   0.387 -0.2835  0.3175 -0.2252
  517MPD2    C3 7732   4.493   2.505   0.395  0.4945  0.0831  0.3961
  517MPD2    C4 7733   4.380   2.508   0.317 -0.6853 -0.4004 -0.0965
  517MPD2    C5 7734   4.358   2.400   0.244 -0.3308 -0.0444  0.7407
  517MPD2     H 7735   4.689   2.407   0.437 -0.0661  1.9389 -0.7189
  517MPD2    H1 7736   4.304   2.585   0.321  0.3582  0.5674  1.2876
  517MPD2    H2 7737   4.429   2.220   0.167  1.1378  0.2049 -0.2196
  517MPD2    H3 7738   4.266   2.387   0.188 -0.5985  3.6754  0.3077
  517MPD2     N 7739   4.502   2.618   0.482  0.2365  0.0066 -0.6846
  517MPD2    H5 7740   4.416   2.672   0.478 -0.3035 -0.9237 -1.4895
  517MPD2    N1 7741   4.673   2.205   0.299 -0.0046 -0.2985 -0.1913
  517MPD2    H7 7742   0.029   2.242   0.329  0.7763 -1.7368 -0.7518
  518TMC3    C1 7743   0.064   2.028   0.189 -0.1492 -0.6364 -0.2250
  518TMC3    C2 7744   0.066   1.891   0.165 -0.2517  0.3205  0.3496
  518TMC3    C3 7745   0.175   1.847   0.099  0.2314 -0.3663 -0.2562
  518TMC3    C4 7746   0.169   2.113   0.155 -0.0509  0.3097  0.4866
  518TMC3    C5 7747   0.277   2.061   0.088 -0.2205 -0.3440 -0.2219
  518TMC3    C6 7748   0.276   1.927   0.046  0.5325 -0.0722  0.3921
  518TMC3     C 7749   4.669   2.087   0.227 -0.3523  0.4523  0.4828
  518TMC3     O 7750   4.570   2.017   0.212  0.0581 -0.0100  0.3443
  518TMC3     H 7751   4.713   1.829   0.179  0.7085 -1.2045 -0.4003
  518TMC3    H1 7752   0.157   2.219   0.175  0.0688  0.3673  0.2593
  518TMC3    H2 7753   0.370   1.880   0.017 -0.6923 -2.0969 -0.3513
  518TMC3    C7 7754   0.392   2.135   0.069 -1.2439 -0.3802  0.2601
  518TMC3    C8 7755   0.209   1.710   0.108  0.0386  0.2529  0.2901
  518TMC3    O1 7756   0.407   2.230   0.148 -0.5229 -0.3252  0.3399
  518TMC3    O2 7757   0.278   1.665   0.013 -0.1534  0.0817 -0.6545
  519MPD2     C 7758   1.339   4.592  14.230  0.3394  0.0473  0.8677
  519MPD2    C1 7759   1.350   4.722  14.196 -0.0730  0.3317 -0.4696
  519MPD2    C2 7760   1.477   0.039  14.165  0.1322  0.1382 -0.0332
  519MPD2    C3 7761   1.588   4.688  14.170 -0.0794  0.2676 -0.2155
  519MPD2    C4 7762   1.571   4.558  14.197  0.6309 -0.1707 -0.2734
  519MPD2    C5 7763   1.447   4.505  14.230 -0.2778 -0.9214  0.2663
  519MPD2     H 7764   1.483   0.146  14.146 -3.5806  0.2285 -0.6475
  519MPD2    H1 7765   1.654   4.489  14.200  0.9830  0.3168  1.2338
  519MPD2    H2 7766   1.240   4.552  14.248  0.1660 -0.2635 -0.7336
  519MPD2    H3 7767   1.431   4.397  14.236 -1.6478 -0.7968 -0.9781
  519MPD2     N 7768   1.718   4.734  14.153 -0.4307  0.5509 -0.0820
  519MPD2    H5 7769   1.791   4.667  14.132 -0.7915  0.7556 -2.0140
  519MPD2    N1 7770   1.230   0.063  14.194 -0.4012  0.4642  0.0708
  519MPD2    H7 7771   1.143   0.010  14.198 -0.5361  0.7008  0.2503
  520TMC3    C1 7772   1.889   0.151  14.109 -0.8351  0.1264 -0.6018
  520TMC3    C2 7773   1.909   0.237  14.006  0.0052  0.0549 -0.3074
  520TMC3    C3 7774   2.034   0.249  13.953 -0.1499  0.4361  0.1166
  520TMC3    C4 7775   1.983   0.057  14.142 -0.0868 -0.1178  0.2534
  520TMC3    C5 7776   2.105   0.065  14.086  0.3490  0.2354  0.3443
  520TMC3    C6 7777   2.128   0.158  13.987  0.1775  0.1867  0.2751
  520TMC3     C 7778   1.754   0.135  14.148  0.1641 -0.1702  0.5463
  520TMC3     O 7779   1.687   0.238  14.156 -0.0135 -0.2314  0.3596
  520TMC3     H 7780   1.830   0.302  13.969 -2.0840 -2.6355 -0.5326
  520TMC3    H1 7781   1.956   4.719  14.218 -0.9321 -1.3142 -1.1729
  520TMC3    H2 7782   2.216   0.159  13.924  0.3687 -0.1049  0.5395
  520TMC3    C7 7783   2.208   4.722  14.149  0.4925  0.1259  0.0838
  520TMC3    C8 7784   2.055   0.316  13.828  0.2393 -0.5429  0.4785
  520TMC3    O1 7785   2.191   4.685  14.266  0.0240  0.1231  0.1753
  520TMC3    O2 7786   2.174   0.344  13.802 -0.0070  0.0832 -0.8682
  521MPD2     C 7787   2.636   4.160  17.267 -0.3377  0.2451  0.4770
  521MPD2    C1 7788   2.599   4.035  17.226  0.2705  0.0195  0.9380
  521MPD2    C2 7789   2.693   3.961  17.158 -0.1042 -0.7851 -0.5007
  521MPD2    C3 7790   2.819   4.012  17.138  0.2367 -0.5143  0.3599
  521MPD2    C4 7791   2.855   4.139  17.175 -0.1335 -0.3964  0.1590
  521MPD2    C5 7792   2.758   4.207  17.241  0.0936  0.3159 -0.2559
  521MPD2     H 7793   2.674   3.859  17.127 -0.1141  0.1008 -3.4290
  521MPD2    H1 7794   2.953   4.184  17.162 -0.2268 -0.4639 -0.8390
  521MPD2    H2 7795   2.575   4.227  17.328  0.3376  0.3434  1.0483
  521MPD2    H3 7796   2.778   4.307  17.277  0.9864 -0.5877  1.7668
  521MPD2     N 7797   2.909   3.933  17.058 -0.5445 -0.1921 -0.2984
  521MPD2    H5 7798   2.881   3.844  17.019 -0.8419  0.0945 -0.7481
  521MPD2    N1 7799   2.476   3.982  17.269 -0.4401  0.2144 -0.0174
  521MPD2    H7 7800   2.420   4.048  17.323 -1.0780 -0.0612 -0.3439
  522TMC3    C1 7801   3.119   3.860  16.967  0.7104  0.7892 -0.1560
  522TMC3    C2 7802   3.256   3.851  16.975 -0.5573  0.5178  0.4011
  522TMC3    C3 7803   3.319   3.740  16.918  0.4908  1.0042  0.3558
  522TMC3    C4 7804   3.044   3.776  16.887  0.8684 -0.1864  0.4371
  522TMC3    C5 7805   3.116   3.675  16.818 -0.6320 -0.4185  0.4009
  522TMC3    C6 7806   3.255   3.657  16.831 -0.1742 -0.2446  0.3290
  522TMC3     C 7807   3.046   3.954  17.048  0.4541 -0.4568 -0.3140
  522TMC3     O 7808   3.117   4.029  17.120 -0.6342  0.1188 -0.0824
  522TMC3     H 7809   3.313   3.924  17.030 -0.3070  0.2215  0.5342
  522TMC3    H1 7810   2.937   3.788  16.875  1.0230  0.1188 -0.6032
  522TMC3    H2 7811   3.306   3.574  16.782 -2.8850 -2.3097  1.0327
  522TMC3    C7 7812   3.043   3.588  16.726 -0.8002  0.4491  0.3564
  522TMC3    C8 7813   3.447   3.712  16.971  0.3872 -0.0777 -0.3012
  522TMC3    O1 7814   3.105   3.486  16.697  0.7069  0.2621 -0.1579
  522TMC3    O2 7815   3.511   3.805  17.027 -0.1815 -0.2614 -0.2165
  523MPD2     C 7816   0.341   2.779  10.177  0.0166 -0.1593  0.6391
  523MPD2    C1 7817   0.241   2.719  10.100  0.4297  0.1545  0.0491
  523MPD2    C2 7818   0.139   2.804  10.038  0.3439 -0.0795  0.0228
  523MPD2    C3 7819   0.144   2.944  10.067 -0.2680  1.2130 -0.1408
  523MPD2    C4 7820   0.244   2.989  10.147  0.8439 -0.1551  0.4541
  523MPD2    C5 7821   0.344   2.912  10.200 -0.2921 -0.5564 -0.5596
  523MPD2     H 7822   0.056   2.755   9.989  0.6881  1.2618 -1.9491
  523MPD2    H1 7823   0.243   3.094  10.173  0.2857  0.5555 -2.4931
  523MPD2    H2 7824   0.413   2.716  10.228  0.5926 -0.8605 -1.0159
  523MPD2    H3 7825   0.409   2.953  10.276 -0.7080 -0.1714 -0.4117
  523MPD2     N 7826   0.043   3.031  10.025 -0.3544 -0.2632 -0.5519
  523MPD2    H5 7827   0.059   3.124  10.062  2.8478  0.3493 -3.4570
  523MPD2    N1 7828   0.252   2.581  10.079 -0.9220  0.0754 -0.4695
  523MPD2    H7 7829   0.326   2.532  10.129 -1.2738  0.0078 -0.0091
  524TMC3    C1 7830   4.613   3.133   9.896  0.0871  0.0806 -0.7783
  524TMC3    C2 7831   4.553   3.151   9.778  0.5155  0.4643 -1.1045
  524TMC3    C3 7832   4.476   3.266   9.762 -0.8671  0.5824  0.1671
  524TMC3    C4 7833   4.595   3.231   9.998  0.0899 -0.3415  0.2343
  524TMC3    C5 7834   4.517   3.341   9.984  0.8496 -1.2596 -0.5812
  524TMC3    C6 7835   4.452   3.361   9.865 -0.3127 -0.1773  0.0677
  524TMC3     C 7836   4.678   3.010   9.927  0.4811  0.7315  0.1880
  524TMC3     O 7837   4.653   2.916   9.850 -0.3281 -0.5245  0.1750
  524TMC3     H 7838   4.593   3.101   9.691  0.6374 -1.4489  0.0471
  524TMC3    H1 7839   4.637   3.215  10.097  0.1464  0.9956  0.4212
  524TMC3    H2 7840   4.380   3.442   9.860 -2.3621 -2.1582 -1.9578
  524TMC3    C7 7841   4.470   3.412  10.105 -0.6427 -0.2062  0.4244
  524TMC3    C8 7842   4.419   3.281   9.627  0.1965  0.0789  0.1846
  524TMC3    O1 7843   4.491   3.355  10.209  0.1257  0.4671  0.4958
  524TMC3    O2 7844   4.419   3.398   9.585  0.3381  0.2773 -0.2656
  525MPD2     C 7845   2.960   4.709  14.873 -0.6265 -0.0825 -0.2347
  525MPD2    C1 7846   3.056   4.674  14.966  1.2537  0.5301  0.5948
  525MPD2    C2 7847   3.154   0.034  14.976  0.2535  0.5220 -0.6868
  525MPD2    C3 7848   3.166   0.154  14.912  0.1565 -0.0163 -0.0443
  525MPD2    C4 7849   3.062   0.189  14.822 -0.4569 -0.6309 -0.0610
  525MPD2    C5 7850   2.965   0.088  14.799  0.2915 -0.2031  1.1224
  525MPD2     H 7851   3.230   0.012  15.050 -0.2809  1.8326  0.2400
  525MPD2    H1 7852   3.062   0.282  14.766 -1.2450 -1.2376 -1.0900
  525MPD2    H2 7853   2.878   4.645  14.845  0.7396 -1.4884 -1.0251
  525MPD2    H3 7854   2.888   0.103  14.724  2.6578  0.4915 -1.1841
  525MPD2     N 7855   3.274   0.256  14.935 -0.4402 -0.2071  0.2658
  525MPD2    H5 7856   3.258   0.350  14.901 -1.0705 -0.9095 -1.3417
  525MPD2    N1 7857   3.070   4.554  15.036  0.4210 -0.1049  0.2204
  525MPD2    H7 7858   3.158   4.537  15.083  1.3959  0.3518 -1.4302
  526TMC3    C1 7859   3.007   4.334  15.113 -0.5466  0.3262  0.8884
  526TMC3    C2 7860   2.920   4.310  15.224  0.4754  0.0679 -0.3796
  526TMC3    C3 7861   2.982   4.262  15.331 -0.2784 -0.2605 -0.5789
  526TMC3    C4 7862   3.134   4.288  15.103  0.5437 -0.3687  0.2704
  526TMC3    C5 7863   3.181   4.221  15.213 -0.0524  0.1552 -0.5216
  526TMC3    C6 7864   3.109   4.205  15.326  0.2983  0.9059 -0.1885
  526TMC3     C 7865   2.975   4.449  15.025  0.0799 -0.3829 -0.5286
  526TMC3     O 7866   2.867   4.453  14.961  0.1720 -0.7731 -0.3941
  526TMC3     H 7867   2.830   4.371  15.224 -0.7369 -1.7063 -1.7323
  526TMC3    H1 7868   3.186   4.322  15.014  1.8487 -1.5995  0.5608
  526TMC3    H2 7869   3.152   4.161  15.415 -0.4399 -0.0946 -0.3282
  526TMC3    C7 7870   3.316   4.163  15.213  0.4261 -0.3882  0.5736
  526TMC3    C8 7871   2.953   4.303  15.463 -0.3184 -0.6509  0.6507
  526TMC3    O1 7872   3.362   4.157  15.323 -0.2781 -0.3162 -0.4200
  526TMC3    O2 7873   3.029   4.265  15.554 -0.5021  0.2572  0.1219
  527MPD2     C 7874   0.981   2.943   1.565  0.3304 -0.0977 -0.0404
  527MPD2    C1 7875   0.999   2.963   1.432  0.9667 -0.4423  0.5491
  527MPD2    C2 7876   1.117   2.936   1.370 -0.0416  0.2626 -0.3263
  527MPD2    C3 7877   1.212   2.862   1.446 -0.2228  0.4319  0.4903
  527MPD2    C4 7878   1.193   2.837   1.580 -0.6130  0.1599 -0.1995
  527MPD2    C5 7879   1.079   2.882   1.639  0.3802  0.3945 -1.0431
  527MPD2     H 7880   1.134   2.967   1.268 -0.9250  1.3563 -0.1394
  527MPD2    H1 7881   1.258   2.776   1.641 -1.0115  1.1690  1.2421
  527MPD2    H2 7882   0.885   2.955   1.613 -0.3100  2.1210 -1.9215
  527MPD2    H3 7883   1.058   2.851   1.741  0.7385  2.9040 -0.1995
  527MPD2     N 7884   1.322   2.814   1.371 -0.1337 -0.0802  0.2680
  527MPD2    H5 7885   1.326   2.829   1.270  0.1401  2.1179  0.5921
  527MPD2    N1 7886   0.893   3.017   1.352 -0.0213 -0.2947  0.3353
  527MPD2    H7 7887   0.924   3.025   1.256 -1.8353  2.6693 -0.0006
  528TMC3    C1 7888   0.681   3.092   1.296  0.5442 -0.3464  0.3418
  528TMC3    C2 7889   0.738   3.184   1.209  0.3207 -0.0828 -0.5553
  528TMC3    C3 7890   0.665   3.281   1.151  0.5936  0.1811  0.1196
  528TMC3    C4 7891   0.555   3.107   1.333  0.3566  0.0382 -0.3821
  528TMC3    C5 7892   0.477   3.199   1.277  0.2023 -0.1827 -0.1756
  528TMC3    C6 7893   0.531   3.294   1.196  0.0095 -0.8392 -0.6059
  528TMC3     C 7894   0.763   3.015   1.386  0.2034  0.1586 -0.0665
  528TMC3     O 7895   0.705   2.972   1.488  0.2708  0.0252  0.2494
  528TMC3     H 7896   0.841   3.173   1.175  0.2958  0.4346 -0.8012
  528TMC3    H1 7897   0.510   3.025   1.387 -0.8769  0.1543 -1.2318
  528TMC3    H2 7898   0.469   3.375   1.155  1.7485  1.0351  0.4854
  528TMC3    C7 7899   0.346   3.215   1.339  0.3986 -0.3441 -0.2081
  528TMC3    C8 7900   0.740   3.401   1.118  0.2125  0.1958 -0.3788
  528TMC3    O1 7901   0.256   3.260   1.271  0.2980  0.6651 -0.6938
  528TMC3    O2 7902   0.861   3.406   1.136 -0.2076 -0.3347 -0.1367
  529MPD2     C 7903   3.365   0.963   1.541 -0.3748 -0.1137  0.1662
  529MPD2    C1 7904   3.468   0.934   1.456 -0.7346  0.2891  0.0587
  529MPD2    C2 7905   3.478   0.990   1.340 -0.1628 -0.0198  0.0402
  529MPD2    C3 7906   3.400   1.093   1.292 -0.0039  0.0321 -0.2481
  529MPD2    C4 7907   3.298   1.129   1.372 -0.1911  1.0667  0.1054
  529MPD2    C5 7908   3.278   1.060   1.494 -0.2599  0.0129  0.4269
  529MPD2     H 7909   3.561   0.957   1.279 -2.5266  0.0914 -3.2179
  529MPD2    H1 7910   3.237   1.216   1.347 -2.3203 -0.1324  1.0757
  529MPD2    H2 7911   3.344   0.921   1.638  0.3137 -1.9191 -0.4599
  529MPD2    H3 7912   3.191   1.090   1.551 -0.2069  0.4486  0.2814
  529MPD2     N 7913   3.429   1.142   1.161  0.3064  0.0693 -0.3727
  529MPD2    H5 7914   3.505   1.093   1.115 -1.2338 -2.7310  0.0605
  529MPD2    N1 7915   3.564   0.844   1.497  0.6427 -0.2092  0.1878
  529MPD2    H7 7916   3.621   0.804   1.424  0.1688  1.4983 -1.1410
  530TMC3    C1 7917   3.708   0.731   1.635  0.7063  0.2356  0.1916
  530TMC3    C2 7918   3.795   0.770   1.731 -0.0745 -0.1626  1.1252
  530TMC3    C3 7919   3.911   0.700   1.740  0.0895 -0.2664  0.3000
  530TMC3    C4 7920   3.727   0.628   1.553 -0.0533  0.5501  0.0974
  530TMC3    C5 7921   3.844   0.565   1.568 -0.2172 -0.6970  0.4226
  530TMC3    C6 7922   3.938   0.590   1.665  1.1931  0.4873  0.0018
  530TMC3     C 7923   3.597   0.817   1.629 -0.1856  0.1344  0.0282
  530TMC3     O 7924   3.552   0.872   1.726 -0.2020  0.2665 -0.1252
  530TMC3     H 7925   3.791   0.863   1.786  2.0032  0.9153 -0.5697
  530TMC3    H1 7926   3.644   0.603   1.487  0.8232 -3.8958  0.7033
  530TMC3    H2 7927   4.033   0.538   1.657  0.9678  0.0233  0.3991
  530TMC3    C7 7928   3.858   0.435   1.499  0.1825 -0.1334  0.0074
  530TMC3    C8 7929   4.012   0.750   1.842  0.3593 -0.5810 -0.0318
  530TMC3    O1 7930   3.969   0.390   1.479 -0.0547 -0.2065 -0.1119
  530TMC3    O2 7931   3.975   0.836   1.923  0.4381  0.3447  0.2465
  531MPD2     C 7932   2.454   3.301  13.372  0.5936  0.7903  0.4809
  531MPD2    C1 7933   2.406   3.434  13.390 -0.1391  0.5975  0.7978
  531MPD2    C2 7934   2.342   3.491  13.280  0.5227  0.2197  0.0317
  531MPD2    C3 7935   2.332   3.429  13.158  0.0261  0.4019  0.0295
  531MPD2    C4 7936   2.361   3.295  13.153  0.3482  0.1708  0.2952
  531MPD2    C5 7937   2.419   3.234  13.260 -0.7193 -0.0521  0.5114
  531MPD2     H 7938   2.322   3.597  13.266 -0.4374 -0.2149 -1.8409
  531MPD2    H1 7939   2.350   3.243  13.058  1.0989 -0.1342  0.3765
  531MPD2    H2 7940   2.509   3.240  13.443  0.1015  1.6360  1.5984
  531MPD2    H3 7941   2.444   3.130  13.249 -0.5844 -0.1258  1.5102
  531MPD2     N 7942   2.291   3.512  13.057 -0.1954 -0.5413 -0.0776
  531MPD2    H5 7943   2.255   3.604  13.081 -0.3205 -0.8317  0.8381
  531MPD2    N1 7944   2.427   3.500  13.516  0.0103 -0.0883  0.3942
  531MPD2    H7 7945   2.491   3.456  13.581 -1.5091 -0.1996  1.7998
  532TMC3    C1 7946   2.402   3.680  13.682 -1.1022  0.6114  0.1168
  532TMC3    C2 7947   2.320   3.772  13.737  0.3832 -0.1270 -0.3399
  532TMC3    C3 7948   2.370   3.887  13.780  0.3673  0.4437 -0.3037
  532TMC3    C4 7949   2.535   3.693  13.711  0.8781 -0.2082 -0.3303
  532TMC3    C5 7950   2.585   3.809  13.778  0.5997 -0.7720 -0.2920
  532TMC3    C6 7951   2.496   3.904  13.814 -0.0829 -0.5250 -0.4274
  532TMC3     C 7952   2.356   3.614  13.560 -0.0114  0.3880  0.1450
  532TMC3     O 7953   2.257   3.666  13.507  1.3584  0.3076 -0.0079
  532TMC3     H 7954   2.213   3.773  13.720  0.4158 -0.9570 -0.6112
  532TMC3    H1 7955   2.599   3.641  13.642  0.5693 -0.1062 -0.6912
  532TMC3    H2 7956   2.533   3.993  13.864 -0.3973 -0.2079 -0.7632
  532TMC3    C7 7957   2.716   3.801  13.843 -0.4661  0.2483  0.0062
  532TMC3    C8 7958   2.322   4.004  13.700  0.5396 -0.0978  0.4694
  532TMC3    O1 7959   2.762   3.897  13.901  0.0045 -0.0275  0.2390
  532TMC3    O2 7960   2.352   4.113  13.743 -0.1612  0.1309  0.0937
  533TMC3    C1 7961   3.401   0.390  15.064 -0.4632 -0.7322  0.1840
  533TMC3    C2 7962   3.440   0.471  14.953 -0.6564 -0.5311  0.7961
  533TMC3    C3 7963   3.439   0.603  14.973  0.3930  0.0562  0.4986
  533TMC3    C4 7964   3.341   0.443  15.173 -0.0490 -0.2066  0.4330
  533TMC3    C5 7965   3.325   0.580  15.173  0.1096 -0.2470 -0.2481
  533TMC3    C6 7966   3.374   0.663  15.081 -0.9486 -0.0640 -0.3434
  533TMC3     C 7967   3.364   0.249  15.038  0.8841 -0.2988 -0.0936
  533TMC3     O 7968   3.380   0.163  15.122 -0.0859 -0.2513 -0.9297
  533TMC3     H 7969   3.478   0.419  14.866  0.8400  0.1935  1.0093
  533TMC3    H1 7970   3.312   0.372  15.249 -0.3330  0.6491  1.1155
  533TMC3    H2 7971   3.378   0.770  15.097 -0.2318 -0.3208  1.2199
  533TMC3    C7 7972   3.254   0.645  15.282  0.6332  1.0157  0.0575
  533TMC3    C8 7973   3.524   0.685  14.892 -0.0015 -0.0609 -0.2714
  533TMC3    O1 7974   3.200   0.754  15.260 -0.1304  0.5639 -0.1977
  533TMC3    O2 7975   3.486   0.801  14.882 -0.1256  1.3918  0.7457
  534MPD2     C 7976   4.316   2.032   1.474 -0.2042  0.2172 -0.6035
  534MPD2    C1 7977   4.428   2.078   1.402 -0.1164 -0.0271  0.7551
  534MPD2    C2 7978   4.522   1.986   1.360 -0.4379  0.7312 -0.6652
  534MPD2    C3 7979   4.501   1.847   1.361  0.1392  0.3207  0.4620
  534MPD2    C4 7980   4.398   1.804   1.435 -0.6200 -0.2903  0.1046
  534MPD2    C5 7981   4.308   1.893   1.486 -0.0834  0.4854  0.9337
  534MPD2     H 7982   4.610   2.022   1.308  0.3344 -1.0827 -0.5954
  534MPD2    H1 7983   4.371   1.700   1.444 -1.0993 -0.1686  0.1213
  534MPD2    H2 7984   4.239   2.093   1.520  0.3554  1.3132 -1.1289
  534MPD2    H3 7985   4.224   1.851   1.540 -0.3699  1.1238  0.9801
  534MPD2     N 7986   4.587   1.752   1.300  0.3482 -0.7102  0.0660
  534MPD2    H5 7987   4.578   1.656   1.329  1.5466 -1.4446 -2.0018
  534MPD2    N1 7988   4.459   2.213   1.391  0.1784 -0.2122 -0.0217
  534MPD2    H7 7989   4.554   2.226   1.360  0.7173 -2.2418  0.8224
  535TMC3    C1 7990   0.028   1.689   1.163  0.5858  0.7520 -0.0660
  535TMC3    C2 7991   0.063   1.584   1.247  0.3154  0.3734 -0.3713
  535TMC3    C3 7992   0.161   1.500   1.208  0.3684 -0.5853  0.4871
  535TMC3    C4 7993   0.085   1.709   1.041 -0.1581  0.0649 -0.3032
  535TMC3    C5 7994   0.172   1.609   0.998  0.0434 -0.2209  0.9743
  535TMC3    C6 7995   0.203   1.503   1.077  0.2809  0.4844 -0.2291
  535TMC3     C 7996   4.665   1.791   1.199  0.2215  0.0796 -0.6385
  535TMC3     O 7997   4.685   1.900   1.147 -0.1333  0.1159  0.1410
  535TMC3     H 7998   0.027   1.587   1.349  0.5088  0.0457 -0.2963
  535TMC3    H1 7999   0.055   1.799   0.988 -1.0922  0.8918  1.6382
  535TMC3    H2 8000   0.286   1.441   1.043 -0.9715 -1.8864  1.0468
  535TMC3    C7 8001   0.232   1.617   0.874 -0.0543  0.1160 -0.3827
  535TMC3    C8 8002   0.201   1.388   1.287 -0.0884  0.2856 -0.2889
  535TMC3    O1 8003   0.338   1.564   0.865 -0.5319 -0.7923  0.3621
  535TMC3    O2 8004   0.113   1.337   1.357  0.0912  0.2197 -0.0278
  536MPD2     C 8005   4.729   4.664  16.421  0.1383 -0.3640  0.4276
  536MPD2    C1 8006   4.611   4.602  16.451  0.7007 -0.0791  0.3078
  536MPD2    C2 8007   4.507   4.585  16.358 -0.6365  1.0486  0.7730
  536MPD2    C3 8008   4.514   4.651  16.237  0.2622  0.7068  0.0044
  536MPD2    C4 8009   4.635   4.712  16.206 -0.1248  0.3790 -0.6228
  536MPD2    C5 8010   0.006   4.717  16.293  0.3876 -0.4276  0.6193
  536MPD2     H 8011   4.422   4.523  16.383  0.4298 -0.4460  0.6743
  536MPD2    H1 8012   4.644   0.022  16.107 -0.3473  1.4200 -0.1740
  536MPD2    H2 8013   0.074   4.674  16.493  1.7523  3.5879 -1.9211
  536MPD2    H3 8014   0.099   0.029  16.262  0.1501 -1.4487 -1.6541
  536MPD2     N 8015   4.415   4.635  16.134 -0.1839  0.2070  0.2228
  536MPD2    H5 8016   4.433   4.684  16.047  4.1608  1.3460  1.7845
  536MPD2    N1 8017   4.598   4.534  16.577  0.6411 -0.8024  0.5910
  536MPD2    H7 8018   4.687   4.521  16.626  2.0266  2.5890 -1.0409
  537TMC3    C1 8019   4.492   4.390  16.757 -0.4161  0.0001  0.2896
  537TMC3    C2 8020   4.554   4.432  16.868  0.3944 -0.0746 -0.7652
  537TMC3    C3 8021   4.517   4.379  16.993 -0.0159 -0.1299  1.2566
  537TMC3    C4 8022   4.387   4.304  16.768 -0.6946 -0.2663 -0.1385
  537TMC3    C5 8023   4.355   4.247  16.891 -0.1018  0.4713  1.4539
  537TMC3    C6 8024   4.414   4.291  17.008 -0.0239 -0.3307 -0.0068
  537TMC3     C 8025   4.484   4.469  16.629  0.1914 -0.4982  0.3383
  537TMC3     O 8026   4.373   4.472  16.582 -0.6645  0.6406  1.1017
  537TMC3     H 8027   4.633   4.506  16.869  0.1290  0.2096 -1.0440
  537TMC3    H1 8028   4.348   4.261  16.676  1.1203 -0.6355 -0.7331
  537TMC3    H2 8029   4.370   4.281  17.107 -5.2574 -2.7872 -2.6151
  537TMC3    C7 8030   4.237   4.153  16.895 -0.4355  0.3849 -0.6505
  537TMC3    C8 8031   4.596   4.426  17.107  0.5717 -0.5976 -0.2281
  537TMC3    O1 8032   4.184   4.115  16.791  0.3155  0.1344 -0.5973
  537TMC3    O2 8033   4.633   4.542  17.109 -0.3714 -0.1464  0.0392
  538TMC3    C1 8034   0.945   2.377  10.653 -0.0600 -0.0605 -0.2346
  538TMC3    C2 8035   1.065   2.441  10.641 -0.2411  0.0540 -0.5636
  538TMC3    C3 8036   1.071   2.544  10.547  0.3641 -0.2317 -0.3071
  538TMC3    C4 8037   0.835   2.397  10.579 -0.1091  0.1598  0.0542
  538TMC3    C5 8038   0.850   2.506  10.492  0.1580 -0.6048  0.5914
  538TMC3    C6 8039   0.958   2.583  10.482  0.3489  0.0520 -0.0193
  538TMC3     C 8040   0.928   2.300  10.775 -0.3401  0.3627 -0.0875
  538TMC3     O 8041   0.848   2.209  10.785 -0.1310 -0.3635 -0.1414
  538TMC3     H 8042   1.149   2.423  10.707 -1.1714  1.6250  1.0428
  538TMC3    H1 8043   0.737   2.369  10.616  0.8233 -1.8778  0.9492
  538TMC3    H2 8044   0.964   2.670  10.418 -0.1564  0.9412  1.1629
  538TMC3    C7 8045   0.724   2.574  10.489 -0.1178 -0.0465 -0.4982
  538TMC3    C8 8046   1.205   2.609  10.548 -0.1990 -0.8442  0.3962
  538TMC3    O1 8047   0.626   2.505  10.472 -0.2001  0.5791 -0.2791
  538TMC3    O2 8048   1.283   2.554  10.628 -0.1786  0.0217 -0.2666
  539MPD2     C 8049   4.711   2.284  11.924  0.0526  0.0125 -0.2122
  539MPD2    C1 8050   0.039   2.221  11.812  0.3248 -0.5962  0.4171
  539MPD2    C2 8051   0.090   2.297  11.713  0.1238 -0.5609  0.2629
  539MPD2    C3 8052   0.095   2.438  11.730 -0.2434 -0.0966  0.3984
  539MPD2    C4 8053   0.020   2.495  11.838  0.1897 -0.4708 -0.0396
  539MPD2    C5 8054   4.705   2.415  11.937  0.5056 -0.4396  0.3753
  539MPD2     H 8055   0.127   2.246  11.625  0.3820  1.8214 -1.0038
  539MPD2    H1 8056   0.023   2.603  11.850  1.8449 -0.7834  2.2665
  539MPD2    H2 8057   4.665   2.216  11.995  0.1739 -2.2241 -2.2484
  539MPD2    H3 8058   4.664   2.461  12.026 -1.5167 -0.3687 -0.5891
  539MPD2     N 8059   0.148   2.521  11.631  0.6474  0.2868 -0.3770
  539MPD2    H5 8060   0.143   2.621  11.643 -1.7085  0.0084  0.9187
  539MPD2    N1 8061   0.031   2.078  11.781 -0.0587 -0.0990 -0.0756
  539MPD2    H7 8062   0.063   2.060  11.686  0.0978 -0.3439  0.0221
  540TMC3    C1 8063   0.282   2.587  11.450  0.6989 -0.0592 -0.8579
  540TMC3    C2 8064   0.315   2.554  11.326  0.0884  0.6308 -0.3383
  540TMC3    C3 8065   0.360   2.655  11.241 -0.4505  0.0851  0.3043
  540TMC3    C4 8066   0.276   2.715  11.499 -0.4590  0.5726 -0.0070
  540TMC3    C5 8067   0.315   2.813  11.411  0.3634 -0.4829  0.4172
  540TMC3    C6 8068   0.349   2.785  11.279 -0.5074  0.2879  0.1465
  540TMC3     C 8069   0.231   2.477  11.528 -0.5454  0.2982  0.8366
  540TMC3     O 8070   0.254   2.368  11.488  0.4784  0.3632  0.5258
  540TMC3     H 8071   0.329   2.451  11.293  0.1240  0.4564  0.2251
  540TMC3    H1 8072   0.253   2.738  11.602  5.0608  1.0386  1.1036
  540TMC3    H2 8073   0.366   2.871  11.216  0.7276  0.0173  0.1130
  540TMC3    C7 8074   0.233   2.927  11.445 -0.7470  0.2032 -0.0165
  540TMC3    C8 8075   0.361   2.626  11.096  0.6222 -0.2862 -0.5783
  540TMC3    O1 8076   0.141   2.906  11.523  0.4707  0.3315  0.1578
  540TMC3    O2 8077   0.420   2.712  11.023 -0.2122  0.4666  0.0279
  541MPD2     C 8078   3.413   3.603  13.464 -0.5965  0.3635  0.0164
  541MPD2    C1 8079   3.458   3.512  13.374  0.3034  0.2237 -0.1137
  541MPD2    C2 8080   3.508   3.548  13.254  0.3889 -0.1506 -1.1071
  541MPD2    C3 8081   3.521   3.682  13.215  0.3947 -0.1997  0.1336
  541MPD2    C4 8082   3.482   3.772  13.312 -0.2544 -0.0131 -1.1292
  541MPD2    C5 8083   3.425   3.731  13.428  0.1093  0.8365 -1.1729
  541MPD2     H 8084   3.541   3.470  13.186  2.3519  1.0167 -1.4812
  541MPD2    H1 8085   3.505   3.878  13.299  1.2704 -0.5466 -2.6769
  541MPD2    H2 8086   3.362   3.582  13.557 -2.2301 -0.6937 -1.1180
  541MPD2    H3 8087   3.404   3.812  13.498  1.3078  1.0333 -1.0475
  541MPD2     N 8088   3.569   3.727  13.088 -0.3488 -0.2705 -0.2285
  541MPD2    H5 8089   3.569   3.828  13.078  2.4557 -0.6287 -3.7243
  541MPD2    N1 8090   3.455   3.380  13.418  0.3195 -0.5493 -0.1578
  541MPD2    H7 8091   3.488   3.365  13.513  0.4473 -1.6872 -0.3859
  542TMC3    C1 8092   3.635   3.703  12.864  0.0877 -0.4357 -0.5261
  542TMC3    C2 8093   3.620   3.623  12.755 -0.4800 -0.0377 -0.3741
  542TMC3    C3 8094   3.630   3.686  12.633  0.1004 -0.5800  0.1370
  542TMC3    C4 8095   3.664   3.832  12.855 -0.0319 -0.3481 -0.3921
  542TMC3    C5 8096   3.683   3.882  12.732 -0.4806  0.1814 -0.3481
  542TMC3    C6 8097   3.669   3.814  12.615 -0.5466 -0.0260 -0.1125
  542TMC3     C 8098   3.614   3.639  12.990 -0.6285 -0.0717 -1.0203
  542TMC3     O 8099   3.621   3.517  12.990  0.0773  0.3949  0.5163
  542TMC3     H 8100   3.604   3.517  12.768  0.1192  0.0602  1.2023
  542TMC3    H1 8101   3.681   3.902  12.936  1.1681 -0.8238 -0.2454
  542TMC3    H2 8102   3.668   3.872  12.523  0.3798  1.5145  0.8475
  542TMC3    C7 8103   3.728   4.026  12.718  0.1705  0.0544 -0.3093
  542TMC3    C8 8104   3.613   3.612  12.510  0.0530  0.2213 -0.1300
  542TMC3    O1 8105   3.697   4.107  12.803  0.1929 -0.4782  0.3994
  542TMC3    O2 8106   3.656   3.660  12.406 -0.3010 -0.0224  0.4506
  543TMC3    C1 8107   3.328   0.364  17.657  0.0279  0.1279  0.1747
  543TMC3    C2 8108   3.299   0.231  17.703 -0.8500  0.1107 -0.3072
  543TMC3    C3 8109   3.205   0.209   0.065  0.6269  0.5480 -0.5165
  543TMC3    C4 8110   3.262   0.465  17.725  0.5185 -0.3599  0.2126
  543TMC3    C5 8111   3.172   0.437   0.084 -0.0863  0.3212 -0.3015
  543TMC3    C6 8112   3.139   0.313   0.127 -0.0853  0.0389  0.3436
  543TMC3     C 8113   3.371   0.362  17.516 -0.2012 -0.0046 -0.3804
  543TMC3     O 8114   3.428   0.258  17.475 -0.3094 -0.7227  0.2297
  543TMC3     H 8115   3.327   0.147  17.641  0.1414  2.1254 -2.5575
  543TMC3    H1 8116   3.284   0.564  17.686  0.5655 -0.0692  0.9773
  543TMC3    H2 8117   3.050   0.286   0.184 -0.1266  0.3660  0.4378
  543TMC3    C7 8118   3.105   0.542   0.158  0.1287 -0.4369 -0.2982
  543TMC3    C8 8119   3.174   0.076   0.091  0.1599  0.3730 -0.3307
  543TMC3    O1 8120   3.000   0.508   0.216  0.0225  0.7501  0.0043
  543TMC3    O2 8121   3.165   4.733  17.734 -0.2877 -1.0015  0.3541
  544MPD2     C 8122   3.043   4.457   0.421 -0.3668 -0.2369  0.5100
  544MPD2    C1 8123   3.049   4.447   0.285 -0.0034  0.2268  0.2259
  544MPD2    C2 8124   3.108   4.552   0.216  0.2912 -0.4208  0.5777
  544MPD2    C3 8125   3.138   4.675   0.281  0.1309  0.4147  0.0567
  544MPD2    C4 8126   3.142   4.669   0.416  0.2906  0.6147  0.2901
  544MPD2    C5 8127   3.106   4.556   0.487 -0.1366 -0.6527 -0.1961
  544MPD2     H 8128   3.117   4.544   0.109 -1.8772  0.3224  0.3520
  544MPD2    H1 8129   3.171   0.020   0.477 -0.4131  1.3058 -0.3401
  544MPD2    H2 8130   3.006   4.377   0.484  0.0882 -0.2652  0.7401
  544MPD2    H3 8131   3.102   4.559   0.595  0.7104 -1.1041 -0.1525
  544MPD2     N 8132   3.170   0.062   0.226  0.4242  0.6561  0.2309
  544MPD2    H5 8133   3.203   0.141   0.280 -3.1006  1.2023  1.5357
  544MPD2    N1 8134   2.987   4.331   0.229 -0.2399 -0.0644 -0.0072
  544MPD2    H7 8135   2.956   4.265   0.300 -0.9787 -1.7271 -1.8569
  545TMC3    C1 8136   2.878   4.196   0.062  0.2624 -0.1307  0.5556
  545TMC3    C2 8137   2.762   4.198  17.721 -0.3101  0.2533  0.8215
  545TMC3    C3 8138   2.699   4.081  17.690 -0.3390 -0.4055 -0.3652
  545TMC3    C4 8139   2.927   4.082   0.113 -0.3302  0.1592  0.1219
  545TMC3    C5 8140   2.853   3.964   0.088  0.0390  0.0383 -0.2970
  545TMC3    C6 8141   2.745   3.964   0.009 -0.4186 -0.6095  0.1805
  545TMC3     C 8142   2.943   4.325   0.094 -0.1271  0.2359  0.0208
  545TMC3     O 8143   2.963   4.402   0.004 -0.0276  0.0927 -0.4157
  545TMC3     H 8144   2.735   4.294  17.680  0.3868 -0.7516 -1.9841
  545TMC3    H1 8145   3.012   4.089   0.180 -1.2155  1.8094  1.0768
  545TMC3    H2 8146   2.690   3.870   0.001 -0.3546 -0.5977 -0.3990
  545TMC3    C7 8147   2.888   3.836   0.154  0.0357  0.0539 -0.0830
  545TMC3    C8 8148   2.571   4.074  17.618  0.1626 -0.3898  0.0451
  545TMC3    O1 8149   2.798   3.751   0.162 -0.4279 -0.1609  0.8016
  545TMC3    O2 8150   2.526   3.965  17.592 -0.1481  0.0518 -0.0770
  546MPD2     C 8151   4.700   0.230   0.183 -0.0789  0.6610  0.0256
  546MPD2    C1 8152   4.656   0.256   0.061 -0.0174  0.0174  0.3066
  546MPD2    C2 8153   4.706   0.360  17.726  0.8558  0.5889 -0.3700
  546MPD2    C3 8154   0.056   0.448   0.055 -0.5728 -0.2469  0.0554
  546MPD2    C4 8155   0.083   0.429   0.189  0.3885  0.3279  0.7864
  546MPD2    C5 8156   0.033   0.319   0.255  0.6707  0.3772  1.4042
  546MPD2     H 8157   4.701   0.364  17.617 -0.3132 -2.4338 -0.4172
  546MPD2    H1 8158   0.146   0.499   0.241  0.0849  0.1942  1.3328
  546MPD2    H2 8159   4.665   0.136   0.225  0.4854  1.2998  1.9303
  546MPD2    H3 8160   0.074   0.298   0.353  1.0087  0.5443  1.3011
  546MPD2     N 8161   0.121   0.565  17.735  0.4476  0.8369 -0.1506
  546MPD2    H5 8162   0.180   0.618   0.063  0.8948  0.8517 -0.5795
  546MPD2    N1 8163   4.576   0.154   0.010  0.3451  0.0936 -0.4378
  546MPD2    H7 8164   4.550   0.083   0.078  0.8613 -0.5374 -0.9008
  547TMC3    C1 8165   4.458   0.017  17.592 -0.7356 -0.4436  0.4171
  547TMC3    C2 8166   4.408   4.728  17.465  0.0979 -0.4477  0.5134
  547TMC3    C3 8167   4.338   4.609  17.438  0.1680 -0.6711 -0.3278
  547TMC3    C4 8168   4.444   4.654  17.687  0.5635  0.0792 -0.1062
  547TMC3    C5 8169   4.382   4.536  17.653 -0.4129  0.9259 -0.1960
  547TMC3    C6 8170   4.332   4.509  17.525  0.1274  0.0788  0.9233
  547TMC3     C 8171   4.525   0.148  17.614 -0.0257 -0.0304 -0.2555
  547TMC3     O 8172   4.529   0.235  17.526 -0.1901  0.0166  0.1700
  547TMC3     H 8173   4.401   0.073  17.391 -0.5150 -0.4355  0.5787
  547TMC3    H1 8174   4.475   4.664   0.056 -0.8761  2.4157  0.1005
  547TMC3    H2 8175   4.275   4.418  17.510 -0.7098  1.2298 -2.9268
  547TMC3    C7 8176   4.383   4.441   0.023  0.1103 -0.0670 -0.0878
  547TMC3    C8 8177   4.274   4.594  17.304 -0.3180 -0.2228 -0.8392
  547TMC3    O1 8178   4.387   4.481   0.137 -0.0915  0.2744  0.0202
  547TMC3    O2 8179   4.280   4.695  17.231  0.2383  0.3923 -0.6480
  548MPD2     C 8180   4.383   0.577  13.320 -0.7534  0.5137  0.2848
  548MPD2    C1 8181   4.330   0.465  13.258  0.6321  0.6818  0.8972
  548MPD2    C2 8182   4.423   0.371  13.213  0.0367  0.9893 -0.4810
  548MPD2    C3 8183   4.559   0.390  13.208  0.6893  0.1221 -0.5233
  548MPD2    C4 8184   4.606   0.498  13.274  0.3845 -0.1401  1.1889
  548MPD2    C5 8185   4.514   0.582  13.332  0.6216 -0.2400 -0.0985
  548MPD2     H 8186   4.382   0.291  13.153  0.5363 -0.1537  0.7241
  548MPD2    H1 8187   4.710   0.527  13.280  0.0556  0.9020  1.8244
  548MPD2    H2 8188   4.317   0.644  13.374 -1.7373 -0.7531  0.6461
  548MPD2    H3 8189   4.553   0.659  13.397  0.8516 -1.8455  1.6668
  548MPD2     N 8190   4.645   0.293  13.151  1.4148 -0.5825 -0.7037
  548MPD2    H5 8191   4.608   0.201  13.134 -1.5572  0.6224 -0.7288
  548MPD2    N1 8192   4.190   0.461  13.249 -0.1290 -0.0321 -0.7067
  548MPD2    H7 8193   4.153   0.553  13.274 -1.0234 -0.8571  0.9592
  549TMC3    C1 8194   3.975   0.392  13.202  0.0226  1.0291  0.0708
  549TMC3    C2 8195   3.932   0.517  13.161 -0.2752  0.2439 -0.0759
  549TMC3    C3 8196   3.797   0.531  13.145  0.2064 -0.2655  0.4626
  549TMC3    C4 8197   3.887   0.287  13.226 -0.1501  0.1361  0.3164
  549TMC3    C5 8198   3.751   0.308  13.219  0.4660  0.1746  0.5768
  549TMC3    C6 8199   3.709   0.430  13.172  0.1265 -0.4055  0.1131
  549TMC3     C 8200   4.113   0.358  13.198  0.4756 -0.2688  0.6546
  549TMC3     O 8201   4.147   0.243  13.191  0.1289  0.1359 -0.4897
  549TMC3     H 8202   4.003   0.594  13.132  0.2666 -0.4438 -0.5724
  549TMC3    H1 8203   3.925   0.197  13.271 -0.0909 -1.2713 -2.5424
  549TMC3    H2 8204   3.603   0.450  13.160  0.6277  2.4334  0.3933
  549TMC3    C7 8205   3.659   0.191  13.225  0.1146 -0.1579  0.0834
  549TMC3    C8 8206   3.731   0.651  13.106  0.4018 -0.1263 -0.9660
  549TMC3    O1 8207   3.542   0.209  13.248 -0.7491 -0.4939 -0.3673
  549TMC3    O2 8208   3.610   0.659  13.125  0.2983 -0.1075  0.3339
  550TMC3    C1 8209   2.721   3.121  12.953  0.1308 -0.8132  0.3673
  550TMC3    C2 8210   2.722   3.222  13.039  0.1186 -0.0372 -0.3098
  550TMC3    C3 8211   2.685   3.348  12.990  0.2053 -0.8450 -0.1708
  550TMC3    C4 8212   2.698   3.136  12.819 -0.0143  0.0631  0.1834
  550TMC3    C5 8213   2.670   3.259  12.773  0.2531  0.5079  0.4921
  550TMC3    C6 8214   2.656   3.366  12.853 -0.0745  0.5539  0.0635
  550TMC3     C 8215   2.761   2.984  12.996  0.0674  0.3941 -0.0191
  550TMC3     O 8216   2.743   2.943  13.112 -0.1995  0.2194  0.4711
  550TMC3     H 8217   2.726   3.207  13.146  1.1602  1.5290 -0.1270
  550TMC3    H1 8218   2.703   3.052  12.752 -3.0523  0.5913 -0.6988
  550TMC3    H2 8219   2.631   3.463  12.813 -1.7969  0.5749  1.1646
  550TMC3    C7 8220   2.705   3.305  12.633  0.1318 -0.4827 -0.8704
  550TMC3    C8 8221   2.692   3.463  13.068  0.4563 -0.1555  0.3814
  550TMC3    O1 8222   2.646   3.396  12.582  0.0115  0.0791  0.0707
  550TMC3    O2 8223   2.657   3.566  13.009  0.0117 -0.1853  0.7598
  551TMC3    C1 8224   0.410   1.510  13.374 -0.1555  0.5959  0.9850
  551TMC3    C2 8225   0.515   1.497  13.294  0.1995  0.4368 -0.5048
  551TMC3    C3 8226   0.622   1.572  13.324  0.7378 -0.1440 -0.7565
  551TMC3    C4 8227   0.411   1.579  13.496  0.5218 -0.5450 -0.0244
  551TMC3    C5 8228   0.521   1.648  13.522  0.1216  0.0941 -0.0671
  551TMC3    C6 8229   0.629   1.649  13.438  0.4806 -0.1539 -0.5654
  551TMC3     C 8230   0.299   1.432  13.349 -0.3333 -0.0198 -0.0771
  551TMC3     O 8231   0.318   1.317  13.308  0.2873  1.1476  0.0281
  551TMC3     H 8232   0.501   1.442  13.202  0.9464  1.0216 -0.9617
  551TMC3    H1 8233   0.333   1.571  13.571  1.3100  0.8913  0.9528
  551TMC3    H2 8234   0.717   1.709  13.456  0.8333 -0.2772 -1.8531
  551TMC3    C7 8235   0.547   1.703  13.653  0.8775  0.3189 -0.5229
  551TMC3    C8 8236   0.687   1.622  13.205 -0.2963  0.2229  0.1939
  551TMC3    O1 8237   0.664   1.691  13.696  0.6487  0.2334  0.4159
  551TMC3    O2 8238   0.693   1.544  13.111 -0.3182 -0.0375 -0.4586
  552MPD2     C 8239   2.564   3.410  14.404  0.1462  0.5438  0.1588
  552MPD2    C1 8240   2.596   3.279  14.384 -0.3746 -0.2386 -0.5586
  552MPD2    C2 8241   2.718   3.236  14.438 -0.2153  0.3808 -0.9517
  552MPD2    C3 8242   2.804   3.331  14.496  0.5508  1.2405 -0.8352
  552MPD2    C4 8243   2.779   3.461  14.495  0.1747 -0.2112  0.4395
  552MPD2    C5 8244   2.652   3.510  14.456 -0.0822 -0.1964  0.7443
  552MPD2     H 8245   2.746   3.131  14.441 -1.5859  0.0571  0.4261
  552MPD2    H1 8246   2.855   3.530  14.532  0.2080 -0.7060  1.2936
  552MPD2    H2 8247   2.474   3.452  14.362 -0.0916 -2.1470 -2.0291
  552MPD2    H3 8248   2.639   3.617  14.456 -1.4061 -0.3465 -0.9740
  552MPD2     N 8249   2.924   3.290  14.567 -0.4238 -0.1804 -0.5686
  552MPD2    H5 8250   2.983   3.366  14.599 -0.8702 -0.2991  0.5142
  552MPD2    N1 8251   2.512   3.188  14.310  0.3784 -0.4589 -0.7227
  552MPD2    H7 8252   2.538   3.090  14.306  0.7006 -0.3699 -0.8421
  553TMC3    C1 8253   2.335   3.083  14.216 -0.4183 -0.1523 -0.3056
  553TMC3    C2 8254   2.297   3.099  14.086 -0.4268  0.2971  0.3120
  553TMC3    C3 8255   2.354   3.026  13.988  0.3417  0.1294 -0.0355
  553TMC3    C4 8256   2.411   2.972  14.244 -0.0274 -0.2347 -0.0881
  553TMC3    C5 8257   2.465   2.891  14.147  0.0543 -0.3840 -0.3207
  553TMC3    C6 8258   2.435   2.923  14.020 -0.2208 -0.0200  0.5884
  553TMC3     C 8259   2.384   3.207  14.271 -0.5783 -0.1099  0.2662
  553TMC3     O 8260   2.319   3.309  14.260  0.8007 -0.1568 -0.4830
  553TMC3     H 8261   2.242   3.188  14.058 -2.0237 -0.0075  2.4141
  553TMC3    H1 8262   2.437   2.948  14.346 -1.4832 -1.6503 -0.0570
  553TMC3    H2 8263   2.479   2.868  13.938 -1.1755  0.1058 -0.0028
  553TMC3    C7 8264   2.606   2.885  14.169 -0.0144 -0.4589  0.2170
  553TMC3    C8 8265   2.390   3.099  13.868 -0.0611 -0.6965 -0.4957
  553TMC3    O1 8266   2.639   2.854  14.286 -0.4200  0.2328  0.4488
  553TMC3    O2 8267   2.464   3.191  13.891  0.4373  0.3955  0.1637
  554TMC3    C1 8268   4.003   2.267  11.750  0.5367  0.1434  1.0136
  554TMC3    C2 8269   3.924   2.223  11.643 -0.4602  0.6430  0.4390
  554TMC3    C3 8270   3.979   2.257  11.526 -0.5044  0.1606 -0.6486
  554TMC3    C4 8271   4.116   2.347  11.743  0.1826  0.2534 -0.4440
  554TMC3    C5 8272   4.161   2.381  11.617 -0.0345 -0.3346 -0.2714
  554TMC3    C6 8273   4.099   2.336  11.506 -0.4839  0.3223  0.6088
  554TMC3     C 8274   3.970   2.220  11.881  0.1752  0.3518 -0.0527
  554TMC3     O 8275   3.860   2.171  11.897  0.4413 -0.2159  0.4509
  554TMC3     H 8276   3.836   2.164  11.664  0.7999 -1.3695  0.0862
  554TMC3    H1 8277   4.159   2.391  11.832  0.5266 -1.3895  0.1800
  554TMC3    H2 8278   4.126   2.357  11.403 -2.5255 -0.8387 -0.1663
  554TMC3    C7 8279   4.275   2.469  11.615  1.0316  0.7363  0.7451
  554TMC3    C8 8280   3.905   2.231  11.404 -0.5922 -0.2937  0.9409
  554TMC3    O1 8281   4.316   2.514  11.717  0.6283  0.4762 -0.4364
  554TMC3    O2 8282   3.885   2.324  11.324 -0.2503 -0.0278 -0.0475
  555TMC3    C1 8283   3.492   2.066  15.374 -0.1152 -0.4642 -0.6409
  555TMC3    C2 8284   3.536   2.142  15.481 -0.1956 -0.0486 -0.3562
  555TMC3    C3 8285   3.514   2.089  15.603  0.3079 -0.5667 -0.2468
  555TMC3    C4 8286   3.442   1.938  15.380  0.6881 -0.4530  0.8507
  555TMC3    C5 8287   3.442   1.887  15.505 -0.2311  0.3334 -0.8670
  555TMC3    C6 8288   3.481   1.959  15.617 -0.0055 -0.3802  0.5799
  555TMC3     C 8289   3.473   2.152  15.259  0.0324 -0.2237  0.4107
  555TMC3     O 8290   3.549   2.249  15.252 -0.5967 -0.2080 -0.5133
  555TMC3     H 8291   3.569   2.245  15.470  0.9246 -0.1540  2.0487
  555TMC3    H1 8292   3.405   1.887  15.292 -0.2757  1.6331  0.0456
  555TMC3    H2 8293   3.462   1.921  15.717  1.0238 -0.3023  0.7976
  555TMC3    C7 8294   3.414   1.745  15.521 -0.0093  0.3067  0.3576
  555TMC3    C8 8295   3.549   2.173  15.717 -0.6057 -0.3479  0.2564
  555TMC3    O1 8296   3.365   1.712  15.627 -0.2349  0.6807  0.3738
  555TMC3    O2 8297   3.551   2.291  15.689  0.1779  0.0277 -0.2556
  556MPD2     C 8298   1.800   3.877  10.660  0.4097 -0.0413  1.2133
  556MPD2    C1 8299   1.738   3.765  10.712  0.3373 -1.0038 -0.3299
  556MPD2    C2 8300   1.663   3.682  10.638  0.9469  0.3244 -0.2382
  556MPD2    C3 8301   1.645   3.703  10.505  0.7129  0.2774 -0.1587
  556MPD2    C4 8302   1.719   3.810  10.450  0.1040 -0.6145 -0.0711
  556MPD2    C5 8303   1.790   3.897  10.525 -0.0020 -0.0742  0.2375
  556MPD2     H 8304   1.604   3.601  10.679 -2.8245  2.5847 -1.1925
  556MPD2    H1 8305   1.724   3.826  10.343  2.6287 -0.7086  0.0380
  556MPD2    H2 8306   1.868   3.939  10.717  2.3482 -0.9883 -0.0722
  556MPD2    H3 8307   1.852   3.971  10.475  0.1724 -1.7636 -2.0547
  556MPD2     N 8308   1.567   3.614  10.435 -0.4472  0.5550  0.0945
  556MPD2    H5 8309   1.564   3.520  10.474 -1.6114  0.3272 -0.5356
  556MPD2    N1 8310   1.747   3.736  10.849 -0.3331 -0.6978 -0.1011
  556MPD2    H7 8311   1.722   3.645  10.887 -0.8017 -0.7823 -0.6058
  557TMC3    C1 8312   1.448   3.545  10.233 -0.2109  0.2946 -0.3742
  557TMC3    C2 8313   1.416   3.580  10.103 -0.1280 -0.6253 -0.4260
  557TMC3    C3 8314   1.366   3.477  10.025  0.1019 -0.5900 -0.8286
  557TMC3    C4 8315   1.448   3.416  10.279 -0.6105 -0.7417 -0.0314
  557TMC3    C5 8316   1.398   3.319  10.194  0.4369 -0.2153 -0.0682
  557TMC3    C6 8317   1.355   3.343  10.068  0.5827  0.5378 -0.3440
  557TMC3     C 8318   1.505   3.651  10.317 -0.0271  0.4496  0.0114
  557TMC3     O 8319   1.497   3.761  10.266  0.0684 -1.1507  0.9205
  557TMC3     H 8320   1.427   3.679  10.059  0.0952 -0.2089  0.5785
  557TMC3    H1 8321   1.474   3.393  10.382 -1.1220 -0.1702  0.2259
  557TMC3    H2 8322   1.317   3.261  10.007  0.0518 -0.1293  0.8965
  557TMC3    C7 8323   1.360   3.194  10.255  0.0005  0.4885  0.5031
  557TMC3    C8 8324   1.340   3.518   9.889 -0.6630 -0.5410 -0.4225
  557TMC3    O1 8325   1.256   3.141  10.217 -0.2952  0.3200  0.3532
  557TMC3    O2 8326   1.327   3.638   9.865  0.1241  0.1143 -0.2367
  558TMC3    C1 8327   3.927   1.264  10.654  0.0986  0.4278  0.2559
  558TMC3    C2 8328   3.816   1.209  10.712 -0.1074  0.3786 -0.6410
  558TMC3    C3 8329   3.701   1.265  10.669 -0.0439  0.5377  0.3170
  558TMC3    C4 8330   3.923   1.343  10.546 -0.0489  0.1303 -0.0234
  558TMC3    C5 8331   3.806   1.391  10.496 -0.4644  0.6208 -0.1322
  558TMC3    C6 8332   3.691   1.356  10.560  0.2290  0.3163 -0.2527
  558TMC3     C 8333   4.053   1.196  10.673 -0.6490 -0.1817  0.2563
  558TMC3     O 8334   4.157   1.258  10.657 -1.0145  0.0989 -0.0349
  558TMC3     H 8335   3.819   1.143  10.798 -0.5023 -0.4721 -1.2854
  558TMC3    H1 8336   4.019   1.367  10.502 -0.3424  0.5132 -0.4527
  558TMC3    H2 8337   3.593   1.393  10.532 -0.2163 -0.6973 -0.0387
  558TMC3    C7 8338   3.798   1.451  10.365  0.3334  0.8057 -0.4157
  558TMC3    C8 8339   3.574   1.217  10.712  0.3024  0.4792 -0.0522
  558TMC3    O1 8340   3.899   1.470  10.301 -0.7349  0.1760 -0.5617
  558TMC3    O2 8341   3.485   1.213  10.630  0.0168  0.3637 -0.4792
  559MPD2     C 8342   3.789   1.780  10.511  0.5301  0.0955 -0.0234
  559MPD2    C1 8343   3.715   1.727  10.614  0.0312 -0.4123 -0.7567
  559MPD2    C2 8344   3.777   1.724  10.737  0.0220 -0.3818 -0.4575
  559MPD2    C3 8345   3.903   1.773  10.764  0.6490 -1.0531 -0.9727
  559MPD2    C4 8346   3.975   1.821  10.652 -0.9638 -0.1163 -0.4522
  559MPD2    C5 8347   3.921   1.807  10.528  0.1482  0.1635 -0.3139
  559MPD2     H 8348   3.719   1.693  10.823  0.8731 -0.5825  0.0454
  559MPD2    H1 8349   4.074   1.865  10.658 -1.1448  0.1437  0.7422
  559MPD2    H2 8350   3.753   1.761  10.411  0.7911 -1.0947  0.1128
  559MPD2    H3 8351   3.978   1.842  10.443  1.6566  0.9475  1.0425
  559MPD2     N 8352   3.954   1.782  10.898 -0.2704  0.0194 -0.2468
  559MPD2    H5 8353   3.893   1.732  10.962  0.6841  1.4632  1.8044
  559MPD2    N1 8354   3.582   1.682  10.603 -0.4898  0.1959  0.0098
  559MPD2    H7 8355   3.530   1.699  10.517  0.2464 -0.2540 -0.5246
  560TMC3    C1 8356   4.093   1.830  11.080  0.1200 -0.4065 -0.4181
  560TMC3    C2 8357   4.023   1.747  11.157 -0.1718  0.1218 -0.6576
  560TMC3    C3 8358   4.041   1.761  11.296  0.6541 -0.4978  0.0944
  560TMC3    C4 8359   4.180   1.922  11.132  0.0859  0.4447  0.7841
  560TMC3    C5 8360   4.196   1.930  11.268  0.4281  0.6675 -0.1380
  560TMC3    C6 8361   4.125   1.851  11.358 -0.0986  0.3870 -0.3396
  560TMC3     C 8362   4.067   1.848  10.938  0.5814 -0.0441 -0.2159
  560TMC3     O 8363   4.137   1.916  10.867 -0.0541  0.4100  0.0553
  560TMC3     H 8364   3.968   1.660  11.123  1.4566 -1.6147  1.1581
  560TMC3    H1 8365   4.217   2.009  11.079 -0.3018 -0.1006 -0.3741
  560TMC3    H2 8366   4.144   1.855  11.464 -0.3907  0.0666 -0.2747
  560TMC3    C7 8367   4.275   2.035  11.323  0.3803  0.0719 -0.1131
  560TMC3    C8 8368   3.966   1.662  11.369 -0.0889  0.1560 -0.1044
  560TMC3    O1 8369   4.264   2.052  11.447  0.2464  0.0903  0.1746
  560TMC3    O2 8370   3.867   1.604  11.324  0.0045  0.2046  0.8241
  561TMC3    C1 8371   1.737   0.869  11.786  0.2607  0.0204 -0.3870
  561TMC3    C2 8372   1.678   0.861  11.905  0.4184  0.7073  0.4626
  561TMC3    C3 8373   1.602   0.963  11.950  0.1829  0.0005 -0.2654
  561TMC3    C4 8374   1.723   0.972  11.704  0.4075 -0.0603 -0.7802
  561TMC3    C5 8375   1.657   1.077  11.752  0.0152  0.0610  0.4179
  561TMC3    C6 8376   1.592   1.074  11.872  0.2380  0.0701  0.0546
  561TMC3     C 8377   1.825   0.762  11.753 -0.0559 -0.6834  0.1616
  561TMC3     O 8378   1.779   0.652  11.783 -0.7866  0.3121  0.3186
  561TMC3     H 8379   1.689   0.765  11.955  0.0187  0.9443  1.0125
  561TMC3    H1 8380   1.783   0.972  11.614  1.9782  3.0383  0.2696
  561TMC3    H2 8381   1.556   1.168  11.912  0.3786 -0.6189  1.7888
  561TMC3    C7 8382   1.687   1.210  11.706 -0.9387  0.4565  0.0177
  561TMC3    C8 8383   1.546   0.964  12.081 -0.5701  0.0130 -0.6577
  561TMC3    O1 8384   1.632   1.309  11.758 -0.3571 -0.4250 -0.0742
  561TMC3    O2 8385   1.615   0.915  12.168  0.2070 -0.4237  0.3064
  562TMC3    C1 8386   3.293   2.095  16.646 -0.4158  0.4507  0.1682
  562TMC3    C2 8387   3.302   2.213  16.583  0.1661 -0.2151 -0.1941
  562TMC3    C3 8388   3.274   2.205  16.449 -0.3362 -0.0523 -0.7869
  562TMC3    C4 8389   3.259   1.976  16.590  0.1723 -0.5082  0.3255
  562TMC3    C5 8390   3.222   1.973  16.462 -0.3786  0.5343 -0.1384
  562TMC3    C6 8391   3.239   2.090  16.387 -0.6357 -0.1788  0.0959
  562TMC3     C 8392   3.301   2.093  16.792 -0.1542 -0.0732 -0.1182
  562TMC3     O 8393   3.350   1.994  16.843 -0.1230 -0.0318  0.1562
  562TMC3     H 8394   3.360   2.295  16.625  0.3236 -1.2266  1.5518
  562TMC3    H1 8395   3.266   1.884  16.648  2.5628 -1.5343 -1.5691
  562TMC3    H2 8396   3.200   2.094  16.285 -0.0462 -1.0609 -0.1606
  562TMC3    C7 8397   3.180   1.855  16.390  0.8740 -0.2141 -0.0101
  562TMC3    C8 8398   3.251   2.336  16.376 -0.0685 -0.7513 -0.3194
  562TMC3    O1 8399   3.146   1.878  16.275 -0.5132  0.3770 -0.8471
  562TMC3    O2 8400   3.239   2.432  16.456 -0.2527 -0.4062 -0.7892
  563MPD2     C 8401   0.814   3.559  15.749  0.2039 -0.3627  0.5367
  563MPD2    C1 8402   0.889   3.590  15.867  0.0944  0.6740 -0.1535
  563MPD2    C2 8403   1.016   3.537  15.880  0.3553  0.0295  0.7336
  563MPD2    C3 8404   1.070   3.460  15.782  0.0723  0.3168 -0.1120
  563MPD2    C4 8405   0.992   3.415  15.681  0.7256  0.4214  0.7551
  563MPD2    C5 8406   0.870   3.471  15.658  0.7428 -0.7825  1.1020
  563MPD2     H 8407   1.071   3.551  15.972  0.9761  0.7296  0.2562
  563MPD2    H1 8408   1.033   3.351  15.604 -0.8052  0.7212 -0.3130
  563MPD2    H2 8409   0.719   3.607  15.728  0.2575 -0.4171  0.1753
  563MPD2    H3 8410   0.808   3.437  15.576  1.3545  2.0379 -0.5182
  563MPD2     N 8411   1.201   3.416  15.807 -0.4641 -0.7168 -0.1390
  563MPD2    H5 8412   1.242   3.465  15.886 -1.2576 -1.2649  0.6128
  563MPD2    N1 8413   0.843   3.683  15.966 -0.4405 -0.1193 -1.2809
  563MPD2    H7 8414   0.913   3.714  16.032 -1.5047  0.1842 -0.3028
  564TMC3    C1 8415   0.692   3.830  16.067  0.1435  0.1750 -0.5264
  564TMC3    C2 8416   0.564   3.828  16.112 -0.6768  1.2214 -1.0859
  564TMC3    C3 8417   0.546   3.877  16.240 -0.1488 -0.3577 -0.3785
  564TMC3    C4 8418   0.798   3.865  16.146  0.0239  0.3770  0.1355
  564TMC3    C5 8419   0.777   3.916  16.272  0.4316  0.1387  0.2291
  564TMC3    C6 8420   0.646   3.932  16.315  0.5270 -0.1888  0.0333
  564TMC3     C 8421   0.719   3.749  15.955  0.3853 -0.1171  0.2489
  564TMC3     O 8422   0.619   3.728  15.886  0.3187  0.2120 -0.2051
  564TMC3     H 8423   0.473   3.795  16.063 -1.7914  1.5498  0.7587
  564TMC3    H1 8424   0.900   3.858  16.110  0.0334 -0.0936  0.2540
  564TMC3    H2 8425   0.622   3.963  16.417  1.8715  0.7795  0.0577
  564TMC3    C7 8426   0.860   3.858  16.369  0.6000  0.0624 -0.4213
  564TMC3    C8 8427   0.463   3.790  16.325  0.1183  0.1006 -0.3795
  564TMC3    O1 8428   0.975   3.835  16.327 -0.1718  0.0507 -0.0919
  564TMC3    O2 8429   0.448   3.815  16.447 -0.2849  0.8590  0.3982
  565TMC3    C1 8430   1.196   0.333  10.458  0.1204  0.0976 -0.1956
  565TMC3    C2 8431   1.159   0.202  10.451  0.0831 -0.4736  0.7334
  565TMC3    C3 8432   1.157   0.129  10.573  0.2492  0.3610 -0.7197
  565TMC3    C4 8433   1.197   0.399  10.576  0.0318  0.1760  0.2493
  565TMC3    C5 8434   1.176   0.326  10.690  0.5111 -1.0843 -0.0080
  565TMC3    C6 8435   1.166   0.192  10.694 -0.1484 -0.4592 -0.2507
  565TMC3     C 8436   1.244   0.403  10.341  0.0171  0.0009  0.0960
  565TMC3     O 8437   1.318   0.501  10.363 -0.2879 -0.1169 -0.2968
  565TMC3     H 8438   1.121   0.155  10.362 -0.2246  0.0777  0.5691
  565TMC3    H1 8439   1.212   0.506  10.584  0.9547  0.0422  0.3082
  565TMC3    H2 8440   1.121   0.140  10.778  0.2452  0.9786  0.8549
  565TMC3    C7 8441   1.176   0.402  10.818  0.4364 -0.3896 -0.5079
  565TMC3    C8 8442   1.174   4.725  10.569  0.0923  0.4605 -0.6880
  565TMC3    O1 8443   1.146   0.521  10.815 -0.1888 -0.4213 -0.9956
  565TMC3    O2 8444   1.219   4.697  10.681 -0.3963 -0.2644  0.2611
  566MPD2     C 8445   2.772   1.136  14.526 -1.0229  0.2543 -0.3798
  566MPD2    C1 8446   2.767   1.254  14.458  0.0733 -0.3634  0.3969
  566MPD2    C2 8447   2.652   1.287  14.383 -0.2454  0.3391 -0.3919
  566MPD2    C3 8448   2.553   1.200  14.372  0.6320 -0.2238  0.3666
  566MPD2    C4 8449   2.555   1.079  14.439 -0.0140  0.5614  0.0879
  566MPD2    C5 8450   2.665   1.053  14.520  0.2688  0.1594  0.3875
  566MPD2     H 8451   2.636   1.386  14.342 -1.2861  2.0621  4.2063
  566MPD2    H1 8452   2.477   1.007  14.421 -0.0077  0.3935  0.7123
  566MPD2    H2 8453   2.854   1.106  14.590 -0.8130  1.8307  0.0808
  566MPD2    H3 8454   2.683   0.953  14.557 -2.0242 -0.0806  0.8485
  566MPD2     N 8455   2.452   1.214  14.275 -0.2285 -0.1769 -0.2170
  566MPD2    H5 8456   2.369   1.159  14.289 -1.7149  1.3773 -2.9465
  566MPD2    N1 8457   2.886   1.339  14.456 -0.5688  0.1064 -0.3411
  566MPD2    H7 8458   2.950   1.317  14.532 -3.4429 -0.6299  1.8617
  567TMC3    C1 8459   3.030   1.526  14.402 -0.9142 -0.1778 -0.1268
  567TMC3    C2 8460   3.070   1.617  14.309 -0.4535  0.3335 -0.4317
  567TMC3    C3 8461   3.170   1.702  14.331  0.1766 -0.4528 -0.4834
  567TMC3    C4 8462   3.088   1.533  14.525 -0.0480 -0.0791  0.2189
  567TMC3    C5 8463   3.190   1.626  14.550 -0.2361 -0.1634  0.0465
  567TMC3    C6 8464   3.240   1.709  14.450  0.0023 -0.3928  0.3667
  567TMC3     C 8465   2.907   1.446  14.370  0.1742  0.6839  0.1738
  567TMC3     O 8466   2.847   1.481  14.270  0.1663  0.0996  0.6233
  567TMC3     H 8467   3.028   1.617  14.209  1.5381  2.2161 -1.2640
  567TMC3    H1 8468   3.041   1.470  14.599 -0.5558 -0.1624 -0.1749
  567TMC3    H2 8469   3.304   1.788  14.488  0.1421 -0.1239 -0.4196
  567TMC3    C7 8470   3.227   1.655  14.688  0.0737  0.0557 -0.0843
  567TMC3    C8 8471   3.181   1.793  14.226 -0.6366  0.5197 -0.5239
  567TMC3    O1 8472   3.341   1.695  14.704 -0.2690 -0.0724 -0.1054
  567TMC3    O2 8473   3.076   1.834  14.175 -0.1936 -0.3300  0.3926
  568MPD2     C 8474   0.872   2.725  16.995 -0.3774 -0.3899  0.3491
  568MPD2    C1 8475   0.767   2.711  17.083  0.8157  0.4111  0.2894
  568MPD2    C2 8476   0.683   2.824  17.080 -0.3428 -0.4185 -0.1663
  568MPD2    C3 8477   0.690   2.930  16.988  0.0277 -0.2306  0.2814
  568MPD2    C4 8478   0.799   2.931  16.898  0.7312 -0.0446 -0.5577
  568MPD2    C5 8479   0.893   2.834  16.920 -0.3668 -0.5549  0.0528
  568MPD2     H 8480   0.594   2.826  17.142 -0.9144 -1.9292 -0.9309
  568MPD2    H1 8481   0.814   3.007  16.823 -0.5095 -1.0827 -1.8598
  568MPD2    H2 8482   0.954   2.654  17.003  1.3470  1.6654  0.7238
  568MPD2    H3 8483   0.981   2.838  16.857 -1.3904  1.4930 -1.2774
  568MPD2     N 8484   0.599   3.039  16.996  0.1029  0.5551 -0.1193
  568MPD2    H5 8485   0.512   3.031  17.049  1.0603 -1.8094  1.1251
  568MPD2    N1 8486   0.761   2.598  17.171  0.5311  0.4572 -0.5232
  568MPD2    H7 8487   0.831   2.525  17.163  0.9237  0.9079 -1.1514
  569TMC3    C1 8488   0.515   3.252  16.960  0.5260  0.1274 -0.3060
  569TMC3    C2 8489   0.554   3.384  16.974  0.2858  0.2338  0.3714
  569TMC3    C3 8490   0.463   3.475  16.940  0.5747 -0.5829 -0.4276
  569TMC3    C4 8491   0.395   3.211  16.914 -0.0432 -0.3480  0.5454
  569TMC3    C5 8492   0.314   3.312  16.879 -0.6059  0.9157  0.0160
  569TMC3    C6 8493   0.332   3.437  16.919 -0.2050 -0.3317  0.0165
  569TMC3     C 8494   0.632   3.162  16.945  0.3392  0.0694  0.0012
  569TMC3     O 8495   0.745   3.204  16.926 -0.4892 -0.4564  0.2050
  569TMC3     H 8496   0.660   3.407  16.974  0.8541 -2.2308 -2.2775
  569TMC3    H1 8497   0.369   3.109  16.891  1.3885 -0.8031  0.9757
  569TMC3    H2 8498   0.257   3.514  16.903 -2.0787 -2.5978 -2.2233
  569TMC3    C7 8499   0.277   3.284  16.736  0.9802 -0.5498  0.7239
  569TMC3    C8 8500   0.497   3.600  16.876 -0.4806  0.7094  0.3019
  569TMC3    O1 8501   0.269   3.173  16.700 -0.3167 -0.0320 -0.3049
  569TMC3    O2 8502   0.412   3.645  16.804  0.6456  0.2291  0.6599
  570TMC3    C1 8503   4.503   1.056  16.579 -0.7939 -0.2799 -0.0603
  570TMC3    C2 8504   4.555   1.121  16.472  0.9462 -0.1819  0.6738
  570TMC3    C3 8505   4.609   1.241  16.491  0.2192 -0.2274  0.9158
  570TMC3    C4 8506   4.488   1.113  16.704 -0.4662 -0.1838  0.5112
  570TMC3    C5 8507   4.533   1.240  16.716 -0.2713  0.6300  0.3187
  570TMC3    C6 8508   4.591   1.297  16.612 -0.3418  0.9859 -0.5683
  570TMC3     C 8509   4.423   0.940  16.554 -0.4008 -0.7132 -0.2704
  570TMC3     O 8510   4.372   0.932  16.441  0.1188  0.4047 -1.0519
  570TMC3     H 8511   4.567   1.068  16.378 -2.5522 -0.1508  0.2151
  570TMC3    H1 8512   4.473   1.056  16.795  2.1960 -2.2939 -0.3836
  570TMC3    H2 8513   4.651   1.386  16.625  0.0367  0.6331  0.1084
  570TMC3    C7 8514   4.516   1.312  16.840  0.4374 -0.6215 -0.1192
  570TMC3    C8 8515   4.679   1.313  16.387  0.1804  0.5034  0.5761
  570TMC3    O1 8516   4.482   1.246  16.939  0.0385 -0.3297  0.6418
  570TMC3    O2 8517   4.729   1.422  16.415 -0.2657 -0.8580 -0.6407
  571MPD2     C 8518   2.108   2.797   0.944 -0.6601  0.6584 -0.0643
  571MPD2    C1 8519   2.244   2.783   0.949 -0.3179  0.0639 -0.2931
  571MPD2    C2 8520   2.324   2.895   0.992 -0.5325  0.2110 -0.0370
  571MPD2    C3 8521   2.263   3.012   1.004 -0.9346 -0.5045 -0.4065
  571MPD2    C4 8522   2.127   3.028   0.989  0.4292 -0.3952  0.2226
  571MPD2    C5 8523   2.048   2.918   0.959  0.5602  0.1824 -0.0419
  571MPD2     H 8524   2.428   2.878   1.015 -0.6220 -1.3494 -0.7799
  571MPD2    H1 8525   2.073   3.119   1.011  2.9734  0.4902  2.7817
  571MPD2    H2 8526   2.042   2.712   0.932  1.1234 -0.7393 -0.0584
  571MPD2    H3 8527   1.940   2.918   0.955  0.6105 -0.0717 -1.7220
  571MPD2     N 8528   2.335   3.130   1.049 -0.2711  0.1414  0.2403
  571MPD2    H5 8529   2.280   3.210   1.077 -0.8425  0.1494 -0.9085
  571MPD2    N1 8530   2.290   2.657   0.922 -0.0556 -0.0361 -0.4688
  571MPD2    H7 8531   2.221   2.584   0.912 -0.6845  0.4799  0.0437
  572TMC3    C1 8532   2.501   3.287   1.066  0.0693  0.1078  0.0960
  572TMC3    C2 8533   2.422   3.363   1.146 -0.6890 -0.1336 -0.1523
  572TMC3    C3 8534   2.445   3.497   1.152  0.3017 -0.6130 -0.3857
  572TMC3    C4 8535   2.607   3.342   0.994 -0.9244 -0.1304 -0.6407
  572TMC3    C5 8536   2.627   3.475   1.012  0.0199  0.4545 -0.4554
  572TMC3    C6 8537   2.546   3.556   1.082  0.1779  0.6483  0.1677
  572TMC3     C 8538   2.467   3.152   1.032  0.1551  0.2481 -0.4141
  572TMC3     O 8539   2.547   3.084   0.970  0.5831 -0.1072 -0.2588
  572TMC3     H 8540   2.368   3.321   1.229 -3.4990  1.5747 -1.1111
  572TMC3    H1 8541   2.667   3.277   0.931 -0.2924 -0.5142  0.3540
  572TMC3    H2 8542   2.561   3.663   1.083  4.4189  0.0162  2.3558
  572TMC3    C7 8543   2.711   3.530   0.902 -0.6863 -0.6005  0.5213
  572TMC3    C8 8544   2.396   3.575   1.263 -0.8953 -0.2400 -1.0840
  572TMC3    O1 8545   2.822   3.476   0.887  0.5622 -0.4366  0.0221
  572TMC3    O2 8546   2.447   3.681   1.286  0.5972  0.3266 -0.2049
  573MPD2     C 8547   4.017   3.851   1.238  0.1131 -0.2618  0.3923
  573MPD2    C1 8548   3.899   3.781   1.217  0.4326  0.0590  0.0559
  573MPD2    C2 8549   3.856   3.769   1.086  0.3551  0.4704  0.9122
  573MPD2    C3 8550   3.933   3.810   0.976  0.5135 -0.0313  0.5931
  573MPD2    C4 8551   4.049   3.879   1.004  0.1657 -0.3232  0.3570
  573MPD2    C5 8552   4.087   3.903   1.135 -0.0185 -0.6301  0.4630
  573MPD2     H 8553   3.763   3.714   1.073  0.6657  0.2696 -0.4518
  573MPD2    H1 8554   4.107   3.909   0.918 -0.1512  2.6566  1.1905
  573MPD2    H2 8555   4.057   3.858   1.339  0.7772 -0.2099  0.1237
  573MPD2    H3 8556   4.178   3.961   1.147 -0.8188  0.7487 -0.0783
  573MPD2     N 8557   3.911   3.781   0.839 -0.1549  0.1187 -0.2135
  573MPD2    H5 8558   3.977   3.811   0.767  0.8627 -2.0138 -0.1794
  573MPD2    N1 8559   3.843   3.733   1.334 -0.2786  0.2879 -0.4623
  573MPD2    H7 8560   3.892   3.753   1.421 -1.0708 -2.6542  0.6426
  574TMC3    C1 8561   3.763   3.734   0.653  0.1429  0.4342 -0.8360
  574TMC3    C2 8562   3.656   3.665   0.608  0.0485  0.5253  0.1042
  574TMC3    C3 8563   3.625   3.663   0.478  0.1102  0.7001  0.4875
  574TMC3    C4 8564   3.841   3.802   0.567  0.1293  0.4005  0.1237
  574TMC3    C5 8565   3.811   3.793   0.434 -0.5452 -0.0741 -0.1916
  574TMC3    C6 8566   3.705   3.725   0.390 -0.5978 -0.5639 -0.4754
  574TMC3     C 8567   3.793   3.720   0.792 -0.3928  0.7326  0.8179
  574TMC3     O 8568   3.724   3.640   0.857  0.0923 -0.7390  0.5221
  574TMC3     H 8569   3.600   3.595   0.669  1.3211 -0.8318 -0.2713
  574TMC3    H1 8570   3.931   3.860   0.588  0.0925 -0.4198  2.6372
  574TMC3    H2 8571   3.676   3.732   0.286  0.1131 -0.7730 -0.6872
  574TMC3    C7 8572   3.884   3.880   0.340 -0.1481 -0.1518 -0.6701
  574TMC3    C8 8573   3.499   3.603   0.446  0.4712 -0.5214  0.0479
  574TMC3    O1 8574   3.994   3.918   0.385 -0.1069  0.4061  0.2041
  574TMC3    O2 8575   3.457   3.508   0.513  0.3700 -0.1619  0.2432
  575TMC3    C1 8576   1.403   4.035  11.021  1.0204  0.4036 -0.0719
  575TMC3    C2 8577   1.418   3.908  10.965 -0.2821  0.4791 -0.5209
  575TMC3    C3 8578   1.376   3.892  10.833  0.4997 -0.7415  1.0893
  575TMC3    C4 8579   1.380   4.144  10.949  0.1745  0.2978 -0.1851
  575TMC3    C5 8580   1.339   4.123  10.818 -0.3027 -0.4915 -0.6288
  575TMC3    C6 8581   1.336   3.996  10.759  0.0704  0.0319 -0.0793
  575TMC3     C 8582   1.419   4.039  11.162  0.0902  0.2959 -0.2710
  575TMC3     O 8583   1.489   3.949  11.205 -0.0083  0.3923  0.1433
  575TMC3     H 8584   1.429   3.822  11.029 -1.2707  0.3786 -0.4811
  575TMC3    H1 8585   1.370   4.243  10.990 -1.1751  0.0121  0.1865
  575TMC3    H2 8586   1.296   3.976  10.660 -0.7727  1.3832 -0.0136
  575TMC3    C7 8587   1.288   4.233  10.744 -0.0652  0.2638  0.2395
  575TMC3    C8 8588   1.348   3.749  10.804  0.1699  0.8035  0.8763
  575TMC3    O1 8589   1.276   4.341  10.802 -0.5179  0.2385  0.6435
  575TMC3    O2 8590   1.402   3.668  10.872 -0.3448 -0.2508  0.0008
  576MPD2     C 8591   0.393   1.325  12.742 -0.8417 -0.4497  0.0267
  576MPD2    C1 8592   0.477   1.426  12.701  0.3069  1.1945  0.8594
  576MPD2    C2 8593   0.483   1.540  12.786 -0.7073 -0.0804  0.1244
  576MPD2    C3 8594   0.418   1.555  12.904 -0.4203  0.4051  0.8452
  576MPD2    C4 8595   0.330   1.451  12.939 -0.1437  0.0659 -0.4007
  576MPD2    C5 8596   0.317   1.339  12.852  0.0908 -0.3081  0.1333
  576MPD2     H 8597   0.553   1.612  12.745 -1.9465 -0.2650 -2.3641
  576MPD2    H1 8598   0.281   1.454  13.036  3.1494  0.6145  1.2239
  576MPD2    H2 8599   0.366   1.239  12.682 -0.8523  1.5359 -2.8275
  576MPD2    H3 8600   0.252   1.257  12.881 -0.3315 -0.3284 -0.8784
  576MPD2     N 8601   0.423   1.684  12.966  0.0563 -0.1183  0.4076
  576MPD2    H5 8602   0.483   1.751  12.918  0.4669 -0.1696  0.8517
  576MPD2    N1 8603   0.571   1.422  12.592  0.0752  0.1184  0.2087
  576MPD2    H7 8604   0.644   1.492  12.583  0.8219 -0.7091 -0.1464
  577TMC3    C1 8605   0.653   1.364  12.388  0.4747 -0.2289  0.0249
  577TMC3    C2 8606   0.783   1.384  12.433 -0.0242  0.3053 -0.0270
  577TMC3    C3 8607   0.880   1.385  12.336 -0.0131  0.1333 -0.0941
  577TMC3    C4 8608   0.617   1.371  12.254 -0.0725 -0.4756 -0.5110
  577TMC3    C5 8609   0.723   1.386  12.167 -0.3254 -0.2938 -0.0387
  577TMC3    C6 8610   0.852   1.388  12.202  0.5308  0.8684  0.1435
  577TMC3     C 8611   0.549   1.346  12.481 -0.1042 -0.6303 -0.4292
  577TMC3     O 8612   0.455   1.278  12.443  0.7210 -0.1092 -0.9803
  577TMC3     H 8613   0.812   1.378  12.537 -0.8522  0.1386  0.1891
  577TMC3    H1 8614   0.512   1.371  12.228  0.0355  1.3556 -1.0040
  577TMC3    H2 8615   0.929   1.408  12.129 -0.3546  1.3218 -0.6605
  577TMC3    C7 8616   0.698   1.370  12.025  0.1581  0.1418 -0.5675
  577TMC3    C8 8617   1.015   1.359  12.379  0.0128  0.2546  0.8414
  577TMC3    O1 8618   0.795   1.340  11.956  0.3045 -0.5731 -0.6841
  577TMC3    O2 8619   1.047   1.390  12.495  0.0888  0.6079  0.0876
  578MPD2     C 8620   4.280   1.148   1.807  0.6679  0.7039 -0.0786
  578MPD2    C1 8621   4.254   1.038   1.729 -0.1718 -0.6296 -0.1368
  578MPD2    C2 8622   4.347   0.948   1.705  0.2349 -0.6035  0.0050
  578MPD2    C3 8623   4.470   0.953   1.770  0.1860 -0.2548  0.6033
  578MPD2    C4 8624   4.497   1.065   1.849 -0.0851 -0.1745  0.4243
  578MPD2    C5 8625   4.404   1.161   1.873  0.3215 -0.2346  0.8456
  578MPD2     H 8626   4.331   0.872   1.629 -1.8838  1.4390 -1.5725
  578MPD2    H1 8627   4.590   1.082   1.903 -1.3173  0.5536  2.3197
  578MPD2    H2 8628   4.202   1.222   1.823 -0.3662 -0.2601 -0.6386
  578MPD2    H3 8629   4.431   1.249   1.930  0.4287  0.8073 -0.8104
  578MPD2     N 8630   4.575   0.861   1.746  0.2596  0.2351 -0.6741
  578MPD2    H5 8631   4.553   0.794   1.674  3.3591 -1.2117 -0.3109
  578MPD2    N1 8632   4.122   1.039   1.667 -0.1287 -0.3441  0.4179
  578MPD2    H7 8633   4.059   1.112   1.698  1.3350  1.6737 -1.3512
  579TMC3    C1 8634   0.048   0.758   1.718  0.5088  0.3978 -0.2043
  579TMC3    C2 8635   0.176   0.789   1.694  0.8489  0.0638 -0.6299
  579TMC3    C3 8636   0.248   0.721   1.599  0.0001  0.0970 -0.4585
  579TMC3    C4 8637   4.727   0.640   1.663 -1.1876  0.3029  0.5083
  579TMC3    C5 8638   0.077   0.572   1.581  0.1958 -0.4309 -0.2519
  579TMC3    C6 8639   0.201   0.605   1.543 -0.1097  0.1892 -0.6960
  579TMC3     C 8640   4.701   0.851   1.798  0.3816  0.0184  0.5310
  579TMC3     O 8641   0.029   0.929   1.870  0.2244  0.6277  0.4193
  579TMC3     H 8642   0.217   0.874   1.748 -2.2471  0.9967  0.2563
  579TMC3    H1 8643   4.636   0.596   1.702 -1.3150 -0.3694 -0.5731
  579TMC3    H2 8644   0.255   0.556   1.463  0.5595  0.3540 -0.3505
  579TMC3    C7 8645   0.029   0.463   1.502  0.1404 -0.0322  0.0961
  579TMC3    C8 8646   0.360   0.789   1.531  0.2732  0.2027 -0.6169
  579TMC3    O1 8647   0.118   0.384   1.474 -0.2355 -0.0475 -1.1415
  579TMC3    O2 8648   0.439   0.717   1.475 -0.2959  0.7811 -0.3686
  580TMC3    C1 8649   4.335   0.493  12.658 -1.2163  0.4926  0.2456
  580TMC3    C2 8650   4.443   0.553  12.603 -0.5251 -0.3456  0.1644
  580TMC3    C3 8651   4.562   0.488  12.605 -0.1809 -0.3587  0.0052
  580TMC3    C4 8652   4.345   0.382  12.735  0.0285  0.6419 -0.1517
  580TMC3    C5 8653   4.462   0.319  12.746 -0.2894  0.0088  0.1235
  580TMC3    C6 8654   4.574   0.369  12.672  0.5216  0.3714  0.3774
  580TMC3     C 8655   4.210   0.520  12.594  0.7439 -0.2024  0.3195
  580TMC3     O 8656   4.199   0.527  12.472  0.1873 -0.1802  0.0841
  580TMC3     H 8657   4.424   0.628  12.528  0.2448 -0.2571  0.0609
  580TMC3    H1 8658   4.257   0.336  12.779 -0.7270 -0.1654 -2.5124
  580TMC3    H2 8659   4.667   0.320  12.645 -1.1092 -1.5632 -1.7557
  580TMC3    C7 8660   4.468   0.187  12.794 -0.3381  0.4121 -0.3003
  580TMC3    C8 8661   4.655   0.485  12.495 -0.9516  0.2416 -0.3908
  580TMC3    O1 8662   4.398   0.165  12.892  0.6554 -0.4149 -0.4798
  580TMC3    O2 8663   4.670   0.388  12.421 -0.4695  0.1689  0.1571
  581MPD2     C 8664   1.319   0.677  14.926  1.0441 -0.4569 -0.4469
  581MPD2    C1 8665   1.192   0.632  14.933  0.0696 -0.1979 -0.7409
  581MPD2    C2 8666   1.100   0.650  14.826 -0.5904 -0.0431  0.4625
  581MPD2    C3 8667   1.143   0.723  14.713  0.2230 -1.1051  0.0912
  581MPD2    C4 8668   1.271   0.773  14.710 -0.1771  0.5513 -0.3131
  581MPD2    C5 8669   1.362   0.746  14.812  0.7408  0.7474  0.4602
  581MPD2     H 8670   1.000   0.609  14.833 -0.6589 -0.1903 -1.5539
  581MPD2    H1 8671   1.305   0.835  14.627  1.3392  1.0422  0.6744
  581MPD2    H2 8672   1.397   0.655  14.997  1.5434  1.8782 -0.2814
  581MPD2    H3 8673   1.461   0.790  14.810  1.1014 -0.0659  0.1887
  581MPD2     N 8674   1.061   0.746  14.602 -0.0648 -0.0259 -0.6594
  581MPD2    H5 8675   1.091   0.813  14.532  2.2072  0.8180  1.1376
  581MPD2    N1 8676   1.167   0.549  15.045 -0.1947 -0.3149 -0.0313
  581MPD2    H7 8677   1.240   0.549  15.115 -1.3401  1.6997  1.1655
  582TMC3    C1 8678   1.040   0.426  15.202 -0.4414  0.5744  0.3877
  582TMC3    C2 8679   1.151   0.404  15.275 -0.1344  0.5111 -0.2988
  582TMC3    C3 8680   1.138   0.384  15.411  0.9759 -0.8827  0.1545
  582TMC3    C4 8681   0.916   0.429  15.267 -0.0042 -0.4102 -0.0721
  582TMC3    C5 8682   0.902   0.396  15.404 -0.9993 -0.0263  0.1125
  582TMC3    C6 8683   1.016   0.372  15.470 -0.4292  0.5613 -0.4467
  582TMC3     C 8684   1.045   0.490  15.071 -0.1971  0.7182  0.2620
  582TMC3     O 8685   0.943   0.485  15.008 -0.3620  0.0156 -0.9257
  582TMC3     H 8686   1.252   0.397  15.237  0.7934  0.1924  2.2091
  582TMC3    H1 8687   0.823   0.451  15.217 -0.4777 -0.8072  0.6305
  582TMC3    H2 8688   1.020   0.353  15.577  0.1218  2.3519 -0.1617
  582TMC3    C7 8689   0.826   0.497  15.470 -0.3431 -1.0419  0.2325
  582TMC3    C8 8690   1.246   0.417  15.509  0.1110  0.1574  0.0123
  582TMC3    O1 8691   0.704   0.495  15.454  0.1412 -0.4887 -0.1324
  582TMC3    O2 8692   1.208   0.495  15.596 -0.3039  0.8814 -0.7563
  583MPD2     C 8693   2.094   2.049  17.103 -0.0447  0.0621  0.2542
  583MPD2    C1 8694   2.069   2.161  17.032  0.2336 -0.1999 -0.2784
  583MPD2    C2 8695   2.018   2.280  17.091 -0.5069  0.2455 -0.7479
  583MPD2    C3 8696   2.005   2.288  17.226 -0.2445 -0.5058  0.5860
  583MPD2    C4 8697   2.041   2.176  17.299 -0.5839  0.2050  0.6284
  583MPD2    C5 8698   2.072   2.058  17.238  0.0254 -0.2657  1.1553
  583MPD2     H 8699   1.996   2.366  17.029 -0.9545  1.1164  0.6242
  583MPD2    H1 8700   2.043   2.169  17.407 -2.0159 -1.2904  0.5532
  583MPD2    H2 8701   2.139   1.959  17.063  2.8743  1.2684  0.8160
  583MPD2    H3 8702   2.087   1.971  17.301 -1.4769 -1.4272 -0.0845
  583MPD2     N 8703   1.962   2.410  17.281  0.3460 -0.1462 -0.3124
  583MPD2    H5 8704   1.921   2.479  17.218  1.5058  0.5260 -0.3264
  583MPD2    N1 8705   2.085   2.170  16.891  0.5191 -0.1431  0.6882
  583MPD2    H7 8706   2.067   2.257  16.843 -0.7723 -0.7561  0.0415
  584TMC3    C1 8707   1.885   2.570  17.438 -0.8847 -0.2088 -0.1310
  584TMC3    C2 8708   1.897   2.660  17.343  0.3626  0.1542 -0.5623
  584TMC3    C3 8709   1.876   2.788  17.385 -0.1818 -0.3946  0.5904
  584TMC3    C4 8710   1.838   2.593  17.560 -0.2042 -0.0602 -0.3596
  584TMC3    C5 8711   1.808   2.717  17.596  0.6886 -0.5316  0.2099
  584TMC3    C6 8712   1.827   2.822  17.509  0.2483  0.3416 -0.0503
  584TMC3     C 8713   1.937   2.435  17.412 -0.0630  0.1688 -0.3673
  584TMC3     O 8714   1.956   2.364  17.506 -0.1285  0.6774 -0.5023
  584TMC3     H 8715   1.924   2.627  17.243 -1.5263  1.3878 -1.4902
  584TMC3    H1 8716   1.839   2.506  17.624 -1.4831 -2.3885 -3.4921
  584TMC3    H2 8717   1.811   2.925  17.539 -0.0391  0.9347 -2.2576
  584TMC3    C7 8718   1.752   2.731  17.730 -0.3682 -0.2082  0.0046
  584TMC3    C8 8719   1.871   2.879  17.275  0.3199  0.2678  1.0672
  584TMC3    O1 8720   1.738   2.623   0.050 -0.6884 -0.4339 -0.1525
  584TMC3    O2 8721   1.851   2.829  17.165 -0.0999  0.0329 -0.0227
  585MPD2     C 8722   0.763   1.249   0.621  0.3733  0.5408 -0.0241
  585MPD2    C1 8723   0.828   1.281   0.505  0.1266  0.2596  0.1000
  585MPD2    C2 8724   0.895   1.187   0.422 -0.1903  0.2290 -0.1079
  585MPD2    C3 8725   0.894   1.049   0.459  0.0359 -0.1332  0.5278
  585MPD2    C4 8726   0.829   1.015   0.574 -0.2094  0.6689  0.4337
  585MPD2    C5 8727   0.768   1.113   0.654  0.6048 -0.0753 -0.5898
  585MPD2     H 8728   0.957   1.211   0.337 -0.8264 -1.0416 -0.9138
  585MPD2    H1 8729   0.832   0.912   0.609  2.3832  1.0341  1.2252
  585MPD2    H2 8730   0.711   1.325   0.679  0.6777 -0.6918  1.8779
  585MPD2    H3 8731   0.733   1.082   0.752  0.8774  0.6986 -0.2541
  585MPD2     N 8732   0.964   0.962   0.377  0.2011  0.0344  0.0589
  585MPD2    H5 8733   1.014   0.994   0.295  2.1110 -1.4807  0.6086
  585MPD2    N1 8734   0.828   1.418   0.464  0.7757 -0.5696  0.1369
  585MPD2    H7 8735   0.783   1.481   0.529 -2.4091 -2.5303 -0.1784
  586TMC3    C1 8736   1.018   0.759   0.283 -0.0485 -0.0322  0.0959
  586TMC3    C2 8737   1.119   0.675   0.275 -0.5145 -0.1042 -0.1977
  586TMC3    C3 8738   1.151   0.627   0.153 -0.1704  0.5819 -0.2927
  586TMC3    C4 8739   0.953   0.807   0.168 -0.2378  0.0579  0.0824
  586TMC3    C5 8740   0.983   0.748   0.048 -0.1974 -0.0405 -0.0382
  586TMC3    C6 8741   1.088   0.653   0.035 -0.1960  0.5487 -0.2644
  586TMC3     C 8742   0.989   0.831   0.404  0.6271 -0.2925  0.3019
  586TMC3     O 8743   1.006   0.775   0.510  0.1139 -0.4959 -0.0677
  586TMC3     H 8744   1.184   0.646   0.357 -0.7463  3.2450  1.1618
  586TMC3    H1 8745   0.868   0.873   0.165  2.4749  3.5422 -0.3766
  586TMC3    H2 8746   1.097   0.588  17.684 -0.0285 -1.3258  1.1634
  586TMC3    C7 8747   0.860   0.712  17.718 -0.6005  0.4564 -0.0066
  586TMC3    C8 8748   1.247   0.518   0.152  0.5088  0.6933  0.1641
  586TMC3    O1 8749   0.760   0.706   0.053 -0.2658  0.0559  0.2235
  586TMC3    O2 8750   1.246   0.445   0.248 -0.2854  0.2338  0.3816
  587TMC3    C1 8751   3.052   4.327  16.353  0.0267 -0.1880 -0.6925
  587TMC3    C2 8752   3.109   4.421  16.436 -0.1110 -0.2310 -0.3352
  587TMC3    C3 8753   3.242   4.416  16.451 -0.3609 -1.0162  0.2292
  587TMC3    C4 8754   3.125   4.228  16.286  0.3750  0.0177  0.1854
  587TMC3    C5 8755   3.262   4.233  16.303 -0.0256 -0.2510 -0.5668
  587TMC3    C6 8756   3.318   4.328  16.382 -0.1361 -0.6195  0.0615
  587TMC3     C 8757   2.920   4.345  16.313 -0.0517  1.2964 -0.3335
  587TMC3     O 8758   2.884   4.291  16.210 -0.3752 -0.3813 -0.8748
  587TMC3     H 8759   3.053   4.506  16.473 -1.6749 -1.3110 -0.1935
  587TMC3    H1 8760   3.073   4.150  16.231  0.9981  0.0369 -0.4326
  587TMC3    H2 8761   3.427   4.335  16.384 -0.1200 -0.5723 -1.5020
  587TMC3    C7 8762   3.336   4.120  16.281 -0.0181 -0.0230  0.4811
  587TMC3    C8 8763   3.299   4.472  16.568 -0.2868 -0.0281 -0.4123
  587TMC3    O1 8764   3.439   4.100  16.346 -0.3216 -1.0978  0.2465
  587TMC3    O2 8765   3.396   4.415  16.612 -0.8248  0.1594 -1.1109
  588TMC3    C1 8766   0.870   1.586   9.880  0.1084  0.1994  0.4455
  588TMC3    C2 8767   0.849   1.465   9.947 -0.4428  0.0258  0.2053
  588TMC3    C3 8768   0.902   1.463  10.071 -0.2851 -0.4347 -0.0055
  588TMC3    C4 8769   0.956   1.682   9.920 -0.6036  0.2391  0.4388
  588TMC3    C5 8770   1.011   1.672  10.046  0.6962  0.6510  0.6565
  588TMC3    C6 8771   0.988   1.562  10.122  0.3504  0.3906  0.0451
  588TMC3     C 8772   0.775   1.618   9.782 -0.1721 -0.7334  0.0134
  588TMC3     O 8773   0.749   1.524   9.710  0.4089 -0.0919  0.7360
  588TMC3     H 8774   0.772   1.399   9.909  0.8403 -2.2264  1.5088
  588TMC3    H1 8775   0.976   1.760   9.848 -0.6008 -0.7022 -0.5846
  588TMC3    H2 8776   1.040   1.557  10.217  0.9248 -0.8304 -0.3372
  588TMC3    C7 8777   1.051   1.801  10.099 -0.1313 -0.4846 -0.2298
  588TMC3    C8 8778   0.881   1.340  10.147  0.8944 -0.5135  0.1311
  588TMC3    O1 8779   1.093   1.796  10.215  0.2610  0.7952 -0.3296
  588TMC3    O2 8780   0.835   1.251  10.079 -0.0621 -0.3556  0.2925
  589TMC3    C1 8781   0.326   4.340   1.725 -0.1295  0.2582 -0.0839
  589TMC3    C2 8782   0.440   4.366   1.794  0.0864  0.6647  0.0567
  589TMC3    C3 8783   0.548   4.290   1.751 -0.2763  0.1201  0.4361
  589TMC3    C4 8784   0.315   4.254   1.618 -0.4621  0.5958  0.0350
  589TMC3    C5 8785   0.422   4.178   1.593 -0.4795 -1.2000  0.0110
  589TMC3    C6 8786   0.549   4.193   1.648  0.3350 -0.2770  0.1728
  589TMC3     C 8787   0.208   4.417   1.750 -0.4619  0.0310  0.0702
  589TMC3     O 8788   0.128   4.438   1.659  0.2776  0.1230 -0.4327
  589TMC3     H 8789   0.451   4.432   1.879  0.7698 -1.2739  1.4730
  589TMC3    H1 8790   0.221   4.245   1.564 -1.3901  3.9695  1.1128
  589TMC3    H2 8791   0.630   4.134   1.608  0.3418 -0.3052  0.2285
  589TMC3    C7 8792   0.397   4.057   1.521  0.5198 -1.0115 -0.4355
  589TMC3    C8 8793   0.682   4.308   1.813  0.0620  0.6678  0.1472
  589TMC3    O1 8794   0.330   4.064   1.418 -0.4906  0.3582  1.0133
  589TMC3    O2 8795   0.691   4.372   1.919 -0.4477 -0.1699  0.4825
  590MPD2     C 8796   4.316   2.775  17.013  0.2104  0.0996  0.0442
  590MPD2    C1 8797   4.231   2.868  16.951 -0.0952 -0.5449 -0.0259
  590MPD2    C2 8798   4.284   2.962  16.866  0.1695  0.1189 -0.1987
  590MPD2    C3 8799   4.417   2.968  16.834  1.1830  0.0205 -0.0838
  590MPD2    C4 8800   4.499   2.875  16.899  0.5421  0.6789 -0.3123
  590MPD2    C5 8801   4.454   2.783  16.987 -0.9017  0.5184 -0.1816
  590MPD2     H 8802   4.217   3.036  16.824 -0.0824 -0.5908 -1.0383
  590MPD2    H1 8803   4.607   2.867  16.894  0.6344  1.8476 -0.0931
  590MPD2    H2 8804   4.275   2.698  17.078 -2.5098  0.5099 -1.1943
  590MPD2    H3 8805   4.519   2.717  17.044 -1.1933  1.9874  1.8650
  590MPD2     N 8806   4.468   3.061  16.748  0.5097  0.3560 -0.1646
  590MPD2    H5 8807   4.404   3.133  16.714 -1.4434 -1.0714  0.4896
  590MPD2    N1 8808   4.096   2.885  16.989 -0.0465 -0.2906 -0.5394
  590MPD2    H7 8809   4.046   2.952  16.931  0.4846 -0.3289 -1.0306
  591TMC3    C1 8810   4.606   3.166  16.597  0.6185 -0.5575  1.1004
  591TMC3    C2 8811   4.676   3.131  16.486 -0.2363 -0.4359  0.2685
  591TMC3    C3 8812   4.670   3.216  16.382 -0.2555 -0.4716 -0.5200
  591TMC3    C4 8813   4.544   3.290  16.613 -0.1422 -0.3128 -0.0154
  591TMC3    C5 8814   4.555   3.382  16.512 -0.5668  0.0171  0.0810
  591TMC3    C6 8815   4.617   3.343  16.395 -0.6310 -0.6533  0.5066
  591TMC3     C 8816   4.598   3.060  16.692  0.4882  0.1435  0.0395
  591TMC3     O 8817   4.667   2.961  16.693  0.2909 -0.3857  0.5156
  591TMC3     H 8818   4.716   3.031  16.471  0.0741 -0.1575 -0.7903
  591TMC3    H1 8819   4.489   3.313  16.703  2.1781  1.0346  1.0344
  591TMC3    H2 8820   4.596   3.388  16.299  0.6087 -0.6437  0.2336
  591TMC3    C7 8821   4.454   3.488  16.505  0.0514  0.3071 -0.4105
  591TMC3    C8 8822   4.698   3.167  16.249  0.8168  0.0196  0.4243
  591TMC3    O1 8823   4.370   3.498  16.593  0.5845  0.1759  0.1163
  591TMC3    O2 8824   4.710   3.046  16.237  0.1788 -0.1205 -0.1308
  592MPD2     C 8825   0.194   4.344  12.159  0.3162 -0.0809 -0.0894
  592MPD2    C1 8826   0.197   4.396  12.285  0.3442 -1.0106  0.6542
  592MPD2    C2 8827   0.163   4.319  12.391  0.4089  0.0488  0.4817
  592MPD2    C3 8828   0.089   4.206  12.366  0.3136 -0.2440 -0.5862
  592MPD2    C4 8829   0.069   4.155  12.236  0.2176 -0.1813  0.2757
  592MPD2    C5 8830   0.134   4.221  12.135 -0.1216 -0.0524 -0.0905
  592MPD2     H 8831   0.176   4.358  12.492  0.0311 -2.2371  1.4361
  592MPD2    H1 8832   0.025   4.058  12.215 -2.7309  0.9823  1.0958
  592MPD2    H2 8833   0.223   4.401  12.072  0.6122  2.0075  1.3846
  592MPD2    H3 8834   0.133   4.187  12.032  0.0506  1.5827 -0.6399
  592MPD2     N 8835   0.038   4.138  12.483  0.2855  0.0950 -0.0660
  592MPD2    H5 8836   0.069   4.173  12.573  0.3101  2.1751 -0.9062
  592MPD2    N1 8837   0.249   4.527  12.293 -0.8480 -0.1061 -0.8554
  592MPD2    H7 8838   0.253   4.576  12.204  2.8720 -1.3342 -1.3588
  593TMC3    C1 8839   0.284   0.007  12.390 -0.1081  0.2798 -0.0658
  593TMC3    C2 8840   0.258   0.083  12.501  0.2060  0.1946  0.3870
  593TMC3    C3 8841   0.252   0.220  12.490 -0.4814  0.2176 -0.7720
  593TMC3    C4 8842   0.316   0.070  12.270 -0.1369 -0.1897 -0.4906
  593TMC3    C5 8843   0.293   0.201  12.258  0.4123  0.5425 -0.1611
  593TMC3    C6 8844   0.264   0.282  12.369  0.1800 -0.0245  0.2501
  593TMC3     C 8845   0.281   4.598  12.407  0.3454  0.4738 -0.4391
  593TMC3     O 8846   0.288   4.556  12.524 -0.0079  0.1739  0.4194
  593TMC3     H 8847   0.252   0.039  12.600 -1.0981 -0.5158 -0.0068
  593TMC3    H1 8848   0.355   0.008  12.190  1.0044 -0.2008  0.0734
  593TMC3    H2 8849   0.233   0.385  12.356  2.2105  0.2807 -2.0549
  593TMC3    C7 8850   0.309   0.275  12.137  0.1168  0.3705 -0.1171
  593TMC3    C8 8851   0.207   0.305  12.605 -0.1725  0.6323  0.4367
  593TMC3    O1 8852   0.306   0.397  12.149  0.8401  0.1335  0.0556
  593TMC3    O2 8853   0.155   0.239  12.693 -0.1732  0.2378  0.6108
  594MPD2     C 8854   3.414   3.408  14.181 -0.6758 -0.8557 -0.4011
  594MPD2    C1 8855   3.440   3.419  14.316 -0.7089 -0.0225  1.0733
  594MPD2    C2 8856   3.500   3.531  14.361 -0.0437  0.3533 -0.9947
  594MPD2    C3 8857   3.567   3.616  14.274  0.2728 -0.7187  0.2985
  594MPD2    C4 8858   3.565   3.591  14.138 -0.1970  0.2448 -0.5495
  594MPD2    C5 8859   3.485   3.488  14.088  0.4499 -0.2867 -0.2070
  594MPD2     H 8860   3.496   3.562  14.464  0.1360 -0.8134 -0.6352
  594MPD2    H1 8861   3.622   3.650  14.067 -0.1629  1.2236  0.2951
  594MPD2    H2 8862   3.372   3.322  14.131  2.7910 -2.0629 -1.2775
  594MPD2    H3 8863   3.476   3.483  13.980  2.5468  0.0018 -0.4051
  594MPD2     N 8864   3.633   3.730  14.332  0.1227 -0.7471  0.1688
  594MPD2    H5 8865   3.627   3.737  14.433  0.6329 -0.2772  0.1645
  594MPD2    N1 8866   3.390   3.322  14.407  0.4120 -0.2733 -1.1954
  594MPD2    H7 8867   3.338   3.247  14.363  2.9830 -1.8182 -1.6261
  595TMC3    C1 8868   3.943   4.045  14.434 -0.0038  0.0823  0.5831
  595TMC3    C2 8869   3.896   3.957  14.346  0.2282  0.1845 -0.1078
  595TMC3    C3 8870   3.767   3.909  14.356  0.1732 -0.4036 -0.7424
  595TMC3    C4 8871   3.875   4.073  14.549 -0.6438  0.9203 -0.2956
  595TMC3    C5 8872   3.749   4.029  14.561  0.0019 -0.8368 -0.7560
  595TMC3    C6 8873   3.692   3.945  14.468  0.2439 -0.2238  0.1259
  595TMC3     C 8874   4.084   4.081  14.433  0.4928 -0.2364  0.3180
  595TMC3     O 8875   4.125   4.144  14.527  0.6342  0.0016 -0.2779
  595TMC3     H 8876   3.951   3.938  14.254 -0.1637 -1.3687 -0.0118
  595TMC3    H1 8877   3.921   4.141  14.620  1.9322  0.8244 -1.8727
  595TMC3    H2 8878   3.585   3.929  14.470  0.1756  0.4270  1.3647
  595TMC3    C7 8879   3.668   4.056  14.682  0.8128  0.2478  0.1703
  595TMC3    C8 8880   3.721   3.810  14.268 -0.3790  0.3066  0.1097
  595TMC3    O1 8881   3.554   4.027  14.678 -0.4331 -0.2496 -0.6507
  595TMC3    O2 8882   3.768   3.795  14.155  0.1200  0.3461 -0.2551
  596MPD2     C 8883   2.925   1.939  17.008  0.7594  0.3915 -0.8425
  596MPD2    C1 8884   2.895   2.041  16.923 -0.5282  0.2267 -0.4048
  596MPD2    C2 8885   2.889   2.018  16.787 -0.1406  0.3931  0.0992
  596MPD2    C3 8886   2.889   1.889  16.735 -0.3633  0.0818  0.3432
  596MPD2    C4 8887   2.921   1.782  16.821  0.3732  0.7192 -0.6398
  596MPD2    C5 8888   2.938   1.809  16.958 -0.4807 -0.2104  0.4558
  596MPD2     H 8889   2.851   2.095  16.721  1.0059 -3.0066 -4.6074
  596MPD2    H1 8890   2.935   1.679  16.789  0.8538  0.0135  1.8335
  596MPD2    H2 8891   2.935   1.956  17.115 -0.5476 -0.4662 -0.5895
  596MPD2    H3 8892   2.971   1.735  17.029  1.0719 -0.4381 -0.4999
  596MPD2     N 8893   2.874   1.855  16.601 -0.5474 -0.4861 -0.2072
  596MPD2    H5 8894   2.862   1.755  16.586 -1.8166 -0.7300  2.4272
  596MPD2    N1 8895   2.867   2.173  16.963 -0.4560  0.5806  0.3699
  596MPD2    H7 8896   2.847   2.245  16.894  0.9377 -0.1595 -0.8123
  597TMC3    C1 8897   2.822   2.364  17.094  0.4400 -0.0285 -0.1233
  597TMC3    C2 8898   2.861   2.444  16.991 -0.0223 -0.2132 -0.1535
  597TMC3    C3 8899   2.824   2.574  16.991  0.3100 -0.0181 -0.2445
  597TMC3    C4 8900   2.722   2.404  17.177  0.6712  0.1221 -0.7137
  597TMC3    C5 8901   2.680   2.533  17.158  0.4952  0.0998 -0.0742
  597TMC3    C6 8902   2.724   2.624  17.065  0.3067 -0.3465  0.3644
  597TMC3     C 8903   2.846   2.222  17.091 -0.4203  0.3900  0.1606
  597TMC3     O 8904   2.823   2.157  17.187  0.6757 -0.3164  0.0055
  597TMC3     H 8905   2.945   2.410  16.931 -0.9477 -3.3759  0.3182
  597TMC3    H1 8906   2.696   2.330  17.251 -0.3432  0.7279 -0.4691
  597TMC3    H2 8907   2.699   2.729  17.070 -0.6841 -0.4712 -1.9433
  597TMC3    C7 8908   2.580   2.576  17.255 -0.3616 -0.2578  0.7414
  597TMC3    C8 8909   2.884   2.657  16.880 -0.2123 -0.1304 -0.3501
  597TMC3    O1 8910   2.577   2.501  17.351  0.0532  0.1778 -0.1601
  597TMC3    O2 8911   2.946   2.599  16.792  0.3873 -0.4764 -0.2075
  598TMC3    C1 8912   0.602   3.312  16.046 -0.3591  0.5994  0.3460
  598TMC3    C2 8913   0.574   3.183  16.067 -1.2804  0.0544 -0.1881
  598TMC3    C3 8914   0.498   3.111  15.981  0.7699  0.3786 -0.1552
  598TMC3    C4 8915   0.545   3.381  15.945 -0.5314 -0.3372 -0.2879
  598TMC3    C5 8916   0.482   3.304  15.847  0.2285 -0.7755 -0.3541
  598TMC3    C6 8917   0.461   3.170  15.867  0.4361  0.4507 -0.0948
  598TMC3     C 8918   0.709   3.377  16.121 -0.0232  0.2878 -0.6024
  598TMC3     O 8919   0.692   3.494  16.144  0.0793 -0.4682  0.3468
  598TMC3     H 8920   0.611   3.140  16.160  0.7074 -0.6020 -1.3026
  598TMC3    H1 8921   0.569   3.487  15.933  0.0796 -0.5989 -1.4401
  598TMC3    H2 8922   0.416   3.109  15.790  1.6707  1.2871 -1.4617
  598TMC3    C7 8923   0.458   3.347  15.712 -0.0011  0.3249  0.0182
  598TMC3    C8 8924   0.475   2.966  16.010  0.3485  0.6187  0.0191
  598TMC3    O1 8925   0.432   3.261  15.632 -0.3526 -0.3071  0.3714
  598TMC3    O2 8926   0.381   2.914  15.955  0.2125  0.1663 -0.1289
  599MPD2     C 8927   0.868   0.764  16.056 -0.0757  0.1156  0.0398
  599MPD2    C1 8928   0.785   0.655  16.032  0.2380 -0.0149  0.0505
  599MPD2    C2 8929   0.669   0.647  16.093  0.3311 -0.8267 -0.4841
  599MPD2    C3 8930   0.628   0.743  16.189  0.1398 -0.8208 -0.5863
  599MPD2    C4 8931   0.709   0.851  16.208 -0.1665  0.2690 -0.7140
  599MPD2    C5 8932   0.823   0.871  16.127  0.1453 -0.3638  1.0652
  599MPD2     H 8933   0.605   0.562  16.070 -1.7545  0.3362  0.9919
  599MPD2    H1 8934   0.682   0.929  16.279 -0.0584  0.7364 -1.1877
  599MPD2    H2 8935   0.968   0.772  16.014 -0.4370 -0.3598 -0.9151
  599MPD2    H3 8936   0.882   0.961  16.142 -2.0078  1.0294  1.0875
  599MPD2     N 8937   0.509   0.734  16.272 -0.0087 -0.1189  0.2179
  599MPD2    H5 8938   0.497   0.818  16.328  0.4134 -1.4026  2.2276
  599MPD2    N1 8939   0.838   0.561  15.944  0.4108 -0.3358  0.1618
  599MPD2    H7 8940   0.927   0.593  15.909  0.2436 -0.0907 -0.0373
  600TMC3    C1 8941   0.317   0.658  16.374  0.1360 -0.2152  0.6213
  600TMC3    C2 8942   0.249   0.556  16.428 -0.2897  0.4538  0.6052
  600TMC3    C3 8943   0.116   0.575  16.450 -0.3145  0.5298 -0.5222
  600TMC3    C4 8944   0.267   0.786  16.378 -0.1660  1.3811 -0.3300
  600TMC3    C5 8945   0.141   0.800  16.427 -0.4100  0.4771 -0.2906
  600TMC3    C6 8946   0.059   0.697  16.450  0.1127  0.3729  0.5698
  600TMC3     C 8947   0.436   0.622  16.297  0.7228 -0.4412 -0.7610
  600TMC3     O 8948   0.439   0.509  16.245  0.1853 -0.0163  0.0505
  600TMC3     H 8949   0.296   0.458  16.439 -0.0009  0.2485 -2.3552
  600TMC3    H1 8950   0.319   0.871  16.336  2.4475 -0.1638 -0.2562
  600TMC3    H2 8951   4.698   0.709  16.501 -0.0658  0.7406  0.1467
  600TMC3    C7 8952   0.112   0.924  16.497 -1.1769 -0.1961  0.2537
  600TMC3    C8 8953   0.047   0.475  16.532 -0.4325 -0.2211 -0.0117
  600TMC3    O1 8954   0.024   0.914  16.582 -0.3492 -0.0613 -0.8594
  600TMC3    O2 8955   0.116   0.418  16.614  0.5318  0.6184  0.5897
  601MPD2     C 8956   2.789   3.849   0.523  0.0298  0.0111 -0.4059
  601MPD2    C1 8957   2.653   3.857   0.553  0.1998 -0.4310 -0.1706
  601MPD2    C2 8958   2.609   3.788   0.664  0.5186  0.3255 -0.0579
  601MPD2    C3 8959   2.701   3.716   0.735  0.1334  1.0821  0.7336
  601MPD2    C4 8960   2.836   3.722   0.713 -0.0352  1.0787  0.9588
  601MPD2    C5 8961   2.876   3.789   0.603 -0.3186 -0.4243  0.3569
  601MPD2     H 8962   2.504   3.772   0.684  0.6568 -1.9778 -1.1687
  601MPD2    H1 8963   2.909   3.654   0.755 -0.3623  0.6289  0.8009
  601MPD2    H2 8964   2.830   3.887   0.430  1.6318  0.1438  0.3492
  601MPD2    H3 8965   2.982   3.782   0.582 -0.3620 -0.5986  0.1999
  601MPD2     N 8966   2.640   3.630   0.831  0.2764 -0.4758 -0.5805
  601MPD2    H5 8967   2.539   3.639   0.843  0.5022  1.9194 -0.5796
  601MPD2    N1 8968   2.563   3.938   0.483  0.3235  0.4174  0.4061
  601MPD2    H7 8969   2.477   3.967   0.529 -0.1595 -0.7973  0.2746
  602TMC3    C1 8970   2.492   4.114   0.340 -0.2404 -0.0520 -0.2942
  602TMC3    C2 8971   2.526   4.225   0.270 -0.1761  0.7104 -0.2305
  602TMC3    C3 8972   2.431   4.296   0.218  0.1094 -0.1100 -0.7494
  602TMC3    C4 8973   2.362   4.076   0.366 -0.4031  0.1927 -0.6530
  602TMC3    C5 8974   2.264   4.156   0.311  0.4905  0.0184  0.0048
  602TMC3    C6 8975   2.304   4.263   0.239 -0.0939 -0.1511 -1.2431
  602TMC3     C 8976   2.599   4.015   0.374 -0.6219  0.2366  0.8337
  602TMC3     O 8977   2.709   4.051   0.326  0.5355  0.1602 -0.0296
  602TMC3     H 8978   2.625   4.252   0.235  0.2135 -0.2467  0.1560
  602TMC3    H1 8979   2.338   3.976   0.401  1.6493  0.1254  0.5793
  602TMC3    H2 8980   2.236   4.318   0.175 -2.1591 -1.1171  0.1083
  602TMC3    C7 8981   2.129   4.115   0.300  0.4470 -1.0351 -0.1619
  602TMC3    C8 8982   2.470   4.408   0.126 -0.4465 -0.3293  0.0152
  602TMC3    O1 8983   2.106   4.004   0.338 -0.2050 -0.2452 -0.0514
  602TMC3    O2 8984   2.583   4.398   0.085 -0.1640 -0.3094 -0.8062
  603TMC3    C1 8985   0.700   4.425  11.507  0.4292 -0.7830  1.1059
  603TMC3    C2 8986   0.757   4.378  11.620  0.2107  0.3623  0.5350
  603TMC3    C3 8987   0.851   4.277  11.606 -0.3898  0.1063 -0.2493
  603TMC3    C4 8988   0.724   4.371  11.380 -0.6012  0.1493 -0.0159
  603TMC3    C5 8989   0.815   4.267  11.370  0.7504 -0.0025 -0.2772
  603TMC3    C6 8990   0.893   4.231  11.482  0.1555 -0.0225 -0.9967
  603TMC3     C 8991   0.564   4.470  11.541 -0.3206 -0.0336 -0.0698
  603TMC3     O 8992   0.502   4.410  11.630  0.1105  0.0940 -0.3449
  603TMC3     H 8993   0.715   4.406  11.716  0.8007 -2.0901  1.4909
  603TMC3    H1 8994   0.662   4.399  11.296 -0.5638 -0.2421 -0.1746
  603TMC3    H2 8995   0.963   4.150  11.468  0.0929 -0.6121  2.1281
  603TMC3    C7 8996   0.841   4.216  11.237 -0.1272  0.1252 -0.3197
  603TMC3    C8 8997   0.903   4.202  11.720  0.8164  0.1061 -0.1148
  603TMC3    O1 8998   0.780   4.271  11.146 -0.4949 -0.1777 -0.5627
  603TMC3    O2 8999   0.969   4.101  11.690 -0.1290 -0.8143 -0.3552
  604MPD2     C 9000   1.767   2.932  16.651  0.1343  0.3673  0.3271
  604MPD2    C1 9001   1.683   3.001  16.569  0.0546 -0.2477  0.1058
  604MPD2    C2 9002   1.695   3.016  16.436 -0.3104 -0.0841  0.4408
  604MPD2    C3 9003   1.795   2.948  16.370  0.4799  0.1932 -0.0970
  604MPD2    C4 9004   1.880   2.868  16.440  0.5115  0.1449  0.0355
  604MPD2    C5 9005   1.872   2.869  16.577  0.5278 -0.0778 -0.0735
  604MPD2     H 9006   1.615   3.063  16.380 -0.4203  1.1273  1.5944
  604MPD2    H1 9007   1.968   2.826  16.394  0.7799  2.2411 -1.3929
  604MPD2    H2 9008   1.756   2.921  16.759 -0.8032 -0.3017  0.1647
  604MPD2    H3 9009   1.950   2.811  16.625  0.5763  1.2078  1.3964
  604MPD2     N 9010   1.788   2.960  16.231  0.7439  0.1445  0.7070
  604MPD2    H5 9011   1.718   3.024  16.198  1.6463  1.2844  1.0088
  604MPD2    N1 9012   1.577   3.063  16.639 -0.1933 -0.2401  0.3572
  604MPD2    H7 9013   1.574   3.034  16.736  4.6001  0.6606  0.8087
  605TMC3    C1 9014   1.422   3.230  16.697 -0.0859 -0.0590  0.3836
  605TMC3    C2 9015   1.518   3.274  16.789  0.2027 -0.4647  0.0122
  605TMC3    C3 9016   1.507   3.407  16.827 -0.7696  0.0648  0.1778
  605TMC3    C4 9017   1.315   3.306  16.652 -0.2553  0.3492  0.4175
  605TMC3    C5 9018   1.299   3.426  16.717  0.0146 -0.7287 -1.0859
  605TMC3    C6 9019   1.394   3.479  16.805 -0.2955  0.6403  0.4706
  605TMC3     C 9020   1.473   3.140  16.595 -0.5041  1.1163 -0.1704
  605TMC3     O 9021   1.431   3.157  16.477 -0.6619  0.6947  0.1504
  605TMC3     H 9022   1.604   3.220  16.827  0.6113 -0.5289 -1.0004
  605TMC3    H1 9023   1.245   3.265  16.580  1.3032 -0.2917 -0.7361
  605TMC3    H2 9024   1.397   3.584  16.832  2.4123  1.1310 -1.7139
  605TMC3    C7 9025   1.190   3.511  16.676  0.2382  0.4406 -0.7284
  605TMC3    C8 9026   1.634   3.467  16.834 -0.1877  0.3915 -0.4257
  605TMC3    O1 9027   1.210   3.632  16.653 -0.3709 -0.2444 -0.3243
  605TMC3    O2 9028   1.728   3.410  16.782  0.5931 -0.4762  0.9102
  606TMC3    C1 9029   3.384   1.761  17.624  0.2442  0.3587  0.1263
  606TMC3    C2 9030   3.363   1.770   0.024 -0.7172 -0.6821 -0.0767
  606TMC3    C3 9031   3.271   1.682   0.079  0.0495  0.3434  0.3261
  606TMC3    C4 9032   3.326   1.666  17.547  0.7764 -0.3728  0.2325
  606TMC3    C5 9033   3.241   1.574  17.602  0.1019  0.6593 -0.3757
  606TMC3    C6 9034   3.208   1.587  17.732  0.5393 -0.6276  0.1283
  606TMC3     C 9035   3.482   1.844  17.563  0.0406  1.1752 -0.1465
  606TMC3     O 9036   3.575   1.869  17.640  0.2600 -0.3466 -0.1842
  606TMC3     H 9037   3.408   1.841   0.092 -1.2293 -0.1807 -0.2574
  606TMC3    H1 9038   3.345   1.656  17.441 -1.7764 -2.7342 -0.0141
  606TMC3    H2 9039   3.155   1.509   0.048  0.9614  0.8699  2.8472
  606TMC3    C7 9040   3.171   1.478  17.519  0.0890 -0.3304 -0.1311
  606TMC3    C8 9041   3.258   1.674   0.226  0.5392  0.2728 -0.2096
  606TMC3    O1 9042   3.218   1.446  17.410 -0.2228  0.2029 -0.6754
  606TMC3    O2 9043   3.354   1.714   0.284 -0.0470  0.0354  0.1322
  607MPD2     C 9044   0.309   3.854  12.265  0.3337 -0.2347  0.1324
  607MPD2    C1 9045   0.360   3.913  12.376  1.0884 -0.5726 -0.3399
  607MPD2    C2 9046   0.354   3.857  12.502 -0.8394  0.5756 -0.1461
  607MPD2    C3 9047   0.295   3.735  12.520 -0.0210  0.6005 -0.8058
  607MPD2    C4 9048   0.244   3.669  12.407 -0.0053 -0.3497 -0.5734
  607MPD2    C5 9049   0.258   3.729  12.288 -0.1298  0.1036 -0.0920
  607MPD2     H 9050   0.419   3.901  12.577 -0.3317  0.4997 -0.5389
  607MPD2    H1 9051   0.207   3.568  12.415  1.6737 -0.7128  2.9373
  607MPD2    H2 9052   0.306   3.898  12.166 -1.7687 -0.6289  0.0155
  607MPD2    H3 9053   0.231   3.672  12.200  0.0348  1.2528 -0.8934
  607MPD2     N 9054   0.305   3.675  12.645  0.1988 -0.2956  0.2578
  607MPD2    H5 9055   0.361   3.728  12.711  1.2935 -0.2270 -0.7215
  607MPD2    N1 9056   0.418   4.038  12.370 -1.1020 -0.1403 -0.0112
  607MPD2    H7 9057   0.440   4.078  12.461 -3.4831 -1.2833  1.0740
  608TMC3    C1 9058   0.549   4.213  12.309  0.8313 -0.3369 -0.4274
  608TMC3    C2 9059   0.603   4.192  12.432 -0.1787  0.5059 -0.3489
  608TMC3    C3 9060   0.692   4.292  12.476  0.5302 -0.0309  0.1417
  608TMC3    C4 9061   0.558   4.328  12.237 -0.0020  0.0290  0.1101
  608TMC3    C5 9062   0.620   4.433  12.301  0.1236 -0.3170  0.4368
  608TMC3    C6 9063   0.703   4.413  12.409 -0.1295  0.5162  0.5794
  608TMC3     C 9064   0.456   4.108  12.260  0.3299  0.1518 -0.8594
  608TMC3     O 9065   0.452   4.074  12.143 -0.6391 -0.0895 -0.3352
  608TMC3     H 9066   0.631   4.093  12.469 -1.2343  0.6630  0.8751
  608TMC3    H1 9067   0.501   4.346  12.146  0.9079  1.6849 -0.1344
  608TMC3    H2 9068   0.753   4.493  12.463  1.3837 -0.7235  1.0366
  608TMC3    C7 9069   0.629   4.561  12.242  0.3961 -0.4661  0.4825
  608TMC3    C8 9070   0.756   4.276  12.601 -0.0436  0.7412  0.5296
  608TMC3    O1 9071   0.621   4.558  12.117  0.0033  0.0196 -0.4969
  608TMC3    O2 9072   0.858   4.339  12.619  0.6849 -0.1822 -0.6859
  609TMC3    C1 9073   3.575   3.902   9.439 -0.0630 -0.5482 -0.6734
  609TMC3    C2 9074   3.548   3.891   9.305  0.4714 -0.1096 -0.0324
  609TMC3    C3 9075   3.601   3.787   9.239  0.5147 -0.4392 -0.3161
  609TMC3    C4 9076   3.661   3.820   9.502 -0.3066 -0.3401  0.7748
  609TMC3    C5 9077   3.716   3.720   9.425 -0.4291  0.4391  0.2009
  609TMC3    C6 9078   3.677   3.689   9.295  0.8323  0.2931 -0.0160
  609TMC3     C 9079   3.491   3.977   9.526 -1.1035  0.1209 -1.0448
  609TMC3     O 9080   3.490   3.935   9.639  0.1929 -0.0763 -0.1089
  609TMC3     H 9081   3.459   3.939   9.267  1.3061 -0.0859 -1.9791
  609TMC3    H1 9082   3.681   3.844   9.605  1.0815  1.9823 -0.0275
  609TMC3    H2 9083   3.725   3.618   9.229 -2.8146 -2.9435  0.8530
  609TMC3    C7 9084   3.785   3.616   9.498 -0.5109  0.1965  0.4103
  609TMC3    C8 9085   3.610   3.804   9.096 -0.1927 -0.3846  0.5449
  609TMC3    O1 9086   3.842   3.655   9.600 -0.3603  0.0257 -0.2152
  609TMC3    O2 9087   3.659   3.709   9.033  0.1579 -0.2319 -0.6757
  610TMC3    C1 9088   1.113   4.022  12.677 -0.1414 -0.2626 -0.0933
  610TMC3    C2 9089   1.024   3.994  12.580 -0.7586  0.7167  0.2118
  610TMC3    C3 9090   0.966   3.868  12.579  0.7560 -0.3049 -0.0436
  610TMC3    C4 9091   1.156   3.925  12.765 -0.4042  0.3134  0.2535
  610TMC3    C5 9092   1.099   3.796  12.756  0.1042  0.1907 -0.0060
  610TMC3    C6 9093   0.997   3.771  12.667 -0.6612 -0.4497  0.3618
  610TMC3     C 9094   1.189   4.148  12.662  0.3539  0.8901 -0.0784
  610TMC3     O 9095   1.269   4.174  12.749 -0.2900  0.0345  0.1471
  610TMC3     H 9096   0.991   4.073  12.513  0.4734  0.0686 -1.1492
  610TMC3    H1 9097   1.231   3.945  12.841  1.8066  1.7416 -2.3499
  610TMC3    H2 9098   0.942   3.678  12.672 -0.3411 -0.5473  1.9103
  610TMC3    C7 9099   1.149   3.701  12.845 -0.2673  0.6145  0.0867
  610TMC3    C8 9100   0.860   3.844  12.487 -1.1165  0.2935 -0.1299
  610TMC3    O1 9101   1.248   3.720  12.915  0.0533 -0.0259  0.1180
  610TMC3    O2 9102   0.843   3.932  12.403 -0.0183  0.7960  0.8361
  611MPD2     C 9103   0.389   3.479  10.147 -0.1243  0.6343 -1.1079
  611MPD2    C1 9104   0.350   3.600  10.191 -0.2690 -0.1793 -0.5137
  611MPD2    C2 9105   0.444   3.705  10.221 -0.5936  0.2123  0.8332
  611MPD2    C3 9106   0.576   3.669  10.227  0.9050  0.6567  0.6641
  611MPD2    C4 9107   0.616   3.540  10.207 -0.4577 -0.3823  0.9569
  611MPD2    C5 9108   0.524   3.449  10.160  0.2885 -0.0559  0.3237
  611MPD2     H 9109   0.417   3.801  10.263  0.0261  0.7192  0.0720
  611MPD2    H1 9110   0.721   3.513  10.216 -0.7174 -1.1170  1.7311
  611MPD2    H2 9111   0.323   3.399  10.115 -1.2088  0.8838  0.5102
  611MPD2    H3 9112   0.547   3.344  10.147  1.6576  0.1485  1.1398
  611MPD2     N 9113   0.671   3.763  10.269  0.5954  0.5306 -0.2193
  611MPD2    H5 9114   0.765   3.724  10.275  0.5915  0.3602 -1.2953
  611MPD2    N1 9115   0.215   3.614  10.220 -0.1106 -0.1251  0.4408
  611MPD2    H7 9116   0.160   3.533  10.248  0.9241 -0.7797  0.5893
  612TMC3    C1 9117   0.754   3.976  10.339 -0.0309 -0.0676  0.2429
  612TMC3    C2 9118   0.836   3.915  10.438  0.1793 -0.4544 -0.6373
  612TMC3    C3 9119   0.908   4.002  10.517 -0.4662  0.0416  0.2501
  612TMC3    C4 9120   0.747   4.110  10.323 -0.0697  0.0579  0.7610
  612TMC3    C5 9121   0.818   4.187  10.406 -0.0112  0.0118  0.0522
  612TMC3    C6 9122   0.899   4.142  10.511  0.1264 -0.7536  0.6218
  612TMC3     C 9123   0.655   3.898  10.266 -0.2103  0.1017 -0.1687
  612TMC3     O 9124   0.574   3.955  10.199  0.1981  0.1573  0.1270
  612TMC3     H 9125   0.837   3.808  10.455  0.0724 -0.6082 -1.5854
  612TMC3    H1 9126   0.684   4.148  10.244  1.1580 -1.0727 -0.7589
  612TMC3    H2 9127   0.964   4.208  10.567  0.6923 -0.4821 -0.3581
  612TMC3    C7 9128   0.804   4.329  10.384 -0.3034 -0.0350 -0.0501
  612TMC3    C8 9129   0.961   3.940  10.638 -0.9516 -0.1346 -0.4715
  612TMC3    O1 9130   0.779   4.366  10.271  0.0833 -0.4429  0.1760
  612TMC3    O2 9131   1.034   3.844  10.621 -0.4201  0.1001  0.2377
  613MPD2     C 9132   3.889   1.621  17.067  0.3530  0.1923 -0.7592
  613MPD2    C1 9133   3.786   1.636  16.972  0.2482  0.3432 -0.5089
  613MPD2    C2 9134   3.703   1.538  16.931  0.3515 -0.0363  0.2675
  613MPD2    C3 9135   3.724   1.408  16.987  0.0707  0.6829 -0.9366
  613MPD2    C4 9136   3.824   1.395  17.085 -0.1558 -1.7949 -0.5759
  613MPD2    C5 9137   3.901   1.501  17.126 -0.1279  0.0791 -0.4428
  613MPD2     H 9138   3.624   1.547  16.857  0.7624  0.7578 -0.0711
  613MPD2    H1 9139   3.854   1.300  17.129  0.3230 -0.7020  1.4501
  613MPD2    H2 9140   3.954   1.705  17.091  1.4822 -1.1047  0.7820
  613MPD2    H3 9141   3.978   1.494  17.202 -0.7091 -0.0814  0.1340
  613MPD2     N 9142   3.672   1.289  16.924 -0.1008  0.2595  0.5717
  613MPD2    H5 9143   3.707   1.203  16.963  0.3260  0.8596  1.5261
  613MPD2    N1 9144   3.787   1.766  16.916 -0.2515  0.2284 -0.3314
  613MPD2    H7 9145   3.871   1.821  16.931  0.7361 -0.8582 -1.9903
  614TMC3    C1 9146   3.769   1.876  16.708 -0.1327 -0.1147  0.0499
  614TMC3    C2 9147   3.896   1.825  16.671 -0.0736 -0.0900  0.5831
  614TMC3    C3 9148   3.928   1.834  16.538  0.0373 -0.2311  0.2418
  614TMC3    C4 9149   3.687   1.938  16.616 -0.6186  0.0793 -0.0193
  614TMC3    C5 9150   3.726   1.953  16.489 -0.0377 -0.3259 -0.1425
  614TMC3    C6 9151   3.849   1.906  16.450  0.6852 -0.2693  0.0165
  614TMC3     C 9152   3.698   1.806  16.822 -0.4420  0.7363  0.2937
  614TMC3     O 9153   3.590   1.770  16.784 -0.1801  0.3632  0.9117
  614TMC3     H 9154   3.952   1.768  16.744  0.0053 -0.3462  0.3227
  614TMC3    H1 9155   3.589   1.977  16.642  0.6188  3.1418  0.0683
  614TMC3    H2 9156   3.888   1.926  16.350 -0.4932  0.7334 -0.2452
  614TMC3    C7 9157   3.668   2.069  16.417 -0.8092 -0.2130 -0.1327
  614TMC3    C8 9158   3.991   1.711  16.499  0.1950 -0.0188 -0.1610
  614TMC3    O1 9159   3.611   2.163  16.476 -0.4376 -0.7120 -0.3831
  614TMC3    O2 9160   4.044   1.640  16.584  0.4357  0.5817  0.2306
  615MPD2     C 9161   3.274   3.168  16.210 -0.6670  0.3298 -0.3532
  615MPD2    C1 9162   3.205   3.279  16.153  0.7914  0.9325  0.1684
  615MPD2    C2 9163   3.134   3.264  16.037 -0.2995 -0.4313  0.4371
  615MPD2    C3 9164   3.132   3.147  15.972 -0.0553  0.0562  0.4384
  615MPD2    C4 9165   3.196   3.036  16.031  0.3652 -0.1827  0.0582
  615MPD2    C5 9166   3.262   3.048  16.149  0.2535 -0.1268  0.8269
  615MPD2     H 9167   3.082   3.351  15.997 -1.0396 -1.6066 -1.1726
  615MPD2    H1 9168   3.195   2.940  15.980  1.2854 -1.4276  2.3562
  615MPD2    H2 9169   3.332   3.166  16.301 -2.6269 -0.0733  0.8841
  615MPD2    H3 9170   3.303   2.960  16.197 -0.5479 -1.9909 -1.9404
  615MPD2     N 9171   3.043   3.126  15.866  0.3653 -0.1841  0.4180
  615MPD2    H5 9172   2.967   3.193  15.861 -0.6863 -1.3087  1.0442
  615MPD2    N1 9173   3.217   3.407  16.210  0.5586 -0.2181 -0.1042
  615MPD2    H7 9174   3.184   3.487  16.158 -0.3305 -0.9336 -0.6570
  616TMC3    C1 9175   3.253   3.568  16.379  0.7457 -0.2201 -0.5523
  616TMC3    C2 9176   3.349   3.622  16.462  0.6353 -0.2757  0.1405
  616TMC3    C3 9177   3.320   3.746  16.514  0.2969  0.3301 -0.4257
  616TMC3    C4 9178   3.138   3.624  16.345 -0.5848  0.1294 -0.1122
  616TMC3    C5 9179   3.112   3.751  16.404  0.0873 -0.1393  0.6443
  616TMC3    C6 9180   3.204   3.809  16.483  0.5373  0.1478  0.1598
  616TMC3     C 9181   3.283   3.434  16.327 -0.6560 -0.0871 -0.2000
  616TMC3     O 9182   3.362   3.366  16.396  0.1763 -0.2639  0.0478
  616TMC3     H 9183   3.440   3.572  16.494 -0.2308 -1.7505  0.3177
  616TMC3    H1 9184   3.065   3.563  16.293  1.9476 -2.6136 -0.4274
  616TMC3    H2 9185   3.186   3.900  16.538  0.4032 -0.4467  1.0913
  616TMC3    C7 9186   3.010   3.836  16.356 -0.2886  0.2995  0.1183
  616TMC3    C8 9187   3.414   3.825  16.595  0.3085  0.2575 -0.1495
  616TMC3    O1 9188   3.024   3.956  16.377  0.0320  0.3549  0.0700
  616TMC3    O2 9189   3.383   3.944  16.617  0.3376 -0.2055 -0.2236
  617MPD2     C 9190   1.618   1.646  13.327 -0.6089  0.8240  0.1677
  617MPD2    C1 9191   1.592   1.579  13.439 -0.4756  0.3331  0.1765
  617MPD2    C2 9192   1.462   1.548  13.470  0.2905 -0.2141  0.8683
  617MPD2    C3 9193   1.366   1.592  13.381 -0.0443  0.1678 -0.2032
  617MPD2    C4 9194   1.401   1.664  13.272 -0.6139  0.3171  0.0780
  617MPD2    C5 9195   1.528   1.698  13.246  0.2100  0.2179  0.4195
  617MPD2     H 9196   1.434   1.485  13.553 -3.5532  2.0243  1.2653
  617MPD2    H1 9197   1.327   1.682  13.195  0.2391  1.1299 -0.5534
  617MPD2    H2 9198   1.719   1.651  13.287 -0.3164  2.7356  1.1171
  617MPD2    H3 9199   1.557   1.752  13.156 -0.3862  0.9336  0.6554
  617MPD2     N 9200   1.230   1.554  13.396  0.2412  0.8245  0.2986
  617MPD2    H5 9201   1.167   1.576  13.319 -0.2020  1.1098  0.7443
  617MPD2    N1 9202   1.708   1.538  13.516  0.2818 -0.0095  0.2865
  617MPD2    H7 9203   1.794   1.558  13.466 -0.7740  0.4635 -1.3286
  618TMC3    C1 9204   1.839   1.448  13.699 -0.6116  0.1418 -0.7229
  618TMC3    C2 9205   1.836   1.399  13.829  0.5403 -0.3627 -0.5518
  618TMC3    C3 9206   1.961   1.370  13.889 -0.1463 -0.0328  0.2635
  618TMC3    C4 9207   1.949   1.497  13.638 -0.0374 -0.0111  0.7857
  618TMC3    C5 9208   2.066   1.451  13.701 -0.5567 -0.1426 -0.5700
  618TMC3    C6 9209   2.079   1.398  13.829  0.4725  0.2329  0.3449
  618TMC3     C 9210   1.710   1.462  13.632  0.1419  0.8682  0.4548
  618TMC3     O 9211   1.608   1.431  13.691  0.0194 -0.5258  0.0107
  618TMC3     H 9212   1.741   1.358  13.862  0.1135  0.9724 -0.1129
  618TMC3    H1 9213   1.942   1.526  13.534 -0.2851 -1.2433  0.4535
  618TMC3    H2 9214   2.181   1.398  13.868  1.0737  1.9257 -1.2343
  618TMC3    C7 9215   2.187   1.504  13.646 -0.4448  0.1938  0.0396
  618TMC3    C8 9216   1.959   1.270  13.995  0.3282 -0.0700 -0.3755
  618TMC3    O1 9217   2.176   1.620  13.613 -0.0168  0.3432 -0.3133
  618TMC3    O2 9218   1.849   1.232  14.042  0.0984  0.0314  0.4346
  619MPD2     C 9219   3.020   2.590  14.075 -0.0919  0.9134 -0.0358
  619MPD2    C1 9220   2.937   2.636  13.972 -0.4142  0.1561  0.2127
  619MPD2    C2 9221   2.807   2.589  13.966  0.0034  0.3040  0.2333
  619MPD2    C3 9222   2.751   2.506  14.055 -0.1749  0.6767  0.4901
  619MPD2    C4 9223   2.838   2.443  14.145  0.5226  0.2921 -0.5361
  619MPD2    C5 9224   2.966   2.490  14.152  0.2597  0.3286 -0.1261
  619MPD2     H 9225   2.746   2.626  13.884  0.5300  0.7269  0.0328
  619MPD2    H1 9226   2.803   2.371  14.219 -1.2500  2.0146  0.3213
  619MPD2    H2 9227   3.120   2.629  14.090  0.2009  0.4630 -0.8427
  619MPD2    H3 9228   3.030   2.453  14.232  0.7803  0.5002 -0.4592
  619MPD2     N 9229   2.614   2.464  14.039  0.2894  0.1140  0.3354
  619MPD2    H5 9230   2.579   2.392  14.102  0.3723  1.2690  1.7081
  619MPD2    N1 9231   2.959   2.740  13.879  0.2829  0.1708 -1.2848
  619MPD2    H7 9232   2.875   2.788  13.849  0.2275 -0.6563 -2.4189
  620TMC3    C1 9233   3.081   2.918  13.775  0.0190  0.7630 -0.3606
  620TMC3    C2 9234   3.000   2.928  13.663 -0.7678 -0.6740  0.9309
  620TMC3    C3 9235   2.988   3.045  13.596  0.1635 -0.2925  0.3379
  620TMC3    C4 9236   3.166   3.023  13.805 -0.0800 -0.0641 -0.4775
  620TMC3    C5 9237   3.170   3.133  13.720  0.2914 -0.0738  0.1887
  620TMC3    C6 9238   3.072   3.148  13.620 -0.3176 -0.1343 -0.0577
  620TMC3     C 9239   3.078   2.806  13.862  0.8723 -0.1114  0.4503
  620TMC3     O 9240   3.179   2.796  13.922  0.1739  0.2144  0.0910
  620TMC3     H 9241   2.921   2.854  13.671 -1.4461  0.0446  0.7964
  620TMC3    H1 9242   3.211   3.026  13.903  0.2704  1.6652 -0.6915
  620TMC3    H2 9243   3.074   3.229  13.547 -0.4975 -1.5419 -1.6285
  620TMC3    C7 9244   3.196   3.255  13.784  0.2035 -0.3655 -0.0165
  620TMC3    C8 9245   2.851   3.092  13.593  0.0044 -0.3744 -0.2203
  620TMC3    O1 9246   3.301   3.279  13.847 -0.1647 -0.3258 -0.1753
  620TMC3    O2 9247   2.823   3.198  13.649 -0.1898  0.0537 -0.7866
  621MPD2     C 9248   2.680   3.620   9.528 -0.6203 -0.9248  0.4708
  621MPD2    C1 9249   2.745   3.502   9.516  0.7026  0.2329 -0.5032
  621MPD2    C2 9250   2.875   3.501   9.560 -0.0078  0.1858  0.0497
  621MPD2    C3 9251   2.928   3.599   9.635 -0.6867  0.2361  0.5448
  621MPD2    C4 9252   2.855   3.715   9.656  0.1425  0.0383 -1.7547
  621MPD2    C5 9253   2.729   3.726   9.598 -0.3425 -0.1648 -0.4778
  621MPD2     H 9254   2.942   3.419   9.536  0.2926  0.2851  0.5496
  621MPD2    H1 9255   2.893   3.805   9.702 -1.1607  0.2708 -1.1491
  621MPD2    H2 9256   2.585   3.632   9.478 -0.5104  2.4798  1.0522
  621MPD2    H3 9257   2.674   3.817   9.613  0.8469  0.0203  2.7991
  621MPD2     N 9258   3.058   3.569   9.681 -0.4513  0.2474  0.8262
  621MPD2    H5 9259   3.096   3.476   9.666  0.4569  0.6099  0.8968
  621MPD2    N1 9260   2.685   3.395   9.442 -0.1150  0.7880  0.0831
  621MPD2    H7 9261   2.588   3.399   9.411 -0.7518  0.5336  2.0528
  622TMC3    C1 9262   2.663   3.173   9.345  0.5690  0.1417  0.4954
  622TMC3    C2 9263   2.704   3.046   9.357 -0.0098 -0.1854 -0.0621
  622TMC3    C3 9264   2.628   2.950   9.303  0.1644 -0.3500 -0.3771
  622TMC3    C4 9265   2.559   3.211   9.264 -0.1327  0.0935  0.3415
  622TMC3    C5 9266   2.492   3.109   9.204  0.6139  0.2154  0.2734
  622TMC3    C6 9267   2.526   2.977   9.212 -0.6901 -0.0778 -0.4494
  622TMC3     C 9268   2.747   3.278   9.410  0.0360  0.8513 -0.9642
  622TMC3     O 9269   2.863   3.240   9.416 -0.0362 -0.6543 -0.1803
  622TMC3     H 9270   2.791   3.020   9.417  0.5474  0.3972 -0.6217
  622TMC3    H1 9271   2.525   3.315   9.263  0.2066  0.1805 -1.2288
  622TMC3    H2 9272   2.474   2.899   9.156  0.4848  0.3324 -2.1105
  622TMC3    C7 9273   2.394   3.150   9.102  0.8917 -0.1890 -0.8823
  622TMC3    C8 9274   2.639   2.814   9.358  0.6072 -0.4944 -0.0229
  622TMC3    O1 9275   2.389   3.088   8.995  0.4901  0.0581 -0.1881
  622TMC3    O2 9276   2.573   2.732   9.304  0.1298 -0.4170 -0.2697
  623MPD2     C 9277   1.887   3.604  15.716  0.3441  0.1615  0.6022
  623MPD2    C1 9278   1.879   3.518  15.825  0.4749 -0.1565  0.2845
  623MPD2    C2 9279   1.935   3.551  15.943  0.5080 -0.5678 -0.1288
  623MPD2    C3 9280   2.014   3.658  15.956  0.2070 -0.3175 -0.1106
  623MPD2    C4 9281   2.018   3.746  15.850 -0.2261 -0.6034  0.2736
  623MPD2    C5 9282   1.952   3.721  15.738  0.4286  0.1896 -0.1297
  623MPD2     H 9283   1.936   3.476  16.022 -3.1022 -0.2475  0.2532
  623MPD2    H1 9284   2.066   3.843  15.859 -1.0989 -0.1263 -0.3296
  623MPD2    H2 9285   1.829   3.580  15.627  0.0344  2.1441  0.2645
  623MPD2    H3 9286   1.959   3.786  15.652 -0.8191  0.7171  0.1764
  623MPD2     N 9287   2.063   3.679  16.081  0.4291  0.0117 -0.1082
  623MPD2    H5 9288   2.032   3.621  16.158  0.3031  1.8543  1.2366
  623MPD2    N1 9289   1.795   3.399  15.824 -0.1510 -0.7880 -0.7214
  623MPD2    H7 9290   1.775   3.357  15.915  0.1817  0.1495 -0.2137
  624TMC3    C1 9291   2.340   3.831  16.424 -0.4873 -0.2136 -0.7074
  624TMC3    C2 9292   2.248   3.811  16.517 -0.0585  0.4440  0.2643
  624TMC3    C3 9293   2.123   3.780  16.477  0.3178 -0.7468 -0.7237
  624TMC3    C4 9294   2.310   3.816  16.294  0.2841  0.7552  0.3157
  624TMC3    C5 9295   2.187   3.785  16.248  0.4374  0.4541  1.1372
  624TMC3    C6 9296   2.088   3.766  16.340 -0.5522  1.0241  0.1406
  624TMC3     C 9297   2.471   3.798  16.470  0.2388 -0.1624  1.0422
  624TMC3     O 9298   2.523   3.883  16.541 -0.0377 -0.5580 -0.5073
  624TMC3     H 9299   2.281   3.806  16.620  1.6000 -0.7835 -0.3358
  624TMC3    H1 9300   2.391   3.828  16.223  2.3677  0.4288  2.6306
  624TMC3    H2 9301   1.983   3.746  16.323 -0.1872 -1.0170  0.2519
  624TMC3    C7 9302   2.164   3.772  16.105  0.1678 -0.0559  0.4648
  624TMC3    C8 9303   2.021   3.736  16.575  0.2915 -1.0149  0.2856
  624TMC3    O1 9304   2.243   3.825  16.027 -0.2497  0.2177 -0.0559
  624TMC3    O2 9305   1.929   3.670  16.527  0.1279  0.4277  0.0127
  625MPD2     C 9306   2.257   4.652   0.833 -0.0936  0.2747 -0.0233
  625MPD2    C1 9307   2.322   0.040   0.832 -0.2131  0.5256  0.1855
  625MPD2    C2 9308   2.430   0.051   0.914  0.4679 -0.1471 -0.2060
  625MPD2    C3 9309   2.482   4.671   0.980  0.0827 -0.0420 -0.4488
  625MPD2    C4 9310   2.422   4.548   0.966  0.1084 -0.2559 -0.9421
  625MPD2    C5 9311   2.302   4.544   0.895 -0.0667  0.8884  0.3762
  625MPD2     H 9312   2.478   0.148   0.925 -1.1312  0.6065  0.2051
  625MPD2    H1 9313   2.457   4.457   1.012 -0.8385 -0.1175  0.0362
  625MPD2    H2 9314   2.173   4.640   0.766 -0.5165 -0.9412  0.7325
  625MPD2    H3 9315   2.258   4.447   0.875  1.0492  0.3225  0.6616
  625MPD2     N 9316   2.595   4.692   1.058  0.5659 -0.4122 -0.4311
  625MPD2    H5 9317   2.636   0.051   1.066 -0.9597  0.1517  0.7379
  625MPD2    N1 9318   2.270   0.158   0.771 -0.1095  0.1183 -0.3003
  625MPD2    H7 9319   2.311   0.247   0.799 -0.8498  0.3418  0.0669
  626TMC3    C1 9320   2.105   0.293   0.656  0.3289 -0.9797  0.0352
  626TMC3    C2 9321   2.067   0.320   0.532  0.2500 -0.2651 -0.5776
  626TMC3    C3 9322   2.024   0.442   0.506 -0.0957 -1.4249  0.0782
  626TMC3    C4 9323   2.091   0.380   0.761 -0.0399 -0.1419  0.0718
  626TMC3    C5 9324   2.023   0.498   0.735 -0.1630  0.0656  1.2186
  626TMC3    C6 9325   1.997   0.537   0.608 -0.2068  0.4160  0.0456
  626TMC3     C 9326   2.175   0.167   0.672  0.0487 -0.9776  0.2329
  626TMC3     O 9327   2.142   0.074   0.599 -0.1326 -0.2912 -0.2473
  626TMC3     H 9328   2.083   0.252   0.449  0.5692 -0.2734 -0.5125
  626TMC3    H1 9329   2.130   0.355   0.859 -0.2631 -0.0629  0.1794
  626TMC3    H2 9330   1.950   0.633   0.591  0.0129  0.7129  1.1440
  626TMC3    C7 9331   2.016   0.592   0.843 -0.1973 -0.4823  0.1532
  626TMC3    C8 9332   2.008   0.490   0.371  0.3323 -0.3548  0.3359
  626TMC3    O1 9333   2.094   0.582   0.936 -0.5131 -0.1757 -0.3691
  626TMC3    O2 9334   2.092   0.450   0.290  0.3423  0.6268 -0.0705
  627MPD2     C 9335   0.440   0.326  14.203 -0.7287 -0.8138 -0.2518
  627MPD2    C1 9336   0.501   0.334  14.323  0.4708 -0.4168 -0.2294
  627MPD2    C2 9337   0.493   0.225  14.415 -0.2428  0.1141 -0.0952
  627MPD2    C3 9338   0.441   0.109  14.372  0.0531 -0.8379  0.4305
  627MPD2    C4 9339   0.386   0.099  14.247 -0.2682 -0.3587  0.4107
  627MPD2    C5 9340   0.385   0.207  14.169  0.4895 -0.0252 -0.2976
  627MPD2     H 9341   0.531   0.223  14.516  2.2067 -0.3268 -1.0266
  627MPD2    H1 9342   0.343   0.005  14.213 -2.0616  0.1299  1.3011
  627MPD2    H2 9343   0.449   0.401  14.125  2.6739 -0.5936  0.3381
  627MPD2    H3 9344   0.331   0.192  14.077  0.7069  0.6557 -0.5330
  627MPD2     N 9345   0.442   4.732  14.463 -0.4836  0.1598  0.2621
  627MPD2    H5 9346   0.469   0.009  14.561  0.1750 -1.3003  0.2386
  627MPD2    N1 9347   0.577   0.449  14.351 -0.3216 -0.0806 -0.2140
  627MPD2    H7 9348   0.632   0.448  14.437 -0.5584  0.8803 -0.0573
  628TMC3    C1 9349   0.691   0.657  14.320  0.9571 -0.5391  0.7428
  628TMC3    C2 9350   0.796   0.622  14.395 -0.2589 -0.1780 -0.3581
  628TMC3    C3 9351   0.895   0.707  14.436 -0.7105  0.6040  0.5273
  628TMC3    C4 9352   0.686   0.787  14.274 -0.1730 -0.1143 -0.6934
  628TMC3    C5 9353   0.782   0.869  14.317 -0.1848  0.4376 -0.8319
  628TMC3    C6 9354   0.889   0.837  14.400 -1.1809  0.2992 -0.4379
  628TMC3     C 9355   0.588   0.561  14.281  0.8070 -0.4044  0.0231
  628TMC3     O 9356   0.520   0.600  14.184 -0.0978  0.1744  0.2841
  628TMC3     H 9357   0.800   0.517  14.418  3.1540  0.1403  0.4308
  628TMC3    H1 9358   0.594   0.818  14.225 -2.8159 -0.6977  3.9014
  628TMC3    H2 9359   0.945   0.921  14.439  0.2656 -1.0681  0.4079
  628TMC3    C7 9360   0.753   1.008  14.307 -0.3104 -0.4062  0.3479
  628TMC3    C8 9361   0.941   0.678  14.574  0.1237  0.2147  0.1732
  628TMC3    O1 9362   0.730   1.064  14.416 -0.3658 -0.3458 -0.3379
  628TMC3    O2 9363   0.891   0.579  14.626  0.3647  0.2880  0.0115
  629MPD2     C 9364   3.885   4.009  16.646  0.3899 -0.6431 -0.7663
  629MPD2    C1 9365   3.885   3.878  16.695 -0.1621 -0.5688  0.4029
  629MPD2    C2 9366   3.774   3.800  16.693  0.0897  0.0993  0.0724
  629MPD2    C3 9367   3.653   3.855  16.644  0.3192  0.9728  0.0424
  629MPD2    C4 9368   3.659   3.979  16.589  0.2143  0.3080  0.2905
  629MPD2    C5 9369   3.768   4.062  16.594  0.4693  0.1891 -0.0007
  629MPD2     H 9370   3.770   3.697  16.727  0.7319 -0.0820 -0.3850
  629MPD2    H1 9371   3.579   4.028  16.535  0.1846 -0.1261 -0.0605
  629MPD2    H2 9372   3.977   4.067  16.648  1.6118 -2.5464 -2.7391
  629MPD2    H3 9373   3.775   4.158  16.543 -0.6820  0.4743  0.3707
  629MPD2     N 9374   3.533   3.772  16.626 -1.0091 -0.0818 -0.1209
  629MPD2    H5 9375   3.542   3.671  16.618 -0.9468  0.1958 -3.4552
  629MPD2    N1 9376   4.004   3.833  16.741  0.1334  0.4560 -0.2649
  629MPD2    H7 9377   4.082   3.898  16.736  0.1857  0.5661  1.7579
  630TMC3    C1 9378   4.170   3.721  16.867 -1.0973  0.4949 -0.0879
  630TMC3    C2 9379   4.255   3.777  16.773  0.2709 -0.4325 -0.0464
  630TMC3    C3 9380   4.385   3.803  16.816 -0.4012  0.0967  0.4679
  630TMC3    C4 9381   4.213   3.679  16.991  0.3109  0.1487 -0.4578
  630TMC3    C5 9382   4.342   3.717  17.025 -0.3033 -0.2851  0.0366
  630TMC3    C6 9383   4.439   3.766  16.936  0.1263 -0.1987 -0.4765
  630TMC3     C 9384   4.030   3.729  16.827  0.4089 -1.0036 -0.6683
  630TMC3     O 9385   3.963   3.632  16.852 -0.1517  0.4351  0.0647
  630TMC3     H 9386   4.238   3.762  16.667 -0.4572  1.2225 -0.1604
  630TMC3    H1 9387   4.139   3.641  17.060  2.0348 -0.7401  0.8982
  630TMC3    H2 9388   4.547   3.761  16.949  0.0931 -1.5862 -0.7789
  630TMC3    C7 9389   4.372   3.727  17.167  0.2040  0.2532 -0.3808
  630TMC3    C8 9390   4.474   3.889  16.735  0.1945  0.4047  0.8785
  630TMC3    O1 9391   4.288   3.703  17.254 -0.2684 -0.8421 -0.1663
  630TMC3    O2 9392   4.577   3.930  16.786 -0.7066  0.6682 -0.4192
  631MPD2     C 9393   2.099   3.291  15.700  0.2706  0.3803 -0.0751
  631MPD2    C1 9394   2.165   3.301  15.582 -0.0560  0.2583  0.8113
  631MPD2    C2 9395   2.297   3.258  15.567 -0.7284  0.1742  0.3031
  631MPD2    C3 9396   2.364   3.204  15.677 -0.4241  0.1447 -0.3940
  631MPD2    C4 9397   2.298   3.198  15.801  0.3014  0.5319 -0.0662
  631MPD2    C5 9398   2.165   3.231  15.805  0.6824 -0.6643  0.0089
  631MPD2     H 9399   2.359   3.276  15.480  0.6358 -1.3308  0.9456
  631MPD2    H1 9400   2.343   3.171  15.896  0.4242 -3.1691 -1.1605
  631MPD2    H2 9401   1.990   3.299  15.702  0.1459 -1.8110  2.0336
  631MPD2    H3 9402   2.116   3.214  15.900 -3.1011  1.4717 -1.5225
  631MPD2     N 9403   2.496   3.159  15.656  0.4126  0.0844 -0.3321
  631MPD2    H5 9404   2.539   3.175  15.566  1.2383 -0.8135 -0.1048
  631MPD2    N1 9405   2.087   3.367  15.485 -0.1214 -0.7457 -0.7530
  631MPD2    H7 9406   1.992   3.398  15.505 -0.1997 -0.2212 -1.9181
  632TMC3    C1 9407   2.028   3.470  15.284  0.5551  0.3803 -0.3631
  632TMC3    C2 9408   1.916   3.513  15.348 -0.0406 -0.0857  0.2290
  632TMC3    C3 9409   1.852   3.617  15.290 -1.0536 -0.7939 -0.6368
  632TMC3    C4 9410   2.082   3.528  15.176 -0.4490 -0.4624  0.8229
  632TMC3    C5 9411   2.016   3.634  15.122  0.0011  0.6043 -0.0683
  632TMC3    C6 9412   1.903   3.679  15.179 -0.2397  0.1576  0.8479
  632TMC3     C 9413   2.132   3.395  15.358  0.9141  0.1272 -0.2681
  632TMC3     O 9414   2.232   3.363  15.306 -0.0546 -0.2123 -0.4990
  632TMC3     H 9415   1.871   3.474  15.439 -0.1810  0.3264  0.3354
  632TMC3    H1 9416   2.171   3.491  15.126 -0.6685  1.0768 -0.6955
  632TMC3    H2 9417   1.845   3.764  15.146  2.3558  1.9679  0.9786
  632TMC3    C7 9418   2.072   3.687  14.993  1.1737 -0.2217 -0.3824
  632TMC3    C8 9419   1.753   3.680  15.371  0.3307  0.4987  1.0795
  632TMC3    O1 9420   2.167   3.632  14.933  0.0691 -0.2877  0.4811
  632TMC3    O2 9421   1.771   3.799  15.397 -0.2470 -0.1364 -0.6919
  633MPD2     C 9422   2.388   2.063  17.699  0.3438 -0.5011 -0.2742
  633MPD2    C1 9423   2.363   1.982  17.597 -0.7232 -0.8600  0.4396
  633MPD2    C2 9424   2.339   1.846  17.615  0.5375  0.1664  0.0275
  633MPD2    C3 9425   2.344   1.786   0.003  0.7114 -0.2864 -0.6566
  633MPD2    C4 9426   2.362   1.873   0.110  0.9710  0.1132  0.8765
  633MPD2    C5 9427   2.386   2.010   0.092 -0.5374 -0.1779  0.1264
  633MPD2     H 9428   2.337   1.784  17.526 -0.8385 -2.7051  2.0705
  633MPD2    H1 9429   2.365   1.844   0.214  0.0900 -1.7389  0.3862
  633MPD2    H2 9430   2.405   2.170  17.688 -2.0164 -0.1566 -0.6453
  633MPD2    H3 9431   2.391   2.076   0.178 -0.5579 -1.3297  0.9954
  633MPD2     N 9432   2.308   1.657   0.032  0.6819  0.1491  0.2288
  633MPD2    H5 9433   2.304   1.621   0.127 -0.5601 -2.1142 -0.6898
  633MPD2    N1 9434   2.367   2.030  17.461 -0.0297 -0.0444  0.2735
  633MPD2    H7 9435   2.339   1.969  17.385 -0.0718  0.5919 -0.2253
  634TMC3    C1 9436   2.403   2.166  17.271  0.9099  0.6438 -1.0406
  634TMC3    C2 9437   2.462   2.061  17.193 -0.6011  0.0386  0.5006
  634TMC3    C3 9438   2.456   2.067  17.060 -0.1970 -0.7718 -0.2035
  634TMC3    C4 9439   2.372   2.287  17.213 -1.0490  0.7780  0.5811
  634TMC3    C5 9440   2.388   2.290  17.076  0.6482  0.0416  0.6530
  634TMC3    C6 9441   2.419   2.184  16.998 -0.5114 -0.0688  0.1332
  634TMC3     C 9442   2.404   2.156  17.413  0.4313 -0.6707  0.1347
  634TMC3     O 9443   2.424   2.259  17.474 -0.3849 -0.1102 -0.0345
  634TMC3     H 9444   2.476   1.967  17.247 -1.9477 -0.1446  0.5227
  634TMC3    H1 9445   2.336   2.369  17.273  0.1629  0.2559  2.0308
  634TMC3    H2 9446   2.413   2.183  16.890  0.1788  0.5504  0.0935
  634TMC3    C7 9447   2.340   2.401  16.994 -0.3624  0.0283  0.5245
  634TMC3    C8 9448   2.480   1.944  16.993  0.6102  0.8866 -0.0005
  634TMC3    O1 9449   2.398   2.412  16.887  0.1267  0.3513  0.0844
  634TMC3    O2 9450   2.484   1.838  17.048  0.3695 -0.4164 -0.3397
  635TMC3    C1 9451   2.427   2.472   0.914  0.0399 -0.6672 -0.3774
  635TMC3    C2 9452   2.553   2.422   0.905 -0.4907  0.3916 -0.5872
  635TMC3    C3 9453   2.567   2.288   0.906  0.3648 -0.2052  0.6453
  635TMC3    C4 9454   2.318   2.387   0.924 -0.2111 -0.5925  0.1051
  635TMC3    C5 9455   2.341   2.252   0.933 -0.6355 -0.2862  0.2936
  635TMC3    C6 9456   2.469   2.198   0.931 -0.1766 -0.4860 -0.3819
  635TMC3     C 9457   2.418   2.616   0.911  0.2580 -0.5193  0.1652
  635TMC3     O 9458   2.519   2.680   0.922 -0.1988  0.3637 -0.4323
  635TMC3     H 9459   2.639   2.484   0.881 -1.1583  1.5136 -0.0394
  635TMC3    H1 9460   2.216   2.424   0.929 -0.2821 -0.7961  0.1504
  635TMC3    H2 9461   2.497   2.097   0.959  0.6403 -0.2552 -0.3952
  635TMC3    C7 9462   2.220   2.156   0.935 -0.5991 -0.1058  0.5008
  635TMC3    C8 9463   2.703   2.243   0.893  0.5150 -0.2114  0.0394
  635TMC3    O1 9464   2.106   2.200   0.938  0.4318  0.3195 -0.3942
  635TMC3    O2 9465   2.789   2.326   0.920  0.3874  0.6944  0.6404
  636MPD2     C 9466   3.179   1.593  16.254 -0.0428  0.2394  0.3459
  636MPD2    C1 9467   3.234   1.613  16.376 -0.1540 -0.8116  0.1062
  636MPD2    C2 9468   3.293   1.509  16.441  1.2547 -0.3229  0.2398
  636MPD2    C3 9469   3.290   1.381  16.393  0.5194  0.1010 -0.1751
  636MPD2    C4 9470   3.235   1.358  16.273  0.0186 -0.2496  0.3930
  636MPD2    C5 9471   3.183   1.466  16.201  0.0702  0.7895  0.1206
  636MPD2     H 9472   3.338   1.523  16.538  0.3627  1.9962  0.3335
  636MPD2    H1 9473   3.236   1.263  16.221 -1.7576 -1.0011  1.7264
  636MPD2    H2 9474   3.119   1.669  16.207 -2.8860 -1.6180  0.9535
  636MPD2    H3 9475   3.151   1.465  16.098  0.7268  2.3729 -0.0942
  636MPD2     N 9476   3.359   1.291  16.473 -0.0197 -0.7044 -0.3492
  636MPD2    H5 9477   3.387   1.314  16.567  1.3233 -0.6755 -0.7489
  636MPD2    N1 9478   3.218   1.736  16.445  1.1193 -0.1865 -1.0539
  636MPD2    H7 9479   3.252   1.750  16.540  0.3061 -0.2687 -0.7493
  637TMC3    C1 9480   3.507   1.122  16.526 -0.3348 -1.0924  0.2230
  637TMC3    C2 9481   3.483   1.142  16.660 -0.0608  0.1311  0.5826
  637TMC3    C3 9482   3.591   1.153  16.748 -0.0179  0.2667 -0.1412
  637TMC3    C4 9483   3.629   1.097  16.473  0.4154  0.2753 -0.0905
  637TMC3    C5 9484   3.734   1.114  16.563  0.2763 -0.5894 -0.7270
  637TMC3    C6 9485   3.712   1.129  16.696  0.3675 -0.0955 -0.3958
  637TMC3     C 9486   3.417   1.177  16.427  0.1667  0.4524  0.0648
  637TMC3     O 9487   3.435   1.145  16.308  0.2198 -0.6456  0.5639
  637TMC3     H 9488   3.384   1.156  16.700 -0.4037 -0.1185 -0.1854
  637TMC3    H1 9489   3.643   1.088  16.366  1.5741  0.9642  0.0032
  637TMC3    H2 9490   3.801   1.148  16.755 -0.0619 -0.4185  0.3537
  637TMC3    C7 9491   3.818   1.225  16.517 -0.2441 -0.1996 -0.0039
  637TMC3    C8 9492   3.584   1.283  16.819  0.4108  0.2924  0.8515
  637TMC3    O1 9493   3.853   1.303  16.603  0.4818  0.1266 -0.1211
  637TMC3    O2 9494   3.492   1.354  16.776 -0.2588  0.0304  0.0974
  638MPD2     C 9495   3.048   0.679  15.500 -0.1507  0.1862  0.2603
  638MPD2    C1 9496   3.130   0.570  15.488  0.1362 -0.5168 -0.0499
  638MPD2    C2 9497   3.107   0.465  15.570  0.8152 -0.0143  0.0403
  638MPD2    C3 9498   3.000   0.467  15.647  0.4374 -0.6806 -0.0349
  638MPD2    C4 9499   2.924   0.577  15.672 -0.4445  0.0002 -0.0693
  638MPD2    C5 9500   2.952   0.684  15.595  0.2706 -0.4490 -0.8069
  638MPD2     H 9501   3.161   0.372  15.553  0.1463 -0.6621  1.4475
  638MPD2    H1 9502   2.837   0.566  15.737 -0.1359 -1.1519  0.1570
  638MPD2    H2 9503   3.049   0.767  15.437 -2.7700  0.4050  0.5258
  638MPD2    H3 9504   2.884   0.766  15.612  0.8042  0.0219 -0.9294
  638MPD2     N 9505   2.970   0.336  15.701  0.8498  0.2380 -0.4435
  638MPD2    H5 9506   3.048   0.275  15.680  0.5638 -0.5340  0.7214
  638MPD2    N1 9507   3.231   0.553  15.385 -0.2264 -0.4366  0.0719
  638MPD2    H7 9508   3.287   0.469  15.388  1.1989  0.4445 -1.4898
  639TMC3    C1 9509   2.867   0.141  15.688 -0.3810  0.8069 -0.1316
  639TMC3    C2 9510   2.798   0.099  15.578  0.6527 -0.1134  0.0121
  639TMC3    C3 9511   2.868   0.013  15.493  0.3093  0.0174 -0.1135
  639TMC3    C4 9512   2.996   0.105  15.713  0.2309 -0.1045 -0.1226
  639TMC3    C5 9513   3.063   0.026  15.624  0.3613  0.0199  0.4528
  639TMC3    C6 9514   3.001   4.710  15.518  0.3274  0.0337  1.0707
  639TMC3     C 9515   2.851   0.279  15.726 -0.3385 -0.0346  0.7643
  639TMC3     O 9516   2.739   0.323  15.722 -0.2588  0.0615 -0.4741
  639TMC3     H 9517   2.715   0.157  15.537  0.7232 -0.2195 -0.2835
  639TMC3    H1 9518   3.046   0.137  15.804 -3.0321 -0.7466  1.8877
  639TMC3    H2 9519   3.057   4.650  15.448  1.0465  1.1952  0.6465
  639TMC3    C7 9520   3.204   4.721  15.641 -0.3316 -1.0709 -0.4924
  639TMC3    C8 9521   2.814   4.717  15.362  0.0196 -1.1807 -0.8356
  639TMC3    O1 9522   3.241   4.733  15.756 -0.1877 -1.3700 -0.1097
  639TMC3    O2 9523   2.889   4.667  15.282 -0.0135  0.0405  0.1347
  640MPD2     C 9524   3.586   4.403  10.402 -0.8945  0.3429  0.2431
  640MPD2    C1 9525   3.656   4.439  10.287  0.0703 -0.0973  0.2483
  640MPD2    C2 9526   3.708   4.567  10.289 -0.2737  0.1125 -0.2393
  640MPD2    C3 9527   3.687   4.649  10.398  0.1608  0.4108  0.2742
  640MPD2    C4 9528   3.616   4.613  10.511  0.1839 -0.1302  0.1139
  640MPD2    C5 9529   3.573   4.483  10.514  0.4375  0.3089  0.8602
  640MPD2     H 9530   3.759   4.612  10.204  0.3862 -0.9394 -0.3879
  640MPD2    H1 9531   3.591   4.689  10.585  0.2572 -0.6222  0.6475
  640MPD2    H2 9532   3.548   4.302  10.410 -0.0036  0.0230  0.3725
  640MPD2    H3 9533   3.504   4.454  10.592  0.9555  0.0686  1.2253
  640MPD2     N 9534   3.745   0.041  10.411 -0.1620 -0.1779 -0.3040
  640MPD2    H5 9535   3.730   0.084  10.502 -2.4766 -1.9408  0.1532
  640MPD2    N1 9536   3.671   4.342  10.185  0.1685 -0.0326 -0.3139
  640MPD2    H7 9537   3.633   4.248  10.193  0.2510  0.0953  1.6211
  641TMC3    C1 9538   3.756   4.245   9.990  0.0955  0.0436 -0.1410
  641TMC3    C2 9539   3.796   4.126  10.044  0.3560 -0.0889  0.3301
  641TMC3    C3 9540   3.815   4.025   9.957  0.0264 -0.1286 -0.3656
  641TMC3    C4 9541   3.749   4.263   9.852  0.6269 -0.3565  0.3413
  641TMC3    C5 9542   3.781   4.159   9.771 -0.6051 -0.2891 -0.1857
  641TMC3    C6 9543   3.806   4.037   9.820  0.0131  0.3068  0.3831
  641TMC3     C 9544   3.746   4.368  10.070  0.2072  0.4115 -0.0358
  641TMC3     O 9545   3.789   4.471  10.029  0.4925  0.0263  0.1417
  641TMC3     H 9546   3.805   4.113  10.151  0.5422 -1.2601  0.1725
  641TMC3    H1 9547   3.709   4.355   9.812 -1.3859  0.2319  3.7633
  641TMC3    H2 9548   3.835   3.954   9.757  0.9532  2.1741 -1.6412
  641TMC3    C7 9549   3.769   4.176   9.633  0.6699 -0.5909  1.1896
  641TMC3    C8 9550   3.836   3.891  10.003 -0.4021 -0.6584 -0.2849
  641TMC3    O1 9551   3.699   4.267   9.592  0.0701 -0.1989  0.8119
  641TMC3    O2 9552   3.889   3.822   9.920 -0.1761  0.4077 -0.3344
  642TMC3    C1 9553   0.108   0.210  13.053 -0.1065 -0.1287 -0.1702
  642TMC3    C2 9554   0.221   0.231  12.980 -0.4411  0.0067 -0.6008
  642TMC3    C3 9555   0.282   0.116  12.939  0.7202 -0.3320  0.6925
  642TMC3    C4 9556   0.056   0.082  13.069  0.4751  0.1076 -0.2975
  642TMC3    C5 9557   0.121   4.709  13.013 -0.1501  0.2633 -0.2557
  642TMC3    C6 9558   0.247   4.722  12.967 -0.1169 -0.4671  0.0457
  642TMC3     C 9559   0.043   0.320  13.123  0.0203  0.2176  0.3957
  642TMC3     O 9560   0.111   0.422  13.137  0.8892 -0.7643  0.2749
  642TMC3     H 9561   0.254   0.332  12.959  1.6671 -0.3332  1.0710
  642TMC3    H1 9562   4.716   0.059  13.145  0.6095  1.0498  0.1141
  642TMC3    H2 9563   0.308   4.633  12.959  0.2659 -0.3481  1.7694
  642TMC3    C7 9564   0.077   4.575  13.048  0.1303 -0.2153 -0.1096
  642TMC3    C8 9565   0.410   0.130  12.878 -0.2467  0.9337  0.2696
  642TMC3    O1 9566   0.156   4.485  13.022  0.3997 -0.5892 -0.1036
  642TMC3    O2 9567   0.474   0.025  12.863  0.0733  0.3399 -0.4009
  643TMC3    C1 9568   4.312   4.215   0.832  0.2980  0.6575 -0.8543
  643TMC3    C2 9569   4.177   4.189   0.832  0.2313  0.3504  0.0265
  643TMC3    C3 9570   4.125   4.134   0.712  0.5806 -1.2751 -0.2575
  643TMC3    C4 9571   4.387   4.183   0.726  0.0784  0.1261 -0.1644
  643TMC3    C5 9572   4.335   4.118   0.618 -1.0937  0.0023  0.1103
  643TMC3    C6 9573   4.204   4.090   0.610 -0.4215  1.1338 -0.0737
  643TMC3     C 9574   4.348   4.270   0.962 -0.1599  0.1269  0.5068
  643TMC3     O 9575   4.269   4.266   1.058 -0.2051 -0.2988  0.2335
  643TMC3     H 9576   4.118   4.198   0.923 -0.7909  0.3022 -0.6261
  643TMC3    H1 9577   4.493   4.204   0.722 -0.2574  1.7423 -0.4557
  643TMC3    H2 9578   4.161   4.046   0.520  0.5098 -1.4642  0.7554
  643TMC3    C7 9579   4.387   4.171   0.495 -0.7344  0.4866 -0.1110
  643TMC3    C8 9580   4.033   4.238   0.664  0.2660 -0.3663 -0.4561
  643TMC3    O1 9581   4.403   4.294   0.479 -0.4164  0.4273 -0.0767
  643TMC3    O2 9582   4.030   4.337   0.736  0.0511  0.3357 -0.9907
  644MPD2     C 9583   4.027   4.662  10.592 -0.5268 -0.0176 -0.1109
  644MPD2    C1 9584   4.099   4.653  10.473  0.2681 -1.0565 -0.5600
  644MPD2    C2 9585   4.195   0.016  10.455 -0.7900  0.1693  1.1378
  644MPD2    C3 9586   4.219   0.117  10.541 -0.4743  0.5043 -0.3946
  644MPD2    C4 9587   4.150   0.123  10.664 -0.2050  0.7293  0.9216
  644MPD2    C5 9588   4.051   0.023  10.685  0.4623 -0.0816  0.8100
  644MPD2     H 9589   4.272   0.009  10.380 -0.3316 -1.5252  1.7481
  644MPD2    H1 9590   4.178   0.198  10.737 -1.1404 -0.0954  2.1125
  644MPD2    H2 9591   3.943   4.593  10.591  1.3440 -2.3389  1.1884
  644MPD2    H3 9592   4.001   0.019  10.781 -2.1431 -0.5325 -0.5904
  644MPD2     N 9593   4.311   0.213  10.492 -0.0040  0.3933 -0.6377
  644MPD2    H5 9594   4.352   0.198  10.400  0.1088  1.3469 -0.7374
  644MPD2    N1 9595   4.075   4.538  10.388 -0.2367 -0.2381  0.1693
  644MPD2    H7 9596   4.008   4.469  10.420  0.9806 -0.7948  1.5260
  645TMC3    C1 9597   4.443   0.406  10.480 -0.8904 -0.4051 -0.0506
  645TMC3    C2 9598   4.526   0.336  10.400 -0.0086  0.3531  0.3652
  645TMC3    C3 9599   4.605   0.409  10.311 -0.2922  0.7388  0.6614
  645TMC3    C4 9600   4.417   0.540  10.474  0.1769 -0.1628 -0.2166
  645TMC3    C5 9601   4.494   0.604  10.375  0.1836  0.2672 -0.6140
  645TMC3    C6 9602   4.585   0.542  10.294  0.2471 -0.8044  0.1655
  645TMC3     C 9603   4.352   0.329  10.554  0.0605  0.0758 -0.5492
  645TMC3     O 9604   4.299   0.385  10.649 -1.3142 -0.3401 -0.2386
  645TMC3     H 9605   4.546   0.231  10.421  3.5304  1.5446  2.8692
  645TMC3    H1 9606   4.346   0.591  10.538  0.8425  0.5163 -0.0203
  645TMC3    H2 9607   4.631   0.597  10.212 -0.4679  0.3563  0.5480
  645TMC3    C7 9608   4.477   0.749  10.359 -0.0961  0.3025  0.4043
  645TMC3    C8 9609   4.679   0.331  10.222  0.3558 -0.8280 -0.0005
  645TMC3    O1 9610   4.575   0.809  10.311 -0.5168  0.4918 -0.3081
  645TMC3    O2 9611   4.643   0.216  10.195 -0.3711  0.1481 -0.2878
  646MPD2     C 9612   3.231   3.727  14.650 -0.6534  0.5768 -0.0000
  646MPD2    C1 9613   3.214   3.794  14.765 -0.2807  0.2040  0.2400
  646MPD2    C2 9614   3.102   3.873  14.778  0.8624 -0.3722 -0.0974
  646MPD2    C3 9615   3.012   3.888  14.679  0.5517 -0.4327  0.2943
  646MPD2    C4 9616   3.025   3.818  14.564  0.1857 -0.0346  0.2412
  646MPD2    C5 9617   3.136   3.734  14.553 -0.6260 -0.9588  0.6964
  646MPD2     H 9618   3.076   3.925  14.870 -2.1214 -2.8833  0.4689
  646MPD2    H1 9619   2.957   3.845  14.483  1.9452 -1.0103 -1.5512
  646MPD2    H2 9620   3.314   3.659  14.632 -0.4801  0.5893  0.7775
  646MPD2    H3 9621   3.149   3.686  14.456 -1.1704 -0.2800  0.2818
  646MPD2     N 9622   2.902   3.973  14.682 -0.6436 -0.1592  0.1188
  646MPD2    H5 9623   2.830   3.971  14.609  0.4014 -1.7904 -0.8611
  646MPD2    N1 9624   3.312   3.783  14.864 -0.6740  0.3284 -0.7223
  646MPD2    H7 9625   3.391   3.732  14.826 -1.9713 -1.9147 -0.4325
  647TMC3    C1 9626   3.412   3.772  15.083  0.7772  0.4581  0.7806
  647TMC3    C2 9627   3.393   3.738  15.217 -0.9691 -0.4822 -0.0145
  647TMC3    C3 9628   3.504   3.734  15.296 -0.4500 -0.0567 -0.3269
  647TMC3    C4 9629   3.536   3.794  15.029 -0.8431 -0.3117 -0.0706
  647TMC3    C5 9630   3.643   3.775  15.107 -0.1034 -0.6641 -0.2883
  647TMC3    C6 9631   3.629   3.758  15.245  0.0795 -0.3629 -0.3433
  647TMC3     C 9632   3.296   3.816  15.000  0.1010 -0.2749  0.2219
  647TMC3     O 9633   3.186   3.836  15.053  0.0913  0.0108  0.5341
  647TMC3     H 9634   3.290   3.714  15.241 -1.3427  0.6490 -0.4942
  647TMC3    H1 9635   3.551   3.809  14.922 -1.4314 -1.9362 -0.3938
  647TMC3    H2 9636   3.713   3.727  15.305  0.4095  0.8365 -0.1940
  647TMC3    C7 9637   3.749   3.688  15.067 -0.0390  0.1656  0.0385
  647TMC3    C8 9638   3.501   3.630  15.403  0.3251 -0.1975 -0.0105
  647TMC3    O1 9639   3.855   3.700  15.134 -0.0188  0.1117 -0.1229
  647TMC3    O2 9640   3.608   3.615  15.459  0.0645 -0.0469 -0.4895
  648TMC3    C1 9641   2.800   1.897  16.376 -0.3407  0.5333 -0.0265
  648TMC3    C2 9642   2.825   1.765  16.341 -0.6597 -0.0486 -0.2521
  648TMC3    C3 9643   2.752   1.713  16.235  0.5971  0.7122 -0.0516
  648TMC3    C4 9644   2.718   1.978  16.293  0.2449  0.7082 -0.0676
  648TMC3    C5 9645   2.660   1.928  16.185  0.3453  0.4027  0.3161
  648TMC3    C6 9646   2.673   1.792  16.153 -0.2274  0.0194  0.2205
  648TMC3     C 9647   2.854   1.950  16.504  0.2462 -0.0535  0.0480
  648TMC3     O 9648   2.863   2.073  16.506  0.0148 -0.1230  0.2798
  648TMC3     H 9649   2.898   1.712  16.401  0.0658  1.4430  0.1742
  648TMC3    H1 9650   2.705   2.080  16.328 -1.9110 -0.0463  1.3563
  648TMC3    H2 9651   2.623   1.748  16.068  0.5510  0.5501 -0.5070
  648TMC3    C7 9652   2.588   2.004  16.090 -0.1484  0.0503  0.0161
  648TMC3    C8 9653   2.779   1.580  16.198 -0.1621  0.1874  0.3838
  648TMC3    O1 9654   2.550   1.952  15.989 -0.0775 -0.6598 -0.4895
  648TMC3    O2 9655   2.718   1.540  16.102 -0.3297  0.0920  0.0642
  649TMC3    C1 9656   1.745   2.433  13.185  0.7676  0.0525  0.6239
  649TMC3    C2 9657   1.872   2.441  13.236 -0.4460 -0.7312 -0.0333
  649TMC3    C3 9658   1.896   2.392  13.362 -0.0561 -0.9668  0.0596
  649TMC3    C4 9659   1.640   2.394  13.264  0.2070 -0.1873  1.0576
  649TMC3    C5 9660   1.668   2.361  13.397  0.2126 -0.1542  0.3537
  649TMC3    C6 9661   1.794   2.364  13.448  0.1329 -0.4791  0.1893
  649TMC3     C 9662   1.722   2.445  13.043  0.0081  0.0414 -0.4368
  649TMC3     O 9663   1.615   2.483  13.008 -0.1654  0.2857  0.3286
  649TMC3     H 9664   1.951   2.487  13.177 -0.5134 -0.8508 -0.2178
  649TMC3    H1 9665   1.545   2.381  13.214 -0.5345  2.7914  1.6621
  649TMC3    H2 9666   1.814   2.343  13.553 -0.0270 -1.3786  0.0345
  649TMC3    C7 9667   1.557   2.347  13.486  0.2152 -0.6149  0.1025
  649TMC3    C8 9668   2.028   2.378  13.411  0.4515 -0.3076 -0.2870
  649TMC3    O1 9669   1.446   2.374  13.438 -0.7158  0.1489 -0.0992
  649TMC3    O2 9670   2.025   2.315  13.516  0.3200 -0.0161  0.0116
  650TMC3    C1 9671   4.075   4.083  12.927  0.5068  0.6952 -0.1123
  650TMC3    C2 9672   3.976   4.171  12.971 -0.1103 -0.3386  0.0634
  650TMC3    C3 9673   3.999   4.308  12.960 -0.2280  0.2553  0.4909
  650TMC3    C4 9674   4.192   4.119  12.868  0.4291  0.5591  0.4375
  650TMC3    C5 9675   4.196   4.253  12.845 -0.3765 -0.3940  0.3917
  650TMC3    C6 9676   4.107   4.353  12.895  0.0803  0.1515  0.3131
  650TMC3     C 9677   4.038   3.940  12.949  0.5636 -0.2317 -0.3811
  650TMC3     O 9678   3.919   3.913  12.971  0.4487  0.3491 -0.4938
  650TMC3     H 9679   3.883   4.132  13.008 -0.3365  1.1885  1.1304
  650TMC3    H1 9680   4.259   4.050  12.818 -0.2114  0.2199  0.0590
  650TMC3    H2 9681   4.108   4.457  12.865  2.6955  0.3545  1.1877
  650TMC3    C7 9682   4.328   4.296  12.792 -0.9056 -1.0474  0.2289
  650TMC3    C8 9683   3.880   4.384  12.952 -0.1888 -0.3094 -0.2004
  650TMC3    O1 9684   4.393   4.207  12.737  0.1129 -0.3461  0.1354
  650TMC3    O2 9685   3.885   4.489  12.890 -0.1830 -0.2141 -0.4628
  651MPD2     C 9686   2.698   1.145  10.950 -1.0164 -0.1254  0.3470
  651MPD2    C1 9687   2.646   1.260  10.886 -0.1373  0.1731  0.1306
  651MPD2    C2 9688   2.737   1.351  10.831  0.7090 -0.1787  0.0210
  651MPD2    C3 9689   2.873   1.322  10.828 -0.5196 -0.0651  0.8559
  651MPD2    C4 9690   2.922   1.211  10.884 -0.6343  0.1791 -0.1184
  651MPD2    C5 9691   2.835   1.123  10.948  0.0141 -0.1326  0.0670
  651MPD2     H 9692   2.713   1.447  10.787  0.2594 -1.1555 -1.8826
  651MPD2    H1 9693   3.027   1.186  10.880 -1.2216 -2.5787  1.3506
  651MPD2    H2 9694   2.639   1.063  10.989 -1.0763  0.0636  0.6533
  651MPD2    H3 9695   2.878   1.030  10.983 -1.4166 -1.4489 -1.6410
  651MPD2     N 9696   2.955   1.412  10.752 -0.1690  0.0355 -0.6703
  651MPD2    H5 9697   2.919   1.503  10.725  0.7288  0.5443 -0.1693
  651MPD2    N1 9698   2.506   1.295  10.874  0.1157 -0.4820  0.0085
  651MPD2    H7 9699   2.489   1.394  10.860  2.9081 -0.0569 -0.3048
  652TMC3    C1 9700   3.365   1.618  10.673  0.6488  0.0639  0.1156
  652TMC3    C2 9701   3.300   1.505  10.712 -0.2378  0.3690 -0.0129
  652TMC3    C3 9702   3.163   1.502  10.671 -0.2865 -0.4659  0.3824
  652TMC3    C4 9703   3.311   1.722  10.604  0.0952 -0.4623 -0.1898
  652TMC3    C5 9704   3.187   1.704  10.550  0.2408 -0.1194 -0.6208
  652TMC3    C6 9705   3.112   1.603  10.589 -0.7364  0.1337  0.8055
  652TMC3     C 9706   3.508   1.621  10.702  0.1175 -0.5405 -1.2600
  652TMC3     O 9707   3.545   1.560  10.800  0.2940 -0.2604 -0.1373
  652TMC3     H 9708   3.352   1.436  10.778 -1.4605 -0.9518 -0.4467
  652TMC3    H1 9709   3.362   1.813  10.576 -0.0993 -0.5516 -0.8447
  652TMC3    H2 9710   3.004   1.609  10.578 -0.6580 -1.3359 -0.8228
  652TMC3    C7 9711   3.112   1.809  10.471 -0.0503  0.2300 -0.5132
  652TMC3    C8 9712   3.087   1.393  10.723  0.0782  0.5523 -0.6237
  652TMC3    O1 9713   3.019   1.782  10.395  0.1844  0.0830 -0.2023
  652TMC3    O2 9714   3.159   1.296  10.748  0.9626 -0.8483  0.1437
  653MPD2     C 9715   2.026   1.999   0.122  0.0705 -0.1955  0.0993
  653MPD2    C1 9716   1.975   2.101   0.036  0.0297 -0.7126  0.0606
  653MPD2    C2 9717   1.891   2.062  17.668  0.5077 -0.2171 -0.3347
  653MPD2    C3 9718   1.871   1.929  17.628  0.1401 -0.3709 -0.5075
  653MPD2    C4 9719   1.932   1.836  17.701  0.0469  0.1026 -0.0391
  653MPD2    C5 9720   2.014   1.873   0.072 -0.2348 -0.2598 -0.0501
  653MPD2     H 9721   1.857   2.149  17.613 -1.7898 -0.8289  0.1084
  653MPD2    H1 9722   1.939   1.729  17.679 -0.6611  0.0834 -0.1644
  653MPD2    H2 9723   2.087   2.016   0.210  0.1065  1.5232 -0.2449
  653MPD2    H3 9724   2.077   1.794   0.112  0.3980  0.2789  0.0276
  653MPD2     N 9725   1.790   1.893  17.518 -0.1010  0.1356 -0.0940
  653MPD2    H5 9726   1.753   1.970  17.461  0.9733  0.4995 -0.2896
  653MPD2    N1 9727   2.010   2.233   0.053 -0.9083 -0.0599  0.0702
  653MPD2    H7 9728   1.996   2.297  17.711 -1.5163 -2.3188 -1.6515
  654TMC3    C1 9729   1.695   1.761  17.342 -0.2721 -0.6854  0.2403
  654TMC3    C2 9730   1.589   1.846  17.314 -0.3699  0.0482 -0.4936
  654TMC3    C3 9731   1.518   1.834  17.196  0.3081  0.2253 -0.2288
  654TMC3    C4 9732   1.701   1.646  17.271 -0.5665 -1.6659 -0.3809
  654TMC3    C5 9733   1.628   1.632  17.154  0.3610 -0.1021 -0.0083
  654TMC3    C6 9734   1.543   1.729  17.108  0.5016  0.5818 -0.5052
  654TMC3     C 9735   1.757   1.767  17.478  0.3048  0.4844 -0.3152
  654TMC3     O 9736   1.783   1.655  17.529  0.1455  0.0176  0.0369
  654TMC3     H 9737   1.555   1.923  17.382 -2.7958 -0.9921 -0.5142
  654TMC3    H1 9738   1.769   1.567  17.301 -0.3762 -1.5180 -0.4177
  654TMC3    H2 9739   1.492   1.711  17.014 -0.3404  1.2100 -0.1758
  654TMC3    C7 9740   1.686   1.535  17.054 -0.2902  0.5336 -0.7854
  654TMC3    C8 9741   1.397   1.918  17.181  0.6123 -0.0713 -0.2153
  654TMC3    O1 9742   1.637   1.546  16.945  0.3907  0.0094 -0.1467
  654TMC3    O2 9743   1.370   2.003  17.261 -1.0086 -0.9044 -0.0279
  655MPD2     C 9744   2.966   1.952  15.971  0.0425  0.2834  0.1380
  655MPD2    C1 9745   2.891   2.016  15.874 -0.5238 -0.1150 -0.0329
  655MPD2    C2 9746   2.831   1.934  15.776 -0.1512  0.1892 -0.4158
  655MPD2    C3 9747   2.859   1.798  15.766 -0.6692  0.0550  0.1205
  655MPD2    C4 9748   2.962   1.754  15.839 -0.5142 -0.2698 -0.0900
  655MPD2    C5 9749   3.012   1.828  15.943  0.2021 -0.1574  0.4327
  655MPD2     H 9750   2.760   1.985  15.713 -1.0119  0.6526  0.9375
  655MPD2    H1 9751   2.999   1.652  15.835  0.4842  0.0154  1.5968
  655MPD2    H2 9752   3.009   2.006  16.054  1.3197 -0.6718  0.0889
  655MPD2    H3 9753   3.084   1.774  16.002 -2.4326 -0.2232  3.5527
  655MPD2     N 9754   2.801   1.715  15.667 -0.9202  0.6252  0.4477
  655MPD2    H5 9755   2.862   1.642  15.632  0.9212  2.6103 -0.5088
  655MPD2    N1 9756   2.860   2.157  15.870 -0.1692 -0.1815 -0.5308
  655MPD2    H7 9757   2.801   2.185  15.792 -0.0752 -1.0635 -0.9255
  656TMC3    C1 9758   2.885   2.380  15.954 -0.2060 -0.3979  0.6998
  656TMC3    C2 9759   2.902   2.466  16.058  0.2467 -0.1327 -0.0203
  656TMC3    C3 9760   2.876   2.600  16.048  0.7308  0.3819  0.0959
  656TMC3    C4 9761   2.828   2.426  15.841  0.1025  0.1388 -0.6280
  656TMC3    C5 9762   2.781   2.559  15.842  0.0351  0.2946  0.8088
  656TMC3    C6 9763   2.808   2.654  15.941  0.5197  0.2278 -0.2342
  656TMC3     C 9764   2.907   2.240  15.974 -0.1093  0.6324 -1.2587
  656TMC3     O 9765   2.938   2.219  16.088 -0.0064 -0.3453 -0.7376
  656TMC3     H 9766   2.954   2.431  16.147  2.3577  1.2886 -0.7128
  656TMC3    H1 9767   2.794   2.366  15.757  1.9433 -1.5832 -0.1528
  656TMC3    H2 9768   2.778   2.758  15.936  0.0366  0.0034 -2.0133
  656TMC3    C7 9769   2.698   2.604  15.728  0.5733 -0.0893  0.0902
  656TMC3    C8 9770   2.827   2.656  16.167  0.2968 -0.0058 -0.2510
  656TMC3    O1 9771   2.741   2.574  15.616 -0.5874 -0.1719 -0.2555
  656TMC3    O2 9772   2.838   2.773  16.194  0.6244  0.1632  0.1152
  657TMC3    C1 9773   1.493   1.295  15.149  1.0167  0.1755  0.2449
  657TMC3    C2 9774   1.554   1.353  15.252 -0.7694 -0.5625 -0.6198
  657TMC3    C3 9775   1.594   1.483  15.241 -0.1318 -0.5777 -0.4259
  657TMC3    C4 9776   1.460   1.362  15.040  0.3927  0.4256 -0.5185
  657TMC3    C5 9777   1.490   1.494  15.031 -0.1840 -0.1415  0.4443
  657TMC3    C6 9778   1.566   1.554  15.129  0.3888  0.2473 -1.0031
  657TMC3     C 9779   1.504   1.145  15.137 -0.0181 -0.5041 -0.5710
  657TMC3     O 9780   1.437   1.099  15.048 -0.0652  0.6557 -0.3797
  657TMC3     H 9781   1.572   1.299  15.344  2.0219  0.7072 -0.4274
  657TMC3    H1 9782   1.401   1.306  14.968 -1.8552  1.5210  0.4575
  657TMC3    H2 9783   1.597   1.657  15.119 -1.3172  0.9135  0.4761
  657TMC3    C7 9784   1.399   1.571  14.951  0.6370  0.1012 -0.6113
  657TMC3    C8 9785   1.651   1.553  15.351 -0.1294  0.8456 -0.2983
  657TMC3    O1 9786   1.312   1.505  14.888  0.5405  0.5371  0.0831
  657TMC3    O2 9787   1.641   1.674  15.342  0.0677  0.0608  0.2023
  658MPD2     C 9788   3.202   1.599  15.191  0.1696  0.8928  0.1895
  658MPD2    C1 9789   3.076   1.570  15.139  0.0153 -0.2785 -0.0697
  658MPD2    C2 9790   3.060   1.582  15.003  0.5493 -0.1849 -0.2135
  658MPD2    C3 9791   3.167   1.609  14.925  0.7128 -0.4702 -0.0480
  658MPD2    C4 9792   3.290   1.640  14.974  0.8378  0.3289 -0.0112
  658MPD2    C5 9793   3.310   1.628  15.106  0.1534 -0.3021 -0.3751
  658MPD2     H 9794   2.970   1.547  14.954 -0.8260 -0.7689  2.7501
  658MPD2    H1 9795   3.380   1.672  14.924 -1.1599  1.2684 -2.9931
  658MPD2    H2 9796   3.215   1.605  15.299  3.0138 -0.0499 -0.1054
  658MPD2    H3 9797   3.405   1.658  15.150  0.4272 -2.4678  0.5428
  658MPD2     N 9798   3.134   1.617  14.783  0.4914 -0.1062 -0.0318
  658MPD2    H5 9799   3.038   1.601  14.756  1.0760  0.2487 -2.3244
  658MPD2    N1 9800   2.970   1.556  15.225 -0.2327 -0.1472  0.0928
  658MPD2    H7 9801   2.997   1.569  15.322 -0.1490  0.5454 -0.0282
  659TMC3    C1 9802   2.742   1.571  15.291 -0.1756 -0.2031  0.4118
  659TMC3    C2 9803   2.778   1.641  15.397 -0.0734  0.5291  0.2460
  659TMC3    C3 9804   2.673   1.700  15.466  0.3553  0.4451  0.2603
  659TMC3    C4 9805   2.612   1.559  15.246  0.3722  0.4636  1.1523
  659TMC3    C5 9806   2.520   1.633  15.311 -0.5548 -0.1363  0.0519
  659TMC3    C6 9807   2.541   1.706  15.424 -0.1511 -0.1712  1.6478
  659TMC3     C 9808   2.839   1.528  15.187 -0.5391 -0.0889  0.5410
  659TMC3     O 9809   2.797   1.482  15.084 -0.0878 -0.6682  0.0117
  659TMC3     H 9810   2.880   1.633  15.433  0.1923  3.3730  0.1124
  659TMC3    H1 9811   2.596   1.487  15.167 -0.2411 -0.0678  1.7669
  659TMC3    H2 9812   2.471   1.769  15.477  2.2219  3.2957  0.7139
  659TMC3    C7 9813   2.393   1.658  15.240 -0.1352 -0.4964 -0.6752
  659TMC3    C8 9814   2.694   1.769  15.594 -0.2682  0.3890 -0.5375
  659TMC3    O1 9815   2.336   1.750  15.289 -0.4948 -0.3301  0.2845
  659TMC3    O2 9816   2.598   1.831  15.643 -0.5055 -0.5045  0.2988
  660MPD2     C 9817   1.048   0.690  12.749  0.8679 -0.2337  0.1552
  660MPD2    C1 9818   0.949   0.725  12.842 -0.4211  0.4326 -0.1333
  660MPD2    C2 9819   0.905   0.633  12.941  0.0380  0.0503 -0.9061
  660MPD2    C3 9820   0.968   0.509  12.954 -0.2675 -0.2405  0.0198
  660MPD2    C4 9821   1.075   0.475  12.870 -0.3851  0.3254  0.0019
  660MPD2    C5 9822   1.099   0.560  12.761  0.0172  0.0475 -0.2956
  660MPD2     H 9823   0.824   0.652  13.011  0.5791 -1.7507  0.2151
  660MPD2    H1 9824   1.140   0.389  12.877 -1.3221 -0.3840 -0.0786
  660MPD2    H2 9825   1.081   0.752  12.667 -2.0016  1.0509 -0.0318
  660MPD2    H3 9826   1.189   0.541  12.703  0.3871 -0.4621  0.4517
  660MPD2     N 9827   0.914   0.417  13.047  0.6570 -0.4551  0.4087
  660MPD2    H5 9828   0.823   0.438  13.086  0.3707  0.6234 -0.8070
  660MPD2    N1 9829   0.880   0.845  12.822 -0.8333 -0.2282 -0.4256
  660MPD2    H7 9830   0.911   0.896  12.740  0.0366 -0.2601 -0.1156
  661TMC3    C1 9831   0.741   1.022  12.857  0.5018  0.2492 -0.0959
  661TMC3    C2 9832   0.776   1.047  12.729 -0.5974 -0.4405  0.3773
  661TMC3    C3 9833   0.682   1.056  12.633  0.0629  0.0997 -1.3772
  661TMC3    C4 9834   0.606   1.028  12.880  0.0228 -0.2775  0.2151
  661TMC3    C5 9835   0.506   1.033  12.784 -0.9075  0.0214 -0.0939
  661TMC3    C6 9836   0.549   1.048  12.654 -0.0265  0.0812 -0.4327
  661TMC3     C 9837   0.801   0.909  12.914  0.6436  0.7571  0.0256
  661TMC3     O 9838   0.771   0.878  13.028 -0.1943 -1.0321 -0.5777
  661TMC3     H 9839   0.881   1.063  12.709 -0.1376 -0.9359  2.3276
  661TMC3    H1 9840   0.570   1.008  12.981 -1.6159  1.7469  0.0495
  661TMC3    H2 9841   0.477   1.051  12.573 -0.1075  0.2221 -0.3548
  661TMC3    C7 9842   0.376   0.964  12.803 -0.1826 -0.2933 -0.5206
  661TMC3    C8 9843   0.735   1.051  12.497 -0.1302  0.0137 -0.5772
  661TMC3    O1 9844   0.315   0.994  12.905 -0.4591  0.1997  0.1168
  661TMC3    O2 9845   0.853   1.024  12.493 -0.0414  0.5904 -0.3484
  662MPD2     C 9846   1.498   0.148  17.643  0.4099 -0.3857  0.0988
  662MPD2    C1 9847   1.398   0.145   0.000  0.7077 -0.1036 -0.0594
  662MPD2    C2 9848   1.346   0.258   0.050  1.1034 -0.9874  0.5358
  662MPD2    C3 9849   1.389   0.380   0.004  1.0970 -0.8260 -0.7051
  662MPD2    C4 9850   1.491   0.388  17.650 -0.0422  0.4595 -0.6819
  662MPD2    C5 9851   1.541   0.272  17.604  0.8423  0.1955 -0.5694
  662MPD2     H 9852   1.259   0.253   0.114 -1.1847 -0.2547 -2.5398
  662MPD2    H1 9853   1.525   0.483  17.612  1.8866  0.2079  0.4027
  662MPD2    H2 9854   1.535   0.059  17.594 -1.5543 -0.7037 -0.8098
  662MPD2    H3 9855   1.616   0.278  17.525  0.3268 -0.0733 -1.0819
  662MPD2     N 9856   1.327   0.507   0.040 -0.4688 -0.2032  0.4423
  662MPD2    H5 9857   1.335   0.594  17.724 -1.5245 -0.4626 -0.1579
  662MPD2    N1 9858   1.340   0.021   0.029  0.4290  0.0190 -0.6424
  662MPD2    H7 9859   1.250   0.024   0.075  0.7233  0.0801 -0.0718
  663TMC3    C1 9860   1.324   4.527   0.035 -0.3556 -0.4212  0.0559
  663TMC3    C2 9861   1.187   4.542   0.014 -0.1492 -0.2339 -0.4125
  663TMC3    C3 9862   1.114   4.431  17.717 -0.3469 -0.2170  0.2136
  663TMC3    C4 9863   1.381   4.407   0.036 -0.0123 -0.0094  0.0083
  663TMC3    C5 9864   1.304   4.298   0.026  0.3544  0.8966 -0.0481
  663TMC3    C6 9865   1.173   4.308  17.723  0.0331 -0.1660  0.3258
  663TMC3     C 9866   1.409   4.638   0.024  0.8241 -0.0774 -0.4098
  663TMC3     O 9867   1.529   4.614   0.040 -0.1204  0.2601  0.1776
  663TMC3     H 9868   1.143   4.637  17.720 -1.0467 -0.1073  1.2813
  663TMC3    H1 9869   1.486   4.392   0.059  0.4711 -0.0701 -2.2289
  663TMC3    H2 9870   1.100   4.235   0.022  0.1124 -0.7361 -0.7036
  663TMC3    C7 9871   1.349   4.170   0.075  0.0711  0.2446 -0.6513
  663TMC3    C8 9872   0.979   4.427   0.038 -0.7664 -0.6328 -0.3440
  663TMC3    O1 9873   1.441   4.169   0.152  0.9766  0.1153 -0.0814
  663TMC3    O2 9874   0.892   4.360  17.720 -0.4812  0.6123  0.3827
  664MPD2     C 9875   3.854   3.412   0.286 -0.6034  1.0744  0.6778
  664MPD2    C1 9876   3.967   3.492   0.295 -0.0646  0.1251 -0.2232
  664MPD2    C2 9877   4.018   3.517   0.421  0.1809 -0.0368  0.1935
  664MPD2    C3 9878   3.957   3.451   0.537 -0.2133  0.9477 -0.0069
  664MPD2    C4 9879   3.842   3.379   0.522 -0.5564 -0.1077  0.2295
  664MPD2    C5 9880   3.792   3.362   0.395 -0.0472 -0.2815 -0.3956
  664MPD2     H 9881   4.108   3.577   0.430  1.2666 -1.7476  0.7917
  664MPD2    H1 9882   3.791   3.321   0.598 -0.9508 -0.5137 -0.3463
  664MPD2    H2 9883   3.809   3.391   0.190 -3.1450 -0.0562  2.0929
  664MPD2    H3 9884   3.702   3.303   0.382  1.5177 -2.4442 -1.2970
  664MPD2     N 9885   4.018   3.464   0.663 -0.1811 -0.3969  0.3663
  664MPD2    H5 9886   4.102   3.521   0.670 -0.2525 -0.3671  0.9615
  664MPD2    N1 9887   4.038   3.547   0.183  0.4026  0.1188  0.3228
  664MPD2    H7 9888   4.120   3.604   0.200  0.1821  0.6641 -0.4372
  665TMC3    C1 9889   4.054   3.448   0.893  0.0141  0.5709  0.1306
  665TMC3    C2 9890   4.009   3.406   1.016  0.2150  0.6495  0.1017
  665TMC3    C3 9891   4.081   3.455   1.126 -0.8650  0.2371 -0.6834
  665TMC3    C4 9892   4.171   3.524   0.877  0.0365 -0.0817 -0.1567
  665TMC3    C5 9893   4.229   3.569   0.992  0.0535 -0.0286 -0.4181
  665TMC3    C6 9894   4.194   3.527   1.119  0.3934 -0.4911 -0.4292
  665TMC3     C 9895   3.975   3.407   0.781  1.0107 -0.2419  0.3818
  665TMC3     O 9896   3.881   3.327   0.799  0.5267 -0.1952 -0.2212
  665TMC3     H 9897   3.923   3.341   1.016 -1.1609  2.4901  0.6795
  665TMC3    H1 9898   4.217   3.542   0.781  0.3691 -0.2307 -0.0229
  665TMC3    H2 9899   4.240   3.570   1.207 -1.3877 -0.6402  0.5726
  665TMC3    C7 9900   4.314   3.681   0.972  0.3357 -0.2842 -0.6873
  665TMC3    C8 9901   4.039   3.428   1.258  0.0478  0.0358  0.5625
  665TMC3    O1 9902   4.302   3.735   0.862  0.0870 -0.0510 -0.6282
  665TMC3    O2 9903   4.092   3.484   1.353  0.5813 -0.0375 -0.0134
  666TMC3    C1 9904   3.266   3.622   9.777 -0.7050 -0.6981  0.1121
  666TMC3    C2 9905   3.274   3.503   9.842  0.0758  0.1055 -0.1267
  666TMC3    C3 9906   3.392   3.483   9.907 -0.4238  0.5565  0.0766
  666TMC3    C4 9907   3.360   3.720   9.791 -0.2660 -0.3503  0.0167
  666TMC3    C5 9908   3.474   3.699   9.865  0.0855 -0.3056  0.3312
  666TMC3    C6 9909   3.496   3.574   9.911  0.1186 -0.3597  0.1933
  666TMC3     C 9910   3.145   3.666   9.724 -0.8266 -0.3198  1.2256
  666TMC3     O 9911   3.127   3.785   9.729  0.0864 -0.4672 -0.2662
  666TMC3     H 9912   3.187   3.439   9.845 -1.0675  1.5384 -2.2236
  666TMC3    H1 9913   3.340   3.823   9.764  0.0020 -0.4998 -0.7442
  666TMC3    H2 9914   3.595   3.550   9.948 -0.1543 -0.1894  1.0228
  666TMC3    C7 9915   3.496   3.800   9.963  0.1051 -0.0885 -0.2298
  666TMC3    C8 9916   3.381   3.392  10.013 -0.0594 -0.4738  0.6577
  666TMC3    O1 9917   3.517   3.760  10.077 -0.1075  0.1711  0.0275
  666TMC3    O2 9918   3.331   3.279   9.993  0.5496  0.3966 -0.7918
  667MPD2     C 9919   0.107   3.205  15.200 -0.1284  0.1863  0.5279
  667MPD2    C1 9920   0.046   3.190  15.321 -0.4635  0.1242  0.1877
  667MPD2    C2 9921   4.727   3.062  15.344  0.5999  0.1096  0.1079
  667MPD2    C3 9922   0.003   2.959  15.257  0.1906 -1.0336 -0.5348
  667MPD2    C4 9923   0.065   2.985  15.141  0.3689  0.4800 -0.1313
  667MPD2    C5 9924   0.100   3.109  15.107 -0.1823 -0.6031  0.6735
  667MPD2     H 9925   4.683   3.055  15.442  1.2675  0.0858  0.4075
  667MPD2    H1 9926   0.089   2.898  15.080 -1.6234  1.0274 -1.7272
  667MPD2    H2 9927   0.155   3.294  15.162  1.2310 -0.2187  1.2827
  667MPD2    H3 9928   0.161   3.131  15.019 -0.0363 -1.9569  0.4460
  667MPD2     N 9929   4.678   2.830  15.277  0.3571  0.3888  0.2832
  667MPD2    H5 9930   4.692   2.762  15.203 -1.5770  0.4853 -0.1655
  667MPD2    N1 9931   0.029   3.288  15.413  0.9985 -0.3294 -0.6020
  667MPD2    H7 9932   4.722   3.257  15.500  1.4101  1.1821  0.1305
  668TMC3    C1 9933   0.068   3.496  15.511 -0.8918 -0.3442 -0.0005
  668TMC3    C2 9934   0.158   3.598  15.515  0.0080 -0.5274  0.2121
  668TMC3    C3 9935   0.135   3.703  15.602 -0.1144 -0.8944 -0.2613
  668TMC3    C4 9936   4.692   3.493  15.588 -1.3150 -0.1373  0.5489
  668TMC3    C5 9937   4.678   3.594  15.682  0.4892  0.0560 -0.6239
  668TMC3    C6 9938   0.034   3.700  15.693 -0.6399 -0.2950  0.9975
  668TMC3     C 9939   0.084   3.410  15.398  0.1313 -0.8543  0.4493
  668TMC3     O 9940   0.145   3.456  15.306 -0.4526  0.8590  0.3044
  668TMC3     H 9941   0.244   3.598  15.449 -1.1635  0.4761 -1.3031
  668TMC3    H1 9942   4.619   3.415  15.569 -0.1471 -0.8321 -1.0932
  668TMC3    H2 9943   0.021   3.781  15.763  1.1206  0.9034 -0.0895
  668TMC3    C7 9944   4.594   3.574  15.802  0.3260  0.1206 -0.6639
  668TMC3    C8 9945   0.197   3.828  15.572  0.1274 -0.5563 -0.3270
  668TMC3    O1 9946   4.598   3.662  15.887 -0.3616  0.1916  0.4174
  668TMC3    O2 9947   0.175   3.917  15.652  0.2489  0.2020 -0.1095
  669TMC3    C1 9948   3.271   3.105  14.802  0.0026  0.4129 -1.1851
  669TMC3    C2 9949   3.143   3.092  14.754 -0.7613 -0.0851  0.8275
  669TMC3    C3 9950   3.104   3.152  14.643 -1.4734 -0.0224 -0.0730
  669TMC3    C4 9951   3.361   3.191  14.737  0.6050  0.1940 -0.8217
  669TMC3    C5 9952   3.325   3.238  14.612  0.1701  0.0192 -0.6157
  669TMC3    C6 9953   3.196   3.230  14.567 -0.2661 -0.1803 -0.5111
  669TMC3     C 9954   3.315   3.027  14.916  0.4270  0.2786  0.3100
  669TMC3     O 9955   3.276   2.910  14.909  0.4348  0.2266 -0.7191
  669TMC3     H 9956   3.078   3.018  14.801 -0.7062 -1.5801 -1.4541
  669TMC3    H1 9957   3.463   3.203  14.772  0.0773  3.6715 -0.5062
  669TMC3    H2 9958   3.162   3.267  14.471 -1.5164 -1.1940 -0.4590
  669TMC3    C7 9959   3.420   3.318  14.544  0.0859  0.2054 -0.3271
  669TMC3    C8 9960   2.961   3.161  14.605  0.7045  0.1865 -0.1122
  669TMC3    O1 9961   3.498   3.379  14.607  0.5701  0.0433 -0.1909
  669TMC3    O2 9962   2.893   3.061  14.618  0.3522 -0.3349 -0.1218
  670MPD2     C 9963   1.367   0.855  13.900 -0.2863 -0.5628 -0.6880
  670MPD2    C1 9964   1.425   0.727  13.924  0.2124 -0.6612 -0.2277
  670MPD2    C2 9965   1.343   0.626  13.979  0.3941  0.3099 -0.0276
  670MPD2    C3 9966   1.211   0.655  14.016 -0.2742 -0.0266  0.3037
  670MPD2    C4 9967   1.162   0.780  13.991 -0.6272  0.0936  0.5368
  670MPD2    C5 9968   1.237   0.883  13.934  0.0666 -0.4220  0.2616
  670MPD2     H 9969   1.383   0.525  13.981 -0.1842  0.0874  0.4697
  670MPD2    H1 9970   1.059   0.806  14.009 -0.8485  0.0870 -0.7549
  670MPD2    H2 9971   1.419   0.942  13.861  0.7445 -1.3630 -1.0993
  670MPD2    H3 9972   1.196   0.983  13.931 -2.2123 -1.3110  1.2911
  670MPD2     N 9973   1.138   0.551  14.075  0.4006  0.1656 -0.2797
  670MPD2    H5 9974   1.188   0.464  14.087  1.6793  0.9503 -0.0127
  670MPD2    N1 9975   1.561   0.701  13.882 -0.0150 -0.2256 -0.2525
  670MPD2    H7 9976   1.609   0.626  13.930  2.8052  3.2126  2.3903
  671TMC3    C1 9977   0.957   0.429  14.140  0.0467  0.3316 -0.1481
  671TMC3    C2 9978   1.038   0.353  14.214  0.5733 -0.7741 -0.4586
  671TMC3    C3 9979   1.068   0.225  14.168 -0.2488 -0.1879  0.3130
  671TMC3    C4 9980   0.889   0.374  14.035 -0.7456 -0.2594  0.3150
  671TMC3    C5 9981   0.917   0.252  13.991  0.5294  0.8289 -0.1390
  671TMC3    C6 9982   1.011   0.176  14.054 -0.4538  0.4004 -0.7871
  671TMC3     C 9983   1.005   0.560  14.105 -0.5013  0.0558 -0.3389
  671TMC3     O 9984   0.920   0.643  14.076 -0.5593 -0.0391  0.9051
  671TMC3     H 9985   1.107   0.394  14.288 -0.9522 -0.8641  1.0201
  671TMC3    H1 9986   0.854   0.448  13.964  0.4543  0.8995  0.9183
  671TMC3    H2 9987   1.047   0.083  14.012  1.3946  1.0660 -0.6565
  671TMC3    C7 9988   0.945   0.247  13.847 -0.1557  0.0818 -0.0011
  671TMC3    C8 9989   1.212   0.200  14.174 -0.1710 -0.5088 -0.0479
  671TMC3    O1 9990   1.062   0.255  13.809 -0.0836 -0.0320  0.1529
  671TMC3    O2 9991   1.288   0.297  14.153  0.3594 -0.1304  0.1441
  672MPD2     C 9992   1.556   1.638   1.240 -0.2367  0.1845  0.1188
  672MPD2    C1 9993   1.664   1.573   1.185  0.2665  0.0706 -0.9466
  672MPD2    C2 9994   1.785   1.612   1.227  0.0167  0.2846  0.0732
  672MPD2    C3 9995   1.799   1.703   1.332 -0.2002 -0.6085 -0.1593
  672MPD2    C4 9996   1.687   1.759   1.392 -0.0916  0.0932  0.5777
  672MPD2    C5 9997   1.561   1.720   1.354  0.3061 -0.1619 -0.0702
  672MPD2     H 9998   1.863   1.583   1.158 -0.0866  2.1672 -0.8355
  672MPD2    H1 9999   1.705   1.839   1.463 -1.8821  0.3674  0.7178
  672MPD2    H210000   1.461   1.625   1.190 -0.7748 -0.1910  1.2327
  672MPD2    H310001   1.474   1.767   1.399 -0.2295 -0.9071 -0.3479
  672MPD2     N10002   1.926   1.754   1.377  0.1432 -0.5724  0.0125
  672MPD2    H510003   1.919   1.825   1.449  0.0805 -0.7268  0.1579
  672MPD2    N110004   1.640   1.508   1.064 -0.7976 -0.1067  0.2707
  672MPD2    H710005   1.545   1.502   1.028 -1.3256  1.9881  1.3376
  673TMC3    C110006   1.670   1.377   0.880 -0.8701  0.1326  0.4330
  673TMC3    C210007   1.740   1.262   0.833 -0.5620 -0.0196 -0.1284
  673TMC3    C310008   1.727   1.217   0.706  0.3590 -0.3424 -0.0124
  673TMC3    C410009   1.606   1.454   0.783  0.6546  0.0373 -0.1856
  673TMC3    C510010   1.593   1.401   0.656 -0.3407 -0.4379 -0.0278
  673TMC3    C610011   1.650   1.286   0.615 -0.5983 -0.7297 -0.4298
  673TMC3     C10012   1.737   1.447   0.990 -1.4853 -0.3871 -0.4026
  673TMC3     O10013   1.856   1.428   1.017  0.4185  0.2779  0.0637
  673TMC3     H10014   1.799   1.202   0.901 -1.3215  0.6091  1.0993
  673TMC3    H110015   1.568   1.552   0.810 -0.2841 -0.7633  1.3571
  673TMC3    H210016   1.635   1.240   0.518 -2.2862  0.6832 -0.8443
  673TMC3    C710017   1.538   1.490   0.554  0.9040 -0.4755  0.1642
  673TMC3    C810018   1.812   1.113   0.645 -0.5332  0.8096 -0.1323
  673TMC3    O110019   1.492   1.432   0.455  0.6175  0.1752 -0.4745
  673TMC3    O210020   1.775   1.055   0.543 -0.3920 -0.1395 -0.4948
  674MPD2     C10021   1.479   1.954   0.012  0.7213  0.1737 -0.0356
  674MPD2    C110022   1.439   1.823   0.007 -0.1654 -0.5571  0.6827
  674MPD2    C210023   1.307   1.787   0.003 -0.1021 -0.4486 -0.4044
  674MPD2    C310024   1.210   1.876   0.026  0.5695  1.0964  0.0961
  674MPD2    C410025   1.245   2.008   0.036 -0.1073  0.2381  0.0002
  674MPD2    C510026   1.376   2.046   0.014  0.1276 -0.4814  0.4426
  674MPD2     H10027   1.285   1.681   0.007 -0.7212 -0.2992  0.2368
  674MPD2    H110028   1.167   2.082   0.051  1.5914  2.4627 -2.4118
  674MPD2    H210029   1.583   1.983   0.019  0.5317  0.6726  0.7493
  674MPD2    H310030   1.396   2.152   0.029  1.1895 -0.7227  0.7188
  674MPD2     N10031   1.087   1.816   0.055 -0.4711  0.3084 -0.5447
  674MPD2    H510032   1.070   1.717   0.036  1.4505  0.1105 -1.1470
  674MPD2    N110033   1.546   1.731   0.015 -0.6356 -0.0235 -0.0404
  674MPD2    H710034   1.637   1.768   0.040  0.7905 -1.9759 -2.3900
  675TMC3    C110035   1.663   1.528   0.042 -0.8632  0.5302  0.2340
  675TMC3    C210036   1.648   1.389   0.033  0.4396 -0.3598 -0.5334
  675TMC3    C310037   1.701   1.315   0.132  0.0248 -0.0156  0.1676
  675TMC3    C410038   1.734   1.586   0.149  0.1295  0.2798  0.3159
  675TMC3    C510039   1.777   1.506   0.249  0.3509 -0.3651 -0.3206
  675TMC3    C610040   1.760   1.368   0.244 -0.2025 -0.1427  0.1002
  675TMC3     C10041   1.541   1.592   0.006  0.1455  0.2108  0.3259
  675TMC3     O10042   1.452   1.516  17.712  0.1617  0.5126  0.6367
  675TMC3     H10043   1.585   1.335  17.698 -0.3241  0.2880 -0.3441
  675TMC3    H110044   1.734   1.694   0.154  1.0220  0.2685  0.5041
  675TMC3    H210045   1.788   1.305   0.327 -0.4896 -1.8695 -1.1006
  675TMC3    C710046   1.865   1.553   0.352 -0.0780 -0.2959 -0.2111
  675TMC3    C810047   1.655   1.181   0.153 -0.0225  0.8341 -0.1998
  675TMC3    O110048   1.917   1.473   0.430  0.6168 -0.3849  0.1587
  675TMC3    O210049   1.649   1.111   0.054 -0.5008  0.1759 -0.2573
  676MPD2     C10050   4.200   4.008  11.262 -0.7878 -0.4448  0.2851
  676MPD2    C110051   4.098   3.953  11.338 -0.0321  0.0805 -0.4215
  676MPD2    C210052   4.037   3.840  11.293  0.6422  0.2684 -0.0451
  676MPD2    C310053   4.072   3.780  11.165 -0.1894  0.9648  0.1132
  676MPD2    C410054   4.172   3.838  11.098 -0.5737  0.1414 -0.4140
  676MPD2    C510055   4.231   3.952  11.140  0.3025 -0.4150  0.0251
  676MPD2     H10056   3.986   3.784  11.371  0.8737 -1.0661 -0.8371
  676MPD2    H110057   4.209   3.799  11.004 -1.2535 -1.1589 -0.1536
  676MPD2    H210058   4.260   4.093  11.290 -1.6349  0.4872 -0.7289
  676MPD2    H310059   4.313   4.000  11.087 -0.4230  1.9700  1.0619
  676MPD2     N10060   4.008   3.669  11.104  0.3237 -0.7483  0.7086
  676MPD2    H510061   4.051   3.643  11.016 -0.9908 -1.0970  0.1714
  676MPD2    N110062   4.087   3.989  11.476  0.8444 -0.2658 -0.4766
  676MPD2    H710063   4.018   3.943  11.534 -0.0713 -0.6083 -1.8288
  677TMC3    C110064   4.127   4.108  11.686  0.1999  0.7202  0.1066
  677TMC3    C210065   4.098   3.997  11.763  0.4844 -1.0708 -0.0154
  677TMC3    C310066   4.120   4.006  11.899 -0.0979 -0.4061 -0.8110
  677TMC3    C410067   4.190   4.218  11.744  0.0993 -0.0425  0.2491
  677TMC3    C510068   4.208   4.221  11.879 -0.2954  0.0896  1.0265
  677TMC3    C610069   4.168   4.124  11.958 -0.1037  0.8747 -0.1921
  677TMC3     C10070   4.147   4.098  11.541  0.5328 -0.5385  0.3517
  677TMC3     O10071   4.217   4.186  11.494  0.0613 -0.6417 -0.1031
  677TMC3     H10072   4.066   3.903  11.718  0.1178 -0.6152 -0.7001
  677TMC3    H110073   4.205   4.311  11.690  0.8863 -0.5863 -0.4804
  677TMC3    H210074   4.164   4.145  12.064 -0.2038 -0.0457 -0.0146
  677TMC3    C710075   4.212   4.353  11.948  0.1042  0.7389 -0.5157
  677TMC3    C810076   4.133   3.881  11.972 -0.6660 -0.0697 -0.4494
  677TMC3    O110077   4.158   4.355  12.057 -0.9286  1.3005 -0.0502
  677TMC3    O210078   4.061   3.788  11.941  0.1763  0.4350  0.3294
  678MPD2     C10079   1.171   4.183   1.856  0.4144  0.1074  0.0849
  678MPD2    C110080   1.144   4.200   1.719  0.1644  0.2686  0.2550
  678MPD2    C210081   1.015   4.220   1.680  0.4163 -0.1019  0.1200
  678MPD2    C310082   0.913   4.242   1.773  0.3569  0.5218 -0.2642
  678MPD2    C410083   0.936   4.218   1.908 -0.2973  0.2906 -0.2816
  678MPD2    C510084   1.066   4.202   1.950 -0.0432 -0.4620  0.8697
  678MPD2     H10085   0.996   4.231   1.574  0.1207 -0.5918  0.1214
  678MPD2    H110086   0.862   4.213   1.987 -0.2558  0.5235 -0.2302
  678MPD2    H210087   1.264   4.161   1.907 -0.7996  0.0274  2.2662
  678MPD2    H310088   1.091   4.198   2.056 -1.2592 -0.3148  1.1660
  678MPD2     N10089   0.781   4.264   1.729  0.4138  0.4827 -0.5502
  678MPD2    H510090   0.758   4.246   1.632 -2.7846  1.8150 -0.0458
  678MPD2    N110091   1.245   4.194   1.620 -0.3138  0.6554 -0.5589
  678MPD2    H710092   1.206   4.201   1.527  0.5234 -2.2337 -1.1296
  679TMC3    C110093   1.655   4.166   1.399 -0.0152  0.2868 -0.1357
  679TMC3    C210094   1.593   4.139   1.515 -0.7505  0.0219  0.7731
  679TMC3    C310095   1.466   4.196   1.523 -0.4789 -1.1462 -0.8548
  679TMC3    C410096   1.604   4.250   1.300  0.0545 -0.1857  0.6741
  679TMC3    C510097   1.489   4.315   1.330 -0.5972  0.3358 -0.0016
  679TMC3    C610098   1.421   4.297   1.443  0.1111  0.1211  0.3110
  679TMC3     C10099   1.779   4.106   1.366 -0.5489 -0.6787  0.1034
  679TMC3     O10100   1.796   4.094   1.248 -0.2773  0.2423 -0.2271
  679TMC3     H10101   1.615   4.053   1.578 -3.0111 -0.9246  0.2508
  679TMC3    H110102   1.653   4.263   1.204  1.9858 -1.2154  1.5144
  679TMC3    H210103   1.339   4.363   1.472  0.3352  0.3111  0.5183
  679TMC3    C710104   1.435   4.411   1.239  0.4624  0.7736 -0.2292
  679TMC3    C810105   1.381   4.173   1.640 -1.0981 -0.4339  0.1208
  679TMC3    O110106   1.314   4.433   1.236  0.7655  0.0525 -0.1298
  679TMC3    O210107   1.429   4.128   1.744 -0.0921 -0.0677  0.5144
  680MPD2     C10108   1.073   3.012  13.730 -0.8574  0.5671  0.4587
  680MPD2    C110109   1.108   2.923  13.825 -0.2911  0.2233 -0.2833
  680MPD2    C210110   1.214   2.953  13.913 -0.7161  0.1209  0.3412
  680MPD2    C310111   1.295   3.066  13.886  0.1785  1.2145 -0.4349
  680MPD2    C410112   1.267   3.151  13.778  0.1209  0.0905  0.0826
  680MPD2    C510113   1.158   3.121  13.701 -0.2138 -0.0581  0.3713
  680MPD2     H10114   1.242   2.884  13.992 -0.0486  0.4153  0.3635
  680MPD2    H110115   1.319   3.245  13.763 -1.9401  1.0032 -1.3506
  680MPD2    H210116   0.988   2.997  13.665 -2.2990 -0.9856  2.7271
  680MPD2    H310117   1.138   3.175  13.609  0.5112  0.3529  0.4535
  680MPD2     N10118   1.415   3.094  13.957  0.2705  0.2232  0.1293
  680MPD2    H510119   1.482   3.160  13.920  1.4922 -0.5700  0.9196
  680MPD2    N110120   1.027   2.806  13.849  0.6217  0.0221  0.2339
  680MPD2    H710121   1.052   2.736  13.918  0.6224  0.6840  0.9070
  681TMC3    C110122   0.898   2.631  13.799  0.2512 -0.7448 -0.3785
  681TMC3    C210123   0.777   2.590  13.847  0.7340  0.3506  0.0424
  681TMC3    C310124   0.778   2.497  13.951 -0.7127 -0.2576  0.4776
  681TMC3    C410125   1.008   2.568  13.837 -0.2846  0.3849 -0.5438
  681TMC3    C510126   1.002   2.464  13.928 -0.4218  0.3668  0.5852
  681TMC3    C610127   0.888   2.430  13.995  0.3030  0.5179  0.0224
  681TMC3     C10128   0.913   2.771  13.778 -0.0721 -0.1847  0.1426
  681TMC3     O10129   0.824   2.830  13.722 -0.6095  0.0213 -0.5798
  681TMC3     H10130   0.691   2.655  13.834 -0.0872 -0.6401  0.5030
  681TMC3    H110131   1.099   2.591  13.782 -0.5588  1.1447 -0.6933
  681TMC3    H210132   0.880   2.343  14.059  0.6096 -1.4784 -2.7033
  681TMC3    C710133   1.110   2.370  13.943  0.4866 -0.2798  0.5983
  681TMC3    C810134   0.662   2.491  14.031  0.2323 -0.0142  0.5430
  681TMC3    O110135   1.101   2.284  14.022  0.3586 -0.2377 -0.1467
  681TMC3    O210136   0.558   2.518  13.973 -0.0206 -0.5769 -0.1690
  682MPD2     C10137   3.394   4.117  11.142 -0.4020 -0.4591  0.3232
  682MPD2    C110138   3.318   4.012  11.105  0.6468  0.5257 -0.0235
  682MPD2    C210139   3.286   3.916  11.200 -0.2605 -0.1944 -0.9155
  682MPD2    C310140   3.326   3.925  11.332  0.1973  0.6691  0.2519
  682MPD2    C410141   3.401   4.034  11.363  0.5781 -0.7560  0.6003
  682MPD2    C510142   3.431   4.123  11.271  0.3087 -0.3606  0.0138
  682MPD2     H10143   3.227   3.830  11.172 -1.0057 -0.5589  1.6819
  682MPD2    H110144   3.437   4.062  11.461  1.0497  1.0207 -0.0776
  682MPD2    H210145   3.423   4.200  11.079 -0.3198  0.9777  2.2438
  682MPD2    H310146   3.491   4.209  11.301 -0.0041 -0.1869  0.1472
  682MPD2     N10147   3.296   3.829  11.429 -0.0984 -0.1096 -0.0514
  682MPD2    H510148   3.330   3.845  11.524  0.1002  0.0134 -0.1428
  682MPD2    N110149   3.268   4.011  10.976 -0.0327  0.5215 -0.1446
  682MPD2    H710150   3.192   3.946  10.958  0.2405 -0.0125  0.6671
  683TMC3    C110151   3.233   3.617  11.764  0.1132  0.7853 -0.0543
  683TMC3    C210152   3.199   3.484  11.755  1.7562 -0.5046  0.3025
  683TMC3    C310153   3.136   3.450  11.637  0.4271 -0.4195  0.6126
  683TMC3    C410154   3.230   3.704  11.664  0.3478 -0.8956  0.1880
  683TMC3    C510155   3.183   3.666  11.545 -0.2213  1.1278  0.7662
  683TMC3    C610156   3.141   3.534  11.531  0.1125 -0.3775  0.5186
  683TMC3     C10157   3.249   3.675  11.895  0.7540 -0.4280  0.5171
  683TMC3     O10158   3.247   3.798  11.899 -0.2027 -0.2339  0.3457
  683TMC3     H10159   3.219   3.412  11.834 -0.7237 -0.4241  0.9969
  683TMC3    H110160   3.245   3.809  11.688  1.9540 -0.2522 -3.6593
  683TMC3    H210161   3.113   3.494  11.434 -0.8196 -0.4290  0.8119
  683TMC3    C710162   3.189   3.740  11.420 -0.4544  0.3663 -0.3532
  683TMC3    C810163   3.125   3.311  11.598  1.0419 -0.4123 -0.2550
  683TMC3    O110164   3.124   3.698  11.327  0.3225  0.0504 -0.5886
  683TMC3    O210165   3.165   3.281  11.490  0.0636  0.3844 -0.5959
  684MPD2     C10166   1.608   3.406  16.396  0.9251 -0.0796  0.0999
  684MPD2    C110167   1.520   3.454  16.294  0.1854  0.4485 -0.3566
  684MPD2    C210168   1.460   3.578  16.322 -0.9079 -0.0670  0.8463
  684MPD2    C310169   1.484   3.650  16.438  0.3826  0.4192 -0.1075
  684MPD2    C410170   1.578   3.601  16.524 -0.4440 -0.2384  0.5332
  684MPD2    C510171   1.634   3.483  16.505 -0.0534 -0.1706  0.4488
  684MPD2     H10172   1.383   3.617  16.257 -0.1632  2.4227  1.4540
  684MPD2    H110173   1.609   3.657  16.612 -0.5850 -2.3490  1.9076
  684MPD2    H210174   1.657   3.309  16.385 -2.5842 -1.8191 -0.1128
  684MPD2    H310175   1.712   3.445  16.570  1.0252  0.4429 -0.4942
  684MPD2     N10176   1.428   3.778  16.460  0.4061  0.2859 -0.7508
  684MPD2    H510177   1.455   3.815  16.550  1.3430 -1.2162 -0.4051
  684MPD2    N110178   1.488   3.385  16.174 -0.4607  0.0763  0.6351
  684MPD2    H710179   1.421   3.425  16.110 -0.9998 -0.8416  0.6238
  685TMC3    C110180   1.519   3.248  15.987  0.4582  0.0514 -0.7605
  685TMC3    C210181   1.393   3.275  15.928  0.9550 -0.2234  0.0274
  685TMC3    C310182   1.397   3.284  15.789  0.3683  0.1232 -0.3373
  685TMC3    C410183   1.630   3.231  15.912 -0.1151  1.0272  0.2624
  685TMC3    C510184   1.622   3.256  15.774  0.0988  0.3174  0.2026
  685TMC3    C610185   1.501   3.264  15.708  0.0336  0.4241 -0.1559
  685TMC3     C10186   1.544   3.267  16.129  0.2306 -0.4524  0.1214
  685TMC3     O10187   1.635   3.201  16.180 -0.4003 -0.6105  0.1331
  685TMC3     H10188   1.306   3.282  15.992  1.7591  2.3852  0.8569
  685TMC3    H110189   1.728   3.209  15.953 -0.8425  0.3323  1.6307
  685TMC3    H210190   1.484   3.273  15.602  0.6125 -1.3329 -0.3935
  685TMC3    C710191   1.728   3.345  15.719  0.2224 -0.4620 -0.9232
  685TMC3    C810192   1.271   3.324  15.729 -0.1906  0.0891 -0.0619
  685TMC3    O110193   1.717   3.378  15.603 -0.0552 -0.1070 -0.5558
  685TMC3    O210194   1.234   3.261  15.633 -0.0178 -0.0910  0.1312
  686MPD2     C10195   2.489   3.236  15.173  0.2087  0.4051  0.4254
  686MPD2    C110196   2.587   3.255  15.265 -0.5814  0.1997 -0.2037
  686MPD2    C210197   2.673   3.156  15.299  0.6245  0.0915 -0.3241
  686MPD2    C310198   2.645   3.021  15.259  0.7992  0.4770  0.5975
  686MPD2    C410199   2.545   3.008  15.168 -0.3173 -0.0459  0.8127
  686MPD2    C510200   2.461   3.111  15.135 -0.1930 -0.9867  0.1673
  686MPD2     H10201   2.762   3.179  15.357  0.2059  0.2598  0.2560
  686MPD2    H110202   2.516   2.910  15.129  0.2620 -0.0049  0.2670
  686MPD2    H210203   2.424   3.319  15.149 -0.0949 -0.3850 -1.4460
  686MPD2    H310204   2.392   3.092  15.054 -4.2622 -0.1684  3.4214
  686MPD2     N10205   2.725   2.908  15.290  0.4871 -0.3318  0.1479
  686MPD2    H510206   2.719   2.829  15.226 -2.7854 -0.3397  0.4638
  686MPD2    N110207   2.579   3.377  15.344 -0.1997 -0.0145  0.2145
  686MPD2    H710208   2.503   3.438  15.319  0.3772  0.4367 -0.4551
  687TMC3    C110209   2.821   2.966  15.508  0.1703 -0.0518 -0.0104
  687TMC3    C210210   2.701   3.006  15.557 -0.1573  0.7159  0.2192
  687TMC3    C310211   2.689   3.031  15.693 -0.2599  0.9532 -0.2196
  687TMC3    C410212   2.929   2.947  15.582 -0.3175 -0.2191 -0.2528
  687TMC3    C510213   2.917   2.987  15.718 -0.1207 -0.1780 -0.3703
  687TMC3    C610214   2.799   3.030  15.769  0.7697 -0.5937 -0.0831
  687TMC3     C10215   2.831   2.902  15.375 -0.0689  0.2877  0.1874
  687TMC3     O10216   2.917   2.813  15.375 -0.0124  0.4625 -0.3273
  687TMC3     H10217   2.613   2.984  15.498  0.5302 -1.3120 -0.0525
  687TMC3    H110218   3.028   2.914  15.554  0.5789  2.9912 -0.8299
  687TMC3    H210219   2.781   3.065  15.870 -0.2991 -1.7105  0.1115
  687TMC3    C710220   3.045   3.013  15.789  0.3700 -0.2124  0.1442
  687TMC3    C810221   2.568   3.092  15.751 -0.8176 -0.1243 -0.3635
  687TMC3    O110222   3.132   2.933  15.755  0.1584  0.5803  0.1266
  687TMC3    O210223   2.548   3.084  15.870 -0.6613 -0.1683  0.2697
  688MPD2     C10224   2.247   2.892  17.479 -0.4973  0.0352  0.5148
  688MPD2    C110225   2.279   2.758  17.513 -0.4288  0.4099 -0.7362
  688MPD2    C210226   2.370   2.688  17.436 -0.1881  0.8728 -0.3110
  688MPD2    C310227   2.423   2.753  17.324 -0.0385 -0.0386 -0.2401
  688MPD2    C410228   2.382   2.878  17.289  0.7113  0.1070 -0.4365
  688MPD2    C510229   2.304   2.951  17.371 -0.2657  0.0017  0.3880
  688MPD2     H10230   2.393   2.584  17.456  0.2403  1.0732  0.2420
  688MPD2    H110231   2.432   2.922  17.203 -1.7924  0.2969 -1.7767
  688MPD2    H210232   2.187   2.959  17.539  0.9486  1.5269  0.3029
  688MPD2    H310233   2.284   3.053  17.342  1.2626  0.4117  0.7757
  688MPD2     N10234   2.510   2.692  17.225 -0.1798 -0.2546  0.3271
  688MPD2    H510235   2.533   2.745  17.141 -0.2864 -1.9931 -0.8052
  688MPD2    N110236   2.226   2.698  17.622  0.6863  0.1426 -0.2537
  688MPD2    H710237   2.252   2.602  17.644 -1.0709  0.1337  1.7607
  689TMC3    C110238   2.088   2.654   0.085  0.5006 -1.3788  0.6337
  689TMC3    C210239   2.038   2.711   0.198 -0.4367  0.4341 -0.1337
  689TMC3    C310240   2.006   2.625   0.300 -0.6180  0.0964  0.6994
  689TMC3    C410241   2.102   2.513   0.063 -0.7427 -0.0320 -0.2282
  689TMC3    C510242   2.070   2.432   0.169  0.1158 -0.1595 -0.5049
  689TMC3    C610243   2.028   2.488   0.289  0.2568  0.5737  0.2938
  689TMC3     C10244   2.132   2.745  17.714  0.0872 -0.0128  0.3618
  689TMC3     O10245   2.077   2.854  17.724 -0.1295 -0.2141 -0.0423
  689TMC3     H10246   2.013   2.817   0.205  0.2648  0.5933 -0.0927
  689TMC3    H110247   2.140   2.468  17.707  2.0613 -0.7595  1.2923
  689TMC3    H210248   1.998   2.422   0.370 -0.7049 -0.6881 -1.0719
  689TMC3    C710249   2.068   2.285   0.169 -0.4403 -0.4689  0.5317
  689TMC3    C810250   1.952   2.667   0.425  0.1257 -0.1481  0.4055
  689TMC3    O110251   2.085   2.232   0.281 -0.7502 -0.1178  0.4205
  689TMC3    O210252   1.902   2.579   0.499  0.3194  0.0190 -0.1534
  690MPD2     C10253   4.420   4.347  15.942 -0.1169 -0.1135  1.0326
  690MPD2    C110254   4.370   4.344  15.819  0.5727  0.6105 -0.2452
  690MPD2    C210255   4.436   4.409  15.717  0.6193 -0.0702  0.3112
  690MPD2    C310256   4.547   4.483  15.745 -0.1764  0.6395 -1.0726
  690MPD2    C410257   4.596   4.486  15.869 -0.7946  0.9198 -0.0580
  690MPD2    C510258   4.538   4.416  15.973  0.0082  1.0055  0.8135
  690MPD2     H10259   4.400   4.407  15.615 -1.2183  1.5281  0.9311
  690MPD2    H110260   4.690   4.536  15.892 -0.7105  0.2391  1.0990
  690MPD2    H210261   4.370   4.307  16.030 -3.1891  1.5131  0.0192
  690MPD2    H310262   4.580   4.413  16.073  2.0941  1.9475 -0.0231
  690MPD2     N10263   4.606   4.550  15.634  0.3088  0.9535  0.5317
  690MPD2    H510264   4.551   4.546  15.548 -0.0682 -2.3035  0.9311
  690MPD2    N110265   4.250   4.271  15.781  0.1208 -0.5248 -0.8217
  690MPD2    H710266   4.214   4.271  15.686  1.1740  2.5563 -1.2226
  691TMC3    C110267   4.068   4.113  15.803 -0.0781  0.7723  0.0209
  691TMC3    C210268   3.984   4.183  15.726  0.2784 -0.3462 -0.1590
  691TMC3    C310269   3.883   4.115  15.660  0.4788 -0.4096 -0.2333
  691TMC3    C410270   4.043   3.987  15.849  0.0984 -0.2303  0.2419
  691TMC3    C510271   3.936   3.926  15.789  0.0625 -0.0815  0.0458
  691TMC3    C610272   3.861   3.981  15.688 -0.6120  0.3016 -0.0390
  691TMC3     C10273   4.184   4.182  15.867 -0.6118 -0.0779 -0.3088
  691TMC3     O10274   4.215   4.142  15.978  0.7321 -0.5450 -0.3289
  691TMC3     H10275   3.999   4.287  15.703 -2.3293 -0.6028 -2.9893
  691TMC3    H110276   4.106   3.945  15.926  0.4234 -1.7726 -0.8600
  691TMC3    H210277   3.771   3.930  15.656 -1.0940 -0.0196  1.8355
  691TMC3    C710278   3.858   3.835  15.874  0.1628 -0.0359  0.1101
  691TMC3    C810279   3.764   4.177  15.613  0.4952  0.0272  0.0653
  691TMC3    O110280   3.786   3.757  15.805  0.0549  0.1729  0.1650
  691TMC3    O210281   3.725   4.142  15.500  0.3379 -0.4911 -0.0119
  692TMC3    C110282   0.889   0.349  15.853  0.4276 -0.2022 -0.4721
  692TMC3    C210283   1.014   0.383  15.880  0.4526 -0.4491 -0.2871
  692TMC3    C310284   1.108   0.286  15.900 -0.5782 -0.8138  0.5374
  692TMC3    C410285   0.843   0.223  15.854  0.2502 -0.0443  0.4812
  692TMC3    C510286   0.935   0.130  15.858 -0.0830  0.2465 -0.2062
  692TMC3    C610287   1.067   0.152  15.900 -0.0690  0.3759 -0.0810
  692TMC3     C10288   0.783   0.444  15.900  0.1137  0.3251 -0.3781
  692TMC3     O10289   0.672   0.394  15.915 -0.2281  0.2380 -0.8205
  692TMC3     H10290   1.049   0.483  15.854 -1.3530  0.1916 -0.2478
  692TMC3    H110291   0.743   0.200  15.820  0.4073  0.5827 -0.3958
  692TMC3    H210292   1.137   0.070  15.885  0.8460  1.1617 -0.1499
  692TMC3    C710293   0.892   4.727  15.858 -0.2496 -0.8734  0.8768
  692TMC3    C810294   1.224   0.303  15.982  0.1950 -0.6166 -0.6742
  692TMC3    O110295   0.794   4.702  15.791  0.3275  0.1759 -0.3011
  692TMC3    O210296   1.283   0.201  16.023 -0.2101  0.2846  0.0023
  693MPD2     C10297   0.466   2.967  10.709 -0.5988  0.0663  0.1487
  693MPD2    C110298   0.430   2.838  10.672 -0.2747  0.1546  0.1711
  693MPD2    C210299   0.512   2.752  10.599 -0.4918 -0.5042 -0.0901
  693MPD2    C310300   0.644   2.789  10.579  0.4731 -0.7186  0.6480
  693MPD2    C410301   0.684   2.914  10.622  0.1090  0.1110 -0.3091
  693MPD2    C510302   0.597   2.997  10.685  0.9007 -0.1351 -0.0857
  693MPD2     H10303   0.479   2.655  10.562  1.9849 -1.8895  1.2752
  693MPD2    H110304   0.790   2.935  10.631  0.4236 -1.1993 -0.8460
  693MPD2    H210305   0.411   3.020  10.786 -2.3575 -0.2690 -0.8920
  693MPD2    H310306   0.631   3.092  10.726  1.4413 -0.2645 -0.2253
  693MPD2     N10307   0.740   2.702  10.538  0.3171  0.4969  0.6292
  693MPD2    H510308   0.836   2.733  10.537 -1.0415  4.6981 -0.5110
  693MPD2    N110309   0.304   2.804  10.713  0.4763  0.0709 -0.3242
  693MPD2    H710310   0.260   2.855  10.789 -0.7561 -1.5731  0.0758
  694TMC3    C110311   0.111   2.672  10.727  0.8952 -0.0873 -0.3392
  694TMC3    C210312   0.016   2.590  10.668  0.5050  0.0385  0.6336
  694TMC3    C310313   4.632   2.568  10.727 -0.2174 -0.1457 -0.0023
  694TMC3    C410314   0.092   2.723  10.857 -0.1012  0.3248 -0.3734
  694TMC3    C510315   4.709   2.683  10.918  0.8091  0.3355  0.0471
  694TMC3    C610316   4.607   2.618  10.850  0.3475  0.4660 -0.3847
  694TMC3     C10317   0.231   2.700  10.655  0.5834  0.7450 -0.5564
  694TMC3     O10318   0.238   2.657  10.541 -0.4952 -0.1016 -0.2234
  694TMC3     H10319   0.036   2.543  10.572  0.6296  1.6036 -0.0963
  694TMC3    H110320   0.166   2.777  10.914  1.8730 -3.0109  0.2763
  694TMC3    H210321   4.522   2.581  10.908 -0.0367  0.9977 -0.6121
  694TMC3    C710322   4.700   2.710  11.064 -0.1840  0.1740 -1.0337
  694TMC3    C810323   4.539   2.466  10.676 -0.6898 -0.0679  0.4784
  694TMC3    O110324   0.048   2.786  11.106 -1.0046 -0.0675 -0.5285
  694TMC3    O210325   4.446   2.441  10.751 -0.3166  0.1107  0.2052
  695MPD2     C10326   2.024   0.506  13.598 -0.2444  0.1249  0.5364
  695MPD2    C110327   1.923   0.419  13.644  0.2903 -0.1363  0.2211
  695MPD2    C210328   1.802   0.418  13.574  0.5618  0.4113 -0.8137
  695MPD2    C310329   1.783   0.495  13.463  0.7787  0.1050  0.4874
  695MPD2    C410330   1.878   0.591  13.430  0.2814  0.1371  0.8329
  695MPD2    C510331   2.001   0.591  13.491  0.0001 -0.3693  0.2692
  695MPD2     H10332   1.725   0.355  13.617 -0.7202  1.1155 -2.0887
  695MPD2    H110333   1.860   0.663  13.351 -0.4254 -1.0224 -0.0756
  695MPD2    H210334   2.127   0.498  13.632  0.6572  3.2412 -1.4845
  695MPD2    H310335   2.078   0.663  13.465 -1.0869  0.3512 -0.9522
  695MPD2     N10336   1.658   0.479  13.409 -1.1846  0.5279  0.8057
  695MPD2    H510337   1.580   0.445  13.464 -0.6318  1.0308  1.9123
  695MPD2    N110338   1.940   0.336  13.753  0.3589 -0.6204  1.3594
  695MPD2    H710339   1.863   0.280  13.789 -0.2796  2.0951  4.2593
  696TMC3    C110340   1.490   0.544  13.241 -0.0088 -0.0778  0.9851
  696TMC3    C210341   1.397   0.512  13.336 -0.8258 -0.0847 -0.0270
  696TMC3    C310342   1.265   0.528  13.296  0.3560 -0.2474 -0.2524
  696TMC3    C410343   1.457   0.592  13.119  0.3173  0.2826 -0.1558
  696TMC3    C510344   1.325   0.628  13.096 -0.7917 -0.1457 -0.2878
  696TMC3    C610345   1.232   0.603  13.189 -0.0775 -0.0963 -0.4318
  696TMC3     C10346   1.633   0.536  13.284 -0.0292 -0.2734 -0.6666
  696TMC3     O10347   1.713   0.582  13.204 -0.6442 -0.5064 -0.1629
  696TMC3     H10348   1.419   0.475  13.435  0.8009  2.2783  0.5081
  696TMC3    H110349   1.530   0.628  13.048  0.5299 -1.1297 -0.6495
  696TMC3    H210350   1.128   0.628  13.171  0.0817  0.3753 -0.7186
  696TMC3    C710351   1.301   0.743  13.014  0.6557  0.9341 -0.3768
  696TMC3    C810352   1.162   0.455  13.370 -0.1057 -1.1044  0.5162
  696TMC3    O110353   1.366   0.745  12.908  0.2976  0.1557  0.7395
  696TMC3    O210354   1.204   0.367  13.438 -0.1199  0.1447  0.0902
  697MPD2     C10355   0.756   2.204  16.304 -0.0321  0.1330  0.6295
  697MPD2    C110356   0.756   2.188  16.172 -0.0707 -0.0941 -0.4080
  697MPD2    C210357   0.866   2.238  16.102  0.1593  0.0471 -1.1100
  697MPD2    C310358   0.962   2.327  16.148  0.2976  0.2926  0.3684
  697MPD2    C410359   0.954   2.345  16.284 -0.3186 -0.7672  0.8768
  697MPD2    C510360   0.861   2.275  16.350  0.3865  0.3859  0.4039
  697MPD2     H10361   0.876   2.210  15.997  1.2282  1.4169 -1.3693
  697MPD2    H110362   1.027   2.395  16.347  0.2193 -1.3518  0.7183
  697MPD2    H210363   0.693   2.143  16.369  0.1287 -0.8632 -0.1466
  697MPD2    H310364   0.880   2.295  16.455 -1.0338  0.8120  0.5780
  697MPD2     N10365   1.058   2.383  16.064  0.0206 -0.1983 -0.7347
  697MPD2    H510366   1.051   2.353  15.967 -1.6266 -2.7202  0.1695
  697MPD2    N110367   0.651   2.111  16.102 -0.1435  0.3358 -0.0800
  697MPD2    H710368   0.662   2.093  16.002  0.3652  1.9765 -0.3275
  698TMC3    C110369   1.222   2.513  15.972  0.4234  0.7339  0.8324
  698TMC3    C210370   1.356   2.538  15.974  0.4582  0.0737  0.2209
  698TMC3    C310371   1.426   2.563  15.860 -0.3004  0.6660 -0.2947
  698TMC3    C410372   1.150   2.524  15.858 -0.8925 -0.7477  0.0144
  698TMC3    C510373   1.220   2.552  15.740  0.2295 -0.3573  0.3353
  698TMC3    C610374   1.356   2.581  15.745 -0.0832 -0.3667 -0.0512
  698TMC3     C10375   1.145   2.484  16.094 -0.2043 -0.0670 -0.8195
  698TMC3     O10376   1.181   2.527  16.201  0.4327 -0.2306  0.2019
  698TMC3     H10377   1.408   2.518  16.067  0.3675 -0.5671  0.1371
  698TMC3    H110378   1.043   2.521  15.875 -1.0744 -0.6226 -1.1047
  698TMC3    H210379   1.397   2.619  15.652 -1.7748  0.0973 -0.6115
  698TMC3    C710380   1.146   2.547  15.616 -0.5718  0.1254  0.0069
  698TMC3    C810381   1.569   2.551  15.866  0.3360  0.3235  0.2255
  698TMC3    O110382   1.032   2.515  15.641 -0.0809 -0.4008 -0.0201
  698TMC3    O210383   1.615   2.569  15.976 -0.0859  0.4920  0.0333
  699TMC3    C110384   0.880   0.227  13.169  0.2002  0.4996 -0.6200
  699TMC3    C210385   0.929   0.127  13.248 -0.1304  0.3825 -0.0856
  699TMC3    C310386   0.840   0.068  13.329  0.2883 -0.9260  0.8215
  699TMC3    C410387   0.745   0.251  13.143 -0.0670  1.1428 -0.0699
  699TMC3    C510388   0.665   0.187  13.226 -0.7858 -0.6245 -0.1299
  699TMC3    C610389   0.704   0.104  13.330 -0.1883 -0.2978  0.3957
  699TMC3     C10390   0.972   0.300  13.087 -0.1093 -0.8163  0.0875
  699TMC3     O10391   1.084   0.253  13.070 -0.4415 -0.3347 -0.6346
  699TMC3     H10392   1.031   0.088  13.245 -0.5157 -0.7733  2.2344
  699TMC3    H110393   0.707   0.301  13.054 -2.7369 -1.6586 -0.4777
  699TMC3    H210394   0.644   0.080  13.416 -1.7295  1.3396 -0.2142
  699TMC3    C710395   0.522   0.205  13.220 -0.5151  0.0583 -0.3517
  699TMC3    C810396   0.878   4.694  13.425 -0.0951 -0.1387 -0.2677
  699TMC3    O110397   0.484   0.322  13.221  0.4430  0.2571  0.4626
  699TMC3    O210398   0.788   4.657  13.492  0.4640 -0.5305 -0.1294
  700TMC3    C110399   4.666   2.873   0.268  0.4141 -0.2516 -0.6657
  700TMC3    C210400   4.708   2.747   0.227 -0.0057  0.8338 -0.0093
  700TMC3    C310401   0.104   2.723   0.223 -0.6491  0.4118 -0.1131
  700TMC3    C410402   0.021   2.970   0.287 -0.1801  0.4231  0.4825
  700TMC3    C510403   0.151   2.945   0.260 -0.4392 -0.0071 -0.2792
  700TMC3    C610404   0.201   2.822   0.243  0.0777  0.5765 -0.0782
  700TMC3     C10405   4.532   2.907   0.213  0.7988  0.7562 -0.4943
  700TMC3     O10406   4.434   2.833   0.217  0.3271  0.1628  0.2315
  700TMC3     H10407   4.642   2.660   0.235  1.5609 -0.5463 -2.0520
  700TMC3    H110408   4.726   3.069   0.319  2.2384  2.6896 -4.3888
  700TMC3    H210409   0.305   2.799   0.224 -0.1093  1.1035 -1.7533
  700TMC3    C710410   0.232   3.058   0.220  0.1132 -0.3807  0.0751
  700TMC3    C810411   0.143   2.594   0.161  0.7895 -0.4537  0.2744
  700TMC3    O110412   0.172   3.161   0.190  0.1328 -0.2463  0.4012
  700TMC3    O210413   0.259   2.559   0.182 -0.0106  0.1830 -0.1508
  701TMC3    C110414   4.595   1.546  15.879  1.0383 -0.7103 -0.9743
  701TMC3    C210415   4.644   1.471  15.776 -0.0224 -0.6508 -0.3173
  701TMC3    C310416   0.000   1.528  15.693 -0.3137 -0.3419 -0.0873
  701TMC3    C410417   4.635   1.679  15.901  0.2554 -0.7177  0.2809
  701TMC3    C510418   4.729   1.723  15.818 -0.0885 -0.5749  0.0285
  701TMC3    C610419   0.039   1.657  15.712 -0.5652 -0.0954 -1.3260
  701TMC3     C10420   4.511   1.480  15.976 -0.9756 -0.6613 -0.1176
  701TMC3     O10421   4.492   1.545  16.079  0.6304  0.8833 -0.0440
  701TMC3     H10422   4.619   1.366  15.764  2.8856 -1.6926  2.7535
  701TMC3    H110423   4.588   1.736  15.981 -2.5530 -0.8089 -1.2783
  701TMC3    H210424   0.107   1.706  15.643  0.6562  0.8486  0.5549
  701TMC3    C710425   0.034   1.856  15.827 -1.1638  0.3582 -0.0439
  701TMC3    C810426   0.036   1.474  15.563  0.0960  0.2682 -0.1825
  701TMC3    O110427   0.095   1.907  15.737 -0.1936 -0.3180  0.2383
  701TMC3    O210428   0.152   1.499  15.533  0.4931 -0.5418 -0.0316
  702MPD2     C10429   4.230   3.171  10.617 -0.3684  0.2822  0.5789
  702MPD2    C110430   4.228   3.301  10.670  0.0272 -0.5669 -0.2843
  702MPD2    C210431   4.337   3.380  10.634  0.1073  0.3380 -0.5288
  702MPD2    C310432   4.426   3.342  10.531  0.1513 -0.1404 -0.7571
  702MPD2    C410433   4.412   3.221  10.474  0.3192 -0.5906  0.1159
  702MPD2    C510434   4.322   3.135  10.523 -0.1192  0.3256  0.2193
  702MPD2     H10435   4.351   3.477  10.680 -1.6744  1.0134 -1.4344
  702MPD2    H110436   4.478   3.191  10.393  1.6614 -1.9666  1.7305
  702MPD2    H210437   4.160   3.091  10.641  0.6576 -0.6512  0.4327
  702MPD2    H310438   4.317   3.033  10.487  0.7689  0.4812 -0.3581
  702MPD2     N10439   4.521   3.428  10.480 -0.3745 -0.6419 -0.2421
  702MPD2    H510440   4.551   3.412  10.385  3.2053  0.1549  0.7563
  702MPD2    N110441   4.124   3.355  10.760  0.1920 -0.0638 -0.0591
  702MPD2    H710442   4.130   3.452  10.792 -2.3846 -0.2717  1.0340
  703TMC3    C110443   4.595   3.636  10.428  0.7036  0.0645 -0.3118
  703TMC3    C210444   4.529   3.757  10.441 -0.3138  0.6892 -0.2989
  703TMC3    C310445   4.568   3.864  10.354  0.0146  0.1853  0.2271
  703TMC3    C410446   4.708   3.624  10.357 -0.7620  0.5609  0.4550
  703TMC3    C510447   0.023   3.730  10.291  0.0289  0.1368  0.7515
  703TMC3    C610448   4.686   3.852  10.288  0.3537  0.1149 -0.3132
  703TMC3     C10449   4.575   3.541  10.535 -0.5003  0.0845  1.1782
  703TMC3     O10450   4.545   3.589  10.639 -0.1368  1.3462 -0.2020
  703TMC3     H10451   4.447   3.759  10.512 -0.7725 -2.9995 -0.7421
  703TMC3    H110452   0.043   3.544  10.383 -0.0301  0.9754 -0.2309
  703TMC3    H210453   4.725   3.944  10.246 -1.0355  1.3623  1.1396
  703TMC3    C710454   0.154   3.735  10.236 -0.2467 -0.9906 -0.4036
  703TMC3    C810455   4.516   3.997  10.389 -0.4192  0.3517  0.4806
  703TMC3    O110456   0.194   3.845  10.201  0.4274 -0.3037  0.2934
  703TMC3    O210457   4.556   4.085  10.315 -0.2992  0.5071 -0.3196
  704TMC3    C110458   2.081   1.914  12.776  0.1244  0.3637  0.5530
  704TMC3    C210459   2.162   1.856  12.680 -0.1565 -0.2098  0.2400
  704TMC3    C310460   2.239   1.743  12.701 -0.1234  0.0159 -0.1300
  704TMC3    C410461   2.088   1.863  12.902 -0.0330 -0.3531  0.4992
  704TMC3    C510462   2.159   1.752  12.921  0.5218 -0.2494 -0.1278
  704TMC3    C610463   2.233   1.687  12.828  0.3300 -0.2798  0.4966
  704TMC3     C10464   1.943   1.920  12.735  0.4456 -0.7600 -0.0387
  704TMC3     O10465   1.858   1.914  12.821 -0.2940  0.0311  0.1371
  704TMC3     H10466   2.165   1.897  12.580 -0.7891 -0.1989  0.2270
  704TMC3    H110467   2.030   1.907  12.982  0.3057 -1.0136  1.0988
  704TMC3    H210468   2.287   1.597  12.856 -0.1219 -0.5731  0.4439
  704TMC3    C710469   2.118   1.670  13.035 -0.0936  0.1606 -0.2398
  704TMC3    C810470   2.195   1.654  12.594  0.1179 -0.5845 -0.0990
  704TMC3    O110471   2.008   1.690  13.083 -0.4158 -0.9663 -0.1399
  704TMC3    O210472   2.121   1.563  12.627  0.8333 -0.3160 -0.1087
  705MPD2     C10473   1.592   0.259  16.758  0.3459 -0.3195 -0.3590
  705MPD2    C110474   1.528   0.372  16.700 -0.4602  0.1407  0.0348
  705MPD2    C210475   1.410   0.422  16.754  1.0229  0.1669  0.3590
  705MPD2    C310476   1.341   0.347  16.847  0.7070 -0.0723 -0.5873
  705MPD2    C410477   1.398   0.231  16.893 -0.9391 -0.5633  0.0041
  705MPD2    C510478   1.522   0.189  16.856 -0.3655 -0.5238 -0.0426
  705MPD2     H10479   1.378   0.517  16.714 -0.3038 -0.8329 -0.9808
  705MPD2    H110480   1.348   0.164  16.962 -2.6053  0.9146  0.2104
  705MPD2    H210481   1.693   0.232  16.731 -0.7176 -1.3875 -3.3094
  705MPD2    H310482   1.575   0.107  16.903  2.0198 -0.3813 -2.4732
  705MPD2     N10483   1.204   0.367  16.883  0.1159 -0.5733  0.5412
  705MPD2    H510484   1.155   0.290  16.928  0.4961 -0.6606  0.8025
  705MPD2    N110485   1.591   0.452  16.600 -0.2084 -0.6157 -0.2758
  705MPD2    H710486   1.557   0.547  16.584  1.5517  0.0465 -0.1208
  706TMC3    C110487   1.656   0.481  16.150 -0.8894 -0.1311  0.2739
  706TMC3    C210488   1.639   0.623  16.158  0.1780  0.5815  0.3035
  706TMC3    C310489   1.641   0.688  16.275  0.2724 -0.0798  0.1205
  706TMC3    C410490   1.692   0.418  16.263  0.3061  0.4637  0.1757
  706TMC3    C510491   1.686   0.487  16.383  0.2719 -0.2233 -0.2451
  706TMC3    C610492   1.661   0.616  16.391 -0.6732  0.4413  0.0127
  706TMC3     C10493   1.672   0.401  16.021  0.6503  0.7370  0.4847
  706TMC3     O10494   1.729   0.294  16.028 -0.1873  0.4887  0.1376
  706TMC3     H10495   1.634   0.677  16.064 -1.0917 -1.1832 -0.6420
  706TMC3    H110496   1.704   0.310  16.264  0.9666  0.5197 -0.9856
  706TMC3    H210497   1.661   0.661  16.489  2.6018  0.4196  0.0422
  706TMC3    C710498   1.682   0.407  16.509  0.1623  0.2224  0.0575
  706TMC3    C810499   1.599   0.826  16.286 -0.0262 -0.7187 -0.1564
  706TMC3    O110500   1.713   0.290  16.489 -0.1609  0.4035 -0.3624
  706TMC3    O210501   1.585   0.893  16.183  0.4083 -0.2982 -0.8865
  707TMC3    C110502   3.022   3.014   1.993  0.0199 -0.9876  0.5624
  707TMC3    C210503   3.070   2.997   2.121 -0.0224  0.0207 -0.5847
  707TMC3    C310504   2.982   3.018   2.227 -0.1454 -0.1777  0.0780
  707TMC3    C410505   2.894   3.055   1.975  1.0048 -0.5227 -0.6922
  707TMC3    C510506   2.810   3.088   2.084  0.2579 -0.4425  0.1183
  707TMC3    C610507   2.848   3.058   2.214  0.1626 -0.2891 -0.1707
  707TMC3     C10508   3.122   3.066   1.900  0.2726 -0.0975  0.1356
  707TMC3     O10509   3.234   3.095   1.940 -0.3568  0.2154  0.1303
  707TMC3     H10510   3.172   2.967   2.142 -0.2581  1.0281  2.1007
  707TMC3    H110511   2.863   3.075   1.873 -0.2127 -1.0122 -0.4213
  707TMC3    H210512   2.795   3.098   2.300  0.2502 -0.4463 -0.0436
  707TMC3    C710513   2.678   3.146   2.072 -0.0753  0.0374  0.0176
  707TMC3    C810514   3.040   3.093   2.343 -0.0866 -0.3541 -0.3981
  707TMC3    O110515   2.608   3.135   2.173  0.2635  0.0337  0.0812
  707TMC3    O210516   2.984   3.083   2.454 -0.1116 -0.8900  0.2987
  708MPD2     C10517   0.027   3.206  14.669 -0.2887 -0.0997 -0.0604
  708MPD2    C110518   4.644   3.265  14.619 -0.2896 -0.2708  0.6845
  708MPD2    C210519   4.521   3.220  14.667  0.2825 -0.5599  0.3910
  708MPD2    C310520   4.518   3.117  14.755  0.1707 -0.1228 -0.0145
  708MPD2    C410521   4.632   3.067  14.810 -0.4569 -0.2377  0.2301
  708MPD2    C510522   0.017   3.112  14.770 -0.0844 -1.1779  0.7586
  708MPD2     H10523   4.434   3.276  14.639  1.2554  1.2386  0.9771
  708MPD2    H110524   4.623   2.986  14.882 -0.4775 -0.9443 -0.5584
  708MPD2    H210525   0.128   3.235  14.644 -1.0252  3.1281  0.7698
  708MPD2    H310526   0.112   3.072  14.803  0.9334  0.2484 -0.4598
  708MPD2     N10527   4.391   3.067  14.801 -0.2391  0.2039  0.1749
  708MPD2    H510528   4.391   3.025  14.893  1.9830 -2.3303 -0.9891
  708MPD2    N110529   4.668   3.372  14.532 -0.4346 -0.3550 -0.2506
  708MPD2    H710530   0.030   3.385  14.501 -0.6938  0.0059 -0.9089
  709TMC3    C110531   4.620   3.551  14.401 -0.6124 -0.0280 -0.0710
  709TMC3    C210532   4.634   3.506  14.270 -0.4709  0.1683 -0.2302
  709TMC3    C310533   4.569   3.567  14.166 -0.1850  0.1250  0.4012
  709TMC3    C410534   4.545   3.668  14.411 -0.1595  0.3299 -0.2964
  709TMC3    C510535   4.471   3.727  14.311 -0.3073  0.0432 -0.1683
  709TMC3    C610536   4.487   3.679  14.189 -0.1589 -0.2341  0.9451
  709TMC3     C10537   4.571   3.459  14.493  0.0867 -0.0073 -0.7373
  709TMC3     O10538   4.452   3.468  14.528 -0.3115  0.2307  0.8805
  709TMC3     H10539   4.701   3.423  14.252 -0.0119  0.6227 -0.6232
  709TMC3    H110540   4.530   3.711  14.510  2.2970 -0.4603  0.4190
  709TMC3    H210541   4.443   3.738  14.109 -0.2107 -2.5772 -0.7753
  709TMC3    C710542   4.334   3.766  14.359  0.0089  0.3908 -0.4542
  709TMC3    C810543   4.564   3.494  14.040 -0.5728 -0.6878  0.3301
  709TMC3    O110544   4.336   3.792  14.480  0.1969 -0.1999  0.0873
  709TMC3    O210545   4.522   3.556  13.944  0.3253  0.5301 -0.2461
  710TMC3    C110546   0.762   0.047   0.931 -0.8055  0.1196 -0.0985
  710TMC3    C210547   0.769   0.051   0.795  0.6075  0.1115  0.4324
  710TMC3    C310548   0.886   0.071   0.732  0.5330  0.5635 -0.9335
  710TMC3    C410549   0.876   0.065   1.010 -0.3953 -0.1340 -0.1779
  710TMC3    C510550   0.996   0.093   0.944  0.4015 -0.0964 -0.0497
  710TMC3    C610551   0.996   0.103   0.805 -0.6445  0.0415 -0.8540
  710TMC3     C10552   0.630   0.034   0.998 -0.2682  0.4544  0.3522
  710TMC3     O10553   0.528   0.036   0.932  0.1138  0.7175 -0.0508
  710TMC3     H10554   0.674   0.059   0.743  0.2183  1.1231  1.2942
  710TMC3    H110555   0.876   0.071   1.118 -1.1215 -0.0225 -0.1814
  710TMC3    H210556   1.088   0.119   0.750  1.0890 -0.6673  1.8435
  710TMC3    C710557   1.118   0.047   1.015  0.4466  0.1050  0.1133
  710TMC3    C810558   0.913   0.004   0.610  0.2201 -0.4972  0.2871
  710TMC3    O110559   1.106   4.733   1.125  0.5819 -0.2844  0.4241
  710TMC3    O210560   1.031   0.010   0.566  0.3800 -0.1541  0.5647
  711TMC3    C110561   0.472   1.148  15.184 -0.0439 -0.4226 -0.2364
  711TMC3    C210562   0.379   1.147  15.289 -0.3839 -0.2096 -0.4495
  711TMC3    C310563   0.379   1.252  15.385 -0.4376 -0.4024  0.6968
  711TMC3    C410564   0.547   1.261  15.170 -0.0375  0.7647  0.3067
  711TMC3    C510565   0.545   1.363  15.257 -0.9488  0.0547  0.2675
  711TMC3    C610566   0.457   1.360  15.360 -0.2078  0.0278  0.1281
  711TMC3     C10567   0.472   1.032  15.097 -0.1840 -0.3416  0.6461
  711TMC3     O10568   0.395   0.937  15.118  0.3211 -0.2644  0.1098
  711TMC3     H10569   0.334   1.051  15.314  0.3328  0.1459  2.1432
  711TMC3    H110570   0.619   1.283  15.092 -2.1696 -0.2068 -1.9179
  711TMC3    H210571   0.464   1.440  15.432 -1.4706 -1.7003  2.1480
  711TMC3    C710572   0.674   1.399  15.313 -0.1706  0.1092 -0.0769
  711TMC3    C810573   0.365   1.190  15.510  0.0095  0.2442 -0.0332
  711TMC3    O110574   0.688   1.365  15.433 -0.1151  0.3015  0.3727
  711TMC3    O210575   0.275   1.111  15.533  0.3306 -0.4303  0.3426
  712MPD2     C10576   1.964   1.785  14.120 -0.3926 -0.1669  0.0876
  712MPD2    C110577   1.968   1.831  13.996 -0.5341  0.0660 -0.3016
  712MPD2    C210578   2.056   1.928  13.955 -0.7993 -0.1620  0.0078
  712MPD2    C310579   2.144   1.982  14.047 -0.1047 -0.7390  0.1377
  712MPD2    C410580   2.142   1.936  14.184  0.0864  0.0734  0.1530
  712MPD2    C510581   2.058   1.833  14.211 -0.2708 -0.2613  0.4986
  712MPD2     H10582   2.065   1.958  13.852  1.7711 -2.5306 -0.4484
  712MPD2    H110583   2.209   1.973  14.261  0.6683  0.0674 -0.3469
  712MPD2    H210584   1.899   1.705  14.153 -1.0101  0.9566  1.5868
  712MPD2    H310585   2.052   1.788  14.310  0.1236 -0.7640  0.2986
  712MPD2     N10586   2.225   2.101  14.020 -0.2574  0.2076 -0.1350
  712MPD2    H510587   2.269   2.137  14.104 -0.5975  1.1138 -0.3501
  712MPD2    N110588   1.874   1.785  13.897 -0.3457 -0.4838 -0.1768
  712MPD2    H710589   1.888   1.813  13.801 -3.6584 -0.1910 -0.5692
  713TMC3    C110590   2.253   2.312  13.911 -0.2518 -0.0438  0.1569
  713TMC3    C210591   2.363   2.362  13.979 -0.0476  0.0253  0.0983
  713TMC3    C310592   2.381   2.498  13.975  0.4520  0.1605 -0.6583
  713TMC3    C410593   2.174   2.392  13.830 -0.2134  0.3678  0.0328
  713TMC3    C510594   2.197   2.529  13.844 -0.4261 -0.4520 -0.2870
  713TMC3    C610595   2.298   2.591  13.921  0.2874  0.0465 -0.3352
  713TMC3     C10596   2.225   2.166  13.896 -0.8436  0.6076  0.0498
  713TMC3     O10597   2.175   2.136  13.790  0.2854 -0.0288 -0.2999
  713TMC3     H10598   2.437   2.294  14.018 -0.7657  0.3384  1.9896
  713TMC3    H110599   2.101   2.346  13.764  0.9587 -3.9095  1.7612
  713TMC3    H210600   2.307   2.698  13.940  2.4196 -0.3773  1.0763
  713TMC3    C710601   2.176   2.608  13.723 -0.4108  0.0107 -0.0292
  713TMC3    C810602   2.515   2.550  13.989  0.1344 -0.2190  0.2206
  713TMC3    O110603   2.273   2.676  13.688 -0.6895  0.5388  0.1599
  713TMC3    O210604   2.532   2.652  13.926  0.5770  0.2621 -0.2850
  714MPD2     C10605   4.470   0.728   2.068 -0.5497 -0.2757 -0.3005
  714MPD2    C110606   4.454   0.615   1.993  0.0959  0.3515  0.4215
  714MPD2    C210607   4.340   0.601   1.917 -0.1771  0.3737 -0.2172
  714MPD2    C310608   4.238   0.688   1.924  0.9498  0.1733  0.3895
  714MPD2    C410609   4.249   0.794   2.010 -0.4670  0.5492 -1.0270
  714MPD2    C510610   4.368   0.823   2.070 -0.2026 -0.5366  0.6257
  714MPD2     H10611   4.326   0.516   1.850  0.6150  0.0403  0.0547
  714MPD2    H110612   4.175   0.873   2.016 -0.3313  0.2558  4.4082
  714MPD2    H210613   4.562   0.750   2.122 -1.9791 -0.6271  2.2667
  714MPD2    H310614   4.376   0.912   2.131  0.8889 -0.5363  0.4798
  714MPD2     N10615   4.125   0.670   1.842  0.2593 -0.8226 -0.5120
  714MPD2    H510616   4.138   0.596   1.774 -0.8398 -0.4146 -1.1686
  714MPD2    N110617   4.557   0.518   1.993 -0.2809 -0.3319 -0.3961
  714MPD2    H710618   4.635   0.533   2.057 -2.7480  0.3638  2.4287
  715TMC3    C110619   4.667   0.313   1.968 -0.1798  0.8700 -0.1130
  715TMC3    C210620   0.005   0.249   1.876  0.6195 -0.0150  0.7080
  715TMC3    C310621   0.091   0.150   1.922  0.4253  0.6949  0.0256
  715TMC3    C410622   4.669   0.284   2.106 -0.6935  0.0875 -0.1833
  715TMC3    C510623   0.019   0.180   2.144 -1.0251  0.1569 -0.4231
  715TMC3    C610624   0.097   0.112   2.057 -0.4081  0.0111  0.2861
  715TMC3     C10625   4.568   0.407   1.914 -0.1308 -0.3565 -0.3509
  715TMC3     O10626   4.493   0.356   1.830  0.3222  0.5463  0.3670
  715TMC3     H10627   0.007   0.293   1.777  1.1615 -0.0416  0.7070
  715TMC3    H110628   4.587   0.321   2.167 -0.4082 -1.0404  0.8947
  715TMC3    H210629   0.153   0.023   2.084 -0.2581  0.2332  0.7106
  715TMC3    C710630   0.054   0.171   2.284 -0.7585  0.6341 -0.0241
  715TMC3    C810631   0.208   0.128   1.839 -0.2810 -0.5348  0.4583
  715TMC3    O110632   0.153   0.102   2.304 -0.9224  0.5134  0.2056
  715TMC3    O210633   0.204   0.167   1.726  0.3395  0.1481 -0.2632
  716MPD2     C10634   3.815   3.738  10.340  0.9732 -0.2331  0.3012
  716MPD2    C110635   3.832   3.741  10.201 -0.0930  0.5260 -0.2437
  716MPD2    C210636   3.879   3.625  10.132  0.1709 -0.3965  0.3755
  716MPD2    C310637   3.924   3.520  10.213  0.6820  0.1427 -0.3103
  716MPD2    C410638   3.905   3.521  10.350  0.6656 -0.2785  0.2853
  716MPD2    C510639   3.843   3.624  10.409  0.5306  0.3249 -0.0229
  716MPD2     H10640   3.880   3.610  10.024 -0.0086  2.9154 -0.0896
  716MPD2    H110641   3.939   3.442  10.416  0.9446 -0.2044  0.2326
  716MPD2    H210642   3.776   3.820  10.399 -0.1113 -1.1619  0.8532
  716MPD2    H310643   3.822   3.617  10.515  1.9367 -0.1466  0.2262
  716MPD2     N10644   3.979   3.408  10.148 -0.6508 -0.3808  0.6196
  716MPD2    H510645   3.975   3.407  10.046  0.7017 -2.4819  0.5938
  716MPD2    N110646   3.818   3.867  10.133  0.2782 -0.6564  0.3042
  716MPD2    H710647   3.769   3.937  10.187  0.7673 -0.2477  0.2169
  717TMC3    C110648   4.128   3.213  10.116  0.2214  0.7599 -0.4823
  717TMC3    C210649   4.109   3.226   9.983  0.4192  0.7028  0.3325
  717TMC3    C310650   4.166   3.128   9.903 -0.6405  0.8224 -0.5830
  717TMC3    C410651   4.226   3.129  10.165  0.3054 -0.4317 -0.6718
  717TMC3    C510652   4.289   3.042  10.081 -0.1683 -0.0122  0.4233
  717TMC3    C610653   4.250   3.031   9.948  0.3870  0.6017  0.4171
  717TMC3     C10654   4.054   3.312  10.209  0.0623  0.2541  0.4513
  717TMC3     O10655   4.071   3.289  10.329  0.2774 -0.1785  0.5334
  717TMC3     H10656   4.035   3.297   9.948 -0.8414 -1.3922 -1.1645
  717TMC3    H110657   4.259   3.129  10.268  0.0500  1.7181 -0.5860
  717TMC3    H210658   4.307   2.974   9.875  0.9786  2.1232 -0.3193
  717TMC3    C710659   4.385   2.951  10.136 -0.1307  0.2044 -0.4666
  717TMC3    C810660   4.125   3.118   9.762  0.0264  0.1564 -1.2212
  717TMC3    O110661   4.420   2.965  10.251 -0.3129 -0.0967  0.0889
  717TMC3    O210662   4.114   3.001   9.729  0.1012  0.0918  0.1307
  718MPD2     C10663   3.983   2.045  12.663 -0.1353  0.1614 -0.0604
  718MPD2    C110664   3.889   2.132  12.613  0.4701 -0.3930 -1.5926
  718MPD2    C210665   3.755   2.089  12.607  0.1160 -0.0649  1.4621
  718MPD2    C310666   3.727   1.957  12.639 -0.2621 -0.0384 -0.2167
  718MPD2    C410667   3.824   1.871  12.683  0.3474  0.0174 -1.2224
  718MPD2    C510668   3.949   1.915  12.696 -0.1148  0.2562 -0.0236
  718MPD2     H10669   3.677   2.153  12.567  0.1670 -0.9006  0.0402
  718MPD2    H110670   3.801   1.768  12.707 -0.6388  0.7325  0.8654
  718MPD2    H210671   4.086   2.073  12.677 -0.1591  0.5936 -0.7274
  718MPD2    H310672   4.029   1.852  12.736 -0.5144 -1.8272 -2.4856
  718MPD2     N10673   3.587   1.917  12.623  0.8262 -0.0045 -0.0464
  718MPD2    H510674   3.523   1.996  12.622 -0.2739 -0.9226 -2.3431
  718MPD2    N110675   3.915   2.265  12.562  0.9202  0.2181 -0.5905
  718MPD2    H710676   3.829   2.301  12.521  0.7286  1.6794  1.0740
  719TMC3    C110677   4.019   2.435  12.462 -0.0045 -0.5756 -0.2749
  719TMC3    C210678   3.889   2.480  12.457  0.0213  0.0745 -0.6168
  719TMC3    C310679   3.824   2.494  12.338  0.3006  0.1605  0.1487
  719TMC3    C410680   4.093   2.437  12.349 -0.2436 -0.2849 -0.5701
  719TMC3    C510681   4.026   2.466  12.233  0.0573  0.5179 -0.5145
  719TMC3    C610682   3.891   2.485  12.218 -0.2712  0.8689 -0.0856
  719TMC3     C10683   4.035   2.323  12.545 -0.0568  0.4285 -0.2154
  719TMC3     O10684   4.152   2.301  12.575  0.0477  0.1743  0.6538
  719TMC3     H10685   3.826   2.506  12.541 -1.2579 -2.1965 -0.8652
  719TMC3    H110686   4.196   2.404  12.337 -0.2480 -0.9374  1.1937
  719TMC3    H210687   3.845   2.506  12.123  0.1884 -1.1713 -0.7710
  719TMC3    C710688   4.106   2.540  12.134  0.9859  0.0116 -0.1233
  719TMC3    C810689   3.701   2.418  12.337  0.8810 -1.0340  0.1448
  719TMC3    O110690   4.057   2.566  12.024 -0.5843  0.0851 -0.3851
  719TMC3    O210691   3.682   2.338  12.430 -0.3538  0.3489  0.2396
  720MPD2     C10692   1.821   3.776  13.602  0.6626 -0.0841  0.0262
  720MPD2    C110693   1.775   3.848  13.712 -0.1282 -0.1907  0.5047
  720MPD2    C210694   1.833   3.823  13.836 -0.0286 -0.1550 -0.8789
  720MPD2    C310695   1.934   3.724  13.849 -0.0215  0.2440  0.0607
  720MPD2    C410696   1.966   3.644  13.744 -1.1486  0.0362 -0.3696
  720MPD2    C510697   1.910   3.677  13.626 -0.4444  0.3618 -0.4038
  720MPD2     H10698   1.800   3.880  13.922  1.4830  0.3577 -0.6374
  720MPD2    H110699   2.033   3.560  13.754  0.2571  1.0424 -1.2914
  720MPD2    H210700   1.786   3.794  13.501  2.0715  1.3080 -0.2199
  720MPD2    H310701   1.938   3.610  13.546 -1.2500 -0.2623 -0.1584
  720MPD2     N10702   1.998   3.727  13.974 -0.0338  0.3094 -0.0043
  720MPD2    H510703   1.967   3.794  14.043 -0.3051  1.9934 -1.7508
  720MPD2    N110704   1.683   3.956  13.707 -0.9326 -0.0010 -0.3097
  720MPD2    H710705   1.647   3.998  13.792 -1.2282 -0.0424 -0.4150
  721TMC3    C110706   2.180   3.701  14.131 -0.0116 -0.1364  0.9754
  721TMC3    C210707   2.116   3.788  14.212  0.1901 -0.1555  0.1250
  721TMC3    C310708   2.192   3.885  14.264 -0.4629  0.3878 -0.3361
  721TMC3    C410709   2.313   3.720  14.106 -1.1773  0.2115 -0.2161
  721TMC3    C510710   2.388   3.817  14.173 -1.0887  0.0136  0.1048
  721TMC3    C610711   2.325   3.902  14.256  0.7148 -0.4367  0.4770
  721TMC3     C10712   2.110   3.649  14.014 -0.3284  0.7257  0.1923
  721TMC3     O10713   2.170   3.560  13.948  0.7154 -0.3668  0.5657
  721TMC3     H10714   2.010   3.776  14.228  0.1630  1.0811  0.8521
  721TMC3    H110715   2.355   3.665  14.022  0.9608 -3.4058  3.1923
  721TMC3    H210716   2.377   3.986  14.301  1.1977 -0.2799 -0.3725
  721TMC3    C710717   2.539   3.819  14.169  0.3282 -0.6138  0.1778
  721TMC3    C810718   2.133   3.965  14.370 -0.6638  0.5744  0.1868
  721TMC3    O110719   2.584   3.912  14.234 -0.1605  0.3562  0.0972
  721TMC3    O210720   2.092   4.077  14.345 -0.4399 -0.0323 -0.1564
  722MPD2     C10721   1.068   2.406  13.556  0.4985  0.0709  0.7747
  722MPD2    C110722   1.005   2.520  13.509  0.5919 -1.0496  0.1815
  722MPD2    C210723   0.869   2.520  13.495  0.4774  0.5299 -0.2470
  722MPD2    C310724   0.786   2.418  13.538 -0.5155 -0.3312 -0.0713
  722MPD2    C410725   0.853   2.304  13.587 -0.3427 -0.0960 -0.3267
  722MPD2    C510726   0.995   2.295  13.585 -0.6774  0.0689  0.3493
  722MPD2     H10727   0.812   2.600  13.448 -2.6066 -0.8792  1.0707
  722MPD2    H110728   0.803   2.215  13.623 -1.9781  1.3160  0.8943
  722MPD2    H210729   1.175   2.387  13.552  0.8424  2.0095  1.0647
  722MPD2    H310730   1.041   2.202  13.617 -1.5146 -1.0808 -1.7355
  722MPD2     N10731   0.648   2.429  13.535 -0.5291  0.3743  0.8742
  722MPD2    H510732   0.613   2.510  13.485  1.8778  0.3918 -0.7979
  722MPD2    N110733   1.085   2.630  13.466 -0.2876  0.3907 -0.0884
  722MPD2    H710734   1.038   2.707  13.418  0.7886  0.7243 -0.6133
  723TMC3    C110735   0.434   2.397  13.625  0.4153 -0.0648  0.0488
  723TMC3    C210736   0.333   2.313  13.646 -0.2623 -0.2767  0.3228
  723TMC3    C310737   0.210   2.362  13.682 -0.3756 -0.2230 -0.2968
  723TMC3    C410738   0.432   2.530  13.660  0.0635 -0.3124 -0.3287
  723TMC3    C510739   0.311   2.573  13.710  1.0842 -0.0134  0.6814
  723TMC3    C610740   0.199   2.491  13.723 -0.0305 -0.3083  0.0774
  723TMC3     C10741   0.565   2.338  13.597 -0.5129 -0.0650  0.3647
  723TMC3     O10742   0.583   2.224  13.639  0.2656 -0.3647 -0.4319
  723TMC3     H10743   0.353   2.207  13.636  3.7154  0.5272  0.0031
  723TMC3    H110744   0.522   2.590  13.672 -1.9999  2.6156  0.4558
  723TMC3    H210745   0.100   2.526  13.750  2.0021  4.9500  0.7375
  723TMC3    C710746   0.304   2.713  13.737 -0.4552  0.6415 -0.2795
  723TMC3    C810747   0.098   2.286  13.702  0.8186 -0.6195  0.4844
  723TMC3    O110748   0.223   2.755  13.811  0.4719 -0.3162  0.2488
  723TMC3    O210749   0.041   2.304  13.808  0.4182  0.0001 -0.5427
  724TMC3    C110750   1.081   0.759  10.309  0.2181 -0.4421 -0.5608
  724TMC3    C210751   1.088   0.828  10.188 -0.4866  0.5748  0.1774
  724TMC3    C310752   1.176   0.934  10.177 -0.6972 -0.5182  0.2605
  724TMC3    C410753   1.167   0.789  10.407  0.7178 -0.3701  0.5987
  724TMC3    C510754   1.261   0.890  10.391 -0.4045 -0.4860 -0.1336
  724TMC3    C610755   1.276   0.962  10.273  0.1316 -1.1091  0.3383
  724TMC3     C10756   0.992   0.647  10.326 -0.0868 -0.5150 -0.3795
  724TMC3     O10757   0.976   0.604  10.439 -0.6987 -0.4220 -0.2215
  724TMC3     H10758   0.999   0.827  10.127 -0.4812  0.2538  0.1736
  724TMC3    H110759   1.158   0.733  10.500  1.3658  0.0952  0.9447
  724TMC3    H210760   1.365   1.022  10.256 -1.0193  0.5811  0.2989
  724TMC3    C710761   1.336   0.943  10.505 -0.4980 -0.3965  0.2628
  724TMC3    C810762   1.148   1.030  10.071  0.4217  0.1479 -1.1672
  724TMC3    O110763   1.407   1.036  10.478 -0.3374  0.2994  0.0096
  724TMC3    O210764   1.074   0.999   9.978 -0.1235 -0.3509 -0.2061
  725TMC3    C110765   2.790   4.263  13.273 -0.0973 -0.2630  0.0767
  725TMC3    C210766   2.706   4.318  13.178  0.6631 -0.4246  0.4810
  725TMC3    C310767   2.588   4.261  13.151  0.2304  0.0856 -0.8327
  725TMC3    C410768   2.760   4.147  13.339 -0.4054 -0.0665  0.1729
  725TMC3    C510769   2.646   4.087  13.312  0.0333 -0.0822 -0.0056
  725TMC3    C610770   2.564   4.144  13.219  0.7356  0.2369 -0.6166
  725TMC3     C10771   2.922   4.320  13.289  0.2656 -0.2395  0.1972
  725TMC3     O10772   2.937   4.443  13.281  0.1704  0.0064  0.2854
  725TMC3     H10773   2.747   4.392  13.109 -0.0077  0.3501  0.9191
  725TMC3    H110774   2.833   4.109  13.410  0.3507  2.2069  0.6073
  725TMC3    H210775   2.483   4.082  13.185  0.2426  0.0304  0.9444
  725TMC3    C710776   2.659   3.945  13.285  0.1274 -0.1695  0.0065
  725TMC3    C810777   2.523   4.274  13.022 -0.1638 -0.1748 -0.2722
  725TMC3    O110778   2.617   3.900  13.177  0.2288 -0.3186 -0.2225
  725TMC3    O210779   2.426   4.209  13.000  0.2229 -0.0488  0.4319
  726MPD2     C10780   0.718   1.233  10.953  0.2298  0.0148 -0.3387
  726MPD2    C110781   0.701   1.223  10.814  0.0780 -0.1208  0.2707
  726MPD2    C210782   0.668   1.101  10.764 -0.3550 -0.0991  0.8323
  726MPD2    C310783   0.637   0.996  10.849  0.2673 -0.3659 -0.4541
  726MPD2    C410784   0.634   1.017  10.987 -0.7029 -0.2568 -0.0358
  726MPD2    C510785   0.688   1.131  11.036 -0.4682  0.2239 -0.5151
  726MPD2     H10786   0.671   1.085  10.657  2.1362  2.2423  0.5608
  726MPD2    H110787   0.590   0.945  11.055  1.1162 -0.3023  1.1149
  726MPD2    H210788   0.730   1.330  11.000  0.5861 -0.5010  0.6202
  726MPD2    H310789   0.679   1.145  11.143  1.1284 -1.2257 -0.2052
  726MPD2     N10790   0.574   0.880  10.815  1.2697  0.2669 -0.8219
  726MPD2    H510791   0.560   0.812  10.889  2.4632  1.3283  0.3726
  726MPD2    N110792   0.735   1.325  10.717 -0.2931  0.0364 -0.2704
  726MPD2    H710793   0.715   1.312  10.618  1.2440  1.1379 -0.7266
  727TMC3    C110794   0.834   1.517  10.630 -0.0462  0.4896 -0.7081
  727TMC3    C210795   0.945   1.598  10.648  0.8976  0.5754 -0.1363
  727TMC3    C310796   0.955   1.705  10.567  0.2777 -0.5511 -0.4590
  727TMC3    C410797   0.753   1.528  10.519 -0.6304 -0.6387 -0.2590
  727TMC3    C510798   0.768   1.644  10.438  0.6513  0.0366 -0.0844
  727TMC3    C610799   0.874   1.722  10.455 -0.4584 -0.4007 -0.2418
  727TMC3     C10800   0.793   1.446  10.745  0.8987  0.5133  0.0576
  727TMC3     O10801   0.839   1.485  10.852  0.4532  0.3939  0.0385
  727TMC3     H10802   1.021   1.570  10.721  2.0228  2.1036 -0.7309
  727TMC3    H110803   0.659   1.474  10.523  0.0964 -1.8170  1.0278
  727TMC3    H210804   0.892   1.804  10.387  1.6518 -0.6507  0.0155
  727TMC3    C710805   0.701   1.645  10.311  0.7555 -0.5847  0.4276
  727TMC3    C810806   1.051   1.808  10.604  1.0440  0.1611  0.5067
  727TMC3    O110807   0.746   1.724  10.232 -0.2384  0.2848  0.1217
  727TMC3    O210808   1.072   1.805  10.721  0.1199 -0.5401 -0.5888
  728TMC3    C110809   0.014   4.722  15.536  0.0319  0.2787  0.1889
  728TMC3    C210810   0.100   0.099  15.548  0.1165 -0.4741 -0.4131
  728TMC3    C310811   0.142   0.163  15.438 -0.0585  0.1497 -0.3776
  728TMC3    C410812   4.727   4.670  15.411 -0.0612 -0.7672  0.1892
  728TMC3    C510813   0.059   4.727  15.305  0.2371  0.2696 -0.3648
  728TMC3    C610814   0.129   0.112  15.312 -0.0527  0.1102  0.0618
  728TMC3     C10815   4.710   4.637  15.650 -0.1569 -0.3612 -0.3639
  728TMC3     O10816   0.051   4.651  15.747  0.2415 -0.2260  0.6602
  728TMC3     H10817   0.116   0.132  15.650  2.2437 -1.0046 -0.5804
  728TMC3    H110818   4.669   4.581  15.392  0.5215 -1.5897  2.2361
  728TMC3    H210819   0.158   0.176  15.230  0.5228  1.0851  1.0183
  728TMC3    C710820   0.012   4.682  15.176  0.6766 -0.0333 -0.7455
  728TMC3    C810821   0.189   0.300  15.448 -0.7970  0.3037  0.2862
  728TMC3    O110822   4.657   4.599  15.170 -0.1829  0.2127 -0.0212
  728TMC3    O210823   0.173   0.371  15.351  0.0746 -1.0083  0.2198
  729MPD2     C10824   2.122   1.527  17.034  0.5661 -0.2580 -0.7108
  729MPD2    C110825   2.146   1.389  17.052 -0.4767 -0.1746 -0.2446
  729MPD2    C210826   2.128   1.340  17.180 -0.0926  0.4985 -0.1151
  729MPD2    C310827   2.099   1.429  17.281 -0.5751 -0.6169  0.2830
  729MPD2    C410828   2.073   1.567  17.256  0.8908  0.3446  0.7333
  729MPD2    C510829   2.078   1.609  17.130 -0.0466 -0.1340  0.2475
  729MPD2     H10830   2.156   1.238  17.203  1.9897  1.2289  0.5915
  729MPD2    H110831   2.039   1.635  17.333 -0.7893  1.4020 -0.9558
  729MPD2    H210832   2.137   1.570  16.935 -0.3996  1.0575 -0.2897
  729MPD2    H310833   2.083   1.717  17.116 -0.4086 -0.0831  0.5243
  729MPD2     N10834   2.080   1.391  17.416 -0.3038  0.0950 -0.5276
  729MPD2    H510835   2.064   1.467  17.481 -5.4220 -1.3894 -0.0306
  729MPD2    N110836   2.202   1.319  16.944 -0.3405 -0.2866  0.3784
  729MPD2    H710837   2.196   1.373  16.859  1.2642  1.6469  1.4894
  730TMC3    C110838   2.151   1.255  17.602 -0.3333 -0.4082  0.6585
  730TMC3    C210839   2.257   1.176  17.590  0.2535 -0.9222  1.0415
  730TMC3    C310840   2.370   1.246  17.632  0.2342 -0.5471  0.1484
  730TMC3    C410841   2.141   1.381  17.664  0.3679 -0.0768 -0.0460
  730TMC3    C510842   2.256   1.437  17.715  0.7738 -0.5810  0.1653
  730TMC3    C610843   2.372   1.368  17.691  0.5037 -0.1703 -0.2495
  730TMC3     C10844   2.091   1.263  17.466 -0.1563  0.0699 -0.0006
  730TMC3     O10845   2.095   1.156  17.401  0.4281 -0.1823 -0.3252
  730TMC3     H10846   2.270   1.084  17.534 -0.8883  0.4314 -1.4443
  730TMC3    H110847   2.049   1.437  17.659  1.1122  1.2220  0.8045
  730TMC3    H210848   2.465   1.408  17.730  0.6062 -0.4925 -0.1649
  730TMC3    C710849   2.256   1.574  17.671  0.0046  0.0666  0.5823
  730TMC3    C810850   2.488   1.215  17.555 -0.0414 -0.5560 -0.5281
  730TMC3    O110851   2.203   1.596  17.561 -0.2941  0.0861  0.5226
  730TMC3    O210852   2.473   1.143  17.461 -0.0962 -0.0037  0.0960
  731MPD2     C10853   2.920   3.915  12.409 -0.1924  0.0797 -0.3371
  731MPD2    C110854   2.819   3.837  12.356  0.9628 -0.2877 -0.0239
  731MPD2    C210855   2.706   3.806  12.426 -0.7163  0.3287  0.5761
  731MPD2    C310856   2.687   3.852  12.557 -0.0849  0.2603 -0.4379
  731MPD2    C410857   2.784   3.929  12.611 -0.1236  0.7868 -0.0496
  731MPD2    C510858   2.904   3.956  12.540  0.2120  0.6018  0.4307
  731MPD2     H10859   2.624   3.749  12.385  1.4901 -1.6975 -1.0056
  731MPD2    H110860   2.774   3.971  12.711  1.5273  0.7692  0.1303
  731MPD2    H210861   3.013   3.929  12.354 -0.0379  0.7491  0.0843
  731MPD2    H310862   2.977   4.015  12.594  0.5406  2.5189 -2.1076
  731MPD2     N10863   2.567   3.812  12.625 -0.3032 -0.2321  0.1116
  731MPD2    H510864   2.502   3.762  12.566 -0.9027 -0.1108  0.6799
  731MPD2    N110865   2.837   3.801  12.222 -0.4955  0.5529  0.1310
  731MPD2    H710866   2.925   3.814  12.174  0.4579 -0.4736  1.5930
  732TMC3    C110867   2.776   3.699  12.025 -0.5960 -0.2170  0.0049
  732TMC3    C210868   2.669   3.673  11.933 -0.7998 -0.7189 -0.1369
  732TMC3    C310869   2.687   3.572  11.844 -0.2012  0.1730  0.0290
  732TMC3    C410870   2.887   3.622  12.033 -0.2735  0.3602  0.3461
  732TMC3    C510871   2.889   3.515  11.951 -0.3255  0.1201 -0.2325
  732TMC3    C610872   2.804   3.490  11.844 -0.2814  0.2504 -0.2963
  732TMC3     C10873   2.730   3.760  12.147 -0.5457  0.5033 -0.4633
  732TMC3     O10874   2.607   3.786  12.159  0.2360  0.2017  0.0099
  732TMC3     H10875   2.585   3.740  11.924  0.4060  0.4060 -2.9193
  732TMC3    H110876   2.955   3.631  12.117 -0.3611 -0.7771  0.5405
  732TMC3    H210877   2.803   3.404  11.777  0.3969  0.8219 -1.0423
  732TMC3    C710878   2.945   3.398  12.016 -0.3452  0.1397  0.3035
  732TMC3    C810879   2.581   3.559  11.742 -0.4822  0.1026  0.1002
  732TMC3    O110880   3.035   3.334  11.968 -0.3694  0.2706 -0.2886
  732TMC3    O210881   2.614   3.550  11.624  0.5961  0.8665  0.3012
  733TMC3    C110882   3.159   1.804  12.640 -0.7648 -0.2136 -0.3270
  733TMC3    C210883   3.290   1.757  12.669 -0.0635  0.8365 -0.3840
  733TMC3    C310884   3.394   1.791  12.582 -0.7013 -1.0006  0.9282
  733TMC3    C410885   3.131   1.867  12.528 -0.3270 -0.0617  1.1353
  733TMC3    C510886   3.240   1.904  12.450 -0.2776  0.2557  1.2984
  733TMC3    C610887   3.370   1.874  12.477 -0.1252  0.3824 -0.2947
  733TMC3     C10888   3.061   1.787  12.742  0.2937 -0.0019 -0.1200
  733TMC3     O10889   2.948   1.814  12.703  0.1638  0.4694  0.2181
  733TMC3     H10890   3.310   1.687  12.750 -3.4681  0.8273  0.4544
  733TMC3    H110891   3.029   1.890  12.496 -0.1435 -2.7241 -1.3139
  733TMC3    H210892   3.442   1.892  12.398 -0.2611  0.3743 -0.4198
  733TMC3    C710893   3.214   2.004  12.345  0.3511  0.1685 -0.1004
  733TMC3    C810894   3.532   1.790  12.630 -0.3409  0.0502  0.4722
  733TMC3    O110895   3.107   2.001  12.291 -0.0020  0.8697 -0.1247
  733TMC3    O210896   3.580   1.683  12.664 -0.3377 -0.5803 -1.1363
  734MPD2     C10897   0.801   3.967  13.007 -0.0852  0.7724 -0.1480
  734MPD2    C110898   0.678   3.944  12.948 -0.0547  0.0778 -0.0347
  734MPD2    C210899   0.644   4.020  12.841  1.0892 -0.5912 -0.1122
  734MPD2    C310900   0.721   4.118  12.795 -0.6758  0.2108  0.0279
  734MPD2    C410901   0.847   4.143  12.854 -0.3466  0.6558  0.3290
  734MPD2    C510902   0.879   4.074  12.970  0.0147 -0.3398 -0.4672
  734MPD2     H10903   0.550   4.002  12.790  0.3586 -0.1148  1.0592
  734MPD2    H110904   0.913   4.219  12.814 -0.6368  0.8105  0.1479
  734MPD2    H210905   0.833   3.908  13.093  0.6570  1.1735 -0.1506
  734MPD2    H310906   0.971   4.097  13.023 -0.5141  1.5529 -0.3653
  734MPD2     N10907   0.680   4.192  12.679 -0.3890  0.3610  0.1681
  734MPD2    H510908   0.585   4.173  12.647 -0.8724  1.0391  1.1780
  734MPD2    N110909   0.603   3.835  12.995 -0.4685 -0.2113 -0.0021
  734MPD2    H710910   0.651   3.773  13.059  0.0746  0.3160  0.1018
  735TMC3    C110911   0.469   3.650  12.949 -0.1068  0.3531 -0.1521
  735TMC3    C210912   0.349   3.620  12.886 -0.1707 -0.3589 -0.2630
  735TMC3    C310913   0.347   3.513  12.800 -0.3461 -0.4025 -0.1496
  735TMC3    C410914   0.586   3.584  12.912  0.1904  0.7014  0.1470
  735TMC3    C510915   0.582   3.474  12.833  0.5798  0.0390 -0.3606
  735TMC3    C610916   0.459   3.434  12.782  0.9262  0.6621 -0.1978
  735TMC3     C10917   0.489   3.791  12.939  0.5886  0.1981  0.0896
  735TMC3     O10918   0.407   3.848  12.863 -0.0576  0.2368  0.2255
  735TMC3     H10919   0.258   3.678  12.900  1.0217  1.3587  0.3142
  735TMC3    H110920   0.679   3.618  12.956  0.3203 -0.7784  1.0246
  735TMC3    H210921   0.460   3.369  12.694 -1.5529 -0.5915  0.7182
  735TMC3    C710922   0.700   3.440  12.762 -0.4030 -0.2527  0.3794
  735TMC3    C810923   0.274   3.545  12.679 -0.3442  0.0661  0.8527
  735TMC3    O110924   0.797   3.519  12.770  0.4546  0.2271  0.0114
  735TMC3    O210925   0.237   3.446  12.613  0.2920 -0.2103 -0.3962
  736MPD2     C10926   0.729   3.141  12.550  0.8599 -0.1269  0.0032
  736MPD2    C110927   0.763   3.271  12.597  0.4024  0.0084  1.0319
  736MPD2    C210928   0.870   3.339  12.542  0.1815  0.1663 -0.0655
  736MPD2    C310929   0.938   3.287  12.425 -0.4391  0.3688 -0.5414
  736MPD2    C410930   0.894   3.166  12.377  0.4701 -0.0191  0.0835
  736MPD2    C510931   0.794   3.090  12.440 -0.2928 -0.1324 -0.5848
  736MPD2     H10932   0.897   3.437  12.578 -2.8489  0.6496  0.8675
  736MPD2    H110933   0.939   3.116  12.293  1.0194 -0.3464  0.5730
  736MPD2    H210934   0.656   3.076  12.596  0.2812  0.0432 -0.6790
  736MPD2    H310935   0.766   2.994  12.396  0.8308 -0.6330 -0.2071
  736MPD2     N10936   1.038   3.361  12.354 -0.2494 -0.4726 -0.3539
  736MPD2    H510937   1.064   3.336  12.259  1.8041  2.5836 -0.5869
  736MPD2    N110938   0.688   3.318  12.712 -0.1685 -0.3653 -0.3073
  736MPD2    H710939   0.625   3.247  12.747  0.6099 -0.8082  0.2010
  737TMC3    C110940   1.150   3.555  12.284 -0.3122  0.0367 -0.4617
  737TMC3    C210941   1.192   3.682  12.311 -0.1244  0.0662 -0.5745
  737TMC3    C310942   1.236   3.751  12.204  0.3498  0.7003  0.2914
  737TMC3    C410943   1.156   3.499  12.157  0.1409  0.1129  0.2059
  737TMC3    C510944   1.210   3.570  12.053  0.1695  0.2023  0.5001
  737TMC3    C610945   1.243   3.703  12.075  0.0432  0.9179  0.1716
  737TMC3     C10946   1.078   3.486  12.392 -0.2999  0.5028  0.3648
  737TMC3     O10947   1.069   3.550  12.494 -0.2193  0.3294 -0.6254
  737TMC3     H10948   1.201   3.728  12.409 -0.2656  1.7321 -1.3518
  737TMC3    H110949   1.114   3.402  12.135  0.5810  0.1004 -0.5522
  737TMC3    H210950   1.290   3.758  11.995  2.1056 -2.0708 -0.6599
  737TMC3    C710951   1.224   3.500  11.929  0.0120 -0.1319  0.2146
  737TMC3    C810952   1.209   3.890  12.219  0.0636  0.1052 -0.1573
  737TMC3    O110953   1.174   3.386  11.918 -0.1914 -0.8280  0.4045
  737TMC3    O210954   1.216   3.936  12.333 -0.3445  0.1695  0.3527
  738MPD2     C10955   1.857   2.579  15.814 -0.0280 -0.3741  0.2256
  738MPD2    C110956   1.756   2.585  15.716 -0.5656  0.6112  0.3687
  738MPD2    C210957   1.795   2.620  15.588 -0.9950  0.7774 -0.6689
  738MPD2    C310958   1.927   2.631  15.555  0.1357  0.0442  0.3729
  738MPD2    C410959   2.022   2.598  15.648 -0.1210  0.0466  0.2912
  738MPD2    C510960   1.991   2.572  15.776 -0.1797 -0.0373 -0.1113
  738MPD2     H10961   1.716   2.636  15.516 -2.4531  3.4922  1.4870
  738MPD2    H110962   2.129   2.594  15.635 -0.1555  0.2003 -0.0304
  738MPD2    H210963   1.825   2.563  15.916 -1.4014  1.1675  0.0286
  738MPD2    H310964   2.067   2.549  15.850 -0.0603  2.1506  0.4574
  738MPD2     N10965   1.969   2.661  15.424  0.5192  0.3378  0.3533
  738MPD2    H510966   2.068   2.648  15.410  0.7650  1.5014  1.0289
  738MPD2    N110967   1.622   2.556  15.742  0.3838 -0.0206 -0.0707
  738MPD2    H710968   1.559   2.538  15.665  0.7259 -0.9592 -0.1308
  739TMC3    C110969   1.947   2.745  15.207  1.0704  0.6417  1.0492
  739TMC3    C210970   1.883   2.845  15.134  0.0287 -0.4035  0.3104
  739TMC3    C310971   1.970   2.906  15.043 -0.7230 -0.1692 -0.2522
  739TMC3    C410972   2.074   2.703  15.183 -0.5021 -0.0379 -0.0061
  739TMC3    C510973   2.151   2.768  15.083 -0.3107 -0.1038 -0.0062
  739TMC3    C610974   2.097   2.873  15.012  0.0354  0.0830 -0.1439
  739TMC3     C10975   1.879   2.692  15.321  0.2995 -0.0932  0.0592
  739TMC3     O10976   1.761   2.733  15.330  0.4293  0.3141 -0.2288
  739TMC3     H10977   1.787   2.892  15.151  1.0369  1.7815  0.0076
  739TMC3    H110978   2.126   2.631  15.246  0.8911  1.3450  0.4192
  739TMC3    H210979   2.149   2.920  14.930  0.7299 -0.3246  0.0644
  739TMC3    C710980   2.291   2.737  15.053  0.2714 -0.6841  0.1564
  739TMC3    C810981   1.898   2.996  14.954 -0.3022  0.1785 -0.5666
  739TMC3    O110982   2.342   2.820  14.979  0.0339 -0.7337 -0.3840
  739TMC3    O210983   1.785   2.969  14.913  0.6038  0.0509 -0.3342
  740TMC3    C110984   1.493   4.097  14.459 -0.2566  0.0869 -0.9513
  740TMC3    C210985   1.404   3.993  14.437  0.0094  0.1801 -0.0895
  740TMC3    C310986   1.442   3.895  14.350 -0.5092 -0.1257 -0.3958
  740TMC3    C410987   1.611   4.107  14.386 -0.2907  0.5680  0.3259
  740TMC3    C510988   1.633   4.016  14.292  0.6285  0.2913 -0.8825
  740TMC3    C610989   1.553   3.911  14.269  0.4109  0.2792 -0.2318
  740TMC3     C10990   1.454   4.204  14.551 -0.1810  0.0886  0.0634
  740TMC3     O10991   1.510   4.310  14.535 -0.3428 -0.3639  0.5400
  740TMC3     H10992   1.303   3.999  14.475  0.5887 -0.8882  1.6349
  740TMC3    H110993   1.680   4.187  14.409 -0.1018  0.1149  1.3499
  740TMC3    H210994   1.586   3.831  14.204  0.3886 -1.1107  1.4563
  740TMC3    C710995   1.759   4.011  14.222 -0.2402  0.5389  0.3703
  740TMC3    C810996   1.345   3.809  14.300 -0.5699  0.4873 -0.5461
  740TMC3    O110997   1.810   3.900  14.204  0.2493 -0.3119  0.0589
  740TMC3    O210998   1.366   3.777  14.181  0.0688 -0.5883 -0.2892
  741TMC3    C110999   1.334   3.490  14.039 -0.4032 -1.0566 -0.6670
  741TMC3    C211000   1.224   3.414  14.023 -0.2739 -0.4091  0.4298
  741TMC3    C311001   1.200   3.318  14.116  0.5345  0.7195  0.6946
  741TMC3    C411002   1.417   3.485  14.151  0.5338 -0.0196  0.0470
  741TMC3    C511003   1.379   3.390  14.247 -0.6112 -0.6458  0.1320
  741TMC3    C611004   1.276   3.311  14.227  0.1003  0.5179 -0.0063
  741TMC3     C11005   1.362   3.586  13.929 -0.1974  0.2607 -0.1995
  741TMC3     O11006   1.476   3.610  13.893 -0.1355 -0.5099  0.5905
  741TMC3     H11007   1.166   3.434  13.934  2.1065 -1.3723 -1.3304
  741TMC3    H111008   1.501   3.553  14.163 -1.0982  1.9216  0.4299
  741TMC3    H211009   1.264   3.230  14.299 -1.4454 -0.2377 -1.1245
  741TMC3    C711010   1.421   3.408  14.381  0.4749 -0.1019  0.5074
  741TMC3    C811011   1.076   3.239  14.120  0.1528  0.7900 -0.4142
  741TMC3    O111012   1.362   3.343  14.463 -0.6358 -0.0069  0.0992
  741TMC3    O211013   1.053   3.170  14.221 -0.3206  0.5532  0.2243
  742TMC3    C111014   0.981   1.874  15.524  0.6749 -0.6477  0.0319
  742TMC3    C211015   0.904   1.919  15.423 -0.2138  0.0626  0.1638
  742TMC3    C311016   0.956   1.992  15.322  0.1310  1.0061 -0.4177
  742TMC3    C411017   1.107   1.928  15.545 -0.0016  0.0126 -0.0029
  742TMC3    C511018   1.154   2.014  15.446 -0.0338  0.0055  0.7755
  742TMC3    C611019   1.088   2.032  15.332  0.8189  0.1815 -0.3399
  742TMC3     C11020   0.920   1.799  15.634  0.1389  0.4603  0.5865
  742TMC3     O11021   0.832   1.721  15.606  0.1162  0.1381 -0.0174
  742TMC3     H11022   0.818   1.856  15.406 -0.4826  0.5379 -0.2191
  742TMC3    H111023   1.183   1.879  15.605  1.3276  0.9442 -0.9278
  742TMC3    H211024   1.127   2.075  15.240 -4.0751 -2.2579 -3.5354
  742TMC3    C711025   1.293   2.046  15.445  0.6235 -0.6072  0.9344
  742TMC3    C811026   0.891   1.980  15.194 -0.5718 -0.3838  0.2259
  742TMC3    O111027   1.357   2.027  15.342  0.5674 -0.3596 -0.4271
  742TMC3    O211028   0.962   1.992  15.095  0.5414  0.1371  0.1196
  743MPD2     C11029   4.095   3.667   2.537  0.5243  0.8413  0.3620
  743MPD2    C111030   4.141   3.602   2.429  0.1718 -0.6495 -0.5169
  743MPD2    C211031   4.265   3.633   2.388  0.1044 -0.0454 -0.6022
  743MPD2    C311032   4.349   3.728   2.443  1.1431  0.6193 -0.1404
  743MPD2    C411033   4.299   3.799   2.549 -0.4840 -0.9250  0.6085
  743MPD2    C511034   4.170   3.763   2.591 -0.5662 -0.2766 -0.1526
  743MPD2     H11035   4.298   3.603   2.289 -2.8192 -3.0916 -0.6319
  743MPD2    H111036   4.345   3.885   2.596 -0.5576  0.2787 -1.5262
  743MPD2    H211037   3.996   3.645   2.576 -0.3344 -1.1566 -2.8950
  743MPD2    H311038   4.136   3.799   2.687 -1.4211  4.1980 -2.1334
  743MPD2     N11039   4.474   3.742   2.377 -0.2953  0.0103  0.1773
  743MPD2    H511040   4.499   3.669   2.311 -0.4177  0.7974 -0.7461
  743MPD2    N111041   4.048   3.527   2.345  0.1154  0.5711  0.5646
  743MPD2    H711042   3.948   3.544   2.350 -0.4213 -2.2840 -0.2610
  744TMC3    C111043   3.972   3.422   2.145 -0.0806  0.0434  0.0274
  744TMC3    C211044   3.850   3.406   2.198 -0.4056 -0.4809  0.4930
  744TMC3    C311045   3.742   3.379   2.115 -0.3897  0.2356 -0.4281
  744TMC3    C411046   3.987   3.410   2.005 -0.1222  0.8157  0.0446
  744TMC3    C511047   3.878   3.374   1.928  0.0917  0.1268 -0.2141
  744TMC3    C611048   3.755   3.359   1.984  0.7478 -0.1372 -0.9435
  744TMC3     C11049   4.085   3.455   2.228 -0.1398  0.4039  0.1786
  744TMC3     O11050   4.190   3.449   2.165  0.2485 -0.2629  0.1665
  744TMC3     H11051   3.829   3.409   2.305 -3.0748 -0.5192 -0.0368
  744TMC3    H111052   4.084   3.436   1.963 -0.2803 -1.1047 -1.4917
  744TMC3    H211053   3.667   3.357   1.921  0.3327 -3.6882 -0.2301
  744TMC3    C711054   3.896   3.361   1.782 -0.3119  1.1284  0.3030
  744TMC3    C811055   3.616   3.335   2.163  0.0310  0.1427  0.0123
  744TMC3    O111056   4.001   3.410   1.741 -0.2005  0.1657 -0.3913
  744TMC3    O211057   3.539   3.301   2.078 -0.0007  0.5493  0.3089
  745TMC3    C111058   1.655   1.719  13.816 -0.1630 -0.1288 -0.0091
  745TMC3    C211059   1.531   1.675  13.857 -0.4658  0.2108 -0.6656
  745TMC3    C311060   1.420   1.716  13.793  0.4320 -0.1068  0.6398
  745TMC3    C411061   1.684   1.796  13.708  0.3128  0.1974 -0.5632
  745TMC3    C511062   1.569   1.824  13.638  0.1133  0.1006 -0.4878
  745TMC3    C611063   1.445   1.792  13.677  1.0206 -0.1356 -0.2038
  745TMC3     C11064   1.752   1.730  13.922  0.1837  0.2089  0.4459
  745TMC3     O11065   1.711   1.685  14.031 -0.4604 -0.5468 -0.4596
  745TMC3     H11066   1.522   1.608  13.942  3.7791  0.6363  0.1446
  745TMC3    H111067   1.784   1.811  13.670  0.0913 -0.4501 -1.4131
  745TMC3    H211068   1.359   1.823  13.618 -1.2644 -0.2004  3.1056
  745TMC3    C711069   1.573   1.909  13.520  0.9016  0.3221  0.0781
  745TMC3    C811070   1.334   1.793  13.881  0.2874 -0.0062  1.1369
  745TMC3    O111071   1.470   1.963  13.478 -0.0425  0.0894  0.1758
  745TMC3    O211072   1.247   1.864  13.834 -0.0029 -0.3645  0.4108
  746TMC3    C111073   3.890   3.462  11.086 -0.2232 -0.4034  0.5985
  746TMC3    C211074   3.972   3.450  10.972 -0.4285 -0.7464 -0.8004
  746TMC3    C311075   3.922   3.354  10.885 -0.2528  0.4513  0.5466
  746TMC3    C411076   3.772   3.400  11.102 -0.0231  0.7890 -0.3383
  746TMC3    C511077   3.731   3.320  10.999  0.3842  0.7507 -0.5796
  746TMC3    C611078   3.804   3.294  10.888  0.2193 -0.6090  0.8573
  746TMC3     C11079   3.907   3.590  11.155 -0.6673 -0.6256 -0.0803
  746TMC3     O11080   3.853   3.602  11.266  0.3287  0.2730  0.2949
  746TMC3     H11081   4.077   3.477  10.964  0.3417 -3.4625 -0.0001
  746TMC3    H111082   3.705   3.430  11.182  1.5656 -0.0155  1.2835
  746TMC3    H211083   3.774   3.219  10.816 -0.0518  1.2199 -0.9172
  746TMC3    C711084   3.607   3.246  11.008  0.2279 -0.1038  0.2848
  746TMC3    C811085   4.020   3.279  10.808  0.7635 -0.0627 -0.4830
  746TMC3    O111086   3.567   3.202  10.906  0.3472  0.2921  0.0713
  746TMC3    O211087   3.973   3.174  10.761 -0.3713 -0.0584 -0.7839
  747TMC3    C111088   1.798   3.785  11.076  0.1904  0.6332 -0.0008
  747TMC3    C211089   1.685   3.731  11.134  0.0143 -0.5162  0.4368
  747TMC3    C311090   1.688   3.727  11.271  0.0696 -0.7097  0.1209
  747TMC3    C411091   1.896   3.842  11.155  0.0986  0.0941 -0.0228
  747TMC3    C511092   1.891   3.845  11.286 -0.5164 -0.3988  0.3386
  747TMC3    C611093   1.784   3.793  11.351  0.0827 -0.4713 -0.0681
  747TMC3     C11094   1.780   3.834  10.941  0.2365 -0.4647 -0.1591
  747TMC3     O11095   1.804   3.950  10.931 -0.9648 -0.2803 -0.1407
  747TMC3     H11096   1.599   3.694  11.079 -1.2701 -0.1935  2.2179
  747TMC3    H111097   1.974   3.893  11.099  0.6465  0.1644  0.8148
  747TMC3    H211098   1.788   3.781  11.459 -0.0623  0.8357  0.0800
  747TMC3    C711099   2.017   3.875  11.356 -1.1960 -0.7097 -0.2794
  747TMC3    C811100   1.610   3.617  11.320 -0.1239 -0.8566  1.2346
  747TMC3    O111101   2.005   3.908  11.469 -0.3520  0.1568  0.2204
  747TMC3    O211102   1.548   3.549  11.239  0.2201 -0.4521 -0.1005
  748MPD2     C11103   3.166   3.725   1.036  0.5941  0.4978  0.3276
  748MPD2    C111104   3.195   3.722   1.167  0.3433 -0.0664 -0.2121
  748MPD2    C211105   3.305   3.797   1.217  0.3016 -0.2693 -0.0970
  748MPD2    C311106   3.381   3.879   1.130  0.3192 -0.0096  0.0844
  748MPD2    C411107   3.339   3.876   0.998 -0.1235  0.1304  0.1104
  748MPD2    C511108   3.236   3.805   0.953  0.5320  0.4473 -0.3265
  748MPD2     H11109   3.338   3.779   1.319  3.1920 -0.1734 -1.0248
  748MPD2    H111110   3.385   3.935   0.920  0.4420 -0.6147 -0.1098
  748MPD2    H211111   3.083   3.665   1.001  0.0952  1.4165 -0.0733
  748MPD2    H311112   3.234   3.803   0.845 -0.6672  2.1071 -0.3208
  748MPD2     N11113   3.494   3.949   1.178  0.0064  0.1448  0.3863
  748MPD2    H511114   3.509   3.944   1.279  0.7229 -0.0187  0.2742
  748MPD2    N111115   3.120   3.631   1.258  0.0621  0.1837  0.6433
  748MPD2    H711116   3.048   3.577   1.211  0.5124 -0.6042  0.8633
  749TMC3    C111117   3.664   4.106   1.179  0.1999  1.0790  0.8555
  749TMC3    C211118   3.709   4.063   1.304 -0.2460  0.7878 -0.6411
  749TMC3    C311119   3.809   4.140   1.351  0.6776  0.2146  0.2701
  749TMC3    C411120   3.712   4.207   1.104  0.1715 -0.2848 -0.2408
  749TMC3    C511121   3.811   4.281   1.163  0.4516  0.1949  0.6695
  749TMC3    C611122   3.857   4.252   1.294  0.4095 -0.0431  0.2768
  749TMC3     C11123   3.566   4.026   1.102  0.4619  0.7927  0.4293
  749TMC3     O11124   3.565   4.042   0.982  0.1947  0.0420  0.5793
  749TMC3     H11125   3.676   3.977   1.360  1.5154 -0.7183 -1.8797
  749TMC3    H111126   3.666   4.230   1.009 -0.9461  0.0474  0.3813
  749TMC3    H211127   3.923   4.317   1.351 -1.6786  2.0943  0.2524
  749TMC3    C711128   3.852   4.405   1.109  0.7634 -0.2013  0.0105
  749TMC3    C811129   3.852   4.117   1.484  0.7134 -0.1705  0.5567
  749TMC3    O111130   3.919   4.484   1.172  0.1669 -0.3745 -0.3248
  749TMC3    O211131   3.786   4.046   1.556 -0.3816  0.0581 -0.3869
  750MPD2     C11132   3.971   0.719  11.581  0.0154  0.7150  0.0909
  750MPD2    C111133   3.950   0.626  11.680  0.2043 -0.4625 -0.1096
  750MPD2    C211134   3.993   0.494  11.658 -0.7238 -0.4404 -0.0832
  750MPD2    C311135   4.066   0.457  11.544 -0.3996 -0.4594  0.4862
  750MPD2    C411136   4.086   0.552  11.450 -0.0281 -0.4701 -0.0999
  750MPD2    C511137   4.027   0.682  11.462 -0.2837  0.1598  0.2311
  750MPD2     H11138   3.975   0.424  11.739 -1.3418  0.2567  0.3826
  750MPD2    H111139   4.132   0.523  11.356  1.1875 -2.3700  1.0723
  750MPD2    H211140   3.936   0.821  11.586 -2.6174 -0.3268  2.4977
  750MPD2    H311141   4.037   0.762  11.388  1.1017  0.5130  0.7970
  750MPD2     N11142   4.135   0.333  11.526  0.7087 -0.1806 -0.4205
  750MPD2    H511143   4.181   0.323  11.436 -1.1663  3.4052 -1.7626
  750MPD2    N111144   3.870   0.662  11.797  0.3585  0.4375  0.0500
  750MPD2    H711145   3.816   0.748  11.792  0.5220  0.6249  1.7573
  751TMC3    C111146   4.193   0.110  11.573 -0.2198  0.4015  0.3797
  751TMC3    C211147   4.145   4.724  11.623 -0.4752  0.1697  0.4134
  751TMC3    C311148   4.178   4.604  11.557  0.1093 -0.2142  0.2299
  751TMC3    C411149   4.295   0.119  11.484  0.6534  0.2531 -0.0996
  751TMC3    C511150   4.335   4.730  11.433 -0.1041  0.4827 -0.4038
  751TMC3    C611151   4.276   4.612  11.463 -0.1992  0.4914 -0.5806
  751TMC3     C11152   4.119   0.230  11.611  0.3076 -0.0159 -0.0530
  751TMC3     O11153   4.044   0.212  11.705 -0.0757 -0.1930  0.1877
  751TMC3     H11154   4.051   4.719  11.677 -1.6867  0.2257 -1.6795
  751TMC3    H111155   4.346   0.210  11.455  1.3699 -0.8859 -2.3915
  751TMC3    H211156   4.296   4.530  11.395  0.7641 -0.0684  0.3970
  751TMC3    C711157   4.424   0.004  11.320 -0.4226 -0.1978  0.2251
  751TMC3    C811158   4.058   4.538  11.510  0.3489  0.0878 -0.6612
  751TMC3    O111159   4.527   0.076  11.321 -0.0197  0.1394 -0.5534
  751TMC3    O211160   4.037   4.529  11.389  0.1871  0.0852  0.0495
  752TMC3    C111161   2.740   0.712  17.620  0.1491  0.2760  0.1670
  752TMC3    C211162   2.738   0.593  17.675 -0.4361 -0.4285 -0.0087
  752TMC3    C311163   2.663   0.570   0.051 -0.1214 -0.1678  0.2817
  752TMC3    C411164   2.675   0.819  17.679 -0.7619 -0.3720  0.0169
  752TMC3    C511165   2.592   0.793   0.049  0.1740 -0.0677 -0.3887
  752TMC3    C611166   2.583   0.672   0.107 -0.5605 -0.6831  0.1577
  752TMC3     C11167   2.835   0.737  17.508 -0.0945 -0.4969 -0.9220
  752TMC3     O11168   2.933   0.664  17.492 -0.0490 -0.4349 -0.0131
  752TMC3     H11169   2.774   0.513  17.611  0.9844 -0.7566  1.1796
  752TMC3    H111170   2.688   0.919  17.641 -1.1415 -0.2263  0.2690
  752TMC3    H211171   2.551   0.658   0.209  1.4539 -2.0184  0.6038
  752TMC3    C711172   2.523   0.910   0.101  0.4848 -0.9901 -0.0626
  752TMC3    C811173   2.653   0.439   0.106 -0.7002 -0.2882 -0.2482
  752TMC3    O111174   2.565   1.017   0.076  1.0102 -0.0477  0.1865
  752TMC3    O211175   2.553   0.408   0.169  0.3698 -0.5291  0.2748
  753TMC3    C111176   4.682   2.040  14.167  0.0724  0.2290  0.2240
  753TMC3    C211177   0.019   2.041  14.282 -0.6242 -0.2976  0.7096
  753TMC3    C311178   0.064   1.918  14.330 -0.6514  0.1116  0.2466
  753TMC3    C411179   4.663   1.929  14.090 -0.6092  0.2769  0.1801
  753TMC3    C511180   4.714   1.813  14.146  0.6174 -0.8198  0.1517
  753TMC3    C611181   0.057   1.804  14.261 -0.1652  0.4601 -0.0902
  753TMC3     C11182   4.627   2.156  14.107  0.2260 -0.2455  0.7389
  753TMC3     O11183   4.538   2.126  14.030 -0.3700 -0.2722  0.3899
  753TMC3     H11184   0.028   2.132  14.340  0.6028 -1.4160  2.2864
  753TMC3    H111185   4.631   1.940  13.987 -0.9684 -0.3082  0.2313
  753TMC3    H211186   0.083   1.711  14.311 -0.5030  1.0704  1.2165
  753TMC3    C711187   4.729   1.720  14.041  0.9554 -0.4815  0.4421
  753TMC3    C811188   0.061   1.901  14.470  0.3546 -0.3074  0.7293
  753TMC3    O111189   4.644   1.717  13.951  0.4729  0.0799  0.1766
  753TMC3    O211190   0.036   1.793  14.523 -0.0118  0.1854 -0.6117
  754MPD2     C11191   4.134   0.320  13.566 -0.5051 -0.2753  0.3977
  754MPD2    C111192   4.099   0.185  13.587 -0.0271  0.8110 -0.3761
  754MPD2    C211193   3.971   0.146  13.571  0.7114 -0.8694 -0.6923
  754MPD2    C311194   3.876   0.244  13.566 -0.8852 -0.8366  0.6199
  754MPD2    C411195   3.907   0.377  13.545  0.0629  0.2543 -0.0138
  754MPD2    C511196   4.036   0.417  13.542  0.4468 -0.3515 -0.3041
  754MPD2     H11197   3.943   0.041  13.573 -1.9427 -0.1375  1.1738
  754MPD2    H111198   3.828   0.450  13.549  0.8488  1.0370  1.1084
  754MPD2    H211199   4.238   0.351  13.571 -0.6162  0.1427  0.1318
  754MPD2    H311200   4.076   0.517  13.536  3.5730 -1.7301 -2.6927
  754MPD2     N11201   3.736   0.216  13.564  0.5150 -0.7730  0.3369
  754MPD2    H511202   3.678   0.299  13.556 -0.6252 -1.6221 -0.1329
  754MPD2    N111203   4.207   0.102  13.620 -0.1504  0.0544  0.4881
  754MPD2    H711204   4.298   0.140  13.594  0.7167 -2.2149  0.2545
  755MPD2     C11205   3.124   0.766  13.690 -0.9199 -0.7212 -0.5556
  755MPD2    C111206   3.106   0.686  13.801 -0.6153  0.2899  0.1945
  755MPD2    C211207   3.175   0.566  13.805  0.3802  0.5258 -0.5473
  755MPD2    C311208   3.249   0.527  13.699 -0.0440  0.0613  0.2902
  755MPD2    C411209   3.257   0.603  13.587 -0.8648 -0.2564 -0.1672
  755MPD2    C511210   3.197   0.722  13.580  0.1276  0.5384 -0.6076
  755MPD2     H11211   3.175   0.509  13.897 -1.6925  2.1573  0.4661
  755MPD2    H111212   3.323   0.572  13.508 -2.7723 -1.0920 -1.4283
  755MPD2    H211213   3.082   0.865  13.677  1.4062  0.5997  1.8989
  755MPD2    H311214   3.206   0.779  13.488 -1.5761  1.2306 -0.3646
  755MPD2     N11215   3.312   0.399  13.699  0.1558  0.6588 -0.3430
  755MPD2    H511216   3.369   0.378  13.617 -1.8360  1.1013 -1.8553
  755MPD2    N111217   3.033   0.718  13.921  0.5837 -0.2560  0.5552
  755MPD2    H711218   3.041   0.650  13.996 -0.7394 -0.6893  0.2913
  756MPD2     C11219   3.705   1.605  10.124 -0.3643  0.1230  0.5274
  756MPD2    C111220   3.634   1.517  10.193 -1.0450  0.5099 -0.0559
  756MPD2    C211221   3.510   1.475  10.141  0.3227  0.3986  0.6144
  756MPD2    C311222   3.460   1.531  10.023  0.5713 -0.3145 -0.1095
  756MPD2    C411223   3.532   1.627   9.957 -0.0306  0.1841 -0.1018
  756MPD2    C511224   3.659   1.659  10.010  0.7426  0.2498 -0.1507
  756MPD2     H11225   3.453   1.399  10.193 -0.2650  0.6666  0.3637
  756MPD2    H111226   3.509   1.669   9.860 -1.2977 -2.1844 -0.8043
  756MPD2    H211227   3.802   1.640  10.156  0.4719 -1.1611 -0.5771
  756MPD2    H311228   3.717   1.734   9.956  1.0718 -1.1580 -1.7415
  756MPD2     N11229   3.346   1.462   9.976  0.4860 -0.4744  0.4224
  756MPD2    H511230   3.301   1.395  10.037  0.0234  0.1004  0.7031
  756MPD2    N111231   3.671   1.454  10.315  0.0690  0.2219  0.4289
  756MPD2    H711232   3.604   1.388  10.353  1.7654 -1.4864  0.4734
  757MPD2     C11233   3.002   0.776  10.344  0.1434  0.2450  0.4842
  757MPD2    C111234   3.131   0.825  10.322  0.0604  0.3939  0.6290
  757MPD2    C211235   3.149   0.921  10.223 -0.4301 -0.1766  0.2544
  757MPD2    C311236   3.047   0.966  10.144  0.6284  0.0965 -0.1256
  757MPD2    C411237   2.919   0.917  10.164 -0.6964 -0.0919 -0.3136
  757MPD2    C511238   2.899   0.821  10.261  0.1907  0.4421 -0.5865
  757MPD2     H11239   3.247   0.962  10.200 -0.4279  0.5222  1.5476
  757MPD2    H111240   2.833   0.947  10.105 -1.7560 -2.8757 -0.2089
  757MPD2    H211241   2.981   0.712  10.428  1.7017 -0.0186  0.6546
  757MPD2    H311242   2.796   0.787  10.264 -0.2118  1.4859 -2.4355
  757MPD2     N11243   3.078   1.055  10.035  0.0863  0.3820 -0.0610
  757MPD2    H511244   3.173   1.089  10.028 -0.5005  2.5983  2.7482
  757MPD2    N111245   3.236   0.760  10.399 -0.2783  0.0763 -0.5230
  757MPD2    H711246   3.207   0.690  10.466  0.3345 -0.0208 -0.3623
  758MPD2     C11247   3.696   0.170  16.033  0.3901  0.1792 -0.1523
  758MPD2    C111248   3.755   0.065  16.100 -0.7884 -0.5924  0.8106
  758MPD2    C211249   3.734   0.054  16.239 -0.2678 -0.2001  0.1800
  758MPD2    C311250   3.653   0.146  16.311 -0.0752 -0.1239  0.7076
  758MPD2    C411251   3.608   0.254  16.237 -0.2387 -0.0170 -0.0671
  758MPD2    C511252   3.620   0.257  16.106 -0.3938 -0.4470  0.3328
  758MPD2     H11253   3.784   4.712  16.298  0.7406  1.3084  1.3040
  758MPD2    H111254   3.535   0.321  16.281  1.3385  1.5968  0.0849
  758MPD2    H211255   3.697   0.178  15.924  0.8654  1.2141 -0.0724
  758MPD2    H311256   3.556   0.324  16.051  1.1339  0.6209 -0.1340
  758MPD2     N11257   3.634   0.154  16.451 -0.2161 -0.0946 -0.2520
  758MPD2    H511258   3.579   0.222  16.502  2.0226  0.2801  1.6641
  758MPD2    N111259   3.835   4.715  16.021 -0.3667  0.4017 -0.2885
  758MPD2    H711260   3.838   0.003  15.923  1.9410 -1.4972 -0.6480
  759MPD2     C11261   3.125   3.276  10.382  0.0039 -0.7155  0.5754
  759MPD2    C111262   3.022   3.259  10.284 -0.6797  0.2758  0.0348
  759MPD2    C211263   2.983   3.366  10.199 -0.3261  0.3748 -0.2585
  759MPD2    C311264   3.045   3.497  10.216 -0.0728 -0.5349 -0.2199
  759MPD2    C411265   3.144   3.509  10.312  1.1073 -0.2666  0.2112
  759MPD2    C511266   3.183   3.402  10.394  0.3767 -0.2861  0.6953
  759MPD2     H11267   2.903   3.354  10.127  0.1862 -1.9453 -0.4439
  759MPD2    H111268   3.188   3.607  10.326 -1.4030  0.8074  0.6009
  759MPD2    H211269   3.165   3.192  10.438  2.4425 -0.4128 -0.7004
  759MPD2    H311270   3.266   3.411  10.463  1.0414  2.6564 -0.4815
  759MPD2     N11271   3.002   3.608  10.132  0.2582 -0.3815 -0.0450
  759MPD2    H511272   2.940   3.581  10.058  0.1248  3.2521 -1.2637
  759MPD2    N111273   2.974   3.127  10.249 -0.2500  0.3910 -0.4981
  759MPD2    H711274   2.926   3.121  10.160 -3.1884  1.6564  0.9942
  760MPD2     C11275   1.933   0.555  12.491 -0.1899 -0.2350  0.8572
  760MPD2    C111276   2.055   0.619  12.484 -0.5874  0.7311  0.0401
  760MPD2    C211277   2.166   0.547  12.452 -0.1761  0.2221  0.0108
  760MPD2    C311278   2.166   0.412  12.442  0.5723 -0.0741  0.1707
  760MPD2    C411279   2.046   0.346  12.453  0.3966 -0.4068  0.1231
  760MPD2    C511280   1.935   0.416  12.481  0.1489  0.0621  0.0750
  760MPD2     H11281   2.265   0.591  12.461 -0.8635  1.7087  0.3916
  760MPD2    H111282   2.037   0.239  12.444 -0.7585 -0.2632 -0.5134
  760MPD2    H211283   1.837   0.592  12.524  0.0626 -0.4330  1.7957
  760MPD2    H311284   1.843   0.358  12.487  0.7673 -1.0041 -0.8241
  760MPD2     N11285   2.277   0.328  12.425  0.3762  0.4918  0.0796
  760MPD2    H511286   2.260   0.228  12.422 -1.3730  0.7661  0.9174
  760MPD2    N111287   2.079   0.755  12.510 -0.5885 -0.1849  0.1599
  760MPD2    H711288   2.167   0.799  12.488 -1.6075  1.1604 -1.2462
  761MPD2     C11289   3.716   4.152  11.569  0.2370  0.0397  0.5819
  761MPD2    C111290   3.780   4.206  11.459  0.1010 -0.1444 -0.1601
  761MPD2    C211291   3.868   4.306  11.475 -0.0044  0.6995  0.5670
  761MPD2    C311292   3.887   4.368  11.594 -0.3642  0.6291  0.6548
  761MPD2    C411293   3.823   4.313  11.705 -0.5057 -0.2839 -0.0751
  761MPD2    C511294   3.744   4.203  11.693  0.0283 -0.0141  0.4181
  761MPD2     H11295   3.922   4.338  11.386 -2.1508 -2.1728 -1.7863
  761MPD2    H111296   3.834   4.354  11.805 -1.6935 -4.0303  1.5964
  761MPD2    H211297   3.660   4.059  11.558  1.1704 -0.0939 -3.0518
  761MPD2    H311298   3.711   4.160  11.787 -0.6460  0.3337  0.3413
  761MPD2     N11299   3.985   4.474  11.607  0.4214  0.4486  0.2890
  761MPD2    H511300   4.005   4.498  11.704  1.9314  0.5371 -0.0454
  761MPD2    N111301   3.770   4.132  11.340  0.6658  0.2746  0.3000
  761MPD2    H711302   3.732   4.038  11.350 -0.7377  1.0075  1.7886
  762MPD2     C11303   4.202   4.284  10.678  0.1084  0.0983 -0.3202
  762MPD2    C111304   4.173   4.149  10.702  0.1220  0.0808 -0.0267
  762MPD2    C211305   4.253   4.050  10.645 -0.4379 -0.2935 -0.1870
  762MPD2    C311306   4.349   4.084  10.557 -0.3932 -0.0010  0.2071
  762MPD2    C411307   4.370   4.218  10.530 -0.2151  0.3464  0.1502
  762MPD2    C511308   4.302   4.316  10.593 -0.2368  0.1434  0.2819
  762MPD2     H11309   4.231   3.947  10.670 -3.0190  0.4850  0.7357
  762MPD2    H111310   4.445   4.253  10.461 -0.1419 -1.3903 -0.6326
  762MPD2    H211311   4.132   4.360  10.710  1.1139  0.3366  1.2705
  762MPD2    H311312   4.328   4.418  10.567  1.2017 -0.3418 -0.1525
  762MPD2     N11313   4.424   3.982  10.495  0.3333  0.1393 -0.6608
  762MPD2    H511314   4.401   3.885  10.516 -0.4420  0.5788  0.5480
  762MPD2    N111315   4.070   4.117  10.798 -0.0810  0.5206 -0.0961
  762MPD2    H711316   4.036   4.192  10.857  0.8121  0.8026  0.0532
  763MPD2     C11317   0.873   0.255  16.375 -0.1437 -0.1260 -0.1002
  763MPD2    C111318   0.769   0.332  16.340 -1.0178  0.2927  0.4010
  763MPD2    C211319   0.764   0.455  16.398  0.1469 -0.0945  0.1140
  763MPD2    C311320   0.871   0.504  16.481  0.6218  0.0504 -0.2024
  763MPD2    C411321   0.980   0.420  16.508 -0.0265 -0.6840  0.4246
  763MPD2    C511322   0.972   0.293  16.457  0.0772 -0.5254 -0.5895
  763MPD2     H11323   0.683   0.518  16.363  1.4027  2.7258  2.2983
  763MPD2    H111324   1.074   0.446  16.555 -0.4749 -0.1172  1.0081
  763MPD2    H211325   0.885   0.156  16.333 -1.6743 -0.1666 -0.4317
  763MPD2    H311326   1.057   0.230  16.480  1.9046  1.1249 -2.7115
  763MPD2     N11327   0.889   0.636  16.520 -0.8192  0.3221  0.0779
  763MPD2    H511328   0.981   0.649  16.561 -1.1966  4.0083 -0.2245
  763MPD2    N111329   0.656   0.291  16.260  0.0323  0.6146  0.7411
  763MPD2    H711330   0.574   0.349  16.265  0.0696  0.5296  2.3435
  764MPD2     C11331   4.205   1.494   0.624  0.3556 -0.0193 -0.1085
  764MPD2    C111332   4.098   1.476   0.543  0.5002  0.6232 -0.3716
  764MPD2    C211333   3.981   1.438   0.599  0.1888  0.2806 -0.6386
  764MPD2    C311334   3.965   1.415   0.728  0.5717 -0.4611 -0.0809
  764MPD2    C411335   4.073   1.424   0.811  0.2627  0.3731 -0.2968
  764MPD2    C511336   4.190   1.466   0.755  0.4411 -0.0825 -1.0227
  764MPD2     H11337   3.897   1.426   0.532  0.2725 -0.8634 -0.5491
  764MPD2    H111338   4.063   1.400   0.916  0.0997 -0.9317 -0.5997
  764MPD2    H211339   4.303   1.518   0.585 -0.4865 -0.8690 -2.7635
  764MPD2    H311340   4.272   1.489   0.822  0.1013 -2.0124  0.0887
  764MPD2     N11341   3.831   1.383   0.766 -0.2089 -0.2710  0.0882
  764MPD2    H511342   3.762   1.375   0.692  0.0864 -0.7572 -0.1359
  764MPD2    N111343   4.103   1.468   0.403 -0.1181  0.2095 -0.2737
  764MPD2    H711344   4.016   1.445   0.356 -0.5449  0.9462  0.1654
  765MPD2     C11345   3.305   4.379  15.717 -1.0239  0.6498  0.3133
  765MPD2    C111346   3.389   4.399  15.823  0.3909  0.0885 -0.4084
  765MPD2    C211347   3.525   4.363  15.823  0.7436 -0.3607  0.1502
  765MPD2    C311348   3.569   4.299  15.708 -0.1507  0.6462 -1.3853
  765MPD2    C411349   3.487   4.287  15.600  0.1338 -0.3211 -0.5861
  765MPD2    C511350   3.360   4.341  15.594  0.3582 -0.8605 -0.7787
  765MPD2     H11351   3.591   4.391  15.905  1.4610  0.0080 -0.5559
  765MPD2    H111352   3.523   4.243  15.508 -1.7392 -1.5985 -0.7018
  765MPD2    H211353   3.202   4.412  15.719 -0.7329  1.7680 -1.7592
  765MPD2    H311354   3.300   4.332  15.504  0.6689  1.0639 -1.1877
  765MPD2     N11355   3.702   4.247  15.715  0.9370 -0.2849 -0.0185
  765MPD2    H511356   3.749   4.255  15.805 -0.2613 -3.5027  0.8792
  765MPD2    N111357   3.326   4.459  15.936 -0.3468 -0.1508 -0.0814
  765MPD2    H711358   3.225   4.459  15.934 -0.3628  0.2650  0.8967
  766MPD2     C11359   2.674   4.601  15.782  0.8945  0.8996 -0.2043
  766MPD2    C111360   2.795   4.543  15.804  0.1969 -0.2719 -0.0515
  766MPD2    C211361   2.851   4.458  15.699  0.9491  0.4902  0.4572
  766MPD2    C311362   2.777   4.429  15.583  0.6751 -0.5103 -0.0697
  766MPD2    C411363   2.648   4.481  15.574 -0.0036 -0.0245 -0.3058
  766MPD2    C511364   2.605   4.565  15.673  0.1273  0.4949 -0.1114
  766MPD2     H11365   2.953   4.425  15.691  1.5994  2.3438  1.0985
  766MPD2    H111366   2.585   4.469  15.487 -0.1000 -0.8181 -0.1274
  766MPD2    H211367   2.633   4.673  15.852  0.3642  0.7717 -0.3827
  766MPD2    H311368   2.508   4.612  15.659  0.6227  1.3651 -0.5681
  766MPD2     N11369   2.829   4.353  15.476  0.4036 -0.4209 -0.3869
  766MPD2    H511370   2.763   4.338  15.400  0.3952 -0.1997 -0.4233
  766MPD2    N111371   2.868   4.577  15.920  0.8481 -0.1867 -0.0096
  766MPD2    H711372   2.819   4.641  15.982 -3.1013 -1.3516 -1.9504
  767MPD2     C11373   2.458   4.680  15.284  0.7411 -0.0229 -0.6660
  767MPD2    C111374   2.592   4.657  15.271 -0.0562  0.2209  0.6929
  767MPD2    C211375   2.629   4.576  15.163 -0.3755 -0.5651 -0.1525
  767MPD2    C311376   2.539   4.522  15.075 -0.2811 -0.0079 -0.4891
  767MPD2    C411377   2.403   4.549  15.086 -0.5460  0.2532  0.1741
  767MPD2    C511378   2.371   4.635  15.192 -0.2909  0.7666  0.5510
  767MPD2     H11379   2.734   4.558  15.145  0.1841  0.6878  1.7834
  767MPD2    H111380   2.327   4.528  15.012 -0.5648  2.4327 -0.4320
  767MPD2    H211381   2.422   0.006  15.366  1.3319 -0.1310 -0.3334
  767MPD2    H311382   2.266   4.654  15.212 -1.1713 -1.6744 -1.8386
  767MPD2     N11383   2.593   4.455  14.969 -0.3165  0.1631  0.8251
  767MPD2    H511384   2.694   4.441  14.969 -0.4428 -0.7478 -0.1219
  767MPD2    N111385   2.684   4.726  15.358  0.5059  0.4498 -0.0324
  767MPD2    H711386   2.644   0.050  15.431  0.4861  0.5639 -0.1345
  768MPD2     C11387   2.926   2.539  10.713  0.0778 -0.0272  0.2474
  768MPD2    C111388   2.972   2.598  10.826 -0.2145  0.3206 -0.7387
  768MPD2    C211389   3.044   2.534  10.915  0.1643 -0.2461 -0.1872
  768MPD2    C311390   3.113   2.418  10.879  0.1593 -0.0174  0.2591
  768MPD2    C411391   3.082   2.364  10.753 -0.0691  0.1536  0.2564
  768MPD2    C511392   2.987   2.421  10.672 -0.1398  0.3736  0.4713
  768MPD2     H11393   3.062   2.585  11.009 -0.4906  0.2789 -0.3504
  768MPD2    H111394   3.128   2.278  10.705  2.2937  1.3362  0.4078
  768MPD2    H211395   2.851   2.581  10.647 -0.9075 -2.0333  0.0723
  768MPD2    H311396   2.958   2.368  10.582 -1.3309  1.5881  0.1433
  768MPD2     N11397   3.218   2.379  10.964 -0.0725 -0.0273  0.3496
  768MPD2    H511398   3.207   2.432  11.050 -0.4376  1.4115 -0.5810
  768MPD2    N111399   2.922   2.723  10.864  0.4507 -0.1325  0.5674
  768MPD2    H711400   2.970   2.748  10.950  0.2840  2.9014 -0.2255
  769MPD2     C11401   4.630   1.293  15.112 -0.5252  0.6326 -0.5843
  769MPD2    C111402   4.518   1.321  15.189  0.3250  0.0223 -0.2096
  769MPD2    C211403   4.536   1.351  15.318  0.2236  0.8034 -0.2891
  769MPD2    C311404   4.666   1.370  15.366 -0.2903 -0.0773  0.2653
  769MPD2    C411405   0.044   1.359  15.283  0.1204  0.5181 -0.4463
  769MPD2    C511406   0.024   1.325  15.155 -0.2166 -0.0328  0.2888
  769MPD2     H11407   4.452   1.348  15.387  1.4038  0.3023  1.1226
  769MPD2    H111408   0.143   1.377  15.324 -1.4016  1.2053  2.9475
  769MPD2    H211409   4.621   1.252  15.013  1.5100  0.0991 -0.5608
  769MPD2    H311410   0.108   1.316  15.086  0.0363  1.7733  0.3576
  769MPD2     N11411   4.665   1.413  15.499 -0.7784 -0.2932  0.4429
  769MPD2    H511412   4.574   1.404  15.542 -1.8677  1.0512 -1.5763
  769MPD2    N111413   4.392   1.298  15.131 -0.0705  0.0768 -0.1285
  769MPD2    H711414   4.389   1.260  15.037  0.2290  2.5377 -1.1602
  770MPD2     C11415   3.633   0.672  15.343  0.2669  0.3556  0.4929
  770MPD2    C111416   3.732   0.662  15.247 -0.2479  0.2638  0.2377
  770MPD2    C211417   3.788   0.778  15.197 -0.6716 -0.2482  0.3454
  770MPD2    C311418   3.770   0.902  15.256  0.5426 -0.7529  0.7432
  770MPD2    C411419   3.670   0.908  15.352 -0.6850  0.3599 -0.1603
  770MPD2    C511420   3.604   0.799  15.386  0.0344  0.6149  0.6745
  770MPD2     H11421   3.868   0.774  15.124 -0.8773  0.7466  0.0613
  770MPD2    H111422   3.655   1.004  15.399  0.5036  1.1269 -1.3373
  770MPD2    H211423   3.577   0.589  15.384 -1.1000 -0.5967 -3.2421
  770MPD2    H311424   3.534   0.809  15.468  1.6109  2.1806  1.8115
  770MPD2     N11425   3.854   1.011  15.210  0.1095 -0.1455  0.6432
  770MPD2    H511426   3.891   0.996  15.116 -0.3687 -0.0049  0.4339
  770MPD2    N111427   3.767   0.531  15.198 -0.3754 -0.0180 -0.1987
  770MPD2    H711428   3.730   0.449  15.245 -0.6263  0.6950  0.8447
  771MPD2     C11429   0.649   3.975  14.327 -0.2980 -0.4676  0.0654
  771MPD2    C111430   0.586   4.034  14.222 -0.5198 -0.0451  0.7184
  771MPD2    C211431   0.516   3.958  14.129 -0.1344 -0.3957  1.4273
  771MPD2    C311432   0.497   3.822  14.140 -0.6493 -0.7130  0.2116
  771MPD2    C411433   0.561   3.761  14.246  0.2659 -0.2773  0.1149
  771MPD2    C511434   0.636   3.838  14.330 -0.7758  0.8187 -0.5230
  771MPD2     H11435   0.467   4.009  14.048  0.6056 -0.6473  0.8232
  771MPD2    H111436   0.565   3.654  14.264 -0.1955 -0.5307 -1.3057
  771MPD2    H211437   0.701   4.025  14.407 -1.7053  0.9413  0.1050
  771MPD2    H311438   0.681   3.774  14.405 -0.4002 -0.7269 -2.0509
  771MPD2     N11439   0.403   3.755  14.062 -0.1269  0.1199 -0.0794
  771MPD2    H511440   0.348   3.801  13.990 -0.6433 -0.3426  0.0154
  771MPD2    N111441   0.591   4.170  14.195  0.5399 -0.2810  0.0820
  771MPD2    H711442   0.549   4.202  14.109 -1.2466 -0.6563  0.8217
  772MPD2     C11443   0.210   4.694  13.845 -0.4063 -1.2319 -0.0273
  772MPD2    C111444   0.233   4.633  13.973  0.0816  0.1104  0.4142
  772MPD2    C211445   0.119   4.605  14.046  0.5709 -1.1662 -0.0137
  772MPD2    C311446   4.725   4.640  14.009 -0.6811  1.0221  0.0715
  772MPD2    C411447   4.700   4.693  13.881  0.2821  0.2332  0.4748
  772MPD2    C511448   0.078   4.724  13.808  0.3461  0.7556  0.1905
  772MPD2     H11449   0.129   4.550  14.139 -0.8292  2.1170  2.0656
  772MPD2    H111450   4.603   4.710  13.836  0.6860  1.5732  0.1003
  772MPD2    H211451   0.289   4.724  13.777 -0.1336  0.6280  1.1085
  772MPD2    H311452   0.071   0.037  13.711 -1.6832 -1.1168 -0.5964
  772MPD2     N11453   4.608   4.611  14.085 -0.0303 -0.6051 -0.4474
  772MPD2    H511454   4.516   4.629  14.046 -0.2718  1.6748  1.1712
  772MPD2    N111455   0.357   4.579  14.025  0.3687  0.4132 -0.2899
  772MPD2    H711456   0.343   4.562  14.124 -1.1758  0.2650 -0.5350
  773MPD2     C11457   4.341   0.351   0.856 -0.1327  0.3534 -0.4824
  773MPD2    C111458   4.325   0.244   0.774 -0.6257 -0.3543  1.0032
  773MPD2    C211459   4.418   0.140   0.769 -0.1760  0.4389 -0.2949
  773MPD2    C311460   4.523   0.143   0.851 -0.1681 -0.7617  0.4265
  773MPD2    C411461   4.536   0.235   0.951  0.2888  0.1633  0.1921
  773MPD2    C511462   4.447   0.345   0.946  0.1652 -0.0586  0.2129
  773MPD2     H11463   4.413   0.071   0.686  1.7060  1.0732 -0.9418
  773MPD2    H111464   4.618   0.237   1.022  0.3522 -0.0234  0.1213
  773MPD2    H211465   4.279   0.440   0.862 -1.2476 -0.1458 -4.3729
  773MPD2    H311466   4.458   0.428   1.014 -0.9022  0.5316 -0.3228
  773MPD2     N11467   4.604   0.025   0.845  0.1726  0.1732 -0.1923
  773MPD2    H511468   4.578   4.685   0.781  2.1826 -1.5576  0.9863
  773MPD2    N111469   4.226   0.236   0.671 -0.2076 -0.3658  0.1111
  773MPD2    H711470   4.222   0.155   0.609 -3.3627  1.2665 -1.8277
  774MPD2     C11471   3.467   4.047  13.724  0.1468  0.5229 -0.3713
  774MPD2    C111472   3.434   4.164  13.791  0.2987  0.4117  0.3610
  774MPD2    C211473   3.532   4.266  13.797 -0.1015  1.5436 -0.3882
  774MPD2    C311474   3.652   4.263  13.727  0.1181  0.0297 -0.3352
  774MPD2    C411475   3.681   4.149  13.657 -0.3142 -0.0504  0.3011
  774MPD2    C511476   3.586   4.046  13.662 -0.1538 -0.5327  0.3903
  774MPD2     H11477   3.503   4.362  13.839  2.7025  2.5029 -0.6757
  774MPD2    H111478   3.774   4.131  13.605 -0.1147 -0.2493  0.7267
  774MPD2    H211479   3.390   3.973  13.703  0.2257  0.0535  1.0225
  774MPD2    H311480   3.613   3.951  13.619  2.1660  0.0532  0.5486
  774MPD2     N11481   3.739   4.373  13.737  0.0954 -0.7279 -0.4791
  774MPD2    H511482   3.701   4.451  13.790 -0.7972  1.0940 -3.8016
  774MPD2    N111483   3.306   4.172  13.849 -1.0285  0.0341  0.1667
  774MPD2    H711484   3.247   4.091  13.834  1.3242 -1.5229 -0.7214
  775MPD2     C11485   0.026   1.201  16.042 -0.2981  0.0766  0.0385
  775MPD2    C111486   0.018   1.297  16.147  0.0324  0.4018  0.0119
  775MPD2    C211487   0.094   1.415  16.138 -0.2273 -0.0199 -0.3310
  775MPD2    C311488   0.177   1.439  16.028  0.8481 -0.3685 -0.1744
  775MPD2    C411489   0.196   1.335  15.942  0.4800 -0.2985  0.2263
  775MPD2    C511490   0.119   1.219  15.943 -0.4895 -0.1549  0.0376
  775MPD2     H11491   0.077   1.490  16.214  0.0219  0.1756 -0.4683
  775MPD2    H111492   0.270   1.342  15.862  0.8523  0.7244  0.6514
  775MPD2    H211493   4.707   1.107  16.041 -0.1020 -0.0522  1.1797
  775MPD2    H311494   0.126   1.150  15.860  3.1842 -1.3979  1.3602
  775MPD2     N11495   0.241   1.561  16.003  0.4403 -0.2982 -0.0992
  775MPD2    H511496   0.294   1.562  15.916  2.8981 -2.7524  1.3496
  775MPD2    N111497   4.672   1.258  16.265 -0.1060 -0.2268 -0.0221
  775MPD2    H711498   4.617   1.174  16.250  0.8616 -0.6570 -1.2245
  776MPD2     C11499   3.842   1.130  12.240  0.9205 -0.5641  0.5581
  776MPD2    C111500   3.741   1.116  12.151  0.2193 -1.3616 -0.4677
  776MPD2    C211501   3.702   1.227  12.082 -0.0725 -0.1904  0.4842
  776MPD2    C311502   3.757   1.356  12.107 -0.6430 -0.1487  0.5703
  776MPD2    C411503   3.858   1.363  12.198 -0.3945 -0.1398  0.2977
  776MPD2    C511504   3.896   1.256  12.268  0.7689  0.0389  0.1862
  776MPD2     H11505   3.634   1.208  12.000  1.1146  4.2919 -1.5290
  776MPD2    H111506   3.908   1.456  12.225  0.8620 -0.3716 -1.2122
  776MPD2    H211507   3.882   1.042  12.290  0.7546 -0.1933  1.3448
  776MPD2    H311508   3.974   1.261  12.343  0.8608  2.0954 -0.0602
  776MPD2     N11509   3.721   1.473  12.033 -0.2753 -0.4363  0.0630
  776MPD2    H511510   3.775   1.556  12.054 -0.9787  0.2126 -0.7236
  776MPD2    N111511   3.693   0.987  12.133  0.6693  0.2245  0.2485
  776MPD2    H711512   3.748   0.917  12.182 -0.5554  0.7146  2.3011
  777MPD2     C11513   4.691   4.000   1.085 -0.9333  0.2061  0.4513
  777MPD2    C111514   4.658   3.937   1.204 -0.2827  0.5053 -0.0276
  777MPD2    C211515   4.561   3.837   1.203 -0.0910  0.1788  0.4478
  777MPD2    C311516   4.494   3.811   1.085 -0.4102 -0.1553  0.6699
  777MPD2    C411517   4.543   3.860   0.971 -0.2617 -0.0814 -0.1043
  777MPD2    C511518   4.644   3.948   0.970 -0.3406  0.2646 -0.0179
  777MPD2     H11519   4.537   3.798   1.301 -1.3051  1.9283  0.8582
  777MPD2    H111520   4.501   3.833   0.874 -0.3719 -1.4659  0.3235
  777MPD2    H211521   0.044   4.064   1.085 -1.9120  1.5415  1.0793
  777MPD2    H311522   4.686   3.976   0.873 -1.2495  3.8636  0.6118
  777MPD2     N11523   4.383   3.723   1.089 -0.1376 -0.0601 -0.2365
  777MPD2    H511524   4.352   3.681   1.176  0.6409  1.9221  1.0125
  777MPD2    N111525   4.720   3.985   1.315  0.2093 -0.3559  0.0312
  777MPD2    H711526   0.040   4.070   1.303 -0.4209 -0.0885 -0.8953
  778MPD2     C11527   0.368   4.057  15.475 -0.4771 -0.2966  0.8133
  778MPD2    C111528   0.334   3.940  15.401  0.1591  0.3667 -0.2720
  778MPD2    C211529   0.381   3.926  15.272 -0.8453 -0.9893 -0.0062
  778MPD2    C311530   0.469   4.016  15.212  0.3668 -0.1593 -0.3195
  778MPD2    C411531   0.492   4.128  15.284  0.0444 -0.5038 -0.6695
  778MPD2    C511532   0.456   4.143  15.414 -0.9333 -0.5976  0.3027
  778MPD2     H11533   0.351   3.846  15.205 -1.7431 -0.5098 -0.1647
  778MPD2    H111534   0.564   4.200  15.247  2.2661 -0.0792  4.3707
  778MPD2    H211535   0.344   4.078  15.578  0.9202  2.1499  0.6255
  778MPD2    H311536   0.479   4.237  15.463  2.4789 -1.3961  0.2212
  778MPD2     N11537   0.540   3.985  15.091 -0.5761  0.2524 -0.0635
  778MPD2    H511538   0.536   3.890  15.057  1.3614  0.4853 -0.8908
  778MPD2    N111539   0.258   3.828  15.453  0.1667  0.2270 -0.1912
  778MPD2    H711540   0.256   3.746  15.393  0.1822  1.3913 -1.7558
  779MPD2     C11541   0.433   2.938  15.203  0.0963 -0.5349 -0.3251
  779MPD2    C111542   0.411   2.876  15.086  0.2804  0.6048  0.5347
  779MPD2    C211543   0.415   2.946  14.966  0.6659 -0.6240 -0.0418
  779MPD2    C311544   0.424   3.087  14.959  0.0873 -0.1282 -0.3216
  779MPD2    C411545   0.434   3.152  15.081 -0.3065 -0.0505 -0.5708
  779MPD2    C511546   0.439   3.079  15.200 -0.4168  0.5552 -0.3792
  779MPD2     H11547   0.413   2.898  14.869  1.2811  0.7869 -0.7598
  779MPD2    H111548   0.440   3.260  15.084  1.2862 -0.1366 -1.0973
  779MPD2    H211549   0.417   2.881  15.293 -0.2549 -0.6857 -0.4838
  779MPD2    H311550   0.424   3.129  15.295 -2.3111 -1.1587  0.2375
  779MPD2     N11551   0.433   3.147  14.831 -0.3465 -0.3310 -0.0285
  779MPD2    H511552   0.424   3.086  14.751  1.9008  0.4473 -0.8688
  779MPD2    N111553   0.405   2.735  15.082  0.6649  0.4886 -0.1197
  779MPD2    H711554   0.408   2.693  14.989 -2.6764  3.4416 -1.5821
  780MPD2     C11555   4.071   2.561   1.217  0.0850  0.0118  0.1639
  780MPD2    C111556   4.155   2.477   1.147 -0.2412  0.6750 -0.0175
  780MPD2    C211557   4.241   2.540   1.059  0.1174  0.9171  0.4196
  780MPD2    C311558   4.250   2.674   1.042  0.2578  0.3069 -0.1736
  780MPD2    C411559   4.166   2.756   1.110  0.3569 -0.2962  0.0129
  780MPD2    C511560   4.083   2.698   1.201  0.7712 -0.4479 -0.7120
  780MPD2     H11561   4.310   2.480   1.000 -0.2657  0.6443  0.2466
  780MPD2    H111562   4.163   2.862   1.091 -1.4990 -0.1113  1.3689
  780MPD2    H211563   3.992   2.527   1.283  0.8224  0.6844  1.3930
  780MPD2    H311564   4.016   2.768   1.251 -0.2417 -2.0261  0.1374
  780MPD2     N11565   4.350   2.719   0.949 -0.4088 -0.4651 -0.3989
  780MPD2    H511566   4.403   2.645   0.905  1.2682 -0.3371  1.4336
  780MPD2    N111567   4.152   2.335   1.163  0.1625 -0.2869 -0.5369
  780MPD2    H711568   4.075   2.310   1.225  1.6789  0.3602  1.6051
  781MPD2     C11569   1.777   4.141  11.996 -0.1593  0.2445 -0.3911
  781MPD2    C111570   1.852   4.149  12.112 -0.0031 -0.0562 -0.0655
  781MPD2    C211571   1.987   4.149  12.104  0.2113 -0.5282 -0.0059
  781MPD2    C311572   2.054   4.134  11.981 -0.0987  0.1115  0.5809
  781MPD2    C411573   1.975   4.133  11.872 -0.1667 -0.2051 -0.4345
  781MPD2    C511574   1.843   4.140  11.876  0.6201  0.2048  0.4213
  781MPD2     H11575   2.046   4.158  12.194  1.9136 -0.6369 -1.1031
  781MPD2    H111576   2.023   4.135  11.775 -0.5117  0.7446 -0.5897
  781MPD2    H211577   1.671   4.166  11.998 -0.5608 -1.6227  1.4997
  781MPD2    H311578   1.790   4.140  11.781  0.0696 -0.5116  0.7259
  781MPD2     N11579   2.189   4.128  11.956  0.3187 -0.4860 -0.2272
  781MPD2    H511580   2.220   4.106  11.862  1.1338 -0.6281  0.0663
  781MPD2    N111581   1.781   4.161  12.239 -0.2298  0.1759  0.6897
  781MPD2    H711582   1.842   4.183  12.317  1.1554  2.2581 -0.9726
  782MPD2     C11583   0.343   4.687  10.251  0.0075  0.5146  0.4326
  782MPD2    C111584   0.389   4.666  10.383 -0.2613  0.5802  1.4946
  782MPD2    C211585   0.421   0.044  10.456 -0.5196  0.2669  0.4888
  782MPD2    C311586   0.389   0.176  10.414 -0.2112 -1.1788  0.2736
  782MPD2    C411587   0.335   0.190  10.292  0.3193  0.1585  0.3429
  782MPD2    C511588   0.317   0.080  10.209 -0.5084 -0.8327 -1.0127
  782MPD2     H11589   0.480   0.027  10.545 -0.3368 -1.2311  0.0848
  782MPD2    H111590   0.304   0.288  10.258 -0.1970 -0.1265  0.0052
  782MPD2    H211591   0.329   4.603  10.184  0.2790 -1.4136  2.7970
  782MPD2    H311592   0.274   0.102  10.113 -0.6978  2.1661 -0.2364
  782MPD2     N11593   0.412   0.277  10.512 -0.5913 -0.1728 -0.5797
  782MPD2    H511594   0.439   0.240  10.602 -0.1510 -0.3787 -0.7964
  782MPD2    N111595   0.409   4.535  10.419  0.3737  0.7429  0.0999
  782MPD2    H711596   0.409   4.478  10.335  1.8389 -0.6908  1.0709
  783MPD2     C11597   4.328   4.646  10.977  0.1568 -0.6944  0.4931
  783MPD2    C111598   4.415   4.666  11.079 -0.6534 -0.7345  0.1339
  783MPD2    C211599   4.549   4.686  11.054  0.4746 -0.2868 -0.3439
  783MPD2    C311600   4.601   4.691  10.928 -0.2531 -0.1513 -0.4306
  783MPD2    C411601   4.511   4.671  10.826 -0.2535  0.4450  0.2347
  783MPD2    C511602   4.384   4.648  10.852  0.0700  0.0022 -0.7938
  783MPD2     H11603   4.615   4.695  11.139 -0.1038 -1.8434  0.2662
  783MPD2    H111604   4.538   4.672  10.721 -0.0179  0.4175  0.2965
  783MPD2    H211605   4.220   4.640  10.990 -0.3298  0.8214 -3.0787
  783MPD2    H311606   4.327   4.643  10.760  1.1851 -0.7997 -1.4349
  783MPD2     N11607   0.007   4.707  10.897  0.5794 -0.5371  0.0033
  783MPD2    H511608   0.067   4.712  10.979  2.6425 -1.5569 -1.4350
  783MPD2    N111609   4.364   4.683  11.211  0.0566  0.2468 -0.9804
  783MPD2    H711610   4.264   4.669  11.221  0.0740  0.4581 -0.4889
  784MPD2     C11611   2.223   0.817   0.657  0.8428  0.0076  0.4061
  784MPD2    C111612   2.225   0.890   0.770  0.5838 -0.9732  0.1436
  784MPD2    C211613   2.124   0.986   0.788 -0.1507  0.5287  0.5594
  784MPD2    C311614   2.020   0.998   0.691  0.0018  0.0265 -0.6189
  784MPD2    C411615   2.025   0.924   0.577  0.5342 -0.5978 -0.6324
  784MPD2    C511616   2.127   0.837   0.562  0.2506 -0.5048  0.7206
  784MPD2     H11617   2.131   1.044   0.879  1.4851 -0.0871  0.8307
  784MPD2    H111618   1.953   0.931   0.497 -0.8892  1.7792  0.8651
  784MPD2    H211619   2.301   0.750   0.623  0.5173 -1.1612  2.0124
  784MPD2    H311620   2.137   0.777   0.473 -1.1224  0.8739 -0.3613
  784MPD2     N11621   1.913   1.081   0.728 -0.4041 -0.5964 -0.0194
  784MPD2    H511622   1.927   1.138   0.811 -0.3144  0.5679 -0.8264
  784MPD2    N111623   2.333   0.887   0.858 -0.6567 -0.3989  0.0669
  784MPD2    H711624   2.346   0.963   0.923  1.1693  0.0479 -0.8276
  785MPD2     C11625   1.661   4.189  10.739  0.0906  0.1177 -0.3416
  785MPD2    C111626   1.670   4.263  10.853  0.2779  0.0952  0.1640
  785MPD2    C211627   1.640   4.396  10.842  0.1108 -0.5306  0.3641
  785MPD2    C311628   1.578   4.454  10.730  0.2115  0.3419  0.5370
  785MPD2    C411629   1.566   4.371  10.620  0.2449 -0.4161 -0.6197
  785MPD2    C511630   1.612   4.240  10.622  0.2116 -0.2377 -0.0627
  785MPD2     H11631   1.647   4.462  10.927  1.2435  1.4372 -1.2736
  785MPD2    H111632   1.531   4.408  10.525 -0.4147  0.4798 -0.0304
  785MPD2    H211633   1.707   4.090  10.734  1.7476  0.9198 -0.9643
  785MPD2    H311634   1.615   4.172  10.538 -1.0094  0.4196 -0.6373
  785MPD2     N11635   1.538   4.589  10.734 -0.3603 -0.2518  0.1254
  785MPD2    H511636   1.574   4.636  10.817 -1.5831 -0.1899  0.6155
  785MPD2    N111637   1.724   4.208  10.964 -0.5609 -0.2881  0.0040
  785MPD2    H711638   1.752   4.110  10.961  2.1307  0.4964 -0.2547
  786MPD2     C11639   0.494   1.905  14.898 -0.3561 -0.1224  0.0465
  786MPD2    C111640   0.625   1.897  14.874 -0.1250  0.0181  0.6479
  786MPD2    C211641   0.711   1.918  14.975 -0.9746 -0.4500  0.6678
  786MPD2    C311642   0.667   1.959  15.097 -0.2962  0.1738  0.3059
  786MPD2    C411643   0.536   1.976  15.113 -0.4330  0.1732  0.8044
  786MPD2    C511644   0.448   1.947  15.021  0.4822  0.0839 -0.3040
  786MPD2     H11645   0.815   1.895  14.954 -1.0297  1.8860 -2.1509
  786MPD2    H111646   0.501   2.020  15.206 -1.5801  0.8438  0.0606
  786MPD2    H211647   0.422   1.870  14.825 -1.3364 -3.1310  2.4227
  786MPD2    H311648   0.343   1.951  15.048  0.4136 -0.1196 -0.5357
  786MPD2     N11649   0.750   1.984  15.205  0.2535  0.1055  0.2407
  786MPD2    H511650   0.718   2.009  15.298 -1.2209  0.9702 -0.4937
  786MPD2    N111651   0.676   1.865  14.744 -0.7550 -0.5014 -0.0062
  786MPD2    H711652   0.775   1.845  14.740 -0.3335  1.5184  0.2977
  787MPD2     C11653   0.943   1.271  14.642  0.1918  0.4719 -0.3653
  787MPD2    C111654   0.962   1.335  14.527  0.9358 -0.7187  0.0761
  787MPD2    C211655   1.054   1.279  14.440 -0.1495 -0.4981 -0.3591
  787MPD2    C311656   1.124   1.163  14.465 -0.3438 -0.0102  0.3942
  787MPD2    C411657   1.107   1.101  14.583  0.1511 -0.2833  0.5334
  787MPD2    C511658   1.008   1.145  14.674 -0.2063  0.5428  0.4979
  787MPD2     H11659   1.063   1.315  14.338 -2.7684  1.1444 -0.0104
  787MPD2    H111660   1.159   1.008  14.606 -1.5354 -1.0492  1.2992
  787MPD2    H211661   0.871   1.312  14.711 -0.0051  0.7947 -0.7645
  787MPD2    H311662   0.978   1.093  14.764 -0.4770  1.5634  1.0050
  787MPD2     N11663   1.201   1.116  14.354 -0.3287 -0.3198 -0.2246
  787MPD2    H511664   1.232   1.186  14.287 -0.5859 -0.4717 -0.5025
  787MPD2    N111665   0.900   1.459  14.511  0.0107  0.1438 -0.6208
  787MPD2    H711666   0.842   1.492  14.587  1.3118 -1.6220  1.1424
  788MPD2     C11667   3.124   0.485   1.193  0.0513 -1.3199  0.2804
  788MPD2    C111668   3.143   0.414   1.074 -0.6570 -0.2769 -0.5413
  788MPD2    C211669   3.209   0.482   0.967 -0.0366 -0.6627  0.2629
  788MPD2    C311670   3.243   0.618   0.986 -0.0921  0.0291 -0.1642
  788MPD2    C411671   3.224   0.679   1.108 -0.1864  0.3563  0.3129
  788MPD2    C511672   3.164   0.615   1.207  0.0640  0.5388  0.5423
  788MPD2     H11673   3.206   0.442   0.866 -0.0079  2.6944 -1.0688
  788MPD2    H111674   3.256   0.781   1.129 -1.3814  1.3488 -2.7585
  788MPD2    H211675   3.074   0.443   1.279 -0.1179 -0.4629  0.6024
  788MPD2    H311676   3.153   0.664   1.304 -0.9412 -2.5491  1.9779
  788MPD2     N11677   3.311   0.698   0.893  0.2187 -0.3914 -0.7985
  788MPD2    H511678   3.325   0.794   0.921  0.4108 -0.7240  0.2737
  788MPD2    N111679   3.086   0.282   1.063  0.5138 -0.0120  0.1475
  788MPD2    H711680   3.101   0.233   0.975 -0.8145 -1.3395  0.6689
  789MPD2     C11681   3.376   4.598  16.822  0.3719 -0.3592 -0.2521
  789MPD2    C111682   3.279   4.651  16.734  1.0095  0.1306  0.6983
  789MPD2    C211683   3.210   0.034  16.765  0.3054 -0.0328  0.3939
  789MPD2    C311684   3.243   0.108  16.873 -0.1039  0.9729  0.0263
  789MPD2    C411685   3.344   0.065  16.950 -0.0815  0.1406  0.4322
  789MPD2    C511686   3.406   4.672  16.934 -0.1365 -0.5103  0.9294
  789MPD2     H11687   3.136   0.072  16.694 -0.4222 -0.2318  1.0473
  789MPD2    H111688   3.376   0.120  17.038  3.3139 -1.9340  0.5011
  789MPD2    H211689   3.435   4.508  16.807  0.8863 -0.2056  0.8375
  789MPD2    H311690   3.477   4.641  17.010  1.8733  1.4757 -0.1158
  789MPD2     N11691   3.181   0.233  16.906 -0.3988  0.7918  0.4065
  789MPD2    H511692   3.216   0.274  16.992  1.9953 -1.1482  0.3732
  789MPD2    N111693   3.240   4.580  16.615 -0.0545 -0.3178  0.6160
  789MPD2    H711694   3.168   4.625  16.560  2.3549 -2.0630 -3.9857
  790MPD2     C11695   3.768   1.933  13.703 -0.3761  0.6916  0.0782
  790MPD2    C111696   3.851   1.833  13.732  0.8113 -0.0284 -0.2789
  790MPD2    C211697   3.838   1.706  13.676  0.8542 -0.1075  0.1845
  790MPD2    C311698   3.735   1.682  13.588 -0.3193  0.4907 -0.5713
  790MPD2    C411699   3.640   1.783  13.566 -0.2755  0.1824 -0.1160
  790MPD2    C511700   3.659   1.906  13.624 -0.0892  0.0186 -0.3950
  790MPD2     H11701   3.909   1.625  13.691 -0.2355 -1.4361 -1.8363
  790MPD2    H111702   3.550   1.774  13.507 -0.5769  3.0449 -0.0964
  790MPD2    H211703   3.786   2.036  13.731  1.8631  0.6675 -1.3198
  790MPD2    H311704   3.590   1.989  13.614  1.5145  1.6577  1.8425
  790MPD2     N11705   3.739   1.564  13.520  0.0216 -0.3258 -0.2414
  790MPD2    H511706   3.798   1.489  13.555  1.1380  0.1473 -1.1116
  790MPD2    N111707   3.975   1.862  13.800  0.1198 -0.0400 -0.4568
  790MPD2    H711708   3.983   1.957  13.835  2.3948 -0.4936  0.2352
  791MPD2     C11709   3.217   1.369  13.026 -0.1352 -0.0107 -0.1691
  791MPD2    C111710   3.264   1.257  13.082 -0.4351  0.7412 -0.4981
  791MPD2    C211711   3.181   1.148  13.097  0.5818  0.2509  0.1718
  791MPD2    C311712   3.052   1.157  13.051  0.4894  0.1063 -0.5253
  791MPD2    C411713   3.005   1.278  12.993 -0.1353 -0.0761 -0.3802
  791MPD2    C511714   3.094   1.376  12.976  0.2041 -0.6123 -0.1664
  791MPD2     H11715   3.225   1.053  13.124  0.4306  0.1278 -0.0222
  791MPD2    H111716   2.903   1.302  12.966 -0.4711 -0.6552  0.3681
  791MPD2    H211717   3.286   1.453  13.021 -0.6929  0.6043  2.8362
  791MPD2    H311718   3.051   1.466  12.932 -2.2830 -0.8906  1.6854
  791MPD2     N11719   2.967   1.045  13.070 -0.1955  0.1661  0.2287
  791MPD2    H511720   3.002   0.962  13.116  1.3610  1.1235  0.7506
  791MPD2    N111721   3.400   1.262  13.115  0.5030 -0.6931 -0.3187
  791MPD2    H711722   3.450   1.348  13.096 -0.1155 -0.8771 -2.8150
  792MPD2     C11723   4.060   1.536  11.710  0.1410  0.4459  0.4291
  792MPD2    C111724   3.989   1.538  11.590 -0.3640 -0.2422  0.2120
  792MPD2    C211725   3.878   1.454  11.574  0.9325  0.1309  0.6917
  792MPD2    C311726   3.847   1.357  11.665 -0.0879 -0.2662 -0.1780
  792MPD2    C411727   3.920   1.345  11.779  0.2068  0.5951  0.0352
  792MPD2    C511728   4.026   1.430  11.791  0.2601  0.2095  0.3237
  792MPD2     H11729   3.815   1.459  11.486  0.8793  1.5959  0.8109
  792MPD2    H111730   3.895   1.273  11.856  2.9900 -0.1952  0.2121
  792MPD2    H211731   4.132   1.608  11.745  1.5135 -0.6400 -0.1635
  792MPD2    H311732   4.088   1.412  11.878 -0.3317 -1.9716  0.2868
  792MPD2     N11733   3.734   1.269  11.652  0.2718  0.1371  0.0079
  792MPD2    H511734   3.725   1.188  11.713 -1.6656 -0.3231 -0.8966
  792MPD2    N111735   4.020   1.647  11.497  0.2104  0.0823  0.1074
  792MPD2    H711736   4.105   1.701  11.506  0.5657 -0.5704  0.6227
  793MPD2     C11737   3.349   1.081  10.849  0.5709  0.0010  0.6152
  793MPD2    C111738   3.462   1.128  10.912 -0.0513 -0.6724 -0.7745
  793MPD2    C211739   3.463   1.123  11.052 -1.1137  0.1647  0.5261
  793MPD2    C311740   3.355   1.092  11.124 -1.0587  0.3774 -0.0176
  793MPD2    C411741   3.234   1.056  11.065 -0.0251 -0.0119 -0.0267
  793MPD2    C511742   3.239   1.044  10.931  0.4722 -0.5238 -0.4570
  793MPD2     H11743   3.557   1.138  11.105  0.8894 -1.6712 -2.4862
  793MPD2    H111744   3.149   1.039  11.129  0.9695 -1.5401  0.8781
  793MPD2    H211745   3.326   1.097  10.745  0.9763  0.6934  0.6289
  793MPD2    H311746   3.144   1.023  10.884 -0.1031  0.4346  0.2680
  793MPD2     N11747   3.366   1.097  11.260  0.1676  0.2565  0.0255
  793MPD2    H511748   3.446   1.147  11.296 -1.4555  4.2110 -1.8215
  793MPD2    N111749   3.576   1.179  10.842  0.8368 -0.3300 -0.2214
  793MPD2    H711750   3.654   1.205  10.901  0.6694  1.6099 -0.8667
  794MPD2     C11751   4.093   0.717  17.717 -0.1316 -0.2402 -0.3202
  794MPD2    C111752   4.006   0.607  17.705  0.1556 -0.2410  0.1515
  794MPD2    C211753   3.944   0.584  17.583  0.7447 -0.0916  0.8174
  794MPD2    C311754   3.941   0.688  17.491  0.0857 -0.1044  0.3099
  794MPD2    C411755   4.020   0.797  17.512 -0.3614 -0.5697 -0.3048
  794MPD2    C511756   4.107   0.801  17.614 -0.2802  0.1138  0.2460
  794MPD2     H11757   3.885   0.495  17.568  0.1924  0.2711  0.8375
  794MPD2    H111758   4.017   0.880  17.442  4.0696 -0.1027  0.0496
  794MPD2    H211759   4.158   0.735   0.066  2.4001  0.9479 -2.5231
  794MPD2    H311760   4.177   0.884  17.622 -1.9440  1.3972  1.5124
  794MPD2     N11761   3.848   0.704  17.384 -0.6584 -0.3289 -0.7552
  794MPD2    H511762   3.844   0.794  17.337  0.5995  0.2255  0.2073
  794MPD2    N111763   3.983   0.509   0.070  0.1311  0.3851 -0.6087
  794MPD2    H711764   3.939   0.421   0.046  0.2683 -0.4007  2.0342
  795MPD2     C11765   1.909   2.802  13.317 -0.2686  0.1046 -1.0603
  795MPD2    C111766   1.819   2.755  13.406 -0.2410  0.0279  0.0958
  795MPD2    C211767   1.867   2.700  13.522 -0.7838 -0.2130 -0.6776
  795MPD2    C311768   2.003   2.685  13.563  0.1577  0.0707 -0.2071
  795MPD2    C411769   2.091   2.733  13.463 -0.1566 -0.4977  0.9446
  795MPD2    C511770   2.041   2.797  13.352  0.6442 -0.0209 -0.3227
  795MPD2     H11771   1.795   2.667  13.595  0.7520 -1.2370  0.3861
  795MPD2    H111772   2.198   2.726  13.471 -0.0173  1.1916  0.5651
  795MPD2    H211773   1.888   2.853  13.223  0.7179  2.0965 -0.2196
  795MPD2    H311774   2.115   2.850  13.292  2.0488 -0.9977  0.5403
  795MPD2     N11775   2.043   2.608  13.673 -0.7122 -0.1082 -0.4276
  795MPD2    H511776   1.973   2.554  13.722  0.7495 -1.4766  0.1801
  795MPD2    N111777   1.680   2.755  13.388 -0.3439  0.5246  0.0076
  795MPD2    H711778   1.629   2.735  13.473 -2.2183  0.2693 -1.1713
  796MPD2     C11779   0.884   4.257  16.065 -0.2040 -0.2193  0.2901
  796MPD2    C111780   1.003   4.314  16.104  0.3018 -0.6347 -0.0784
  796MPD2    C211781   1.025   4.448  16.065 -0.0548  0.0103  0.8695
  796MPD2    C311782   0.938   4.510  15.978  0.1220  0.6494  0.1327
  796MPD2    C411783   0.826   4.438  15.924 -0.1387 -0.5607  0.1532
  796MPD2    C511784   0.801   4.312  15.973  0.2529  1.0553 -0.8146
  796MPD2     H11785   1.118   4.496  16.091  0.3303 -0.0027 -0.4953
  796MPD2    H111786   0.765   4.476  15.844 -1.7875 -1.8267  0.7867
  796MPD2    H211787   0.855   4.156  16.090  0.2814 -0.1250  1.2650
  796MPD2    H311788   0.702   4.271  15.958  0.6803 -0.4188  0.4738
  796MPD2     N11789   0.963   4.647  15.948 -0.3897 -0.0675  0.5306
  796MPD2    H511790   1.039   4.693  15.998 -0.6960  0.8794  0.1269
  796MPD2    N111791   1.080   4.244  16.205  0.0717  0.8343 -0.0098
  796MPD2    H711792   1.038   4.155  16.229 -1.7291  0.9890 -2.5504
  797MPD2     C11793   1.841   4.060   0.201  0.2287  0.0370 -0.0609
  797MPD2    C111794   1.917   4.178   0.192 -0.3404 -0.1504 -0.9431
  797MPD2    C211795   1.870   4.282   0.113 -0.1275 -0.1346 -0.0660
  797MPD2    C311796   1.775   4.262   0.020 -0.8252  0.8020 -0.3530
  797MPD2    C411797   1.702   4.140   0.019  0.3386 -0.1300  0.1731
  797MPD2    C511798   1.734   4.048   0.115  0.0921  0.3932 -0.3436
  797MPD2     H11799   1.942   4.362   0.099 -0.0440 -0.1693  0.1578
  797MPD2    H111800   1.620   4.129  17.684  0.1040  0.2263  0.3940
  797MPD2    H211801   1.868   3.974   0.262 -0.4423 -0.9401 -1.1442
  797MPD2    H311802   1.666   3.964   0.126 -0.5995  0.5661 -3.3500
  797MPD2     N11803   1.756   4.358  17.654  0.1730  0.0690 -0.0504
  797MPD2    H511804   1.816   4.440  17.656 -0.4026  0.4677  0.8395
  797MPD2    N111805   2.048   4.205   0.237 -0.1232 -0.0831  0.4003
  797MPD2    H711806   2.071   4.304   0.245 -1.3315  0.3499 -1.4449
  798MPD2     C11807   2.295   4.724  17.486  0.8376  0.0928  0.3599
  798MPD2    C111808   2.196   4.690  17.571  0.8485 -0.4080  0.1739
  798MPD2    C211809   2.230   4.620  17.691 -0.4040 -0.3592  0.5437
  798MPD2    C311810   2.356   4.591  17.734  0.0887  0.2432 -0.1935
  798MPD2    C411811   2.458   4.628  17.649 -0.7623 -0.3594 -0.1694
  798MPD2    C511812   2.427   4.693  17.529 -0.5865  0.4964 -1.2068
  798MPD2     H11813   2.152   4.571   0.014 -2.2428  1.3406 -0.5042
  798MPD2    H111814   2.563   4.609  17.668 -0.1852  0.2233 -2.7547
  798MPD2    H211815   2.283   0.041  17.391 -0.4724 -1.0337 -0.0708
  798MPD2    H311816   2.510   4.726  17.468 -0.0122  0.8299 -0.2401
  798MPD2     N11817   2.367   4.494   0.105  0.1390 -0.2334 -0.6188
  798MPD2    H511818   2.278   4.469   0.148 -0.0884  0.8146 -0.4802
  798MPD2    N111819   2.065   4.702  17.516  0.3838  0.0832 -0.0913
  798MPD2    H711820   2.060   0.027  17.433  0.4299 -2.1884 -1.6901
  799MPD2     C11821   0.718   1.282  14.232 -0.2962  0.1872 -0.1854
  799MPD2    C111822   0.741   1.184  14.135 -0.0089 -0.3997  0.0409
  799MPD2    C211823   0.765   1.211  14.006  0.2974 -0.7346 -0.6134
  799MPD2    C311824   0.770   1.340  13.964 -0.3017  0.0025 -0.2514
  799MPD2    C411825   0.747   1.445  14.057  0.0533  0.5291  0.6734
  799MPD2    C511826   0.713   1.412  14.189  0.4129  0.2793 -0.2489
  799MPD2     H11827   0.776   1.127  13.938  0.3289 -0.1784 -1.2973
  799MPD2    H111828   0.726   1.546  14.023  0.6389  1.2049  2.3515
  799MPD2    H211829   0.700   1.276  14.338 -1.4130 -0.0293 -0.3949
  799MPD2    H311830   0.680   1.491  14.256  2.1077  0.3676  0.4628
  799MPD2     N11831   0.794   1.382  13.828  0.5017 -0.3431  0.8873
  799MPD2    H511832   0.816   1.481  13.821 -0.8929  0.0560  2.1689
  799MPD2    N111833   0.751   1.053  14.178  0.0480 -0.4150  0.6165
  799MPD2    H711834   0.769   0.987  14.103 -0.2128  0.1734  0.0350
  800MPD2     C11835   1.304   2.023  14.336 -0.0714  0.2396 -0.1024
  800MPD2    C111836   1.424   1.958  14.322  0.2697 -0.3860 -0.9482
  800MPD2    C211837   1.450   1.880  14.212  0.2481  0.1605 -0.2495
  800MPD2    C311838   1.356   1.874  14.110 -0.3862 -0.3040 -0.2435
  800MPD2    C411839   1.242   1.945  14.119  0.3528 -0.6168  0.0238
  800MPD2    C511840   1.203   2.001  14.241 -0.7348 -0.5982 -0.7830
  800MPD2     H11841   1.536   1.815  14.209  1.3439  1.7198 -2.5058
  800MPD2    H111842   1.174   1.938  14.035 -0.0313 -4.6162  0.6852
  800MPD2    H211843   1.288   2.081  14.426  1.4093 -0.9988  0.9599
  800MPD2    H311844   1.103   2.042  14.254  0.3517  1.5197  1.0249
  800MPD2     N11845   1.398   1.798  14.004  0.0191 -0.2762  0.3783
  800MPD2    H511846   1.485   1.752  14.029  1.7270  2.3545 -0.5942
  800MPD2    N111847   1.508   1.972  14.432 -0.4307 -0.0497 -0.4066
  800MPD2    H711848   1.479   2.037  14.505  0.6248 -1.5079  1.3249
  801MPD2     C11849   1.627   2.402  14.993  0.5165  0.3969  0.1848
  801MPD2    C111850   1.543   2.329  14.903 -0.0313 -0.6565  0.5610
  801MPD2    C211851   1.429   2.387  14.860  0.5134 -0.5839  0.4351
  801MPD2    C311852   1.399   2.516  14.891 -0.0613  0.1953 -0.5031
  801MPD2    C411853   1.485   2.591  14.963  0.0029 -0.3237  0.1444
  801MPD2    C511854   1.590   2.534  15.016  0.0958 -0.8972 -0.1335
  801MPD2     H11855   1.371   2.337  14.784 -3.4877 -2.3778  4.6806
  801MPD2    H111856   1.465   2.696  14.984  3.1398  0.1848  0.7220
  801MPD2    H211857   1.715   2.365  15.045  0.3813 -1.8298 -1.1577
  801MPD2    H311858   1.659   2.599  15.069  0.4471 -1.3327 -0.0580
  801MPD2     N11859   1.271   2.573  14.877  0.2728  0.4620 -0.4646
  801MPD2    H511860   1.249   2.667  14.907  0.6848  1.0363 -1.9939
  801MPD2    N111861   1.574   2.205  14.847  0.5947  0.0561 -0.2303
  801MPD2    H711862   1.507   2.161  14.785 -0.5353 -0.2778  1.2362
  802MPD2     C11863   1.206   2.861   0.164 -0.0260 -0.2837 -0.2005
  802MPD2    C111864   1.186   2.986   0.110 -0.4560 -0.1630 -0.1254
  802MPD2    C211865   1.267   3.032   0.008  0.1640  0.5654  0.4028
  802MPD2    C311866   1.354   2.946  17.686 -0.1128  0.3663  0.2473
  802MPD2    C411867   1.373   2.822   0.000 -0.6229 -0.1441  0.1442
  802MPD2    C511868   1.307   2.789   0.113 -0.8367  0.1623 -0.4174
  802MPD2     H11869   1.255   3.133  17.706 -3.4799 -0.1598 -0.4344
  802MPD2    H111870   1.453   2.758  17.701  0.3464  0.7517  0.7060
  802MPD2    H211871   1.166   2.838   0.262 -0.7818 -2.7625 -1.0839
  802MPD2    H311872   1.341   2.700   0.163 -0.4713  0.3803 -0.2787
  802MPD2     N11873   1.426   2.999  17.576  0.1371  0.0104  0.5658
  802MPD2    H511874   1.405   3.095  17.552  0.2619 -0.2816 -0.7506
  802MPD2    N111875   1.086   3.071   0.159  0.5270 -0.1736 -0.2471
  802MPD2    H711876   1.084   3.166   0.125 -0.7106 -0.1506 -0.0977
  803MPD2     C11877   1.337   1.592  12.740  0.1330  0.0729 -0.4501
  803MPD2    C111878   1.397   1.492  12.661 -0.3909  0.1570 -0.3638
  803MPD2    C211879   1.443   1.373  12.720  0.2936  0.0339  0.3226
  803MPD2    C311880   1.419   1.351  12.853  0.0778 -0.0157  0.0878
  803MPD2    C411881   1.351   1.445  12.923  0.0332 -0.4872 -0.5211
  803MPD2    C511882   1.313   1.566  12.871 -0.2303  0.2830 -0.4130
  803MPD2     H11883   1.498   1.305  12.657  1.3901  1.3646 -0.1545
  803MPD2    H111884   1.327   1.423  13.027 -1.9899 -1.0268 -1.0970
  803MPD2    H211885   1.309   1.690  12.703 -0.6431  0.7666  1.9519
  803MPD2    H311886   1.278   1.648  12.933  1.4960  0.8013 -0.1191
  803MPD2     N11887   1.465   1.238  12.929 -0.2143 -0.3727  0.3282
  803MPD2    H511888   1.434   1.232  13.026  1.0468 -0.3266  0.7378
  803MPD2    N111889   1.430   1.507  12.522  0.2673  0.0176 -0.1970
  803MPD2    H711890   1.502   1.448  12.482 -0.0960 -1.6835  1.6461
  804MPD2     C11891   1.872   3.112  17.085 -0.9958  0.4409 -0.4725
  804MPD2    C111892   1.900   3.116  17.216 -0.5195  0.1467  0.4327
  804MPD2    C211893   1.956   3.236  17.260  0.4184  0.2462 -0.4394
  804MPD2    C311894   1.974   3.345  17.181 -0.7660 -0.5800 -0.4651
  804MPD2    C411895   1.938   3.335  17.048  0.4341 -0.5922  1.2145
  804MPD2    C511896   1.893   3.217  17.000  0.4865 -0.2197  1.1893
  804MPD2     H11897   1.961   3.252  17.368 -0.1906  1.4354 -0.5828
  804MPD2    H111898   1.935   3.420  16.982  1.8002  0.3393  2.3438
  804MPD2    H211899   1.832   3.023  17.037 -1.8510  0.2909  0.5246
  804MPD2    H311900   1.859   3.220  16.897 -1.0665  0.1357  1.7205
  804MPD2     N11901   2.018   3.471  17.238  0.2948 -0.7140  0.6431
  804MPD2    H511902   2.009   3.481  17.338 -3.7043 -1.6859  0.3773
  804MPD2    N111903   1.882   3.013  17.311  0.2239  0.6724 -0.4204
  804MPD2    H711904   1.885   3.037  17.410  0.5351  0.9013 -0.4866
  805MPD2     C11905   0.438   1.084  15.783  0.0120 -0.6445  0.0124
  805MPD2    C111906   0.505   1.191  15.719 -0.2210  0.0559 -0.0538
  805MPD2    C211907   0.620   1.239  15.779  0.6769 -0.6685  0.0653
  805MPD2    C311908   0.660   1.206  15.913 -0.5498  0.7090  0.1819
  805MPD2    C411909   0.588   1.101  15.968 -0.0649 -0.8040  0.2210
  805MPD2    C511910   0.480   1.044  15.904  0.9412  0.4205  0.3602
  805MPD2     H11911   0.671   1.322  15.732 -0.0473 -0.0261  0.4143
  805MPD2    H111912   0.603   1.075  16.072 -2.5763 -0.5407  0.6479
  805MPD2    H211913   0.350   1.031  15.747 -1.5146  2.3851 -0.7773
  805MPD2    H311914   0.430   0.963  15.956  1.9420 -0.8809 -0.7290
  805MPD2     N11915   0.766   1.275  15.982  0.3959 -0.0923  0.1721
  805MPD2    H511916   0.828   1.339  15.933  0.4701 -0.0936  0.2631
  805MPD2    N111917   0.468   1.233  15.589 -0.4832  0.1728  0.2143
  805MPD2    H711918   0.534   1.295  15.542  0.6684  1.3031  3.3129
  806MPD2     C11919   1.350   0.874   0.430 -0.6755  0.7969 -0.3595
  806MPD2    C111920   1.348   1.005   0.477  1.0049 -0.1241 -0.1395
  806MPD2    C211921   1.424   1.099   0.419 -0.5347 -0.1375  0.1746
  806MPD2    C311922   1.509   1.074   0.317 -0.0544  0.4185 -0.4260
  806MPD2    C411923   1.510   0.945   0.264 -0.2777 -0.1760 -0.0816
  806MPD2    C511924   1.427   0.847   0.323  0.8248  0.1568  0.1351
  806MPD2     H11925   1.418   1.200   0.459 -1.5260 -0.7307  1.5457
  806MPD2    H111926   1.571   0.919   0.178 -0.7460  0.8953 -0.7329
  806MPD2    H211927   1.291   0.792   0.470  2.4683 -1.4291 -0.3035
  806MPD2    H311928   1.426   0.744   0.288 -1.8082 -0.4543  2.0094
  806MPD2     N11929   1.582   1.182   0.269 -0.0560  0.4487 -0.4027
  806MPD2    H511930   1.566   1.268   0.321  0.5641 -0.3265  1.0747
  806MPD2    N111931   1.262   1.022   0.583 -0.2161  0.5913 -0.4896
  806MPD2    H711932   1.220   0.937   0.620  2.1121  0.1074  1.0271
  807MPD2     C11933   0.932   0.571   1.077 -0.4456 -0.7276 -0.1228
  807MPD2    C111934   1.069   0.583   1.091  0.0522  0.7928  0.4700
  807MPD2    C211935   1.149   0.490   1.162  0.2586 -0.2567  0.0738
  807MPD2    C311936   1.080   0.394   1.240  0.4264 -0.2605  0.2623
  807MPD2    C411937   0.938   0.381   1.224 -0.0873 -0.1567 -0.2946
  807MPD2    C511938   0.870   0.468   1.144  0.1116  0.3229 -0.3367
  807MPD2     H11939   1.255   0.512   1.169  0.0391  0.3814  1.4946
  807MPD2    H111940   0.882   0.294   1.257 -0.5301 -0.4024 -1.7024
  807MPD2    H211941   0.868   0.628   1.010  0.6604 -1.4453 -1.8054
  807MPD2    H311942   0.764   0.456   1.126 -0.2915 -1.0337  2.8558
  807MPD2     N11943   1.160   0.317   1.325 -0.3599 -0.5756 -0.1277
  807MPD2    H511944   1.257   0.345   1.337  0.0786 -1.7927 -0.7729
  807MPD2    N111945   1.135   0.703   1.040 -0.0325  0.0696 -0.3558
  807MPD2    H711946   1.234   0.719   1.057  0.0642  0.6198 -1.4543
  808MPD2     C11947   1.396   2.385   9.937 -0.5100 -0.5821 -0.2751
  808MPD2    C111948   1.469   2.357  10.051  0.1051  0.2756  0.3627
  808MPD2    C211949   1.515   2.462  10.130 -0.5074  0.2025 -1.2550
  808MPD2    C311950   1.488   2.593  10.103 -0.4709 -0.4936 -0.2898
  808MPD2    C411951   1.399   2.617   9.999 -0.7768  0.0216 -0.3957
  808MPD2    C511952   1.359   2.516   9.918  0.2366 -0.2661 -0.6959
  808MPD2     H11953   1.573   2.439  10.218  0.6102 -1.1046 -2.3384
  808MPD2    H111954   1.377   2.719   9.970  1.6927  0.3247 -1.2252
  808MPD2    H211955   1.365   2.303   9.874  0.5972 -1.2516  0.0530
  808MPD2    H311956   1.308   2.536   9.824 -2.4073 -1.2159  0.5297
  808MPD2     N11957   1.551   2.703  10.164  0.2963 -0.2177 -0.4092
  808MPD2    H511958   1.512   2.790  10.129  3.9552  2.3709  1.9583
  808MPD2    N111959   1.504   2.227  10.096 -0.1658  0.3878 -0.0386
  808MPD2    H711960   1.554   2.222  10.185 -0.9463 -0.2226  0.3579
  809MPD2     C11961   1.775   3.657   9.997  0.2762 -0.4022 -0.1735
  809MPD2    C111962   1.742   3.549   9.916 -0.4468 -0.1526 -0.2934
  809MPD2    C211963   1.745   3.424   9.968  0.4268  0.2221 -0.6402
  809MPD2    C311964   1.787   3.404  10.093 -0.9663 -0.3247 -0.0407
  809MPD2    C411965   1.836   3.505  10.171 -0.2880 -0.2382  0.1063
  809MPD2    C511966   1.829   3.632  10.124  0.5226 -0.3639  0.2077
  809MPD2     H11967   1.716   3.344   9.900 -2.0224  0.7137 -0.1692
  809MPD2    H111968   1.889   3.474  10.260  0.9444  4.0161  0.8665
  809MPD2    H211969   1.768   3.760   9.965  0.9468 -0.6328 -1.0724
  809MPD2    H311970   1.855   3.714  10.191  2.8037 -0.4493 -0.5705
  809MPD2     N11971   1.802   3.269  10.138 -0.0708 -0.1469  0.2773
  809MPD2    H511972   1.862   3.259  10.219 -1.5304  1.7642  1.6084
  809MPD2    N111973   1.701   3.563   9.786 -0.3103  0.4136 -0.2397
  809MPD2    H711974   1.712   3.489   9.718 -1.1157  0.4550 -0.4221
  810MPD2     C11975   1.515   1.540  11.234 -0.5806 -0.5968 -0.4845
  810MPD2    C111976   1.385   1.564  11.198 -0.2851 -0.4449 -0.0337
  810MPD2    C211977   1.334   1.693  11.215 -0.1983 -0.0791  0.3884
  810MPD2    C311978   1.418   1.796  11.267  0.5073 -0.4566  0.1982
  810MPD2    C411979   1.550   1.764  11.299  0.1049 -0.2352 -0.0528
  810MPD2    C511980   1.594   1.637  11.297 -0.6891 -0.1902 -0.3345
  810MPD2     H11981   1.232   1.710  11.183 -0.6882 -1.4138  1.2217
  810MPD2    H111982   1.613   1.842  11.340 -1.1141 -0.0615  1.4769
  810MPD2    H211983   1.559   1.442  11.219  0.6350  0.0170 -0.8885
  810MPD2    H311984   1.696   1.622  11.331 -1.9346 -5.4171  1.0793
  810MPD2     N11985   1.380   1.930  11.288  0.1302 -0.1396  0.1296
  810MPD2    H511986   1.448   1.996  11.324  0.1676 -0.4555  0.6365
  810MPD2    N111987   1.302   1.468  11.143  0.3400  0.1536 -0.3867
  810MPD2    H711988   1.208   1.492  11.113  0.1789  0.2399  0.1869
  811MPD2     C11989   0.909   0.988  10.524  0.0426  0.6171  0.1242
  811MPD2    C111990   0.972   1.101  10.563  0.0611  0.6230 -0.2778
  811MPD2    C211991   0.969   1.210  10.478  0.1214  0.4054 -0.9010
  811MPD2    C311992   0.926   1.204  10.349  0.5813 -0.2330  0.7120
  811MPD2    C411993   0.864   1.084  10.308 -0.1517 -0.0848 -0.1059
  811MPD2    C511994   0.858   0.980  10.398  0.9735  0.1951  0.3940
  811MPD2     H11995   1.024   1.301  10.501  0.7299 -0.5943  1.6497
  811MPD2    H111996   0.824   1.067  10.209  2.7600  1.2330 -1.4957
  811MPD2    H211997   0.897   0.898  10.583  0.2626  0.0535 -0.6863
  811MPD2    H311998   0.809   0.893  10.358  0.2508  0.0969  1.5034
  811MPD2     N11999   0.934   1.324  10.268  0.0899 -0.5843 -0.1559
  811MPD2    H512000   0.968   1.404  10.320 -0.1617  0.8312 -2.1457
  811MPD2    N112001   1.014   1.103  10.697  0.5471 -0.0879  0.2606
  811MPD2    H712002   0.991   1.021  10.752 -0.1573  0.6971  1.1298
  812MPD2     C12003   0.069   1.252  12.425 -0.2091  0.9171 -0.0686
  812MPD2    C112004   4.726   1.334  12.511  0.3814  0.2044  0.1227
  812MPD2    C212005   4.687   1.276  12.633 -0.1962 -0.2008 -0.0086
  812MPD2    C312006   4.712   1.144  12.662  0.0750 -0.7666  0.1617
  812MPD2    C412007   0.044   1.066  12.568  0.0905 -1.2083 -0.2095
  812MPD2    C512008   0.093   1.120  12.455  0.4495  0.0631  0.4980
  812MPD2     H12009   4.624   1.339  12.695  0.9237  2.7822 -1.8863
  812MPD2    H112010   0.073   0.963  12.583  0.7105 -0.8236  1.2209
  812MPD2    H212011   0.101   1.288  12.328 -0.0377 -0.7500 -0.6189
  812MPD2    H312012   0.156   1.057  12.394 -1.8873 -1.4754 -0.3132
  812MPD2     N12013   4.658   1.081  12.779  0.3784  0.9166 -0.1375
  812MPD2    H512014   4.645   1.147  12.855  0.0876  1.5992 -0.7828
  812MPD2    N112015   4.684   1.457  12.460 -0.2469 -0.2481  0.4449
  812MPD2    H712016   4.704   1.465  12.361 -0.1710  0.1353  0.4943
  813MPD2     C12017   4.249   2.895  13.066 -0.5969  0.7732 -0.0645
  813MPD2    C112018   4.261   2.975  13.177  0.3170  0.0992 -0.5416
  813MPD2    C212019   4.153   2.982  13.262 -0.5245  0.1039  0.2296
  813MPD2    C312020   4.030   2.931  13.224  0.2406 -0.4555 -0.6367
  813MPD2    C412021   4.018   2.849  13.110  0.5961 -0.7439  0.3685
  813MPD2    C512022   4.133   2.830  13.043  0.4682  0.4096  0.4864
  813MPD2     H12023   4.157   3.045  13.350  0.5718 -1.9981  1.6655
  813MPD2    H112024   3.941   2.781  13.076  0.3141 -1.1927  1.9189
  813MPD2    H212025   4.336   2.873  13.005 -0.9494  0.9171 -0.6138
  813MPD2    H312026   4.125   2.769  12.954 -0.5974  1.7432 -0.3205
  813MPD2     N12027   3.911   2.965  13.298  0.4182  0.4909  0.8694
  813MPD2    H512028   3.922   3.014  13.386 -5.0944  0.1626  1.7629
  813MPD2    N112029   4.370   3.060  13.202 -0.5714 -0.8212  0.3272
  813MPD2    H712030   4.361   3.122  13.281 -1.9266 -0.9623  0.2899
  814MPD2     C12031   4.440   4.215  13.105 -0.1078  0.5073  0.4958
  814MPD2    C112032   4.555   4.215  13.030  0.3156  0.2031  0.2896
  814MPD2    C212033   4.639   4.323  13.031  0.5655 -0.3611  0.0458
  814MPD2    C312034   4.612   4.440  13.112 -0.3759  0.2163 -0.2117
  814MPD2    C412035   4.490   4.441  13.175  0.6725  0.1568  0.3041
  814MPD2    C512036   4.410   4.331  13.168  0.1762 -0.6491 -0.1085
  814MPD2     H12037   4.732   4.321  12.975  1.6977  2.0376  1.8007
  814MPD2    H112038   4.459   4.526  13.234 -0.1252  0.2215 -0.2061
  814MPD2    H212039   4.363   4.139  13.104  1.5797 -1.1452 -1.2851
  814MPD2    H312040   4.308   4.334  13.204  0.9410 -1.3644  2.1243
  814MPD2     N12041   4.690   4.560  13.109  0.4029 -0.2293  0.7507
  814MPD2    H512042   4.631   4.640  13.129  0.1703  0.7283 -3.7288
  814MPD2    N112043   4.591   4.103  12.940 -0.3047  0.1797 -0.2467
  814MPD2    H712044   4.650   4.126  12.861  1.5681 -1.1953  0.7746
  815MPD2     C12045   0.241   3.292  11.367  0.3086  0.1893 -0.0528
  815MPD2    C112046   0.184   3.166  11.380  0.2758  0.6360 -0.4715
  815MPD2    C212047   0.052   3.152  11.398  0.1857 -0.3616  1.0514
  815MPD2    C312048   4.704   3.267  11.395 -0.0285  0.5413  0.8668
  815MPD2    C412049   0.025   3.393  11.386 -0.0919  0.2695 -0.3306
  815MPD2    C512050   0.161   3.403  11.380  0.0336 -0.1594 -0.5575
  815MPD2     H12051   0.007   3.053  11.399  1.3560 -0.8548  5.4531
  815MPD2    H112052   4.692   3.478  11.380  0.6345  0.7188 -1.9365
  815MPD2    H212053   0.347   3.309  11.354  0.1526 -0.9708 -2.8743
  815MPD2    H312054   0.206   3.500  11.361  2.0428 -0.9057  0.4356
  815MPD2     N12055   4.566   3.248  11.401  0.5793  0.5294  0.6278
  815MPD2    H512056   4.508   3.323  11.436  2.3717  1.6111  1.2622
  815MPD2    N112057   0.267   3.048  11.376 -0.4515  0.3472 -0.4398
  815MPD2    H712058   0.362   3.059  11.341  0.1092 -1.1842  0.6001
  816MPD2     C12059   4.693   2.368  17.665 -0.3084  0.1378 -0.4899
  816MPD2    C112060   0.072   2.439  17.718 -0.4454 -0.0657  0.4561
  816MPD2    C212061   0.196   2.409  17.666  0.0011  0.5056 -0.7664
  816MPD2    C312062   0.213   2.321  17.561 -0.3553  0.9226 -0.2221
  816MPD2    C412063   0.105   2.256  17.509 -0.4987  0.4650  0.4238
  816MPD2    C512064   4.720   2.281  17.563  0.0169 -0.9568  0.2823
  816MPD2     H12065   0.285   2.451  17.712 -0.8266  0.5650  0.7749
  816MPD2    H112066   0.106   2.183  17.430 -0.1257  0.2033  0.6682
  816MPD2    H212067   4.591   2.396  17.690 -1.0032 -1.4043 -1.5723
  816MPD2    H312068   4.632   2.232  17.523 -0.1731 -0.5775  0.2312
  816MPD2     N12069   0.346   2.312  17.513  0.1743 -0.3021 -0.5031
  816MPD2    H512070   0.418   2.363  17.563  2.9461 -1.3183 -3.4499
  816MPD2    N112071   0.047   2.543   0.082  0.3859  0.0000 -0.2018
  816MPD2    H712072   4.688   2.578   0.102  0.5145  0.5619 -0.5845
  817MPD2     C12073   4.296   3.565  10.284  0.0961  0.1562  0.1062
  817MPD2    C112074   4.357   3.627  10.169 -0.2482 -0.0454 -0.1779
  817MPD2    C212075   4.327   3.756  10.137  0.1790  0.5087  0.4825
  817MPD2    C312076   4.236   3.833  10.209  0.3216  0.0447 -0.0239
  817MPD2    C412077   4.171   3.772  10.316  0.8959  0.5902 -0.4073
  817MPD2    C512078   4.206   3.641  10.354 -0.0274  0.2186 -0.0222
  817MPD2     H12079   4.379   3.789  10.048  0.0064 -1.8652 -0.5173
  817MPD2    H112080   4.087   3.819  10.364 -1.9051 -0.8689 -3.8426
  817MPD2    H212081   4.309   3.461  10.313 -0.8756  0.8738  3.1703
  817MPD2    H312082   4.163   3.602  10.446 -0.8357  0.9256 -0.0898
  817MPD2     N12083   4.206   3.959  10.157 -0.0657  0.4033  0.2170
  817MPD2    H512084   4.264   3.984  10.078 -0.4997  0.6497 -0.0207
  817MPD2    N112085   4.438   3.547  10.079 -0.2230 -0.1440 -0.6795
  817MPD2    H712086   4.472   3.586   9.992  0.0478 -1.5088 -1.1962
  818MPD2     C12087   3.328   4.251  10.117  0.6734 -0.3123 -0.1057
  818MPD2    C112088   3.335   4.132  10.176  0.2524  0.4901 -0.0767
  818MPD2    C212089   3.382   4.028  10.101 -0.0172  0.0585 -0.5929
  818MPD2    C312090   3.427   4.036   9.975 -0.1983  0.4990  1.2557
  818MPD2    C412091   3.429   4.159   9.915 -0.7561 -0.2964 -0.9736
  818MPD2    C512092   3.379   4.267   9.986 -0.1027 -0.3964  0.3958
  818MPD2     H12093   3.370   3.931  10.148 -1.0211  0.8598  0.8230
  818MPD2    H112094   3.456   4.182   9.813  0.7625 -0.1656 -0.5348
  818MPD2    H212095   3.284   4.334  10.172 -1.0195 -1.3314  0.0598
  818MPD2    H312096   3.375   4.363   9.937 -0.5300 -1.0105 -0.7680
  818MPD2     N12097   3.474   3.925   9.908  0.4919 -0.4214  0.0972
  818MPD2    H512098   3.496   3.934   9.809 -0.9189  2.4936  0.0543
  818MPD2    N112099   3.295   4.095  10.305 -0.0416 -0.0440  0.2597
  818MPD2    H712100   3.292   3.997  10.329 -2.8824 -1.1987 -4.7208
  819MPD2     C12101   1.666   1.570  16.113  0.4377  1.0314 -0.1637
  819MPD2    C112102   1.625   1.445  16.085 -0.2151  0.0549  0.1803
  819MPD2    C212103   1.684   1.333  16.147 -0.2910  0.3552 -0.0829
  819MPD2    C312104   1.775   1.356  16.252 -0.4994 -0.7365  0.2921
  819MPD2    C412105   1.817   1.488  16.284 -0.2431  0.4365  0.5997
  819MPD2    C512106   1.767   1.595  16.213 -0.3060  0.2741  0.4756
  819MPD2     H12107   1.670   1.229  16.124 -0.0907  0.6433 -1.5220
  819MPD2    H112108   1.898   1.510  16.352  2.0902  2.2010 -2.7240
  819MPD2    H212109   1.605   1.643  16.060 -1.6687 -1.1999 -0.8027
  819MPD2    H312110   1.788   1.699  16.237 -1.4761  1.1241 -2.2370
  819MPD2     N12111   1.823   1.241  16.321  0.2033 -0.6107  0.3366
  819MPD2    H512112   1.788   1.161  16.269 -1.4029 -0.0074  0.5014
  819MPD2    N112113   1.532   1.418  15.980  0.4081  0.3042  0.3356
  819MPD2    H712114   1.527   1.485  15.903 -1.2997  0.5033  0.6189
  820MPD2     C12115   0.949   1.613  15.186  0.4493 -0.3616  0.1947
  820MPD2    C112116   0.886   1.526  15.267 -0.5969  0.0559  0.6462
  820MPD2    C212117   0.948   1.490  15.379  0.4991  0.5545  0.3861
  820MPD2    C312118   1.074   1.525  15.406  0.1700  0.4937 -0.2026
  820MPD2    C412119   1.143   1.614  15.326 -0.2935  0.4873  0.1888
  820MPD2    C512120   1.078   1.655  15.212  0.0899 -0.7140  0.0679
  820MPD2     H12121   0.910   1.419  15.453  0.0990  0.2994 -0.0669
  820MPD2    H112122   1.246   1.641  15.343  0.1102 -0.4219 -0.7777
  820MPD2    H212123   0.900   1.655  15.098  1.6635 -0.0174 -0.3129
  820MPD2    H312124   1.133   1.722  15.147  1.0909 -1.7926 -0.1851
  820MPD2     N12125   1.139   1.460  15.517  0.2512 -0.6072 -0.0214
  820MPD2    H512126   1.075   1.411  15.578  0.7591  0.3798  1.3044
  820MPD2    N112127   0.757   1.471  15.235 -0.3440 -0.5885 -0.1354
  820MPD2    H712128   0.726   1.498  15.142  2.8817  0.8310 -0.8221
  821MPD2     C12129   1.664   2.047  13.280  0.4025 -0.7797 -0.6913
  821MPD2    C112130   1.752   1.998  13.373  1.0620  0.4221  0.4860
  821MPD2    C212131   1.886   1.993  13.351  1.0147  0.1379 -0.2422
  821MPD2    C312132   1.938   2.046  13.237  0.1686 -0.2933  0.2642
  821MPD2    C412133   1.852   2.109  13.143 -0.6993  0.2306 -0.5561
  821MPD2    C512134   1.714   2.099  13.165 -0.4515  0.9082  0.1465
  821MPD2     H12135   1.951   1.947  13.425 -3.9411 -1.9940  2.8002
  821MPD2    H112136   1.885   2.162  13.055 -3.4743  0.9826 -1.1567
  821MPD2    H212137   1.556   2.050  13.284  0.4742 -0.2799  0.6641
  821MPD2    H312138   1.648   2.144  13.091 -0.9500 -2.3213 -1.3606
  821MPD2     N12139   2.076   2.043  13.210  0.0928  0.1288 -0.1826
  821MPD2    H512140   2.097   2.099  13.128  1.1444  1.2643  0.8641
  821MPD2    N112141   1.702   1.931  13.487  0.2581 -0.2545 -0.1117
  821MPD2    H712142   1.777   1.885  13.538 -0.2555  0.9721  1.7845
  822MPD2     C12143   2.480   2.230  15.937 -0.4658 -0.2236 -0.3042
  822MPD2    C112144   2.499   2.233  16.070  0.3324  0.8107  0.6231
  822MPD2    C212145   2.469   2.359  16.127 -0.0867  0.2620 -0.4442
  822MPD2    C312146   2.406   2.467  16.072 -0.1206  0.0086  0.5228
  822MPD2    C412147   2.378   2.456  15.940 -0.1387 -0.4193  0.0597
  822MPD2    C512148   2.427   2.340  15.875 -0.2887 -0.4174  0.4327
  822MPD2     H12149   2.499   2.374  16.231  2.7506 -1.1436 -1.0832
  822MPD2    H112150   2.342   2.543  15.886  1.4529 -0.4647 -1.0909
  822MPD2    H212151   2.486   2.141  15.874  1.0017 -0.4310  0.1180
  822MPD2    H312152   2.406   2.333  15.769 -0.9036 -3.4639  0.7615
  822MPD2     N12153   2.373   2.575  16.154 -0.0891  0.0416  0.2676
  822MPD2    H512154   2.413   2.576  16.248  0.4065 -0.9457  0.0697
  822MPD2    N112155   2.557   2.127  16.143 -0.6978 -0.1182 -0.0555
  822MPD2    H712156   2.569   2.141  16.243  0.8205 -1.0150 -0.1177
  823MPD2     C12157   2.155   2.873  16.907  0.0908  0.4974 -0.0692
  823MPD2    C112158   2.192   2.777  16.820  0.0709 -0.7484 -0.7485
  823MPD2    C212159   2.222   2.643  16.865  0.3170  0.7401  0.1971
  823MPD2    C312160   2.226   2.621  16.999 -0.3185 -0.0360  0.7172
  823MPD2    C412161   2.192   2.721  17.086 -0.1685 -0.1113  0.0753
  823MPD2    C512162   2.148   2.843  17.043  0.5671  0.3346  0.7145
  823MPD2     H12163   2.251   2.562  16.799  1.2121 -0.6510  2.3049
  823MPD2    H112164   2.185   2.702  17.192  0.3227  1.1155  0.3221
  823MPD2    H212165   2.141   2.978  16.885  0.8970  0.5331 -0.3923
  823MPD2    H312166   2.106   2.911  17.116  1.1570  1.2041  0.2508
  823MPD2     N12167   2.262   2.496  17.056 -0.7773  0.2593  0.5149
  823MPD2    H512168   2.255   2.495  17.157 -4.7149 -1.9146  0.2080
  823MPD2    N112169   2.211   2.807  16.686 -0.5250  0.4455 -0.1099
  823MPD2    H712170   2.194   2.904  16.662 -0.3082  0.1667 -1.3977
  824MPD2     C12171   2.887   1.302  16.429 -0.8216 -0.3420 -0.2801
  824MPD2    C112172   2.860   1.371  16.304 -0.8366  0.3190  0.3827
  824MPD2    C212173   2.886   1.308  16.190  0.9399  0.6000  0.4929
  824MPD2    C312174   2.936   1.177  16.187 -0.6416  0.5197 -0.8670
  824MPD2    C412175   2.943   1.107  16.304  0.6561  0.2061 -0.4936
  824MPD2    C512176   2.922   1.171  16.429  0.2366  1.1115 -0.1761
  824MPD2     H12177   2.873   1.368  16.100 -0.2137 -0.6261 -0.1629
  824MPD2    H112178   2.968   1.001  16.307  0.7989  0.2325 -0.7359
  824MPD2    H212179   2.888   1.347  16.528 -1.5975  0.9086 -0.8528
  824MPD2    H312180   2.942   1.122  16.523 -1.1303  0.0670 -0.4159
  824MPD2     N12181   2.967   1.136  16.060  0.8173  0.3064 -0.1659
  824MPD2    H512182   2.951   1.193  15.978 -0.8589 -1.4720 -1.0666
  824MPD2    N112183   2.815   1.505  16.306 -0.5835  0.5758 -0.2231
  824MPD2    H712184   2.802   1.556  16.393  1.6583 -1.2893  1.2118
  825MPD2     C12185   3.482   1.263  15.362  0.4161 -0.6622  0.0573
  825MPD2    C112186   3.408   1.313  15.470 -0.0682  0.5057  0.3861
  825MPD2    C212187   3.412   1.446  15.496  0.2590 -0.0792  0.5256
  825MPD2    C312188   3.481   1.533  15.419  0.0474 -0.1420 -0.2179
  825MPD2    C412189   3.564   1.487  15.321 -0.9168  0.1591 -0.2226
  825MPD2    C512190   3.554   1.354  15.289  0.1715  0.2439  0.0714
  825MPD2     H12191   3.341   1.485  15.569  0.3135 -0.0371  0.5562
  825MPD2    H112192   3.631   1.547  15.260  1.2126  0.5238  2.4736
  825MPD2    H212193   3.479   1.159  15.332 -2.2451 -0.6516  0.3153
  825MPD2    H312194   3.605   1.327  15.197  1.7156  0.7894  0.7874
  825MPD2     N12195   3.480   1.673  15.437  0.2350  0.0513  0.0428
  825MPD2    H512196   3.536   1.730  15.375  0.3128 -1.3367 -1.1568
  825MPD2    N112197   3.326   1.222  15.537 -0.1089 -0.0386  0.0083
  825MPD2    H712198   3.332   1.128  15.499  2.3998 -0.4328  1.3977
  826MPD2     C12199   3.245   0.933  14.252 -0.7601  0.1716 -0.4351
  826MPD2    C112200   3.242   0.981  14.124 -0.5234  0.3319 -0.7811
  826MPD2    C212201   3.142   1.070  14.091  0.1999 -0.6271 -0.4827
  826MPD2    C312202   3.046   1.109  14.186 -0.6059 -0.2441 -0.7810
  826MPD2    C412203   3.053   1.053  14.310  0.4070  0.0478  0.0932
  826MPD2    C512204   3.150   0.963  14.344 -0.2721 -0.3918  0.2291
  826MPD2     H12205   3.135   1.103  13.988  3.3544  0.2055 -0.4096
  826MPD2    H112206   2.986   1.075  14.393 -1.5945 -0.6083 -1.3519
  826MPD2    H212207   3.320   0.858  14.272 -2.8439 -1.2009  2.1916
  826MPD2    H312208   3.151   0.915  14.441 -0.4942  0.2228  0.5378
  826MPD2     N12209   2.934   1.182  14.151  0.0308 -0.3807  0.4131
  826MPD2    H512210   2.863   1.201  14.220 -1.0498 -0.1968 -0.7624
  826MPD2    N112211   3.330   0.922  14.030 -0.0353  0.2045 -0.4120
  826MPD2    H712212   3.383   0.846  14.071 -0.1386  0.5527  0.3815
  827MPD2     C12213   3.657   2.633  10.337 -0.1396  0.5693  0.2075
  827MPD2    C112214   3.632   2.498  10.310  0.1410 -1.2237 -0.0162
  827MPD2    C212215   3.543   2.464  10.212 -0.8674  0.3267 -1.1722
  827MPD2    C312216   3.492   2.564  10.123 -0.9618  0.5386  0.5071
  827MPD2    C412217   3.523   2.696  10.147 -0.1710 -0.3022 -0.5459
  827MPD2    C512218   3.604   2.728  10.255 -0.7571  1.0911 -0.4581
  827MPD2     H12219   3.505   2.364  10.197  1.3299 -0.9753  2.1490
  827MPD2    H112220   3.492   2.786  10.094  0.9272  0.4422  0.0797
  827MPD2    H212221   3.728   2.657  10.415  1.3285 -1.1633 -0.5766
  827MPD2    H312222   3.628   2.834  10.259  0.3743  0.7054  2.8406
  827MPD2     N12223   3.397   2.523  10.024 -0.1182  0.3658  0.2034
  827MPD2    H512224   3.369   2.426  10.021 -0.7145  0.5481 -0.1578
  827MPD2    N112225   3.692   2.406  10.392 -0.4881  0.3918  0.6843
  827MPD2    H712226   3.761   2.441  10.458 -1.1621 -0.9206  2.0962
  828MPD2     C12227   2.316   2.134  12.512 -0.1370 -0.0736 -0.6159
  828MPD2    C112228   2.239   2.116  12.400 -0.2081  0.3966 -0.6620
  828MPD2    C212229   2.300   2.073  12.285  0.3577  0.0963 -0.5213
  828MPD2    C312230   2.434   2.037  12.273  0.0992  0.0385  0.5644
  828MPD2    C412231   2.500   2.064  12.386 -0.5121  0.4719 -0.8361
  828MPD2    C512232   2.448   2.108  12.503 -0.5758  0.0648  1.1015
  828MPD2     H12233   2.238   2.054  12.198  0.8075  0.0631 -0.8347
  828MPD2    H112234   2.607   2.043  12.393 -0.6149 -0.6686 -2.7429
  828MPD2    H212235   2.287   2.184  12.604  0.4016 -1.0684  0.0847
  828MPD2    H312236   2.525   2.141  12.572 -2.2488  2.4520  1.7953
  828MPD2     N12237   2.497   1.981  12.156 -0.4063  0.5911  0.2135
  828MPD2    H512238   2.597   1.964  12.154 -0.9628 -2.5256 -0.4760
  828MPD2    N112239   2.104   2.159  12.398 -0.5418 -0.3481  0.1878
  828MPD2    H712240   2.063   2.138  12.308 -1.4585 -1.0565  0.7751
  829MPD2     C12241   1.688   2.371  11.688 -0.8309  0.6625  0.0610
  829MPD2    C112242   1.583   2.414  11.771 -0.3661 -0.9065 -0.1112
  829MPD2    C212243   1.598   2.398  11.907 -0.3418 -0.1740 -0.3287
  829MPD2    C312244   1.719   2.364  11.964  0.1288 -0.5319 -0.1222
  829MPD2    C412245   1.821   2.318  11.883  0.1153  0.5632  0.5243
  829MPD2    C512246   1.802   2.320  11.745 -0.3489 -0.1813 -0.6006
  829MPD2     H12247   1.522   2.427  11.978 -0.4933  0.1353 -0.6177
  829MPD2    H112248   1.913   2.277  11.921  0.9317  0.4166 -1.6268
  829MPD2    H212249   1.685   2.367  11.580  2.3731  1.3950 -0.0470
  829MPD2    H312250   1.883   2.281  11.685  0.2184 -2.0801  1.3827
  829MPD2     N12251   1.744   2.338  12.100 -0.9145  0.2291  0.3334
  829MPD2    H512252   1.841   2.330  12.128 -1.0930  0.6200  1.0815
  829MPD2    N112253   1.473   2.474  11.707 -0.3230 -0.5074  0.8063
  829MPD2    H712254   1.468   2.458  11.606 -0.4206 -1.2733  0.9360
  830MPD2     C12255   2.050   0.431  16.274 -0.2624 -0.2663  0.5939
  830MPD2    C112256   2.048   0.561  16.231 -0.9350 -0.2367 -0.4236
  830MPD2    C212257   2.064   0.587  16.099 -0.0273 -0.5940  0.3617
  830MPD2    C312258   2.089   0.487  16.003 -0.2159  0.2352  0.4736
  830MPD2    C412259   2.086   0.357  16.049 -0.3499  0.0622  0.0025
  830MPD2    C512260   2.054   0.326  16.183 -0.3203 -0.5669  0.5537
  830MPD2     H12261   2.051   0.687  16.060  1.5847 -0.0386  1.2771
  830MPD2    H112262   2.093   0.275  15.978 -0.0804 -1.1617  1.4292
  830MPD2    H212263   2.041   0.413  16.380  0.5700  0.6241  0.8162
  830MPD2    H312264   2.045   0.223  16.216 -1.4954 -1.4979 -2.6842
  830MPD2     N12265   2.123   0.509  15.864  0.1296 -0.3108 -0.8098
  830MPD2    H512266   2.142   0.424  15.812 -0.2281 -0.5490 -0.5578
  830MPD2    N112267   2.014   0.668  16.321  0.6501 -0.2379  0.0411
  830MPD2    H712268   1.998   0.651  16.420 -0.1137 -0.2443 -0.0880
  831MPD2     C12269   2.688   2.707  16.430  0.2300  0.2101  0.1766
  831MPD2    C112270   2.697   2.585  16.367 -0.8829 -0.2583  0.4717
  831MPD2    C212271   2.625   2.477  16.420  0.3583 -0.5161 -0.0420
  831MPD2    C312272   2.534   2.494  16.523 -0.6481  0.1141 -0.1111
  831MPD2    C412273   2.521   2.617  16.579  0.5199 -0.5973  0.2872
  831MPD2    C512274   2.606   2.714  16.541  0.0523 -0.0838  0.0989
  831MPD2     H12275   2.647   2.378  16.382 -1.7820 -0.5606 -1.1486
  831MPD2    H112276   2.457   2.635  16.665 -0.1906 -0.3840 -0.2918
  831MPD2    H212277   2.734   2.799  16.395 -1.7391  0.5459 -1.5737
  831MPD2    H312278   2.613   2.806  16.598 -2.9942 -1.3968  2.5652
  831MPD2     N12279   2.435   2.398  16.545  0.1387 -0.1297 -0.2746
  831MPD2    H512280   2.373   2.417  16.623  0.9361 -0.3400  0.4099
  831MPD2    N112281   2.763   2.560  16.245  0.4367  0.5936  0.5321
  831MPD2    H712282   2.756   2.465  16.208  0.0408  0.0359  2.0645
  832MPD2     C12283   0.751   3.145  17.291 -0.4690  0.1478  0.3095
  832MPD2    C112284   0.750   3.275  17.255 -0.7696  0.3631 -0.0896
  832MPD2    C212285   0.642   3.358  17.274 -0.2711 -0.1959  0.6555
  832MPD2    C312286   0.544   3.307  17.350  0.8565  0.0978 -0.2617
  832MPD2    C412287   0.551   3.174  17.395 -0.0150 -0.0445 -0.8919
  832MPD2    C512288   0.652   3.093  17.362 -0.3403 -0.5606 -0.3399
  832MPD2     H12289   0.620   3.446  17.214 -0.4964 -0.7516 -0.0860
  832MPD2    H112290   0.470   3.132  17.453 -0.0243 -0.5376 -1.2618
  832MPD2    H212291   0.835   3.079  17.269 -0.2732  0.3670  0.4051
  832MPD2    H312292   0.661   2.993  17.402 -3.2461 -1.1602 -1.1630
  832MPD2     N12293   0.413   3.365  17.354 -0.2293  0.6948 -0.0578
  832MPD2    H512294   0.339   3.317  17.405 -1.9811  2.5207 -0.8512
  832MPD2    N112295   0.867   3.325  17.200 -0.0652 -0.6984 -0.3749
  832MPD2    H712296   0.949   3.266  17.208  0.3385 -0.2904 -1.5697
  833MPD2     C12297   3.143   4.664  13.070  0.9040 -0.0309  0.2315
  833MPD2    C112298   3.189   4.708  12.946  0.4125 -0.1007 -0.1013
  833MPD2    C212299   3.256   4.615  12.867 -0.1140 -0.0083 -0.2589
  833MPD2    C312300   3.287   4.485  12.912 -0.7421 -0.4529 -0.1329
  833MPD2    C412301   3.245   4.449  13.041 -0.7088  0.1146  0.4149
  833MPD2    C512302   3.175   4.541  13.111  0.4670  0.2428  0.1371
  833MPD2     H12303   3.296   4.639  12.769  0.9616  1.1731  0.4604
  833MPD2    H112304   3.264   4.348  13.075 -3.2492 -1.0079 -1.4995
  833MPD2    H212305   3.095   4.732  13.138 -1.3459  0.6186 -2.0012
  833MPD2    H312306   3.154   4.522  13.215 -0.8615 -0.5892 -0.2855
  833MPD2     N12307   3.355   4.403  12.811 -0.1142  0.1078  0.0794
  833MPD2    H512308   3.378   4.451  12.724  0.4413 -2.8270 -1.3733
  833MPD2    N112309   3.140   0.097  12.896 -0.6671  0.3392 -0.2439
  833MPD2    H712310   3.093   0.157  12.963 -0.3359  1.1017 -0.6945
  834MPD2     C12311   3.197   3.533  12.231  0.6129 -0.1014 -0.6014
  834MPD2    C112312   3.235   3.634  12.145 -1.2878  0.0621 -0.6582
  834MPD2    C212313   3.285   3.750  12.198  0.0072  0.5359  0.1811
  834MPD2    C312314   3.274   3.783  12.327  0.1835  0.0409 -0.3206
  834MPD2    C412315   3.236   3.681  12.412 -0.0009  0.2529  1.0082
  834MPD2    C512316   3.204   3.556  12.365 -0.5612 -0.6318 -0.0746
  834MPD2     H12317   3.332   3.818  12.128  0.2507  0.3421  0.1590
  834MPD2    H112318   3.238   3.702  12.518  0.3529  1.3234  0.7867
  834MPD2    H212319   3.181   3.434  12.191 -1.1890 -0.4621  0.9647
  834MPD2    H312320   3.171   3.481  12.436  1.0730  0.0129  1.3692
  834MPD2     N12321   3.315   3.909  12.384  0.4647 -0.4164  0.5852
  834MPD2    H512322   3.369   3.970  12.323 -0.0021  0.8548  1.4394
  834MPD2    N112323   3.241   3.593  12.006 -0.1494  0.1626  0.0731
  834MPD2    H712324   3.239   3.493  11.990  0.8260  0.2325 -0.5216
  835MPD2     C12325   3.207   1.858  10.924 -0.3474 -0.4112 -0.2464
  835MPD2    C112326   3.135   1.967  10.963 -0.3508 -0.6519  0.2360
  835MPD2    C212327   3.169   2.028  11.082  1.1485 -0.6831  0.0520
  835MPD2    C312328   3.254   1.963  11.172  0.0688  0.1219  0.7258
  835MPD2    C412329   3.319   1.852  11.128  0.4371 -0.3367 -0.3743
  835MPD2    C512330   3.290   1.797  11.009 -0.1846 -0.0043  0.1976
  835MPD2     H12331   3.123   2.121  11.110 -0.3437 -0.9501 -1.5291
  835MPD2    H112332   3.389   1.791  11.185  2.0168  0.8015 -1.0976
  835MPD2    H212333   3.183   1.811  10.830 -0.0472 -0.2758 -0.3904
  835MPD2    H312334   3.338   1.706  10.977  1.4054  0.7199  0.5404
  835MPD2     N12335   3.261   1.994  11.314  0.6086  0.2909 -0.9177
  835MPD2    H512336   3.316   1.926  11.365 -1.4762 -1.9575 -1.6549
  835MPD2    N112337   3.037   2.026  10.878  0.0495  0.2936 -0.0793
  835MPD2    H712338   2.988   2.105  10.918 -0.9427  0.1854 -1.0735
  836MPD2     C12339   2.601   2.156  11.568 -0.0804 -0.8473 -0.4854
  836MPD2    C112340   2.679   2.163  11.676  0.1299  0.5775  0.0443
  836MPD2    C212341   2.633   2.219  11.797  1.0482  0.3624 -0.5817
  836MPD2    C312342   2.507   2.272  11.809  0.3255 -0.3730 -0.4501
  836MPD2    C412343   2.431   2.265  11.695 -0.0961 -0.3954 -0.4000
  836MPD2    C512344   2.479   2.214  11.583 -0.3496  0.1083  0.6030
  836MPD2     H12345   2.697   2.218  11.885 -0.7231 -0.1971  0.7239
  836MPD2    H112346   2.325   2.290  11.690 -0.3176 -1.1659  0.5350
  836MPD2    H212347   2.630   2.122  11.469  1.5317  0.6953 -0.5354
  836MPD2    H312348   2.421   2.234  11.494 -0.6427 -2.0861  0.3031
  836MPD2     N12349   2.460   2.344  11.924  0.0169  0.2043  0.5168
  836MPD2    H512350   2.366   2.381  11.916  0.2736  0.1469 -2.4954
  836MPD2    N112351   2.807   2.113  11.650 -0.1887 -0.2545 -0.1710
  836MPD2    H712352   2.830   2.075  11.559  3.0271  0.9539  0.1310
  837MPD2     C12353   1.092   2.090  10.156 -0.4271  0.5108 -0.9804
  837MPD2    C112354   1.090   2.036  10.033 -0.6455 -0.7311  0.3637
  837MPD2    C212355   1.076   2.109   9.914 -0.3271  0.0222  0.5986
  837MPD2    C312356   1.068   2.246   9.922 -0.4638  1.2262 -0.3832
  837MPD2    C412357   1.081   2.310  10.047  0.6497  0.4380  0.1222
  837MPD2    C512358   1.098   2.227  10.157  0.3463 -0.2277  0.1584
  837MPD2     H12359   1.062   2.059   9.819  1.5491  4.5722 -2.0439
  837MPD2    H112360   1.078   2.418  10.058  0.3043  0.4556 -0.1508
  837MPD2    H212361   1.089   2.028  10.245  0.3858 -0.1467 -1.4104
  837MPD2    H312362   1.096   2.282  10.251  0.3240 -0.9386  0.5732
  837MPD2     N12363   1.050   2.312   9.800  0.0585  0.5023 -0.2732
  837MPD2    H512364   1.030   2.244   9.728  0.1253 -1.1186  1.2458
  837MPD2    N112365   1.067   1.900  10.006 -0.3680  0.1599 -0.3849
  837MPD2    H712366   1.052   1.876   9.909 -1.4132  0.4742 -0.3015
  838MPD2     C12367   0.037   0.778  12.080 -0.0611 -0.9055  0.3513
  838MPD2    C112368   0.034   0.641  12.086 -0.6573  0.0280 -0.5341
  838MPD2    C212369   0.010   0.582  12.214 -0.2303  0.4597 -0.7584
  838MPD2    C312370   4.731   0.661  12.332 -0.6500  0.2963  0.2650
  838MPD2    C412371   4.732   0.799  12.310 -0.6269 -1.1162  0.2582
  838MPD2    C512372   0.018   0.856  12.190 -0.1277 -0.2737  0.6576
  838MPD2     H12373   0.010   0.474  12.216  3.5614  0.4788 -0.2467
  838MPD2    H112374   4.716   0.865  12.395 -2.4827 -0.4580 -0.5987
  838MPD2    H212375   0.043   0.828  11.985 -2.9110 -1.5972 -0.1941
  838MPD2    H312376   0.018   0.964  12.188 -2.0036 -0.2869  0.2950
  838MPD2     N12377   4.687   0.618  12.462 -0.1358  0.2987  0.5404
  838MPD2    H512378   4.667   0.692  12.529 -4.5341 -0.7317  0.3553
  838MPD2    N112379   0.030   0.556  11.971 -0.5429 -0.2442 -0.5558
  838MPD2    H712380   0.045   0.458  11.996  0.4393  0.1770  0.5131
  839MPD2     C12381   4.189   4.636  12.046  0.7144 -0.6030  1.0070
  839MPD2    C112382   4.262   4.593  11.934  0.1556 -0.5230 -0.1607
  839MPD2    C212383   4.350   4.684  11.870  0.1824 -0.2408  0.2750
  839MPD2    C312384   4.362   0.085  11.914  0.2386  0.1158 -0.1477
  839MPD2    C412385   4.284   0.125  12.018 -0.7564 -0.5764 -0.2636
  839MPD2    C512386   4.203   0.037  12.088 -0.0418  0.3146 -0.3395
  839MPD2     H12387   4.399   4.651  11.779  0.2297 -4.5620  1.8591
  839MPD2    H112388   4.308   0.227  12.043  0.2853 -1.1564  1.0890
  839MPD2    H212389   4.121   4.575  12.104 -0.4203 -1.5017 -1.2686
  839MPD2    H312390   4.155   0.078  12.176 -2.1268  2.0583 -2.3220
  839MPD2     N12391   4.435   0.185  11.846 -0.3548  0.4695 -0.8926
  839MPD2    H512392   4.419   0.283  11.868 -2.7505 -0.4937  1.7100
  839MPD2    N112393   4.270   4.460  11.880  0.6922  0.0134  0.5795
  839MPD2    H712394   4.320   4.439  11.795 -1.0531  2.0330 -0.9443
  840MPD2     C12395   4.323   2.131  10.354  0.2240  0.5261 -0.0216
  840MPD2    C112396   4.277   2.195  10.456 -0.7016 -0.6842  0.6314
  840MPD2    C212397   4.354   2.285  10.527 -0.2027 -0.3836  0.2029
  840MPD2    C312398   4.481   2.319  10.487  0.0467 -0.0712  0.0183
  840MPD2    C412399   4.535   2.249  10.374  0.4424  0.1485  0.1223
  840MPD2    C512400   4.456   2.151  10.319  0.2646 -0.7280  0.2975
  840MPD2     H12401   4.316   2.334  10.615  1.2493  1.6254 -0.3130
  840MPD2    H112402   4.628   2.268  10.322  0.5156 -1.0318 -0.1712
  840MPD2    H212403   4.260   2.070  10.291 -0.9457  2.3925 -0.6792
  840MPD2    H312404   4.478   2.100  10.226  0.6883  0.1505 -0.0801
  840MPD2     N12405   4.562   2.417  10.554  0.3302 -0.2715  0.6004
  840MPD2    H512406   4.655   2.430  10.515 -0.5050  1.9431 -0.6178
  840MPD2    N112407   4.142   2.189  10.492  0.2459  0.2084 -0.5735
  840MPD2    H712408   4.077   2.142  10.429 -0.7770  0.8173  0.0263
  841MPD2     C12409   3.977   2.394  14.755  0.2020 -0.3530  0.0932
  841MPD2    C112410   3.944   2.332  14.881  0.3738  0.9690 -0.1897
  841MPD2    C212411   4.029   2.353  14.982 -0.1944 -0.9842 -0.1500
  841MPD2    C312412   4.146   2.432  14.966 -0.2728  0.6680  0.0486
  841MPD2    C412413   4.182   2.483  14.841 -0.0372 -0.5020  0.2680
  841MPD2    C512414   4.092   2.473  14.740 -0.1177 -0.2518  0.2706
  841MPD2     H12415   4.022   2.299  15.076  1.4785  0.7678  0.9796
  841MPD2    H112416   4.278   2.529  14.824 -0.5000  1.0050  1.7406
  841MPD2    H212417   3.924   2.377  14.662 -0.6302 -0.6040  0.6056
  841MPD2    H312418   4.114   2.527  14.648 -0.6347 -1.2312 -0.4380
  841MPD2     N12419   4.231   2.447  15.077  0.4448  0.1032  0.0019
  841MPD2    H512420   4.214   2.382  15.153  0.5835  1.4040  1.1471
  841MPD2    N112421   3.834   2.243  14.898 -0.1527 -0.3309 -0.0570
  841MPD2    H712422   3.822   2.192  14.985  0.0877 -0.9456 -0.3868
  842MPD2     C12423   4.702   3.831  17.307 -0.6216 -0.0123 -0.0859
  842MPD2    C112424   4.573   3.773  17.312  0.4139 -0.1063 -0.4406
  842MPD2    C212425   4.517   3.735  17.431 -0.3124  0.4703  0.0139
  842MPD2    C312426   4.587   3.734  17.543 -0.3652 -0.2095 -0.5731
  842MPD2    C412427   4.711   3.783  17.541 -0.0953  0.2151 -0.5192
  842MPD2    C512428   0.035   3.838  17.430 -0.2175  0.0438  0.0808
  842MPD2     H12429   4.429   3.672  17.431  0.5475 -0.7397  1.9883
  842MPD2    H112430   0.042   3.776  17.628  1.6052 -1.6929 -1.9502
  842MPD2    H212431   0.009   3.875  17.216  0.6600  0.8797  0.9238
  842MPD2    H312432   0.134   3.881  17.429 -1.3338  2.5860 -0.0269
  842MPD2     N12433   4.547   3.661  17.662 -0.4239  0.3162 -0.5417
  842MPD2    H512434   4.624   3.647  17.726 -0.2593  2.3582 -0.2945
  842MPD2    N112435   4.508   3.758  17.186  0.6875  0.5794  0.4349
  842MPD2    H712436   4.565   3.776  17.104  0.5066 -1.8180 -0.2046
  843MPD2     C12437   1.793   0.079   0.062 -0.0116  0.2938 -0.1991
  843MPD2    C112438   1.839   4.733   0.161  0.5836  0.8068 -0.2360
  843MPD2    C212439   1.966   0.029   0.211 -0.3383  0.5080  0.3448
  843MPD2    C312440   2.035   0.145   0.169  0.1488 -0.1115  0.3841
  843MPD2    C412441   1.978   0.225   0.078  0.7902 -0.0852  0.0124
  843MPD2    C512442   1.853   0.191   0.022 -0.2592  0.1820 -0.5486
  843MPD2     H12443   2.010   4.691   0.280 -0.3767 -1.1671 -1.3985
  843MPD2    H112444   2.027   0.321   0.064  1.7201 -0.3883  1.2411
  843MPD2    H212445   1.693   0.061   0.024  0.1160  1.4465 -1.0997
  843MPD2    H312446   1.804   0.253  17.683 -1.6039  0.4068  0.5262
  843MPD2     N12447   2.164   0.175   0.231  0.5411 -0.0500  0.2240
  843MPD2    H512448   2.179   0.275   0.219 -1.0263  0.1213 -0.3782
  843MPD2    N112449   1.756   4.628   0.202 -0.7540 -0.2799  0.1585
  843MPD2    H712450   1.668   4.604   0.157 -1.2386  0.1063  0.8993
  844MPD2     C12451   0.608   3.841  16.777  0.5724  0.0931 -0.7626
  844MPD2    C112452   0.683   3.766  16.864  0.5912 -0.3480  0.4371
  844MPD2    C212453   0.814   3.798  16.894 -0.2985  0.6464 -0.3285
  844MPD2    C312454   0.870   3.915  16.846 -0.0550 -0.0424  0.5649
  844MPD2    C412455   0.791   3.994  16.763  0.1751 -0.1757 -0.3212
  844MPD2    C512456   0.664   3.956  16.741  0.1327  0.1756  0.3907
  844MPD2     H12457   0.873   3.723  16.945  1.7679  1.3257 -1.7322
  844MPD2    H112458   0.824   4.083  16.712  0.9848  0.4332  1.2487
  844MPD2    H212459   0.503   3.833  16.749  0.2001 -0.4315  0.8250
  844MPD2    H312460   0.623   4.026  16.668 -0.0634 -0.3125  0.0346
  844MPD2     N12461   1.001   3.940  16.883 -0.0889 -0.0393 -0.1264
  844MPD2    H512462   1.053   3.868  16.934  0.0032  1.6978  2.2385
  844MPD2    N112463   0.625   3.649  16.909  0.6443  0.0594  0.6574
  844MPD2    H712464   0.682   3.608  16.982  0.1615  3.0134  2.7262
  845MPD2     C12465   1.244   4.725  17.421  0.5797  0.2653  0.0718
  845MPD2    C112466   1.134   4.665  17.365 -0.8593 -0.1256  0.5778
  845MPD2    C212467   1.144   4.550  17.289  0.3696 -0.0456 -0.4605
  845MPD2    C312468   1.263   4.490  17.262 -0.4868  0.1038 -0.0021
  845MPD2    C412469   1.373   4.554  17.315 -0.0841  0.2276  0.1153
  845MPD2    C512470   1.366   4.660  17.392  0.4861 -0.2250 -0.0370
  845MPD2     H12471   1.056   4.504  17.246  0.3873  0.3615 -0.9307
  845MPD2    H112472   1.471   4.512  17.297 -0.2652 -0.0278 -0.2902
  845MPD2    H212473   1.241   0.091  17.463 -2.4140  2.1473 -4.5753
  845MPD2    H312474   1.461   4.698  17.426 -0.1280 -0.1907  1.6709
  845MPD2     N12475   1.265   4.372  17.178 -0.1753 -0.0401  0.7217
  845MPD2    H512476   1.172   4.333  17.169 -0.3001  0.8672 -1.7264
  845MPD2    N112477   1.006   4.727  17.373 -0.5767 -0.3182 -0.7479
  845MPD2    H712478   0.928   4.678  17.330 -0.7493 -0.7093  0.0147
  846MPD2     C12479   2.001   4.156  13.806 -0.6111 -0.3174 -0.3169
  846MPD2    C112480   1.894   4.239  13.823  0.0923 -0.5719  0.3271
  846MPD2    C212481   1.818   4.227  13.937 -0.0730  0.4866  0.2106
  846MPD2    C312482   1.850   4.139  14.034 -0.2923  0.5098 -0.4051
  846MPD2    C412483   1.960   4.058  14.019 -0.2015 -0.1671  0.2936
  846MPD2    C512484   2.032   4.062  13.902 -0.5775  0.5429 -0.4118
  846MPD2     H12485   1.743   4.305  13.947  1.5306  1.9753  0.6949
  846MPD2    H112486   1.998   3.990  14.094 -0.1103  1.1776  1.4817
  846MPD2    H212487   2.062   4.165  13.717 -1.3578 -0.2036 -0.8167
  846MPD2    H312488   2.119   3.999  13.894 -2.2978 -1.9654  0.8562
  846MPD2     N12489   1.764   4.120  14.142  0.0304  0.1656 -0.3176
  846MPD2    H512490   1.697   4.193  14.165  1.3109  0.5506  2.1587
  846MPD2    N112491   1.868   4.346  13.731  0.0917 -0.6904 -0.3052
  846MPD2    H712492   1.815   4.428  13.761 -0.3017 -0.9511 -0.2843
  847MPD2     C12493   1.642   0.608  14.725  0.1260  0.0039 -0.6634
  847MPD2    C112494   1.749   0.691  14.758  0.3219  0.1485 -0.2205
  847MPD2    C212495   1.860   0.637  14.820 -0.3833  0.1721 -0.1199
  847MPD2    C312496   1.864   0.500  14.852  0.2655  0.0599 -0.2941
  847MPD2    C412497   1.750   0.421  14.831  0.1344  0.1492  0.5084
  847MPD2    C512498   1.640   0.480  14.768 -0.2921  1.0087  0.4712
  847MPD2     H12499   1.941   0.707  14.828  0.5459 -1.1085  1.6951
  847MPD2    H112500   1.752   0.314  14.850 -0.9250 -0.3919 -2.4491
  847MPD2    H212501   1.557   0.648  14.672 -1.2154  1.2576  2.4529
  847MPD2    H312502   1.549   0.424  14.750 -0.6706  1.4439  1.0420
  847MPD2     N12503   1.976   0.441  14.910 -0.0739  0.0556  0.0972
  847MPD2    H512504   1.975   0.339  14.911  0.3927  0.0456 -0.3250
  847MPD2    N112505   1.753   0.827  14.722 -0.6103 -0.1597  0.0978
  847MPD2    H712506   1.837   0.876  14.750 -0.3125 -0.0151 -1.0160
  848MPD2     C12507   0.004   3.610  16.767 -0.3565  0.4904 -0.4083
  848MPD2    C112508   0.057   3.697  16.864  0.5857 -0.0853 -0.2821
  848MPD2    C212509   0.138   3.805  16.822 -0.3251 -0.5031  0.0051
  848MPD2    C312510   0.162   3.821  16.685 -0.2711  0.3319 -0.3848
  848MPD2    C412511   0.111   3.732  16.595  0.6888 -0.2857  0.2229
  848MPD2    C512512   0.035   3.631  16.633  0.3531  0.7562  0.1480
  848MPD2     H12513   0.173   3.875  16.897 -0.7788  0.1158 -0.3615
  848MPD2    H112514   0.139   3.740  16.490  0.1476  0.3867  0.1217
  848MPD2    H212515   4.678   3.522  16.787 -0.9833  0.9708 -0.2053
  848MPD2    H312516   0.001   3.560  16.558  1.0803 -0.8419  1.3483
  848MPD2     N12517   0.229   3.935  16.625 -0.6113  0.1276 -0.1501
  848MPD2    H512518   0.246   3.919  16.527 -1.4747  1.6272 -0.5491
  848MPD2    N112519   0.063   3.667  17.005 -0.2062  0.4443 -0.3793
  848MPD2    H712520   0.123   3.726  17.062  1.2822 -0.7020 -0.7923
  849MPD2     C12521   4.041   3.577  14.235 -0.4166 -0.6165  0.4233
  849MPD2    C112522   4.133   3.629  14.325  0.0846  0.1880  0.6935
  849MPD2    C212523   4.113   3.596  14.460 -0.1522 -0.5230 -0.4310
  849MPD2    C312524   4.011   3.513  14.497 -0.4046  0.0727 -0.2413
  849MPD2    C412525   3.908   3.482  14.412 -0.0717 -0.3755  0.4616
  849MPD2    C512526   3.931   3.509  14.281 -0.5135  0.1767 -0.2682
  849MPD2     H12527   4.188   3.619  14.535  0.7250 -2.4121 -0.7343
  849MPD2    H112528   3.827   3.416  14.442 -0.7911  0.1898 -0.2443
  849MPD2    H212529   4.046   3.586  14.127  0.1749 -2.4508  0.2930
  849MPD2    H312530   3.863   3.461  14.211 -1.0173  1.4989 -0.6728
  849MPD2     N12531   4.025   3.466  14.625  0.2855 -0.0731  0.0884
  849MPD2    H512532   4.114   3.495  14.666  0.8832  0.6818 -1.7538
  849MPD2    N112533   4.247   3.701  14.277  0.1344 -0.3071  0.7411
  849MPD2    H712534   4.243   3.717  14.177 -1.1421  1.5972  1.0962
  850MPD2     C12535   2.024   1.547  14.892 -0.0551  0.6424 -0.4146
  850MPD2    C112536   2.019   1.646  14.992  0.1237 -0.0118  0.3005
  850MPD2    C212537   2.137   1.667  15.065 -0.3096  0.0302  0.9687
  850MPD2    C312538   2.253   1.585  15.047 -1.2050 -0.5389 -0.3808
  850MPD2    C412539   2.242   1.484  14.953  0.4306  0.2773 -0.1590
  850MPD2    C512540   2.131   1.462  14.877 -0.6610 -0.0991 -0.2972
  850MPD2     H12541   2.144   1.747  15.137  1.8551  0.6358  0.0779
  850MPD2    H112542   2.333   1.428  14.941  0.7829  1.0371 -1.0461
  850MPD2    H212543   1.931   1.521  14.843 -1.0721  1.6672  0.9454
  850MPD2    H312544   2.134   1.387  14.799 -1.1231 -0.2519 -0.1668
  850MPD2     N12545   2.369   1.582  15.129  0.2163 -0.1423  0.0209
  850MPD2    H512546   2.443   1.520  15.097 -0.3816 -2.1308  2.4525
  850MPD2    N112547   1.901   1.724  15.008  0.3170 -1.0098  0.1908
  850MPD2    H712548   1.837   1.717  14.929  2.2773 -0.6123 -1.4405
  851MPD2     C12549   2.396   1.437  15.568  0.2439  0.4120  0.5663
  851MPD2    C112550   2.264   1.413  15.531 -0.3339  0.0649  0.2505
  851MPD2    C212551   2.231   1.285  15.514 -0.3379 -0.3098 -0.0014
  851MPD2    C312552   2.319   1.175  15.526  0.4668 -0.3431 -0.6788
  851MPD2    C412553   2.459   1.214  15.539 -0.4469 -0.0814 -0.0037
  851MPD2    C512554   2.489   1.345  15.556 -0.0768 -0.2147  0.0313
  851MPD2     H12555   2.129   1.259  15.486  0.7899 -1.7810 -2.7614
  851MPD2    H112556   2.543   1.146  15.537 -1.0787 -0.8342 -1.0381
  851MPD2    H212557   2.421   1.540  15.593  0.9048  0.4058 -0.0641
  851MPD2    H312558   2.591   1.383  15.567 -0.2239  0.1174  0.2467
  851MPD2     N12559   2.270   1.040  15.513  0.3743  0.7009  0.0845
  851MPD2    H512560   2.174   1.030  15.483 -0.1967 -1.0284  2.4274
  851MPD2    N112561   2.184   1.526  15.510  0.0946  0.2372  0.4558
  851MPD2    H712562   2.228   1.618  15.509 -0.0322  0.2820 -0.7498
  852MPD2     C12563   2.077   0.337  10.417 -0.4873  0.5987  0.0694
  852MPD2    C112564   2.064   0.262  10.529  0.0311 -0.5327  0.4907
  852MPD2    C212565   2.178   0.189  10.561  0.2679 -0.8057 -0.1197
  852MPD2    C312566   2.296   0.196  10.499 -0.4582 -0.1038  0.5066
  852MPD2    C412567   2.308   0.273  10.389  0.0231 -0.1167  0.4574
  852MPD2    C512568   2.198   0.340  10.350 -0.2720  0.2824 -0.1631
  852MPD2     H12569   2.167   0.140  10.657 -0.3341  0.3208  0.3886
  852MPD2    H112570   2.405   0.275  10.340  0.0193 -0.3861  0.4365
  852MPD2    H212571   2.002   0.406  10.380 -1.5899 -0.0531  1.0545
  852MPD2    H312572   2.199   0.388  10.253  1.0780 -0.0185 -0.2959
  852MPD2     N12573   2.393   0.107  10.538 -0.2105  0.1294 -0.0209
  852MPD2    H512574   2.362   0.039  10.607  1.1994  0.3181  0.7859
  852MPD2    N112575   1.948   0.247  10.602  0.1917  0.2578  0.3351
  852MPD2    H712576   1.957   0.208  10.696 -1.7618  1.4908  1.0427
  853MPD2     C12577   3.406   3.320  12.515 -0.3790  0.0429 -0.8504
  853MPD2    C112578   3.477   3.416  12.453  0.0131  0.1486 -0.4834
  853MPD2    C212579   3.507   3.406  12.320  0.8886  0.3132 -0.1704
  853MPD2    C312580   3.453   3.305  12.246  0.1356  0.4165 -0.1372
  853MPD2    C412581   3.364   3.217  12.309 -0.8082 -0.3450  0.6621
  853MPD2    C512582   3.340   3.224  12.438  0.4299 -0.3160  0.7120
  853MPD2     H12583   3.586   3.467  12.278  0.7089  0.7626  0.1392
  853MPD2    H112584   3.321   3.136  12.251 -0.6937 -0.6796  1.0442
  853MPD2    H212585   3.393   3.310  12.622 -0.2074  1.8171 -0.6742
  853MPD2    H312586   3.273   3.154  12.486  1.4917 -0.9012  1.3588
  853MPD2     N12587   3.480   3.278  12.106 -0.3805 -0.4160 -0.3046
  853MPD2    H512588   3.451   3.184  12.078 -1.4202  0.2861 -1.5540
  853MPD2    N112589   3.534   3.503  12.547  0.0740  0.6076  0.2708
  853MPD2    H712590   3.506   3.492  12.643 -2.2911  2.0151 -0.2483
  854MPD2     C12591   0.975   3.434  13.025  0.0175 -0.5169  0.6216
  854MPD2    C112592   1.079   3.488  12.950 -0.2051 -0.7388  0.3380
  854MPD2    C212593   1.206   3.433  12.968  0.7095 -0.2080 -0.0528
  854MPD2    C312594   1.229   3.332  13.058  0.1305  0.0002  0.5841
  854MPD2    C412595   1.124   3.292  13.136 -0.3691 -0.0510  0.4731
  854MPD2    C512596   1.000   3.346  13.125 -0.4539  0.4016 -0.7182
  854MPD2     H12597   1.292   3.473  12.915  0.0337 -0.1353 -1.0795
  854MPD2    H112598   1.136   3.215  13.211 -0.4362  0.1822  0.7228
  854MPD2    H212599   0.875   3.473  13.012  0.4778  1.2566  2.2784
  854MPD2    H312600   0.922   3.302  13.185  0.1493  0.3221  0.0188
  854MPD2     N12601   1.361   3.281  13.088 -0.3301 -0.1169 -0.0083
  854MPD2    H512602   1.376   3.222  13.169 -1.7409  0.5712  0.7529
  854MPD2    N112603   1.056   3.594  12.864 -0.4264 -0.4437 -0.3693
  854MPD2    H712604   0.965   3.603  12.820 -0.9988 -1.4041  0.6236
  855MPD2     C12605   2.069   3.262  13.766 -0.3939  0.5546  0.0707
  855MPD2    C112606   1.938   3.219  13.763  0.2512  0.6667  0.1656
  855MPD2    C212607   1.875   3.196  13.638 -0.5613  0.5216  0.4756
  855MPD2    C312608   1.945   3.227  13.517  0.1288  0.5741  0.0132
  855MPD2    C412609   2.071   3.283  13.528 -0.4315 -0.0955  0.3190
  855MPD2    C512610   2.126   3.293  13.651  0.0431 -0.5926  0.7362
  855MPD2     H12611   1.773   3.160  13.636 -0.1776 -0.7339  2.8718
  855MPD2    H112612   2.124   3.297  13.435 -1.1816  0.3271 -0.0487
  855MPD2    H212613   2.116   3.270  13.863  3.2506 -0.5326 -1.6409
  855MPD2    H312614   2.232   3.316  13.654 -0.2607  0.6528  1.7040
  855MPD2     N12615   1.890   3.205  13.385 -0.0968  0.1487 -0.7668
  855MPD2    H512616   1.942   3.246  13.308  0.9846 -0.7092 -0.4958
  855MPD2    N112617   1.861   3.185  13.872  0.2574 -0.2255  0.6943
  855MPD2    H712618   1.764   3.167  13.848 -0.1269  0.7922  1.4742
  856MPD2     C12619   3.134   4.422  14.633 -0.3181 -0.3833 -0.7299
  856MPD2    C112620   3.187   4.494  14.525  0.8278  0.1040 -0.2197
  856MPD2    C212621   3.096   4.560  14.448  0.5326 -1.1343  0.1490
  856MPD2    C312622   2.959   4.566  14.463 -0.1700 -0.3451 -0.2821
  856MPD2    C412623   2.913   4.494  14.573  0.4250  0.2882 -0.0298
  856MPD2    C512624   2.997   4.419  14.655  0.2429  0.2374  0.3433
  856MPD2     H12625   3.138   4.624  14.370  2.2211 -2.1119  0.2640
  856MPD2    H112626   2.814   4.512  14.613  0.2417  4.9865 -2.5649
  856MPD2    H212627   3.203   4.375  14.702 -0.3402  0.5978 -0.0280
  856MPD2    H312628   2.950   4.368  14.738  0.6955 -1.2778 -0.3381
  856MPD2     N12629   2.871   4.643  14.382 -0.4041 -0.3779  0.4195
  856MPD2    H512630   2.779   4.649  14.424  0.9421  0.5000  3.3100
  856MPD2    N112631   3.325   4.510  14.499  0.1095 -0.1397 -0.2294
  856MPD2    H712632   3.355   4.583  14.435 -1.4056 -0.4069 -1.2528
  857MPD2     C12633   4.509   1.917  13.528  0.4363  0.3969  0.2179
  857MPD2    C112634   4.607   1.942  13.434  0.9415 -0.0417  0.6320
  857MPD2    C212635   4.694   2.047  13.456  0.4486 -0.0611 -0.0386
  857MPD2    C312636   4.695   2.119  13.574  0.2427  0.3646 -0.2721
  857MPD2    C412637   4.590   2.101  13.665 -0.2890  0.2761 -0.3950
  857MPD2    C512638   4.493   1.996  13.641  0.1166 -0.0120 -0.1264
  857MPD2     H12639   0.046   2.065  13.391  0.3756  2.4413  0.5613
  857MPD2    H112640   4.574   2.164  13.752  2.0622  0.9291 -0.4285
  857MPD2    H212641   4.422   1.852  13.524  0.6994  0.0513  0.1853
  857MPD2    H312642   4.404   1.968  13.697 -0.1105  0.8976 -0.0244
  857MPD2     N12643   0.079   2.194  13.602 -0.5939  0.1942  0.3471
  857MPD2    H512644   0.149   2.206  13.530 -0.9579  2.3041  0.3497
  857MPD2    N112645   4.620   1.844  13.328 -0.0827  0.3275 -0.2565
  857MPD2    H712646   4.556   1.766  13.320 -1.5742  1.3394  1.7026
  858MPD2     C12647   0.656   1.352  16.740  0.0452 -1.1868  0.2963
  858MPD2    C112648   0.777   1.307  16.782 -0.0242 -0.2116  0.2630
  858MPD2    C212649   0.845   1.381  16.881 -0.1243 -0.6045 -0.0206
  858MPD2    C312650   0.787   1.492  16.938  0.0261 -0.1932  0.1083
  858MPD2    C412651   0.667   1.545  16.884 -1.2006  0.6715 -0.3827
  858MPD2    C512652   0.603   1.468  16.794 -0.9534 -0.3334  0.0187
  858MPD2     H12653   0.939   1.342  16.918  0.5555  1.5037  0.4806
  858MPD2    H112654   0.629   1.640  16.921  0.4418  1.5680 -1.0260
  858MPD2    H212655   0.601   1.287  16.673 -0.8801 -1.8944  1.7442
  858MPD2    H312656   0.501   1.489  16.762 -0.5889 -1.3229 -1.8006
  858MPD2     N12657   0.846   1.567  17.041 -0.5427 -0.1198 -0.7228
  858MPD2    H512658   0.798   1.646  17.080  0.7880  1.3479 -2.0387
  858MPD2    N112659   0.832   1.197  16.716 -0.4242  0.4442 -0.3105
  858MPD2    H712660   0.771   1.158  16.645 -2.0183 -0.7728  1.7069
  859MPD2     C12661   3.986   3.178  16.179 -0.7509 -0.7587 -0.2867
  859MPD2    C112662   3.960   3.096  16.068  0.4893  0.0474 -0.3862
  859MPD2    C212663   3.919   2.967  16.099  0.4476 -0.2534 -0.5031
  859MPD2    C312664   3.917   2.916  16.221 -0.0433 -0.3244  1.3367
  859MPD2    C412665   3.944   2.998  16.326  0.2647 -0.5917  0.4379
  859MPD2    C512666   3.982   3.127  16.305 -0.2566  0.5546  0.0837
  859MPD2     H12667   3.892   2.900  16.017 -0.0486  0.3475 -0.8239
  859MPD2    H112668   3.944   2.968  16.431 -1.6350 -0.3405  0.5151
  859MPD2    H212669   4.027   3.277  16.159  3.1209 -1.6157  3.3158
  859MPD2    H312670   4.011   3.194  16.386  0.1342  0.7358 -0.2015
  859MPD2     N12671   3.894   2.779  16.239 -0.3109  0.7640 -0.1962
  859MPD2    H512672   3.923   2.747  16.330  0.1485 -1.6909 -1.1855
  859MPD2    N112673   3.979   3.137  15.938  0.1112  0.1917  0.1391
  859MPD2    H712674   4.027   3.226  15.933 -1.1465  0.8190 -0.7035
  860MPD2     C12675   2.313   3.571  11.609 -0.1348  0.0802  0.3203
  860MPD2    C112676   2.335   3.536  11.739  0.1490 -0.0309 -0.3620
  860MPD2    C212677   2.220   3.498  11.814  0.4732  0.3688  0.0434
  860MPD2    C312678   2.093   3.502  11.762  0.4553 -0.4064 -0.0956
  860MPD2    C412679   2.076   3.545  11.632 -0.3617 -0.0312  0.7213
  860MPD2    C512680   2.184   3.575  11.557 -0.9278 -0.3497 -0.9683
  860MPD2     H12681   2.238   3.480  11.920  0.7161 -0.4514 -0.1377
  860MPD2    H112682   1.980   3.540  11.584 -0.8338  0.4635  1.6041
  860MPD2    H212683   2.388   3.614  11.544 -0.7344 -0.3402 -0.6478
  860MPD2    H312684   2.173   3.601  11.453  1.1128 -2.4901 -1.6972
  860MPD2     N12685   1.986   3.444  11.835 -0.1746 -0.1741  0.0605
  860MPD2    H512686   2.019   3.401  11.921  2.1503  0.9140 -0.2877
  860MPD2    N112687   2.456   3.545  11.805  0.3199 -0.2811  0.5823
  860MPD2    H712688   2.458   3.514  11.902  0.4885 -0.8275  0.4019
  861MPD2     C12689   4.389   1.541  11.265  0.0336  0.2148  0.1013
  861MPD2    C112690   4.472   1.644  11.273 -0.3556  0.5735 -0.1393
  861MPD2    C212691   4.493   1.731  11.169 -0.0947 -0.0115  0.2117
  861MPD2    C312692   4.434   1.711  11.048 -0.2639 -0.2875  0.2692
  861MPD2    C412693   4.359   1.598  11.033  0.2056  0.3501 -0.3755
  861MPD2    C512694   4.331   1.519  11.142 -0.4619 -0.2407  0.5203
  861MPD2     H12695   4.561   1.814  11.182 -0.9427  0.9890 -1.8130
  861MPD2    H112696   4.321   1.565  10.937 -3.1313  1.1794  0.6676
  861MPD2    H212697   4.362   1.476  11.348 -2.3480 -0.0680 -0.8800
  861MPD2    H312698   4.270   1.430  11.130  1.9006 -1.5632 -1.7994
  861MPD2     N12699   4.469   1.797  10.943  0.4413  0.0856  0.0075
  861MPD2    H512700   4.530   1.871  10.974  1.0091  0.2858 -1.6247
  861MPD2    N112701   4.538   1.650  11.393 -0.0600 -0.3102 -0.0832
  861MPD2    H712702   4.506   1.586  11.465  1.0779  1.2642  1.8124
  862MPD2     C12703   0.088   1.611  10.262 -0.1811 -0.4033 -0.1102
  862MPD2    C112704   0.034   1.593  10.389 -0.7387 -0.3276  0.0108
  862MPD2    C212705   0.034   1.463  10.442 -0.0445 -0.7226  0.9348
  862MPD2    C312706   0.084   1.356  10.369 -0.1296 -0.0705  0.8615
  862MPD2    C412707   0.135   1.381  10.237  0.2425 -0.3343 -0.5375
  862MPD2    C512708   0.140   1.508  10.187  0.0980 -0.0203 -0.5859
  862MPD2     H12709   4.732   1.443  10.542 -2.8528  0.4084  0.1592
  862MPD2    H112710   0.180   1.303  10.176  3.0217 -0.6917  1.9246
  862MPD2    H212711   0.095   1.711  10.221  3.7584 -0.1325  1.2042
  862MPD2    H312712   0.189   1.535  10.094 -0.4619  3.9469  0.2469
  862MPD2     N12713   0.083   1.221  10.425 -0.1748  0.0832 -0.2123
  862MPD2    H512714   0.086   1.136  10.368  0.4083  0.1297 -0.2551
  862MPD2    N112715   4.717   1.697  10.471  0.2052 -0.8233 -0.9369
  862MPD2    H712716   4.663   1.671  10.553 -0.1481 -2.5310 -1.7247
  863MPD2     C12717   3.897   4.400  17.027 -0.5761  0.0191  0.6002
  863MPD2    C112718   3.930   4.533  17.041 -0.1580  0.2135 -0.0216
  863MPD2    C212719   4.039   4.559  17.131  0.6548 -0.0756 -0.4960
  863MPD2    C312720   4.087   4.462  17.218  0.1225  0.9374  0.8635
  863MPD2    C412721   4.025   4.339  17.222 -0.1821 -0.1451 -1.2675
  863MPD2    C512722   3.942   4.305  17.124  0.6182  0.1630  0.2026
  863MPD2     H12723   4.074   4.662  17.127 -2.0028  0.8211 -0.5139
  863MPD2    H112724   4.046   4.271  17.304 -3.4049 -0.5760 -0.8212
  863MPD2    H212725   3.834   4.365  16.946 -0.6489 -0.9850  1.0858
  863MPD2    H312726   3.883   4.216  17.139  0.7815 -0.1528 -1.0282
  863MPD2     N12727   4.196   4.484  17.301  0.2563 -0.0532 -0.5989
  863MPD2    H512728   4.213   4.409  17.368 -1.3520  0.2934  0.1930
  863MPD2    N112729   3.879   4.625  16.951 -0.2071  0.1916 -0.2567
  863MPD2    H712730   3.833   4.598  16.865 -0.0658 -0.2560 -0.1896
  864MPD2     C12731   4.477   0.687  17.647 -0.4799 -0.3184 -0.3100
  864MPD2    C112732   4.493   0.677  17.509  0.4178  0.3084 -0.6506
  864MPD2    C212733   4.530   0.784  17.436  0.4703 -1.2861 -0.4565
  864MPD2    C312734   4.563   0.902  17.493  0.3041  0.4357 -0.8800
  864MPD2    C412735   4.562   0.919  17.632  0.2238 -0.0987 -0.2106
  864MPD2    C512736   4.510   0.810  17.704  0.2202  1.0205 -0.7436
  864MPD2     H12737   4.524   0.779  17.327 -2.6367 -0.0245 -0.3586
  864MPD2    H112738   4.582   1.009  17.689 -1.5757 -0.0256  0.3221
  864MPD2    H212739   4.438   0.604  17.705  0.8781 -1.2166 -0.6913
  864MPD2    H312740   4.483   0.821   0.072 -1.1233  0.5083 -1.0500
  864MPD2     N12741   4.610   1.014  17.426 -0.3535  0.8694 -0.4327
  864MPD2    H512742   4.619   1.101  17.478 -0.2907  0.3807  0.3764
  864MPD2    N112743   4.448   0.553  17.448  0.6889 -0.4943 -0.2987
  864MPD2    H712744   4.415   0.472  17.499 -0.1830 -0.3855 -0.6971
  865MPD2     C12745   4.525   1.675  16.876 -0.0161  1.5346 -0.3301
  865MPD2    C112746   4.526   1.546  16.919  0.7485  0.4890  0.1739
  865MPD2    C212747   4.516   1.526  17.056  0.1843  0.7452 -0.2598
  865MPD2    C312748   4.521   1.629  17.145 -0.5903  0.6528  0.2388
  865MPD2    C412749   4.531   1.757  17.099  0.7758  0.8455  0.6822
  865MPD2    C512750   4.534   1.779  16.962  0.6407  0.1029 -0.1306
  865MPD2     H12751   4.514   1.423  17.091 -0.4371  0.4910 -1.0434
  865MPD2    H112752   4.535   1.844  17.163 -0.0465  0.7648  0.8409
  865MPD2    H212753   4.527   1.690  16.769 -1.4755 -0.8900 -0.6982
  865MPD2    H312754   4.520   1.882  16.932  0.4133  0.4921  1.3346
  865MPD2     N12755   4.527   1.602  17.286  0.3498  0.2336 -0.1117
  865MPD2    H512756   4.522   1.685  17.346 -0.9422  0.6155 -0.7459
  865MPD2    N112757   4.534   1.448  16.818 -0.1632 -0.0304 -0.0476
  865MPD2    H712758   4.535   1.478  16.721 -1.8968  0.8373  0.2111
  866MPD2     C12759   0.944   1.982  11.603 -0.1092  0.1758 -0.6484
  866MPD2    C112760   0.943   1.888  11.507 -0.3783  0.1639  0.7982
  866MPD2    C212761   0.839   1.880  11.412  0.2733 -0.1800 -0.2338
  866MPD2    C312762   0.735   1.975  11.413  0.0375 -0.1328  0.2804
  866MPD2    C412763   0.737   2.057  11.523  0.5688 -0.0230 -0.1540
  866MPD2    C512764   0.839   2.067  11.610  0.5709 -0.5470 -0.1793
  866MPD2     H12765   0.843   1.797  11.343  0.8018  0.7573 -1.3346
  866MPD2    H112766   0.666   2.139  11.530  0.9003  0.2599 -0.1003
  866MPD2    H212767   1.017   1.991  11.683 -0.3151 -0.5285 -0.3834
  866MPD2    H312768   0.840   2.151  11.677  1.0752  0.3259 -1.2754
  866MPD2     N12769   0.629   1.988  11.322 -0.4936  0.2531 -0.0528
  866MPD2    H512770   0.556   2.055  11.341 -2.7139 -1.5862 -2.1297
  866MPD2    N112771   1.048   1.792  11.515  0.2857 -0.2177  0.4205
  866MPD2    H712772   1.129   1.815  11.572 -0.1451  1.4186  0.3730
  867MPD2     C12773   3.552   1.380  17.324  0.4025 -0.6036 -0.0652
  867MPD2    C112774   3.632   1.277  17.370  0.3684 -0.0458  0.3645
  867MPD2    C212775   3.729   1.304  17.472 -0.4791  0.4508 -0.3838
  867MPD2    C312776   3.745   1.438  17.513  0.4448 -0.0932 -0.1925
  867MPD2    C412777   3.672   1.542  17.461  0.6395  0.9058 -0.4690
  867MPD2    C512778   3.566   1.505  17.377 -0.3819 -0.0166  0.1649
  867MPD2     H12779   3.800   1.236  17.516  0.3892  0.5405 -1.6577
  867MPD2    H112780   3.683   1.645  17.495  0.5810  0.7957 -0.1170
  867MPD2    H212781   3.505   1.369  17.227 -0.4500  0.3179  0.2399
  867MPD2    H312782   3.515   1.587  17.330  0.6330  0.9763  0.7877
  867MPD2     N12783   3.845   1.473  17.607 -0.3695  0.0213  0.0728
  867MPD2    H512784   3.864   1.570  17.629 -0.6250 -0.1109  0.8712
  867MPD2    N112785   3.607   1.149  17.306  0.3833 -0.1955  0.3659
  867MPD2    H712786   3.533   1.150  17.237  1.5406 -1.0687 -0.9060
  868MPD2     C12787   0.276   4.667  13.296 -0.3463  0.3263 -0.1130
  868MPD2    C112788   0.328   0.061  13.295  0.2454 -0.5035  0.1470
  868MPD2    C212789   0.253   0.162  13.352 -0.1023 -0.4568 -0.6741
  868MPD2    C312790   0.130   0.140  13.419 -0.8638 -0.6243 -0.2093
  868MPD2    C412791   0.074   0.010  13.408 -0.8044 -0.3857 -0.2579
  868MPD2    C512792   0.152   4.646  13.359  0.2497  0.0621  0.0479
  868MPD2     H12793   0.289   0.265  13.347  0.8345 -0.7104  1.0774
  868MPD2    H112794   4.707   4.729  13.444 -0.1349  0.9182  2.1715
  868MPD2    H212795   0.320   4.582  13.245  1.3056  0.5790  0.9134
  868MPD2    H312796   0.111   4.546  13.355  0.5749 -0.0804  0.3019
  868MPD2     N12797   0.072   0.246  13.485 -0.2373 -0.1923  0.1605
  868MPD2    H512798   0.124   0.332  13.496 -0.8468  0.5812 -3.0168
  868MPD2    N112799   0.459   0.085  13.250 -0.3056 -0.1151 -0.0504
  868MPD2    H712800   0.513   4.733  13.249  0.9107  0.6385  0.0378
  869MPD2     C12801   1.649   3.810   1.777 -0.6812  0.1866 -1.1048
  869MPD2    C112802   1.575   3.780   1.664  0.2163 -0.1933 -0.6866
  869MPD2    C212803   1.641   3.750   1.546  0.1303 -0.1534 -0.2610
  869MPD2    C312804   1.780   3.748   1.541 -0.3774  0.6386 -0.7242
  869MPD2    C412805   1.852   3.792   1.653 -0.1079 -0.1957  0.5541
  869MPD2    C512806   1.786   3.821   1.771 -0.0291  0.0815  0.4325
  869MPD2     H12807   1.577   3.705   1.471 -2.2439  0.5234  1.3595
  869MPD2    H112808   1.959   3.794   1.665 -0.2219  0.5130  1.4664
  869MPD2    H212809   1.609   3.810   1.878  1.0320 -0.8668 -0.4197
  869MPD2    H312810   1.839   3.846   1.862  1.1805  0.6113 -0.4272
  869MPD2     N12811   1.849   3.718   1.422 -0.2068 -0.1934 -0.0114
  869MPD2    H512812   1.950   3.728   1.427 -0.1386 -0.6405 -0.5126
  869MPD2    N112813   1.433   3.793   1.673  0.0111  0.0462 -0.1901
  869MPD2    H712814   1.401   3.798   1.769  1.0079 -1.3403  0.2206
  870MPD2     C12815   0.125   2.906   1.102 -0.3081  0.1658  0.0069
  870MPD2    C112816   0.118   2.779   1.150  0.4728  0.3744 -0.0551
  870MPD2    C212817   0.225   2.716   1.205 -0.0910 -0.2702 -0.2242
  870MPD2    C312818   0.353   2.779   1.188 -0.7630  0.6519  0.1062
  870MPD2    C412819   0.360   2.905   1.117  0.1344 -0.5911  0.5581
  870MPD2    C512820   0.245   2.972   1.088  0.3230 -0.8915  0.2666
  870MPD2     H12821   0.202   2.635   1.273 -0.7757  0.1952  0.0934
  870MPD2    H112822   0.452   2.955   1.090 -0.4659  0.4934  0.5398
  870MPD2    H212823   0.036   2.965   1.080 -1.7258 -2.7092 -2.0139
  870MPD2    H312824   0.253   3.070   1.044 -0.6256 -0.2456  1.5231
  870MPD2     N12825   0.460   2.719   1.253 -0.1853  0.3140  0.4032
  870MPD2    H512826   0.436   2.630   1.296  0.0961  0.1003  0.1155
  870MPD2    N112827   4.719   2.727   1.180 -0.7939  0.1073  0.0462
  870MPD2    H712828   4.642   2.791   1.163 -2.5695 -2.3166 -1.0137
  871MPD2     C12829   2.489   1.916  16.622  0.1222 -0.3156 -0.1715
  871MPD2    C112830   2.477   1.873  16.754 -0.1273 -1.1236  0.3070
  871MPD2    C212831   2.456   1.735  16.781  0.0582 -0.9288 -0.0304
  871MPD2    C312832   2.454   1.642  16.675 -0.2068  0.4060  0.6774
  871MPD2    C412833   2.463   1.691  16.546  0.4411 -0.2772  0.1573
  871MPD2    C512834   2.477   1.824  16.519  0.9220  0.3166 -0.0417
  871MPD2     H12835   2.440   1.695  16.881 -2.3064 -1.1412 -0.5013
  871MPD2    H112836   2.457   1.628  16.458 -0.2317 -2.0144  1.4536
  871MPD2    H212837   2.506   2.021  16.600  1.8702 -0.7815 -1.0012
  871MPD2    H312838   2.488   1.844  16.414  1.3858  2.1271  0.3625
  871MPD2     N12839   2.450   1.506  16.700 -0.5658  0.3812  0.5370
  871MPD2    H512840   2.438   1.482  16.798 -0.4120 -1.2211  0.1597
  871MPD2    N112841   2.484   1.968  16.855  0.5248 -0.0229  0.7412
  871MPD2    H712842   2.497   2.061  16.816  1.6487 -0.6158 -0.3133
  872MPD2     C12843   3.013   3.621  14.180 -0.3139 -0.4339  0.0492
  872MPD2    C112844   2.968   3.754  14.169  0.3497  0.5423  0.1658
  872MPD2    C212845   2.832   3.780  14.156 -0.0254  0.0342 -0.1903
  872MPD2    C312846   2.737   3.675  14.158 -0.0088 -0.8757  0.8469
  872MPD2    C412847   2.777   3.541  14.146  0.5302  0.3449  0.3916
  872MPD2    C512848   2.915   3.519  14.168 -0.2371 -0.5378  0.2975
  872MPD2     H12849   2.796   3.882  14.154 -0.7781 -0.2821 -2.4810
  872MPD2    H112850   2.701   3.464  14.140  0.6771  0.3080 -1.0122
  872MPD2    H212851   3.116   3.587  14.181 -0.1501  0.0951  2.1009
  872MPD2    H312852   2.950   3.417  14.177  2.3459  0.2494 -0.9907
  872MPD2     N12853   2.595   3.694  14.150  0.3120 -0.8749  0.2268
  872MPD2    H512854   2.539   3.616  14.118 -1.0048 -0.3200  1.2111
  872MPD2    N112855   3.054   3.866  14.174  0.0285  0.0271 -0.1045
  872MPD2    H712856   3.006   3.955  14.166 -1.0355 -0.3532  1.9715
  873MPD2     C12857   0.567   3.731   1.588  0.0001  0.2761 -0.0752
  873MPD2    C112858   0.471   3.814   1.537  0.8146  0.2275 -0.2377
  873MPD2    C212859   0.381   3.764   1.433  0.7154 -0.1167  0.6958
  873MPD2    C312860   0.390   3.628   1.402 -0.2329  0.4848 -0.6545
  873MPD2    C412861   0.482   3.548   1.464  0.0743 -1.2517 -0.2862
  873MPD2    C512862   0.585   3.602   1.544  0.7382  0.8815 -0.7414
  873MPD2     H12863   0.308   3.829   1.386  1.4589  1.3463  1.5683
  873MPD2    H112864   0.509   3.452   1.422 -1.9250 -1.4369 -1.1629
  873MPD2    H212865   0.639   3.771   1.659 -0.6962  0.8645  0.3095
  873MPD2    H312866   0.665   3.535   1.573  1.8455  2.1472 -0.8770
  873MPD2     N12867   0.316   3.570   1.299  0.2538 -0.2078  0.1011
  873MPD2    H512868   0.302   3.470   1.313 -0.9481  0.4235  3.4183
  873MPD2    N112869   0.473   3.949   1.570  0.0863  0.6811  1.0861
  873MPD2    H712870   0.542   3.984   1.636  2.3029  0.4250 -1.1088
  874MPD2     C12871   4.373   4.089  16.439  0.0838 -0.2324  0.4683
  874MPD2    C112872   4.460   4.028  16.529 -0.0183  0.1642  0.1684
  874MPD2    C212873   4.597   4.062  16.526 -0.5022  0.0352 -0.3976
  874MPD2    C312874   4.646   4.141  16.430  0.3666 -0.3243  0.1255
  874MPD2    C412875   4.566   4.190  16.332  0.1735  0.1013  0.1487
  874MPD2    C512876   4.429   4.172  16.343 -0.3769  0.0056 -0.1519
  874MPD2     H12877   4.659   4.015  16.601 -0.4599 -1.2689 -1.2614
  874MPD2    H112878   4.596   4.263  16.258 -0.7750  1.7102  1.3408
  874MPD2    H212879   4.268   4.063  16.440  0.6764 -2.6428  2.4726
  874MPD2    H312880   4.373   4.232  16.272 -1.4109 -1.3981 -0.5117
  874MPD2     N12881   0.048   4.165  16.432  0.6271  0.2330 -0.1509
  874MPD2    H512882   0.098   4.140  16.517 -0.0954 -1.3814 -0.2128
  874MPD2    N112883   4.405   3.939  16.623  0.0353  0.2450 -0.4330
  874MPD2    H712884   4.305   3.921  16.620 -0.3911  3.1359 -2.7380
  875MPD2     C12885   1.067   2.362  15.143  1.3371 -0.1042  0.1282
  875MPD2    C112886   0.975   2.402  15.239 -0.0617 -0.2152  0.6875
  875MPD2    C212887   1.023   2.468  15.354  0.8229 -0.2514  0.3118
  875MPD2    C312888   1.161   2.482  15.378  0.2670 -0.3620 -0.2839
  875MPD2    C412889   1.239   2.465  15.269  0.5759  0.1362 -0.4768
  875MPD2    C512890   1.198   2.388  15.164 -0.3937 -0.6086 -0.1654
  875MPD2     H12891   0.949   2.493  15.429 -0.3674  1.5124 -1.4543
  875MPD2    H112892   1.346   2.483  15.273  0.3646  0.5937  2.6057
  875MPD2    H212893   1.043   2.312  15.049  0.8935  0.3626 -0.0071
  875MPD2    H312894   1.269   2.366  15.085 -0.8182 -1.5531 -0.2863
  875MPD2     N12895   1.218   2.521  15.502 -0.3157  0.9358  0.0452
  875MPD2    H512896   1.318   2.519  15.517 -0.5060 -1.6510  1.0198
  875MPD2    N112897   0.836   2.394  15.228 -0.0615  0.1329 -0.2602
  875MPD2    H712898   0.785   2.428  15.309 -2.3817 -2.0602 -0.8166
  876MPD2     C12899   4.242   3.875  16.243  0.2283  0.2173  0.3883
  876MPD2    C112900   4.374   3.857  16.205 -0.3430  0.2948  0.1158
  876MPD2    C212901   4.459   3.771  16.266 -0.4374  0.4061 -0.4138
  876MPD2    C312902   4.411   3.690  16.367 -1.0434 -0.1770 -0.0921
  876MPD2    C412903   4.275   3.707  16.406  0.9399 -0.0467  0.5807
  876MPD2    C512904   4.192   3.792  16.341 -0.1186 -0.6411 -0.2746
  876MPD2     H12905   4.566   3.769  16.248 -0.2076  0.8059  0.9000
  876MPD2    H112906   4.225   3.649  16.483  0.8508  0.1896  0.7022
  876MPD2    H212907   4.174   3.952  16.208  0.4090  0.1993  0.0027
  876MPD2    H312908   4.089   3.804  16.375 -0.7333  1.5431 -2.8478
  876MPD2     N12909   4.492   3.583  16.414 -0.1071  0.6276 -0.4107
  876MPD2    H512910   4.588   3.575  16.381  0.1794  2.1469  0.0817
  876MPD2    N112911   4.413   3.935  16.097  0.5377  0.5377 -0.2952
  876MPD2    H712912   4.339   3.992  16.056 -0.5921 -1.4369 -1.0054
  877MPD2     C12913   0.170   4.371  15.490  0.0897 -0.8420 -0.3006
  877MPD2    C112914   0.069   4.295  15.440 -0.1387  0.2321 -0.2820
  877MPD2    C212915   0.059   4.273  15.306 -0.2753 -0.7008  0.1338
  877MPD2    C312916   0.144   4.333  15.221  0.5913 -0.7569 -0.0972
  877MPD2    C412917   0.236   4.422  15.266  0.2082  0.0968  0.2535
  877MPD2    C512918   0.246   4.441  15.399 -0.2873 -0.4213 -0.1873
  877MPD2     H12919   4.718   4.200  15.280 -1.4246  1.1617 -1.7357
  877MPD2    H112920   0.307   4.475  15.203 -0.5526  0.3099 -0.4223
  877MPD2    H212921   0.185   4.392  15.595  0.5488  0.5166 -0.6367
  877MPD2    H312922   0.315   4.509  15.447  1.3604 -1.8285 -0.5963
  877MPD2     N12923   0.138   4.304  15.087 -0.1257  0.5225 -0.2969
  877MPD2    H512924   0.207   4.349  15.027 -1.2643  1.6101 -0.7823
  877MPD2    N112925   4.720   4.217  15.522 -0.4193 -0.6152  0.1837
  877MPD2    H712926   4.646   4.165  15.475 -0.6118  0.8176 -1.1127
  878MPD2     C12927   4.677   3.093  13.748 -0.3252  0.6248 -0.5548
  878MPD2    C112928   4.642   3.215  13.708  0.4228  0.5010 -0.7415
  878MPD2    C212929   4.614   3.309  13.808 -0.8096  0.1040 -0.2348
  878MPD2    C312930   4.621   3.274  13.939 -0.4871  0.0923  0.2819
  878MPD2    C412931   4.657   3.146  13.976  0.5420 -0.3551 -1.0219
  878MPD2    C512932   4.688   3.058  13.881  0.2775 -0.3689  0.3913
  878MPD2     H12933   4.593   3.414  13.786 -1.3732  0.5376  2.4362
  878MPD2    H112934   4.672   3.121  14.080 -2.5584  1.9921  0.0205
  878MPD2    H212935   4.711   3.022  13.673 -0.3874 -0.6702  0.6412
  878MPD2    H312936   4.731   2.961  13.906 -0.4075 -1.0061 -0.8730
  878MPD2     N12937   4.609   3.365  14.045 -0.1712  0.3718  0.5637
  878MPD2    H512938   4.603   3.322  14.136  1.3539  1.3724  1.1353
  878MPD2    N112939   4.637   3.233  13.567  0.1345  0.2120 -0.5207
  878MPD2    H712940   4.688   3.163  13.514  0.8242  0.9237 -0.7893
  879MPD2     C12941   0.039   4.338  17.590 -0.8167 -0.1175 -0.0119
  879MPD2    C112942   0.028   4.459  17.523 -0.0755  0.4872  0.2947
  879MPD2    C212943   4.693   4.461  17.398 -0.3177 -0.6058  0.1780
  879MPD2    C312944   4.658   4.342  17.336 -0.3987  0.3232  1.0001
  879MPD2    C412945   4.677   4.226  17.404  0.6565 -1.2168 -0.5644
  879MPD2    C512946   4.727   4.221  17.536  0.0056  0.5343 -0.5726
  879MPD2     H12947   4.656   4.545  17.339  0.7600 -0.0566  0.2842
  879MPD2    H112948   4.627   4.137  17.367 -0.2600 -1.4945  1.3634
  879MPD2    H212949   0.086   4.333  17.688  2.0584 -1.1846 -1.4362
  879MPD2    H312950   4.730   4.128  17.590 -0.7787  2.2723  2.4420
  879MPD2     N12951   4.601   4.331  17.207 -0.0485  0.2963 -0.4388
  879MPD2    H512952   4.575   4.237  17.180 -1.4897  1.0881 -1.8243
  879MPD2    N112953   0.087   4.575  17.573 -0.3567 -0.3602  0.3396
  879MPD2    H712954   0.133   4.555  17.661  0.4710 -0.4957 -0.1270
  880MPD2     C12955   1.362   1.950   0.401  0.2121  0.5927 -0.0204
  880MPD2    C112956   1.447   1.975   0.511 -0.4786 -0.3830  0.0324
  880MPD2    C212957   1.516   1.861   0.554  0.3644 -0.0852  0.0477
  880MPD2    C312958   1.494   1.734   0.507  0.1315  0.1859 -0.0267
  880MPD2    C412959   1.409   1.717   0.400 -0.5038 -0.3731  0.2518
  880MPD2    C512960   1.337   1.829   0.353  0.9020  0.3435  0.2140
  880MPD2     H12961   1.573   1.866   0.645  2.1941  2.2865 -1.2040
  880MPD2    H112962   1.386   1.622   0.355  1.4783 -0.4686 -0.5359
  880MPD2    H212963   1.286   2.022   0.373 -1.1023 -0.7551  0.0761
  880MPD2    H312964   1.262   1.828   0.274 -1.3392  4.3635  2.2630
  880MPD2     N12965   1.556   1.625   0.580 -0.7718  0.2757  0.4474
  880MPD2    H512966   1.617   1.644   0.659 -0.0234 -1.0630  0.2002
  880MPD2    N112967   1.467   2.111   0.545  0.2846  0.2328 -0.4986
  880MPD2    H712968   1.405   2.181   0.507  0.4560  0.8454  0.3413
  881MPD2     C12969   1.621   3.025   0.190  0.3036  0.0051 -1.0819
  881MPD2    C112970   1.669   2.896   0.166 -0.5606 -0.6294  0.5475
  881MPD2    C212971   1.628   2.792   0.252 -0.1314 -0.6724  0.0499
  881MPD2    C312972   1.547   2.821   0.362  0.3159 -0.4662  0.2657
  881MPD2    C412973   1.494   2.951   0.380  0.1056 -0.5772 -0.1832
  881MPD2    C512974   1.533   3.045   0.284  0.6626  0.4170  0.2473
  881MPD2     H12975   1.662   2.689   0.245  0.9879 -0.2443 -0.8257
  881MPD2    H112976   1.442   2.971   0.473  0.8595 -0.7003  0.2648
  881MPD2    H212977   1.627   3.108   0.121 -1.1546  0.4587 -0.6500
  881MPD2    H312978   1.501   3.146   0.304  2.2884  1.0463 -0.4025
  881MPD2     N12979   1.511   2.724   0.465  0.3492  0.5525  0.0218
  881MPD2    H512980   1.452   2.754   0.542  0.4320 -0.3506  0.4331
  881MPD2    N112981   1.720   2.862   0.032  0.1750 -0.5343  0.5487
  881MPD2    H712982   1.715   2.939  17.702 -0.5628 -0.5267  0.6104
  882MPD2     C12983   4.558   4.132  14.252  0.3344 -0.4642  0.1695
  882MPD2    C112984   4.512   4.149  14.383  0.3360 -0.5954  0.6018
  882MPD2    C212985   4.379   4.112  14.416  0.4207 -0.1583  0.0931
  882MPD2    C312986   4.299   4.068  14.313  0.3666  0.4012 -0.7876
  882MPD2    C412987   4.348   4.043  14.187 -0.6840  0.0747  0.6593
  882MPD2    C512988   4.482   4.061  14.158 -0.1067 -0.6378  0.9670
  882MPD2     H12989   4.329   4.118  14.512  0.1537  2.1214 -0.2049
  882MPD2    H112990   4.293   3.988  14.111 -1.0830 -0.5406  1.3996
  882MPD2    H212991   4.660   4.152  14.224 -0.4879  3.1719 -0.1878
  882MPD2    H312992   4.529   4.024  14.067 -0.8783  0.4204  0.1399
  882MPD2     N12993   4.156   4.049  14.320  0.6374 -0.2787  0.2553
  882MPD2    H512994   4.109   4.015  14.237  1.3937  1.1160 -0.7341
  882MPD2    N112995   4.606   4.188  14.476  0.6043 -0.0476  0.0852
  882MPD2    H712996   4.700   4.205  14.444 -0.1902  1.5690 -1.3783
  883MPD2     C12997   1.721   4.017  16.416  0.0624  0.1753 -0.3632
  883MPD2    C112998   1.718   4.145  16.363 -0.0940  0.0970 -0.6955
  883MPD2    C212999   1.782   4.254  16.425 -0.3653  0.9590  0.5391
  883MPD2    C313000   1.851   4.232  16.542  0.4427  0.0561 -0.2226
  883MPD2    C413001   1.861   4.103  16.593 -0.1900  0.2077 -0.1994
  883MPD2    C513002   1.784   4.001  16.539  0.0573  0.1850  0.1946
  883MPD2     H13003   1.792   4.350  16.374 -0.6809  0.0484 -1.2419
  883MPD2    H113004   1.919   4.085  16.683 -0.2398 -1.5797 -0.5329
  883MPD2    H213005   1.676   3.932  16.368  0.2512  0.8179 -1.6754
  883MPD2    H313006   1.785   3.903  16.584 -0.8997  0.2461  0.3509
  883MPD2     N13007   1.911   4.346  16.598  0.5719  0.3271 -0.0773
  883MPD2    H513008   1.902   4.439  16.557  2.1330 -0.2883 -1.7802
  883MPD2    N113009   1.651   4.171  16.242  0.1689 -0.3325  0.3755
  883MPD2    H713010   1.639   4.269  16.218 -3.3365 -0.6061  1.0488
  884MPD2     C13011   3.705   4.705  15.497 -0.4209  0.3803 -0.6380
  884MPD2    C113012   3.631   0.025  15.391 -0.3899 -0.5433  0.5819
  884MPD2    C213013   3.491   0.042  15.408 -0.4626 -0.1570 -0.7257
  884MPD2    C313014   3.423   4.733  15.523 -1.2821  0.1306 -0.0158
  884MPD2    C413015   3.503   4.671  15.623 -0.0088  0.9712 -0.2004
  884MPD2    C513016   3.638   4.665  15.607 -0.2003 -0.1493  0.2168
  884MPD2     H13017   3.440   0.076  15.318 -0.7967 -1.2275 -0.9424
  884MPD2    H113018   3.453   4.633  15.711 -0.6097  1.9744 -0.1104
  884MPD2    H213019   3.812   4.686  15.489 -0.3419  0.7344 -0.4189
  884MPD2    H313020   3.710   4.634  15.682 -1.5883 -1.6245  0.9464
  884MPD2     N13021   3.284   0.013  15.530 -0.0962  0.1847  0.0046
  884MPD2    H513022   3.236   0.051  15.449 -0.7122  1.2938  0.8826
  884MPD2    N113023   3.689   0.066  15.267  0.0269  0.0303 -1.4782
  884MPD2    H713024   3.624   0.112  15.205  0.0602 -1.9412 -3.0053
  885MPD2     C13025   1.694   0.619   0.236 -0.0966 -0.0047  0.4980
  885MPD2    C113026   1.827   0.585   0.234 -0.3551 -0.0560 -0.8091
  885MPD2    C213027   1.898   0.599   0.115  0.4430  0.4097 -0.2748
  885MPD2    C313028   1.835   0.641  17.728  0.0598  0.0604 -0.6147
  885MPD2    C413029   1.698   0.667  17.733 -0.4121  0.7944  0.3352
  885MPD2    C513030   1.632   0.650   0.118 -0.3574 -0.3655 -0.5954
  885MPD2     H13031   2.004   0.578   0.118  0.2824 -0.3900 -0.0141
  885MPD2    H113032   1.628   0.693  17.654  1.2345  0.1297 -1.3545
  885MPD2    H213033   1.642   0.621   0.332  1.4516  0.8934  1.3265
  885MPD2    H313034   1.526   0.673   0.112 -0.3068 -0.6385 -2.6788
  885MPD2     N13035   1.913   0.670  17.612 -0.2920 -0.6770  0.8919
  885MPD2    H513036   2.014   0.659  17.612 -0.4087 -1.7551  1.0532
  885MPD2    N113037   1.886   0.555   0.359 -0.0449 -0.6723  0.8785
  885MPD2    H713038   1.823   0.569   0.437  0.5207  2.1048  0.8591
  886MPD2     C13039   3.309   3.202  15.609  0.5314 -0.0502  0.3350
  886MPD2    C113040   3.431   3.264  15.633  0.3526  0.0693 -0.1612
  886MPD2    C213041   3.456   3.387  15.578  0.1825  0.0482 -0.9270
  886MPD2    C313042   3.358   3.445  15.495  0.4698 -0.2164 -0.4046
  886MPD2    C413043   3.238   3.380  15.477  0.2724 -0.3892 -0.0492
  886MPD2    C513044   3.213   3.265  15.534 -0.0106  0.3241 -0.9481
  886MPD2     H13045   3.549   3.436  15.603 -0.5060  0.7209  0.3084
  886MPD2    H113046   3.168   3.431  15.412  1.4858  0.2754 -0.8205
  886MPD2    H213047   3.278   3.117  15.669 -1.4748 -0.5980 -1.4610
  886MPD2    H313048   3.113   3.223  15.536  0.2749 -0.3601 -1.0563
  886MPD2     N13049   3.379   3.568  15.422 -0.2361 -0.2322  0.1598
  886MPD2    H513050   3.298   3.594  15.367 -0.7570 -0.4292  0.8395
  886MPD2    N113051   3.523   3.214  15.733  0.1566  0.1663 -0.4674
  886MPD2    H713052   3.600   3.274  15.762  0.0559 -0.5361  1.2400
  887MPD2     C13053   3.768   3.570  16.302  0.5032 -0.1656  0.6455
  887MPD2    C113054   3.762   3.538  16.168 -0.4266 -0.1164 -0.9426
  887MPD2    C213055   3.807   3.631  16.076 -0.6031 -0.5763 -0.0460
  887MPD2    C313056   3.834   3.758  16.110  0.2652  0.3602  0.5103
  887MPD2    C413057   3.833   3.794  16.244 -1.1706 -0.0662 -0.1784
  887MPD2    C513058   3.804   3.697  16.341 -0.0346 -0.5815 -0.0837
  887MPD2     H13059   3.825   3.606  15.972 -1.1509 -2.0588  0.2238
  887MPD2    H113060   3.854   3.896  16.273 -0.5619  0.1094 -1.2484
  887MPD2    H213061   3.752   3.492  16.375  1.7022  0.5518  1.6777
  887MPD2    H313062   3.800   3.725  16.446  0.4079  2.0380 -0.7604
  887MPD2     N13063   3.877   3.853  16.011 -0.1322 -0.3918  0.1557
  887MPD2    H513064   3.917   3.935  16.055 -2.7184  0.2374  1.3428
  887MPD2    N113065   3.709   3.413  16.122  0.3423 -0.1661  0.5979
  887MPD2    H713066   3.695   3.401  16.022 -1.0735 -1.0419  0.9110
  888MPD2     C13067   0.474   3.456  15.443  0.4853 -0.1805 -0.9254
  888MPD2    C113068   0.509   3.530  15.556  0.1304  0.2571 -0.0794
  888MPD2    C213069   0.555   3.663  15.545  0.1718  0.4201  0.6922
  888MPD2    C313070   0.597   3.706  15.415  0.2855 -0.1034  0.3364
  888MPD2    C413071   0.575   3.620  15.305 -0.1664  0.1908 -0.1404
  888MPD2    C513072   0.512   3.497  15.320  0.5461  0.0426 -0.1413
  888MPD2     H13073   0.585   3.727  15.626 -0.8600  1.4174  0.2836
  888MPD2    H113074   0.599   3.638  15.201 -2.1714  1.0925 -0.4393
  888MPD2    H213075   0.425   3.359  15.445  1.7305 -0.7700  1.1193
  888MPD2    H313076   0.489   3.436  15.234 -3.1843 -4.0051  3.6749
  888MPD2     N13077   0.678   3.821  15.405  1.3464 -0.2967  0.8500
  888MPD2    H513078   0.669   3.888  15.481 -1.4049  1.1007 -0.7380
  888MPD2    N113079   0.493   3.479  15.688  0.1099 -0.3521  0.1601
  888MPD2    H713080   0.506   3.540  15.768 -0.8795  1.2850 -0.9278
  889MPD2     C13081   0.491   2.957  13.551 -0.5947  0.5769  1.1079
  889MPD2    C113082   0.393   2.917  13.637 -0.3039  0.4422 -0.4837
  889MPD2    C213083   0.336   3.006  13.722  0.6275  0.2404  0.7128
  889MPD2    C313084   0.351   3.141  13.691 -0.0205 -0.6943  0.6848
  889MPD2    C413085   0.445   3.180  13.602 -0.1692 -0.3740  0.3512
  889MPD2    C513086   0.512   3.090  13.530 -0.3090  0.2097  1.0659
  889MPD2     H13087   0.266   2.972  13.798  0.1733  1.9738  1.0774
  889MPD2    H113088   0.466   3.285  13.584 -0.4422 -0.0929  1.6933
  889MPD2    H213089   0.539   2.883  13.489 -0.4711  1.7427 -0.1761
  889MPD2    H313090   0.588   3.119  13.459  0.0362  1.9671  2.1596
  889MPD2     N13091   0.283   3.238  13.774  0.0406  0.4595 -0.0186
  889MPD2    H513092   0.249   3.214  13.866  0.7458  0.0077  0.1184
  889MPD2    N113093   0.385   2.784  13.648  0.0017 -0.2689 -0.0635
  889MPD2    H713094   0.425   2.735  13.569  1.9680 -1.2706  1.5576
  890MPD2     C13095   0.006   4.710  14.674 -0.8010  0.6861  0.7575
  890MPD2    C113096   0.086   0.082  14.715  1.0637  0.6471 -0.1016
  890MPD2    C213097   0.115   0.074  14.851 -0.7001 -0.7831  0.7343
  890MPD2    C313098   0.066   4.719  14.946  0.7835  0.4739 -0.3178
  890MPD2    C413099   4.713   4.625  14.897  0.0677 -0.1540 -0.3443
  890MPD2    C513100   4.694   4.617  14.762  0.3214  0.2251  0.1110
  890MPD2     H13101   0.199   0.133  14.885 -0.4540  0.1713 -1.5051
  890MPD2    H113102   4.673   4.552  14.967 -0.7737  0.2141 -0.4392
  890MPD2    H213103   0.001   4.685  14.569 -0.5735 -1.9155  1.3613
  890MPD2    H313104   4.634   4.535  14.724  3.4802 -2.4890  0.9499
  890MPD2     N13105   0.092   4.734  15.079  0.3498  0.6024 -0.0782
  890MPD2    H513106   0.160   0.068  15.112 -1.9407  2.3760  0.9722
  890MPD2    N113107   0.128   0.186  14.628  0.2008  0.0952 -0.3205
  890MPD2    H713108   0.088   0.187  14.534 -0.4591 -1.3199 -0.0596
  891MPD2     C13109   2.631   3.460  16.451  0.3003 -0.2220  0.5090
  891MPD2    C113110   2.618   3.595  16.477  0.4775 -0.1106  0.4721
  891MPD2    C213111   2.710   3.650  16.572 -0.7244 -0.3266 -0.5135
  891MPD2    C313112   2.823   3.577  16.616  0.1784  0.6082  0.2849
  891MPD2    C413113   2.840   3.447  16.578  0.5410  1.0613  0.0539
  891MPD2    C513114   2.747   3.392  16.491  0.1628 -0.0485 -0.6106
  891MPD2     H13115   2.707   3.755  16.596  0.3818 -0.5349  0.5281
  891MPD2    H113116   2.924   3.390  16.616  0.9032  0.8459 -1.0821
  891MPD2    H213117   2.565   3.403  16.387 -0.4238  2.2629 -0.9653
  891MPD2    H313118   2.762   3.291  16.457  2.0745  0.3684 -1.0168
  891MPD2     N13119   2.925   3.639  16.690  0.5128 -0.2694 -0.3575
  891MPD2    H513120   2.919   3.740  16.697  1.1484 -0.2790  0.3671
  891MPD2    N113121   2.498   3.664  16.441 -0.2634  0.0424  0.1868
  891MPD2    H713122   2.433   3.613  16.382  0.2418  0.9936 -1.1969
  892MPD2     C13123   3.599   4.110  15.174  0.1934  0.1617 -0.5746
  892MPD2    C113124   3.512   4.127  15.068 -0.2383  0.5483 -0.1089
  892MPD2    C213125   3.559   4.136  14.937  0.1011 -0.0173  0.1654
  892MPD2    C313126   3.696   4.113  14.909 -0.2199 -0.5788 -0.0437
  892MPD2    C413127   3.781   4.096  15.020 -0.3436 -0.3373 -0.2225
  892MPD2    C513128   3.734   4.099  15.146 -0.1287  0.4533  0.1083
  892MPD2     H13129   3.491   4.159  14.855 -1.3074 -0.4547  1.2126
  892MPD2    H113130   3.889   4.091  15.014 -0.4000 -0.2567 -1.2748
  892MPD2    H213131   3.567   4.117  15.277  1.2545  0.2867 -0.2436
  892MPD2    H313132   3.810   4.089  15.222  0.0696  1.1199 -0.0068
  892MPD2     N13133   3.742   4.098  14.784  0.1211 -0.8631 -0.1468
  892MPD2    H513134   3.843   4.108  14.775 -0.1681 -1.6437 -3.8921
  892MPD2    N113135   3.372   4.145  15.087  0.1494 -0.3079  0.2658
  892MPD2    H713136   3.312   4.148  15.006 -1.4238  3.3254  1.5281
  893MPD2     C13137   0.299   3.355   1.663  0.1802 -0.5887 -0.3813
  893MPD2    C113138   0.260   3.286   1.545  0.2449 -0.5967 -0.2913
  893MPD2    C213139   0.126   3.248   1.525 -0.2943  0.0662 -0.4749
  893MPD2    C313140   0.042   3.266   1.631 -1.3641 -0.1177  1.0126
  893MPD2    C413141   0.080   3.339   1.742  0.0092 -0.3288  0.2340
  893MPD2    C513142   0.210   3.389   1.759 -0.2148  0.0316 -0.5160
  893MPD2     H13143   0.097   3.183   1.444 -1.9662  2.3623 -1.7209
  893MPD2    H113144   0.006   3.355   1.819 -0.4757  2.9127 -0.9040
  893MPD2    H213145   0.402   3.375   1.688 -0.4198  0.5678  1.2182
  893MPD2    H313146   0.238   3.428   1.856 -0.2940 -2.6994  0.6059
  893MPD2     N13147   4.643   3.223   1.626 -0.2974  0.1449  0.1029
  893MPD2    H513148   4.589   3.234   1.712  1.1742 -3.3875  1.4634
  893MPD2    N113149   0.367   3.235   1.471  0.2498  0.4183  0.3000
  893MPD2    H713150   0.461   3.246   1.506 -0.5253 -0.0631  2.5151
  894MPD2     C13151   3.595   0.035   1.311 -0.1710 -0.0152  0.5706
  894MPD2    C113152   3.519   0.101   1.404 -0.1321 -0.0226 -0.4912
  894MPD2    C213153   3.571   0.216   1.459 -0.2079 -0.4650  0.3463
  894MPD2    C313154   3.701   0.257   1.434  0.3999  0.2663  0.5374
  894MPD2    C413155   3.788   0.175   1.372 -0.2708  0.8320  0.3443
  894MPD2    C513156   3.730   0.073   1.296 -0.9045 -0.4675 -0.4733
  894MPD2     H13157   3.521   0.286   1.525  2.6490  0.4161  1.5770
  894MPD2    H113158   3.895   0.193   1.364 -0.1361  0.7190  2.0130
  894MPD2    H213159   3.575   4.674   1.262 -0.3524  1.2154 -1.7389
  894MPD2    H313160   3.798   0.004   1.250  0.3520 -1.1476  2.4002
  894MPD2     N13161   3.738   0.379   1.488  0.4672  0.5420  0.7291
  894MPD2    H513162   3.661   0.435   1.525  0.7451  0.0587  2.0297
  894MPD2    N113163   3.385   0.078   1.443  0.0157 -0.9004  0.4151
  894MPD2    H713164   3.338   0.143   1.505 -0.3938 -0.6089 -0.1943
  895MPD2     C13165   3.006   3.730  13.859 -0.9310 -0.3769 -0.1986
  895MPD2    C113166   2.900   3.642  13.834 -0.4430 -0.9835  0.3733
  895MPD2    C213167   2.934   3.514  13.815  0.2795  0.3311  0.5711
  895MPD2    C313168   3.060   3.464  13.813 -0.5612  0.5499  0.3905
  895MPD2    C413169   3.163   3.551  13.842  0.0504  0.2509  0.0395
  895MPD2    C513170   3.130   3.681  13.870 -0.0418 -0.6023 -0.1219
  895MPD2     H13171   2.850   3.450  13.792  1.2395 -0.4422 -0.7755
  895MPD2    H113172   3.267   3.523  13.845 -0.3547 -1.1936  0.3892
  895MPD2    H213173   2.984   3.836  13.865  1.3908  0.1173 -0.5030
  895MPD2    H313174   3.199   3.761  13.894 -2.2150  1.4302 -0.7811
  895MPD2     N13175   3.080   3.328  13.774  0.1291 -0.1575 -0.9206
  895MPD2    H513176   2.995   3.285  13.738  0.6756 -1.3159 -0.8127
  895MPD2    N113177   2.765   3.677  13.815 -0.0479  0.3346  0.4291
  895MPD2    H713178   2.703   3.609  13.773  2.0392 -0.2829 -1.6047
  896MPD2     C13179   0.522   1.207   1.262  0.4234 -0.8757 -0.0556
  896MPD2    C113180   0.393   1.234   1.313 -0.5764  1.0548 -0.3826
  896MPD2    C213181   0.330   1.140   1.392 -0.5179 -0.4541 -0.0267
  896MPD2    C313182   0.393   1.016   1.425  0.5408 -0.5816 -0.5957
  896MPD2    C413183   0.514   0.988   1.362 -0.2020  0.0066  0.0356
  896MPD2    C513184   0.583   1.087   1.296 -0.5065 -0.3843 -0.5249
  896MPD2     H13185   0.234   1.165   1.434 -0.3305  1.1741 -0.5789
  896MPD2    H113186   0.560   0.890   1.378 -0.9002 -0.9041 -3.6696
  896MPD2    H213187   0.579   1.273   1.198 -2.2502  1.7890  0.3059
  896MPD2    H313188   0.678   1.054   1.256 -0.3564  0.2947 -0.7375
  896MPD2     N13189   0.329   0.921   1.509 -0.8153 -0.4158 -0.3652
  896MPD2    H513190   0.246   0.951   1.559 -1.0331 -0.0556 -0.9458
  896MPD2    N113191   0.330   1.346   1.261 -0.0864  0.5592 -0.4124
  896MPD2    H713192   0.391   1.406   1.206 -0.3400  0.7950 -0.4356
  897MPD2     C13193   1.537   3.001  10.520 -0.3625  0.1154 -0.1672
  897MPD2    C113194   1.432   3.033  10.430 -0.0058  0.0126 -0.7123
  897MPD2    C213195   1.330   2.940  10.417  0.1184  0.1779 -0.4647
  897MPD2    C313196   1.332   2.817  10.490  0.4275  0.5447  0.7258
  897MPD2    C413197   1.429   2.800  10.581 -0.4421 -0.0525 -0.1204
  897MPD2    C513198   1.523   2.896  10.601 -0.2787 -0.1505  0.1873
  897MPD2     H13199   1.239   2.972  10.367  1.2965 -0.3380 -2.9141
  897MPD2    H113200   1.434   2.720  10.654  4.5983  1.8212  1.5943
  897MPD2    H213201   1.631   3.054  10.534  0.4062 -1.6017  1.1807
  897MPD2    H313202   1.593   2.870  10.679  1.5565  2.6045 -0.5692
  897MPD2     N13203   1.214   2.733  10.487 -0.5644 -0.0936  0.1817
  897MPD2    H513204   1.147   2.755  10.415  0.8805  1.5809 -0.6675
  897MPD2    N113205   1.448   3.148  10.355  0.3777 -0.5507  0.3256
  897MPD2    H713206   1.534   3.198  10.373  1.1637 -1.6478 -0.4095
  898MPD2     C13207   3.242   3.511   0.314 -0.1149 -0.1054  0.6400
  898MPD2    C113208   3.293   3.642   0.320 -0.7234 -0.2485  0.0087
  898MPD2    C213209   3.216   3.747   0.286 -0.7042  0.1800  0.1233
  898MPD2    C313210   3.084   3.728   0.245  0.7247  0.3651 -0.0430
  898MPD2    C413211   3.027   3.599   0.236  0.4312 -0.3784  0.4492
  898MPD2    C513212   3.112   3.496   0.267 -0.1785 -0.2422  0.4379
  898MPD2     H13213   3.261   3.846   0.291  1.9380 -0.9515 -0.8701
  898MPD2    H113214   2.935   3.568   0.188  0.6728 -0.3752 -0.0201
  898MPD2    H213215   3.305   3.427   0.338  1.2031  0.6505 -0.1499
  898MPD2    H313216   3.079   3.394   0.254  1.3999 -0.9038  1.5761
  898MPD2     N13217   3.019   3.842   0.193 -0.4410  0.2921 -0.6249
  898MPD2    H513218   3.059   3.933   0.175 -2.1409  1.1765  0.0559
  898MPD2    N113219   3.427   3.676   0.357 -0.5063 -0.3504  0.3439
  898MPD2    H713220   3.462   3.768   0.334 -2.7242  0.8593  1.7822
  899MPD2     C13221   4.466   4.083   0.001 -0.5881 -0.3732 -0.5914
  899MPD2    C113222   4.424   4.201   0.061  0.1145 -0.2521  0.6013
  899MPD2    C213223   4.412   4.200   0.196 -0.4421  0.3810 -0.3887
  899MPD2    C313224   4.424   4.079   0.268 -0.3999  0.1989 -0.6686
  899MPD2    C413225   4.456   3.961   0.199  0.0228 -0.7037 -0.3899
  899MPD2    C513226   4.482   3.968   0.065 -0.0661  0.7610  0.0145
  899MPD2     H13227   4.372   4.283   0.252  0.2072  1.1181 -1.0218
  899MPD2    H113228   4.460   3.865   0.248  0.3619 -0.4216  0.1315
  899MPD2    H213229   4.496   4.100  17.634 -0.7640 -0.4786 -0.6608
  899MPD2    H313230   4.509   3.878   0.011  2.8061  1.5235  0.2163
  899MPD2     N13231   4.391   4.070   0.404 -0.1722  0.6617  0.8695
  899MPD2    H513232   4.394   3.984   0.458 -1.0757  0.5327  0.7161
  899MPD2    N113233   4.404   4.315  17.713  0.0792 -0.2390  0.2516
  899MPD2    H713234   4.424   4.308  17.614  0.9548 -0.3499  0.4365
  900MPD2     C13235   3.884   0.949  12.957 -0.5007  0.0916 -0.3550
  900MPD2    C113236   3.785   0.859  12.979  0.3525  0.3105  0.1235
  900MPD2    C213237   3.660   0.905  12.944 -0.1762  0.0691 -0.3901
  900MPD2    C313238   3.631   1.024  12.883 -0.5875  0.0093 -0.0630
  900MPD2    C413239   3.732   1.120  12.876  0.0409  0.0662  0.4441
  900MPD2    C513240   3.855   1.079  12.915  0.6999 -0.3673  0.2861
  900MPD2     H13241   3.583   0.835  12.973  1.3762 -1.1524  0.8329
  900MPD2    H113242   3.717   1.217  12.829  0.4802 -0.1620 -0.1718
  900MPD2    H213243   3.987   0.930  12.984  0.2668  0.3758 -3.0952
  900MPD2    H313244   3.931   1.156  12.917  2.8072 -2.4645  0.5087
  900MPD2     N13245   3.498   1.046  12.837 -0.0983 -0.0251  0.0490
  900MPD2    H513246   3.430   0.972  12.824 -0.8944  0.5578  0.8796
  900MPD2    N113247   3.814   0.734  13.041 -0.3564 -0.1889  0.4982
  900MPD2    H713248   3.913   0.710  13.040 -0.4972 -0.7914  0.8680
  901MPD2     C13249   3.594   4.412  13.165  0.1092 -0.6642 -0.0687
  901MPD2    C113250   3.714   4.454  13.113 -0.0359  0.1442  0.2158
  901MPD2    C213251   3.753   4.589  13.129  0.3948  0.1922  0.3489
  901MPD2    C313252   3.667   4.678  13.188  0.0630 -0.6071 -0.1858
  901MPD2    C413253   3.551   4.633  13.236  0.8194  0.8410 -0.0410
  901MPD2    C513254   3.509   4.504  13.228 -0.1176  0.1878  0.3864
  901MPD2     H13255   3.841   4.623  13.075 -0.1773  0.3275 -0.5077
  901MPD2    H113256   3.485   4.708  13.278  0.4071  0.3722  0.1572
  901MPD2    H213257   3.546   4.315  13.159 -0.5786 -0.3454  0.2061
  901MPD2    H313258   3.408   4.478  13.259  0.0290 -1.2354 -0.3232
  901MPD2     N13259   3.715   0.076  13.182  0.4255 -0.2244 -0.0424
  901MPD2    H513260   3.809   0.091  13.146  0.4726 -1.3091 -0.3485
  901MPD2    N113261   3.789   4.358  13.047 -0.1566 -0.1803  0.1253
  901MPD2    H713262   3.769   4.262  13.076  0.6629 -0.8531 -1.5530
  902MPD2     C13263   2.864   3.719  13.476  0.1422 -0.3919  0.8219
  902MPD2    C113264   2.777   3.750  13.380 -0.3340  0.3383  0.3311
  902MPD2    C213265   2.746   3.660  13.273  0.1091  0.1038 -0.4738
  902MPD2    C313266   2.799   3.532  13.280  0.1007  0.3519  0.8464
  902MPD2    C413267   2.885   3.505  13.379 -0.0967  0.2593 -0.2802
  902MPD2    C513268   2.917   3.597  13.474 -0.4332  0.2201  0.1522
  902MPD2     H13269   2.667   3.675  13.201 -1.2518  0.1481  1.0208
  902MPD2    H113270   2.929   3.406  13.377 -0.2465  0.1837  0.3981
  902MPD2    H213271   2.889   3.782  13.560  0.1107  1.0508 -0.2445
  902MPD2    H313272   2.990   3.574  13.551  0.7305  1.6955 -0.5183
  902MPD2     N13273   2.770   3.439  13.178 -0.6534 -0.0720  0.4344
  902MPD2    H513274   2.809   3.346  13.192 -1.4719 -0.6165 -0.8291
  902MPD2    N113275   2.731   3.883  13.382  0.3692  0.6768  0.2831
  902MPD2    H713276   2.765   3.945  13.454  0.5647 -0.2381  0.9805
  903MPD2     C13277   2.955   3.124  12.443 -0.2196 -0.3780 -0.2036
  903MPD2    C113278   2.859   3.225  12.460  0.3137 -0.5375 -0.0437
  903MPD2    C213279   2.845   3.313  12.358  0.0051  0.0171  0.2359
  903MPD2    C313280   2.915   3.309  12.240  1.0361 -0.3871  0.5034
  903MPD2    C413281   3.012   3.207  12.229 -0.3294 -0.1894  0.4984
  903MPD2    C513282   3.032   3.120  12.331 -0.7843 -0.2362 -0.6333
  903MPD2     H13283   2.761   3.381  12.367 -1.2035 -1.4928  0.4309
  903MPD2    H113284   3.073   3.192  12.141 -1.4357 -0.4345 -0.2177
  903MPD2    H213285   2.967   3.059  12.528  0.1207 -0.7518 -0.5392
  903MPD2    H313286   3.109   3.043  12.330 -0.5689 -0.0284  0.1026
  903MPD2     N13287   2.882   3.395  12.140  0.4127 -0.2996 -0.3386
  903MPD2    H513288   2.812   3.465  12.163 -0.3358 -1.1649  0.0500
  903MPD2    N113289   2.807   3.222  12.584  0.5946  0.0420 -0.2168
  903MPD2    H713290   2.848   3.161  12.654  0.5299 -1.3185 -1.3602
  904MPD2     C13291   2.834   3.123  14.019 -0.5265  0.0642 -0.0226
  904MPD2    C113292   2.806   3.010  14.092  0.3873  0.5792  0.6586
  904MPD2    C213293   2.901   2.962  14.182  0.0061 -0.0007  0.2496
  904MPD2    C313294   3.024   3.025  14.189  0.2447 -0.7054 -0.0120
  904MPD2    C413295   3.043   3.147  14.121  0.3564  0.0092 -1.1635
  904MPD2    C513296   2.947   3.198  14.039  0.4927 -0.0333  0.3074
  904MPD2     H13297   2.884   2.865  14.227 -1.7620  0.1073 -0.1556
  904MPD2    H113298   3.131   3.208  14.137  0.2865 -0.6649  1.8550
  904MPD2    H213299   2.754   3.172  13.966  0.9510 -0.3656 -2.6435
  904MPD2    H313300   2.956   3.295  13.992 -4.6567  0.0849 -0.4681
  904MPD2     N13301   3.126   2.954  14.261 -0.9131 -0.2641 -0.8925
  904MPD2    H513302   3.099   2.872  14.314 -2.7029  1.5657  1.0145
  904MPD2    N113303   2.671   2.965  14.079 -0.0684 -0.1556  0.3727
  904MPD2    H713304   2.621   2.997  13.997 -0.8652 -1.7869  0.2266
  905MPD2     C13305   2.366   2.971  13.531  0.1456  0.6155  0.2865
  905MPD2    C113306   2.427   3.025  13.639 -0.1272  0.8103 -0.5168
  905MPD2    C213307   2.560   3.053  13.643 -0.5538 -0.1405 -0.0649
  905MPD2    C313308   2.632   3.010  13.524 -0.1698 -0.3039  0.3730
  905MPD2    C413309   2.566   2.949  13.416 -0.7274  0.6443 -0.3240
  905MPD2    C513310   2.432   2.932  13.414  0.4985 -0.6259 -0.5052
  905MPD2     H13311   2.624   3.080  13.726  0.8094  2.2648 -1.9017
  905MPD2    H113312   2.617   2.919  13.325  1.8000 -0.8651  1.5789
  905MPD2    H213313   2.262   2.940  13.544  0.5444 -0.9078 -0.1593
  905MPD2    H313314   2.370   2.894  13.334  0.7208 -1.9381 -0.0628
  905MPD2     N13315   2.769   3.010  13.524  0.7748  0.3266  0.0256
  905MPD2    H513316   2.816   2.949  13.457 -1.7948 -1.5796 -0.0316
  905MPD2    N113317   2.350   3.034  13.758 -0.0063 -0.2043 -0.0270
  905MPD2    H713318   2.267   2.976  13.759  1.0499 -1.8100 -4.2449
  906MPD2     C13319   4.621   2.754  11.355 -0.1462 -0.3609 -0.0534
  906MPD2    C113320   4.573   2.655  11.267 -0.4662 -0.1461 -0.5100
  906MPD2    C213321   4.483   2.561  11.322  0.0688 -0.3459 -0.1873
  906MPD2    C313322   4.441   2.561  11.452 -0.3200  0.0560 -0.2732
  906MPD2    C413323   4.505   2.653  11.533  0.0570  0.1289  0.0292
  906MPD2    C513324   4.591   2.743  11.488 -0.3495 -0.0624  0.0964
  906MPD2     H13325   4.441   2.488  11.255 -1.4818 -1.7465  2.3178
  906MPD2    H113326   4.496   2.649  11.641  1.5978  4.0358  0.3092
  906MPD2    H213327   4.701   2.824  11.333 -1.8996  1.7361  0.2445
  906MPD2    H313328   4.650   2.803  11.557  0.9910 -1.3919  0.1117
  906MPD2     N13329   4.331   2.479  11.491  0.3886 -0.1336 -0.3325
  906MPD2    H513330   4.289   2.428  11.415  0.6766 -1.9650  0.7266
  906MPD2    N113331   4.604   2.639  11.131 -0.6461 -0.1643 -0.0677
  906MPD2    H713332   4.558   2.560  11.088 -0.6542 -0.4643  0.4976
  907MPD2     C13333   3.564   2.307  15.979 -0.0956 -0.1922 -0.6873
  907MPD2    C113334   3.586   2.172  15.954 -0.0498 -0.4238  0.1002
  907MPD2    C213335   3.622   2.085  16.061 -0.3365 -0.1357 -0.2845
  907MPD2    C313336   3.636   2.139  16.183 -0.1467  0.4086  0.4679
  907MPD2    C413337   3.606   2.272  16.210  0.2264 -0.4999 -0.2463
  907MPD2    C513338   3.567   2.357  16.107  0.2201  0.0808  0.3567
  907MPD2     H13339   3.654   1.983  16.048  1.4691  0.5203 -0.9791
  907MPD2    H113340   3.616   2.313  16.309  0.4859 -0.1275 -0.4272
  907MPD2    H213341   3.540   2.380  15.903 -0.6878  0.0401 -0.2686
  907MPD2    H313342   3.542   2.461  16.122 -0.2884  0.0615 -0.3358
  907MPD2     N13343   3.674   2.046  16.279 -0.1962 -0.2603  0.4144
  907MPD2    H513344   3.712   1.955  16.256 -1.6904 -1.3272  2.1437
  907MPD2    N113345   3.575   2.106  15.831 -0.2215  0.1358 -0.0087
  907MPD2    H713346   3.575   2.005  15.828 -1.5201  0.1510 -0.7104
  908MPD2     C13347   1.209   3.426   9.409 -0.6369  0.1613  0.1645
  908MPD2    C113348   1.197   3.308   9.476 -0.1006  0.9162 -0.3990
  908MPD2    C213349   1.237   3.302   9.607  0.0891 -0.2650  0.0701
  908MPD2    C313350   1.281   3.423   9.665 -0.0565  0.3279  0.0260
  908MPD2    C413351   1.307   3.535   9.593 -0.2588  0.3147  0.3268
  908MPD2    C513352   1.267   3.540   9.459  0.1159 -0.0563 -0.1314
  908MPD2     H13353   1.221   3.213   9.667 -1.4175 -2.2191 -3.2832
  908MPD2    H113354   1.354   3.623   9.635  0.9003  0.3110 -0.9492
  908MPD2    H213355   1.168   3.439   9.309  1.0058 -0.7764 -0.6238
  908MPD2    H313356   1.291   3.623   9.394 -0.4224  1.3643  1.4626
  908MPD2     N13357   1.320   3.412   9.801  0.4824  0.4199 -0.3880
  908MPD2    H513358   1.328   3.315   9.831 -1.7487 -0.1542 -1.6585
  908MPD2    N113359   1.120   3.203   9.416 -0.0918  0.1068 -0.0057
  908MPD2    H713360   1.099   3.220   9.318 -0.3045  0.6630  0.1417
  909MPD2     C13361   1.434   1.075  12.332 -0.1601  0.1235 -0.6484
  909MPD2    C113362   1.374   1.094  12.209 -0.2459 -0.6161 -0.6190
  909MPD2    C213363   1.261   1.164  12.203  0.1410  0.1188  0.1495
  909MPD2    C313364   1.204   1.216  12.311  0.1233  0.2190  0.0854
  909MPD2    C413365   1.263   1.209  12.434  0.9365 -1.1846 -0.2423
  909MPD2    C513366   1.369   1.123  12.450 -0.2138 -0.5264 -0.2429
  909MPD2     H13367   1.212   1.180  12.107  0.6534  0.3199 -0.0759
  909MPD2    H113368   1.221   1.260  12.520 -0.5497  0.5558 -2.0160
  909MPD2    H213369   1.528   1.023  12.345 -0.3174  0.2009  0.7942
  909MPD2    H313370   1.398   1.100  12.553  0.9049  1.4187 -0.1149
  909MPD2     N13371   1.082   1.280  12.288  0.6003 -0.0817 -0.0380
  909MPD2    H513372   1.048   1.283  12.192  0.6729 -2.2427 -0.1325
  909MPD2    N113373   1.434   1.044  12.091 -0.0079  0.0641 -0.5483
  909MPD2    H713374   1.387   1.072  12.005  1.4150 -0.6511 -1.5531
  910MPD2     C13375   3.242   2.573  16.189  0.4111 -1.5408 -0.1359
  910MPD2    C113376   3.241   2.439  16.151  0.0374  0.2643  0.5945
  910MPD2    C213377   3.232   2.410  16.014 -0.6770 -0.0658 -0.0024
  910MPD2    C313378   3.231   2.519  15.921  0.5063  0.4189 -0.0234
  910MPD2    C413379   3.223   2.644  15.967 -0.8622  0.0474 -0.8000
  910MPD2    C513380   3.225   2.672  16.103 -0.5098  1.2357  0.5492
  910MPD2     H13381   3.259   2.314  15.973 -2.1189 -0.0136 -1.0660
  910MPD2    H113382   3.209   2.727  15.900  0.1203  0.9224  0.0812
  910MPD2    H213383   3.257   2.592  16.295  0.8584  0.7179 -0.6023
  910MPD2    H313384   3.221   2.774  16.138 -1.0333  0.8286  1.6906
  910MPD2     N13385   3.238   2.500  15.781 -0.0890  0.3249  0.1333
  910MPD2    H513386   3.251   2.581  15.722 -1.9772  1.7850  1.7289
  910MPD2    N113387   3.251   2.330  16.237  0.3733  0.7914 -0.1413
  910MPD2    H713388   3.264   2.242  16.187  3.0152  1.4205 -0.5843
  911MPD2     C13389   0.837   3.434  16.658  0.4207 -0.0536  0.1392
  911MPD2    C113390   0.949   3.508  16.640  0.3984 -0.4065  0.0059
  911MPD2    C213391   0.936   3.627  16.565 -0.3619  0.4409 -0.0127
  911MPD2    C313392   0.810   3.678  16.536 -0.7607  0.5808  0.3520
  911MPD2    C413393   0.699   3.609  16.575 -0.6766 -0.4862 -0.2388
  911MPD2    C513394   0.712   3.483  16.635 -0.1341  0.6106 -0.3463
  911MPD2     H13395   1.024   3.676  16.524  0.0800 -2.2673 -2.3030
  911MPD2    H113396   0.601   3.643  16.545 -0.7128  0.8351  1.4015
  911MPD2    H213397   0.845   3.334  16.701 -1.2783 -0.8578 -1.3892
  911MPD2    H313398   0.631   3.424  16.677  0.4086  1.9340  2.5692
  911MPD2     N13399   0.776   3.788  16.450 -0.1001 -0.1545 -0.3470
  911MPD2    H513400   0.678   3.813  16.444  0.5105  2.2198 -0.6188
  911MPD2    N113401   1.069   3.449  16.679  0.0341  0.7260 -0.3037
  911MPD2    H713402   1.066   3.354  16.716 -0.7340  0.2421 -1.5923
  912MPD2     C13403   0.359   3.442  16.249 -0.4598  0.2256 -0.1991
  912MPD2    C113404   0.376   3.551  16.332  0.9227  0.2123  0.1006
  912MPD2    C213405   0.347   3.539  16.470 -0.1666  0.1027 -0.8630
  912MPD2    C313406   0.306   3.420  16.528 -1.5249 -0.6399 -0.3499
  912MPD2    C413407   0.284   3.312  16.443 -0.4493  0.1047 -0.3395
  912MPD2    C513408   0.313   3.329  16.308  0.0599 -0.6915 -0.3379
  912MPD2     H13409   0.371   3.625  16.533 -0.1699 -0.3723 -0.2127
  912MPD2    H113410   0.255   3.210  16.468  2.0028 -0.4676  0.0949
  912MPD2    H213411   0.380   3.441  16.143 -0.9268  0.1329 -0.2925
  912MPD2    H313412   0.308   3.239  16.248 -3.3819 -1.1150  0.5527
  912MPD2     N13413   0.293   3.406  16.667 -0.3586  0.3017  0.0093
  912MPD2    H513414   0.319   3.491  16.716 -0.9901 -0.3812  1.4977
  912MPD2    N113415   0.441   3.663  16.273  0.4115  0.3908  0.5256
  912MPD2    H713416   0.474   3.648  16.178 -0.0761  1.5744  0.1716
  913MPD2     C13417   1.181   4.249  10.387  0.0951  0.4540 -0.8922
  913MPD2    C113418   1.231   4.296  10.507 -0.3069 -0.8117  1.1239
  913MPD2    C213419   1.227   4.435  10.524  0.3760  0.4766  0.3277
  913MPD2    C313420   1.161   4.514  10.424  0.4227 -0.1016  0.5992
  913MPD2    C413421   1.119   4.466  10.308  0.3549  0.1810  0.1990
  913MPD2    C513422   1.145   4.337  10.285  0.2036 -0.4025  0.6339
  913MPD2     H13423   1.255   4.479  10.619 -1.3304 -1.6234  1.8155
  913MPD2    H113424   1.091   4.526  10.222  1.3152 -1.7033 -1.4339
  913MPD2    H213425   1.175   4.142  10.371  0.0141  0.4677 -0.9534
  913MPD2    H313426   1.137   4.291  10.187 -0.8632 -0.3087  0.6828
  913MPD2     N13427   1.149   4.660  10.447  0.0168  0.0465  0.0484
  913MPD2    H513428   1.104   4.711  10.372 -1.3461 -0.8019  0.2852
  913MPD2    N113429   1.271   4.206  10.608  0.1451 -0.3516 -0.3811
  913MPD2    H713430   1.284   4.109  10.581  1.7222 -0.4123  0.5720
  914MPD2     C13431   4.655   4.640  12.637  0.0021  0.3646 -0.2681
  914MPD2    C113432   4.559   4.702  12.711 -0.5314  0.3519  0.0591
  914MPD2    C213433   4.458   4.631  12.773  0.6162  0.3320 -0.5436
  914MPD2    C313434   4.455   4.492  12.767 -0.4217 -0.9104 -0.2284
  914MPD2    C413435   4.551   4.428  12.691 -0.3496  0.5567  0.0828
  914MPD2    C513436   4.645   4.505  12.628 -0.6547  0.3928  0.0995
  914MPD2     H13437   4.379   4.678  12.830 -0.7935 -2.8470  0.0587
  914MPD2    H113438   4.567   4.321  12.680  0.4776  0.8430 -1.6087
  914MPD2    H213439   4.733   4.696  12.587  1.1958  0.3594  1.5531
  914MPD2    H313440   4.725   4.450  12.579 -1.1260 -0.7209  0.5838
  914MPD2     N13441   4.359   4.424  12.823  0.1013  0.4505 -0.5380
  914MPD2    H513442   4.290   4.478  12.874 -0.2754 -2.5871  2.2010
  914MPD2    N113443   4.563   0.109  12.722 -0.5256  0.1052  0.5457
  914MPD2    H713444   4.627   0.151  12.655  0.1428  1.2155  1.8841
  915MPD2     C13445   1.575   0.260  15.550  0.5692 -0.5836 -0.0473
  915MPD2    C113446   1.476   0.342  15.584 -0.7847  1.1452  0.4067
  915MPD2    C213447   1.480   0.399  15.712  0.0826  0.2266 -0.4167
  915MPD2    C313448   1.589   0.380  15.800 -0.0507 -0.1105  0.3862
  915MPD2    C413449   1.692   0.298  15.754  0.0209  0.0647 -0.0396
  915MPD2    C513450   1.673   0.229  15.644 -0.2381  0.1668 -0.7516
  915MPD2     H13451   1.408   0.475  15.740 -1.0651 -0.1937 -2.2152
  915MPD2    H113452   1.788   0.273  15.798  0.5042  1.7399 -0.1647
  915MPD2    H213453   1.567   0.200  15.460 -1.6902 -1.7886  0.9672
  915MPD2    H313454   1.753   0.163  15.613  0.6113  1.0008 -0.3425
  915MPD2     N13455   1.586   0.441  15.924  0.1015  0.2149  0.0197
  915MPD2    H513456   1.520   0.516  15.944 -0.3657 -0.6609  1.7358
  915MPD2    N113457   1.363   0.339  15.495 -0.5216 -0.3033  0.0195
  915MPD2    H713458   1.369   0.285  15.409  1.3265  0.8649 -0.6004
  916MPD2     C13459   0.099   3.360  15.967 -0.5373  0.5148 -0.1339
  916MPD2    C113460   0.046   3.242  16.027 -0.2255 -0.8098 -0.0282
  916MPD2    C213461   0.059   3.117  15.968 -0.0566  0.0258 -0.9441
  916MPD2    C313462   0.113   3.110  15.837 -0.0781  0.2773  0.4505
  916MPD2    C413463   0.155   3.221  15.776 -0.1378 -0.0200  0.5380
  916MPD2    C513464   0.147   3.344  15.837  0.0973 -0.6502  1.2210
  916MPD2     H13465   0.030   3.022  16.012  4.7369 -2.0121 -2.1065
  916MPD2    H113466   0.180   3.214  15.671 -0.8785 -1.2689  0.4363
  916MPD2    H213467   0.094   3.457  16.016  1.9787 -1.7489  4.5859
  916MPD2    H313468   0.174   3.433  15.782 -0.6016  0.1327  2.1447
  916MPD2     N13469   0.114   2.979  15.781  0.0062 -0.0233  0.6498
  916MPD2    H513470   0.096   2.909  15.853 -0.4211  0.8296  1.3695
  916MPD2    N113471   0.004   3.264  16.159  0.0252  0.0223  0.3244
  916MPD2    H713472   0.019   3.357  16.198  0.9878  0.6599 -1.6036
  917MPD2     C13473   0.324   0.177  11.774  0.3293 -0.3760  0.2888
  917MPD2    C113474   0.339   0.267  11.882  0.0692  0.2783 -0.0214
  917MPD2    C213475   0.348   0.406  11.868  0.0425  0.7469 -0.5797
  917MPD2    C313476   0.352   0.459  11.738 -0.1855 -0.3909 -0.6236
  917MPD2    C413477   0.346   0.376  11.625 -0.3383 -0.2286  0.2172
  917MPD2    C513478   0.316   0.238  11.648  0.4111 -0.6154  0.0510
  917MPD2     H13479   0.362   0.471  11.954 -0.2937 -1.6600  1.3105
  917MPD2    H113480   0.345   0.418  11.525  2.7331  1.7345  1.0022
  917MPD2    H213481   0.323   0.071  11.792 -0.6018 -0.7190 -1.7161
  917MPD2    H313482   0.301   0.171  11.565 -0.0240 -0.0531 -0.3235
  917MPD2     N13483   0.374   0.593  11.709 -0.7524  0.3430  0.6584
  917MPD2    H513484   0.378   0.617  11.611 -0.1535  1.6171  0.9898
  917MPD2    N113485   0.328   0.207  12.016 -0.1694 -0.0267 -0.3117
  917MPD2    H713486   0.322   0.106  12.019  4.0188 -0.3153 -0.7744
  918MPD2     C13487   0.176   0.745  12.852  0.0797  0.5389  0.3728
  918MPD2    C113488   0.260   0.760  12.739  0.0125  0.2788 -0.9610
  918MPD2    C213489   0.268   0.662  12.651  0.0844  0.5349  0.2041
  918MPD2    C313490   0.198   0.543  12.669 -0.0841  0.1129  0.5606
  918MPD2    C413491   0.125   0.526  12.784  0.0391  0.1419  0.2156
  918MPD2    C513492   0.113   0.626  12.874  0.2764  0.0731  0.7526
  918MPD2     H13493   0.343   0.667  12.573 -0.4128  0.6643 -0.2645
  918MPD2    H113494   0.069   0.435  12.801  1.6907 -0.9714 -0.2849
  918MPD2    H213495   0.154   0.824  12.922  0.7551  0.0764  1.1104
  918MPD2    H313496   0.043   0.611  12.955 -1.0658  2.2194 -0.0165
  918MPD2     N13497   0.237   0.435  12.592  0.6328  0.2181  0.2133
  918MPD2    H513498   0.306   0.448  12.519 -0.8940  0.5660 -1.1715
  918MPD2    N113499   0.351   0.869  12.714  0.1433  0.1442 -0.2334
  918MPD2    H713500   0.411   0.859  12.633 -2.2521  0.7339 -2.0872
  919MPD2     C13501   1.018   4.121  12.207 -0.5321 -0.5813 -0.4709
  919MPD2    C113502   1.053   4.050  12.097  0.4087  0.3927  0.7417
  919MPD2    C213503   1.004   4.093  11.979  0.5543  0.3786  0.4877
  919MPD2    C313504   0.929   4.208  11.964  0.8517  0.5645  0.1830
  919MPD2    C413505   0.899   4.280  12.078 -0.0954 -0.6893  0.2731
  919MPD2    C513506   0.946   4.237  12.192 -0.3388 -0.0183 -1.0101
  919MPD2     H13507   1.052   4.047  11.893 -1.6378  1.7456 -1.4684
  919MPD2    H113508   0.855   4.379  12.075  0.3060 -0.5415 -0.7706
  919MPD2    H213509   1.039   4.082  12.306 -0.1916 -0.0696 -0.3427
  919MPD2    H313510   0.906   4.282  12.282  2.3639  0.6018 -0.1089
  919MPD2     N13511   0.879   4.254  11.842  0.0046  0.0243 -0.0441
  919MPD2    H513512   0.830   4.343  11.841 -0.6944 -0.3143  2.1376
  919MPD2    N113513   1.140   3.933  12.107 -0.3550 -0.1530  0.2064
  919MPD2    H713514   1.148   3.882  12.020 -0.5923 -2.7318  1.7116
  920MPD2     C13515   1.032   3.860  10.922 -0.3263  0.2425 -0.6745
  920MPD2    C113516   0.957   3.969  10.892  0.0935 -0.4330 -0.3609
  920MPD2    C213517   0.918   4.053  10.996 -0.4231 -0.6435  0.6595
  920MPD2    C313518   0.960   4.024  11.128 -0.0754 -0.4112 -0.4116
  920MPD2    C413519   1.031   3.911  11.152  0.4691 -0.3779 -0.5026
  920MPD2    C513520   1.072   3.826  11.051  0.7155 -0.4771  0.6055
  920MPD2     H13521   0.857   4.141  10.980  1.5965  0.5415 -0.4728
  920MPD2    H113522   1.057   3.886  11.254  2.3318  0.1022 -0.8671
  920MPD2    H213523   1.076   3.802  10.842 -0.7768  0.4002 -1.0364
  920MPD2    H313524   1.134   3.739  11.069  1.8159  0.0775 -0.4431
  920MPD2     N13525   0.925   4.105  11.238 -0.0583 -0.7426  0.0098
  920MPD2    H513526   0.979   4.088  11.323  0.7371 -1.9570 -0.7419
  920MPD2    N113527   0.924   4.006  10.753  0.0262  0.2819 -0.1608
  920MPD2    H713528   0.882   4.098  10.744  1.5036  1.1999  2.3516
  921MPD2     C13529   1.962   3.867  16.915 -0.0103 -0.1776  0.3121
  921MPD2    C113530   1.940   3.786  16.808  0.3152  0.1116  0.4102
  921MPD2    C213531   1.835   3.689  16.814  0.0433  0.2831  0.0804
  921MPD2    C313532   1.754   3.667  16.920  0.4857 -0.1661 -0.0655
  921MPD2    C413533   1.775   3.749  17.026 -0.3676  0.5772  0.0313
  921MPD2    C513534   1.877   3.846  17.028  0.4745 -0.2061 -0.2019
  921MPD2     H13535   1.822   3.626  16.727 -2.4236 -1.2381  1.5244
  921MPD2    H113536   1.724   3.731  17.120  1.6160  0.9506  1.1815
  921MPD2    H213537   2.034   3.947  16.921 -1.6930  1.4006 -0.5151
  921MPD2    H313538   1.883   3.903  17.120 -0.5604 -0.7769  0.2200
  921MPD2     N13539   1.637   3.581  16.915  0.2880  0.2483 -0.2959
  921MPD2    H513540   1.567   3.602  16.985  0.1743 -0.5071 -0.1782
  921MPD2    N113541   2.034   3.798  16.696  0.6310 -0.2578  0.0795
  921MPD2    H713542   2.094   3.880  16.693 -1.3187  1.1508 -0.8245
  922MPD2     C13543   2.982   1.269  17.419 -0.3941 -0.3647  0.2423
  922MPD2    C113544   2.955   1.348  17.522  0.4142 -0.0703 -0.0017
  922MPD2    C213545   2.835   1.347  17.588  0.2669 -0.1861 -0.7623
  922MPD2    C313546   2.733   1.267  17.533  0.4387  0.4736 -0.7868
  922MPD2    C413547   2.768   1.182  17.427 -0.0146 -0.0847  0.3062
  922MPD2    C513548   2.887   1.189  17.368  0.3071 -0.3220 -0.1820
  922MPD2     H13549   2.823   1.399  17.683  0.9874 -1.0496 -0.2004
  922MPD2    H113550   2.697   1.106  17.398 -1.8957  1.6171  0.4392
  922MPD2    H213551   3.084   1.264  17.381 -0.5698  0.8489 -0.3915
  922MPD2    H313552   2.902   1.133  17.276  1.0493 -1.3054  0.5273
  922MPD2     N13553   2.606   1.267  17.594  0.6604  0.4470 -0.4930
  922MPD2    H513554   2.605   1.323  17.678  1.3500 -0.5545  0.1728
  922MPD2    N113555   3.049   1.443  17.573  0.7269  0.1817  0.5941
  922MPD2    H713556   3.020   1.494  17.656 -0.9707  0.2093 -0.0010
  923MPD2     C13557   3.831   3.263   9.366  0.0056  0.2276  0.1469
  923MPD2    C113558   3.846   3.368   9.460  0.2281 -0.1700  0.4970
  923MPD2    C213559   3.924   3.351   9.573 -0.7181  1.0458 -0.1800
  923MPD2    C313560   3.978   3.229   9.605  0.0835 -0.2315  0.0401
  923MPD2    C413561   3.949   3.123   9.513 -0.3258 -0.4856  0.0576
  923MPD2    C513562   3.889   3.147   9.393  0.0990 -0.0365 -0.0381
  923MPD2     H13563   3.960   3.438   9.627  0.8396  0.7699 -0.7623
  923MPD2    H113564   3.991   3.024   9.522  0.0855 -0.3035  0.1374
  923MPD2    H213565   3.771   3.274   9.277 -0.9297  1.1678  0.9059
  923MPD2    H313566   3.877   3.067   9.320 -0.1864 -1.6975  1.8230
  923MPD2     N13567   4.065   3.225   9.715 -0.0400  0.4440 -0.1194
  923MPD2    H513568   4.082   3.310   9.767  1.7348  0.9686 -1.5514
  923MPD2    N113569   3.788   3.494   9.423 -0.6726 -0.3004 -0.3200
  923MPD2    H713570   3.728   3.495   9.341 -0.7890  0.9561 -0.2222
  924MPD2     C13571   3.957   1.310  16.187 -0.2878  0.0923  0.7429
  924MPD2    C113572   3.918   1.329  16.320 -0.4456 -0.0611 -0.3665
  924MPD2    C213573   3.928   1.456  16.379  0.3267 -0.0542 -0.0078
  924MPD2    C313574   3.980   1.555  16.306 -0.6417  0.1545 -0.4594
  924MPD2    C413575   4.026   1.535  16.180 -0.0210 -0.4560 -0.0487
  924MPD2    C513576   4.011   1.412  16.121  0.4209  0.0708  0.4444
  924MPD2     H13577   3.889   1.480  16.477 -1.7598 -1.3729 -0.5181
  924MPD2    H113578   4.076   1.609  16.119 -3.4525  1.8889  0.0248
  924MPD2    H213579   3.963   1.208  16.152  0.5163  0.2029  0.5686
  924MPD2    H313580   4.052   1.391  16.023 -2.1456 -0.5132 -0.5101
  924MPD2     N13581   3.992   1.685  16.363 -0.2403 -0.4413 -0.1214
  924MPD2    H513582   3.999   1.762  16.298  1.0379 -0.7528 -0.3637
  924MPD2    N113583   3.850   1.222  16.381  0.0634  0.5171 -0.7166
  924MPD2    H713584   3.826   1.137  16.331 -1.7577  0.8385 -0.4045
  925MPD2     C13585   1.971   4.033  14.616 -0.0510 -0.3096 -0.3324
  925MPD2    C113586   2.054   3.920  14.607 -0.3028 -0.3240  0.5167
  925MPD2    C213587   2.066   3.841  14.723 -0.3900 -0.4969  0.0744
  925MPD2    C313588   2.000   3.874  14.842  0.3880  0.6638  0.2949
  925MPD2    C413589   1.923   3.996  14.849 -0.1886 -0.7904 -0.4159
  925MPD2    C513590   1.912   4.073  14.734 -0.0308 -0.8145  0.1804
  925MPD2     H13591   2.123   3.750  14.710 -1.9617 -1.5807  0.8244
  925MPD2    H113592   1.864   4.020  14.937  2.0329 -1.0764  1.1669
  925MPD2    H213593   1.953   4.094  14.528 -3.4999  0.5875  1.0048
  925MPD2    H313594   1.843   4.156  14.730 -1.3180 -1.8422  0.9455
  925MPD2     N13595   2.005   3.801  14.962 -0.6987  0.5813 -0.1220
  925MPD2    H513596   1.954   3.845  15.039  0.4904  0.9251  0.4709
  925MPD2    N113597   2.123   3.892  14.488  0.5816  0.9832 -0.1947
  925MPD2    H713598   2.177   3.806  14.493 -0.2807  0.4615  0.0243
  926MPD2     C13599   1.373   2.215  13.943 -0.6142 -0.3367  0.5613
  926MPD2    C113600   1.329   2.298  13.843  0.8665  0.3212 -0.2935
  926MPD2    C213601   1.403   2.322  13.731  0.6191 -0.2074  0.7425
  926MPD2    C313602   1.515   2.244  13.715 -0.5854  0.5987  0.1547
  926MPD2    C413603   1.561   2.157  13.811 -0.2938  1.0750 -0.3700
  926MPD2    C513604   1.490   2.145  13.929 -0.0070  0.2650 -0.2959
  926MPD2     H13605   1.375   2.387  13.649  0.5433  0.8379  1.5964
  926MPD2    H113606   1.655   2.105  13.801  0.0045  1.3453  0.9738
  926MPD2    H213607   1.315   2.190  14.032 -2.1085 -0.8830 -0.5605
  926MPD2    H313608   1.534   2.085  14.008  2.8554  1.9147 -0.6364
  926MPD2     N13609   1.590   2.268  13.596 -0.1431  0.0623 -0.1618
  926MPD2    H513610   1.685   2.232  13.590 -0.6738 -1.1370 -1.4672
  926MPD2    N113611   1.211   2.376  13.844  0.0176 -0.0095  0.3982
  926MPD2    H713612   1.212   2.439  13.764  0.9497 -2.6070 -1.6159
  927MPD2     C13613   0.670   4.541   0.426 -0.0234  0.3202  0.3053
  927MPD2    C113614   0.790   4.605   0.444 -0.4471  0.0270 -0.2406
  927MPD2    C213615   0.897   4.583   0.353 -0.1270  0.6541 -0.0834
  927MPD2    C313616   0.865   4.514   0.237 -0.3672 -0.0368 -0.2727
  927MPD2    C413617   0.743   4.447   0.228 -0.6247 -0.4265 -0.3770
  927MPD2    C513618   0.644   4.463   0.317 -0.0638  0.3150 -0.0993
  927MPD2     H13619   0.992   4.634   0.366 -0.8050  1.7737  0.5073
  927MPD2    H113620   0.713   4.395   0.138  0.9220 -0.4256 -0.8875
  927MPD2    H213621   0.589   4.573   0.490  2.0106  2.1162  1.9848
  927MPD2    H313622   0.550   4.413   0.300 -0.4552 -0.3970  4.2219
  927MPD2     N13623   0.966   4.513   0.142  0.1578 -0.1044 -0.7254
  927MPD2    H513624   1.047   4.573   0.155 -0.2301  0.0180  1.2174
  927MPD2    N113625   0.799   4.681   0.560  0.2123 -0.1335 -0.2261
  927MPD2    H713626   0.713   4.678   0.614  0.8273 -0.3232  0.7400
  928MPD2     C13627   3.671   3.204   1.537  0.5475 -0.0035  0.2675
  928MPD2    C113628   3.777   3.284   1.587 -0.5336  0.4630 -0.2991
  928MPD2    C213629   3.875   3.322   1.496  0.1953  0.1966  1.3348
  928MPD2    C313630   3.863   3.280   1.361 -0.1257 -0.7149 -0.5264
  928MPD2    C413631   3.765   3.192   1.325  0.9843  0.1552  0.0516
  928MPD2    C513632   3.663   3.156   1.412 -0.6135  0.3773 -0.3956
  928MPD2     H13633   3.963   3.379   1.526  0.7847 -0.3146  0.5666
  928MPD2    H113634   3.766   3.162   1.220 -0.6117 -0.3026  0.1664
  928MPD2    H213635   3.594   3.176   1.608  1.5472  0.2112  1.4453
  928MPD2    H313636   3.575   3.105   1.373 -0.3023 -0.0258 -0.5732
  928MPD2     N13637   3.939   3.335   1.255  0.2282  0.3710 -0.4337
  928MPD2    H513638   3.909   3.300   1.165 -0.5626  0.0169 -0.0365
  928MPD2    N113639   3.787   3.307   1.722  0.4622 -0.1176  0.6338
  928MPD2    H713640   3.700   3.283   1.769  0.7617 -3.1943 -0.3946
  929MPD2     C13641   3.578   3.255  10.463  0.5418  0.5101  0.5734
  929MPD2    C113642   3.491   3.182  10.385  0.0461  0.1745  0.1958
  929MPD2    C213643   3.445   3.238  10.267 -1.2917 -0.0311 -0.1609
  929MPD2    C313644   3.491   3.371  10.232 -0.4859 -0.3566  0.1785
  929MPD2    C413645   3.579   3.431  10.312 -0.8467  0.3334 -0.2913
  929MPD2    C513646   3.625   3.378  10.432 -0.2642  0.3085 -0.3982
  929MPD2     H13647   3.360   3.194  10.216 -2.1215 -0.7808  1.8558
  929MPD2    H113648   3.623   3.525  10.282 -1.2180  0.9232  1.0037
  929MPD2    H213649   3.613   3.223  10.561  1.0508 -0.4529  0.0780
  929MPD2    H313650   3.688   3.431  10.502 -0.0227 -0.7197  0.1644
  929MPD2     N13651   3.445   3.441  10.116 -0.5289  0.4650 -0.0913
  929MPD2    H513652   3.475   3.538  10.113  2.3869 -0.3999  0.9675
  929MPD2    N113653   3.437   3.058  10.432  0.5134 -0.5417 -0.0941
  929MPD2    H713654   3.457   3.031  10.528  1.8507 -1.6107 -0.6637
  930MPD2     C13655   0.712   0.392  13.610 -0.6364 -0.9015  0.0859
  930MPD2    C113656   0.833   0.346  13.646  0.4328 -0.0527 -0.2368
  930MPD2    C213657   0.943   0.377  13.563 -0.4584  0.4791  0.3862
  930MPD2    C313658   0.929   0.466  13.455 -0.5939 -0.2186 -0.5618
  930MPD2    C413659   0.802   0.511  13.425  0.2251  0.5771 -0.3962
  930MPD2    C513660   0.698   0.476  13.508 -0.2977  0.5933 -0.6030
  930MPD2     H13661   1.038   0.332  13.590 -0.2434  0.6281 -0.1199
  930MPD2    H113662   0.771   0.573  13.342 -1.2877 -1.2791 -1.2162
  930MPD2    H213663   0.628   0.384  13.678 -0.2125 -1.6822  0.5146
  930MPD2    H313664   0.599   0.521  13.502 -1.5807 -1.8776  1.9744
  930MPD2     N13665   1.034   0.507  13.368  0.2254  0.4860  0.6927
  930MPD2    H513666   1.013   0.580  13.300 -1.1876  0.6145  1.2765
  930MPD2    N113667   0.837   0.277  13.768 -0.1978  0.0129  0.8870
  930MPD2    H713668   0.753   0.269  13.824 -0.9458  0.2651 -0.1970
  931MPD2     C13669   1.470   0.062   0.905 -0.5568 -0.2688  1.0135
  931MPD2    C113670   1.356   0.009   0.969 -0.4361  0.4474 -0.0449
  931MPD2    C213671   1.380   4.639   1.056  0.1118 -0.4259 -0.0295
  931MPD2    C313672   1.504   4.588   1.074 -0.2454  0.0765  0.5936
  931MPD2    C413673   1.611   4.640   1.012 -0.0331 -0.2857 -0.6863
  931MPD2    C513674   1.596   0.006   0.925  0.0292  0.3167  0.3468
  931MPD2     H13675   1.288   4.592   1.089  0.6205 -0.2715  1.6092
  931MPD2    H113676   1.707   4.590   1.003  1.0782  1.8529 -0.8298
  931MPD2    H213677   1.456   0.148   0.842 -0.3877 -1.3710 -0.5185
  931MPD2    H313678   1.682   0.055   0.880 -0.4812  1.9828  1.1939
  931MPD2     N13679   1.528   4.471   1.160  0.7796 -0.1251 -0.0295
  931MPD2    H513680   1.624   4.443   1.171  1.2957  1.2975 -0.8994
  931MPD2    N113681   1.228   0.050   0.934  1.0658 -0.6963  0.9517
  931MPD2    H713682   1.218   0.124   0.865 -2.7194 -0.9625  1.2091
  932MPD2     C13683   3.099   3.009  11.592  0.0678  0.2694  0.3563
  932MPD2    C113684   3.116   3.088  11.704  0.1858 -0.1323 -0.9339
  932MPD2    C213685   3.110   3.017  11.823  0.8635  0.2246  0.3826
  932MPD2    C313686   3.075   2.885  11.839  0.6200  0.0337  0.2016
  932MPD2    C413687   3.058   2.817  11.722  0.2040 -0.7958 -0.1289
  932MPD2    C513688   3.077   2.883  11.601  0.3413 -0.1113 -0.0071
  932MPD2     H13689   3.122   3.072  11.916 -0.9796 -1.7120  1.7583
  932MPD2    H113690   3.032   2.712  11.723 -0.0937 -0.7267 -0.5969
  932MPD2    H213691   3.110   3.045  11.490 -0.3041 -0.7457 -0.0360
  932MPD2    H313692   3.065   2.846  11.500  3.3095  1.2990 -0.8673
  932MPD2     N13693   3.075   2.805  11.957  0.2848 -0.0193 -0.3403
  932MPD2    H513694   3.039   2.711  11.950 -2.6689  1.0178  0.5967
  932MPD2    N113695   3.127   3.230  11.709 -0.0141  0.1196 -0.3477
  932MPD2    H713696   3.121   3.270  11.802 -0.8683 -1.5769  0.3422
  933MPD2     C13697   3.487   3.278   2.508 -0.2558  0.3852  0.5689
  933MPD2    C113698   3.484   3.271   2.368  0.6968 -0.4649  0.6115
  933MPD2    C213699   3.363   3.251   2.301  0.1623  0.3686  0.1184
  933MPD2    C313700   3.258   3.203   2.374  0.0168 -0.4296 -0.3379
  933MPD2    C413701   3.257   3.210   2.514  0.1364  0.1261 -1.4788
  933MPD2    C513702   3.373   3.244   2.576  0.3866  0.6269 -0.4787
  933MPD2     H13703   3.358   3.256   2.193 -1.0824  0.2803  0.1762
  933MPD2    H113704   3.174   3.177   2.575  0.2292  1.2816 -0.7321
  933MPD2    H213705   3.575   3.302   2.566  0.4821 -0.2905 -0.2628
  933MPD2    H313706   3.375   3.257   2.683  0.3168  0.9976 -0.5246
  933MPD2     N13707   3.154   3.155   2.298 -0.3248  0.3293 -0.2811
  933MPD2    H513708   3.178   3.158   2.200 -1.5140 -0.1306 -0.5929
  933MPD2    N113709   3.603   3.305   2.297 -0.3167  0.1139 -0.1659
  933MPD2    H713710   3.687   3.311   2.353 -0.3632 -3.2574  0.2927
  934MPD2     C13711   0.116   0.332   2.755  0.4416  0.1414 -0.5774
  934MPD2    C113712   0.177   0.233   2.692  0.0324  0.1150 -0.2794
  934MPD2    C213713   0.132   0.206   2.569  0.6560  0.6412  0.5828
  934MPD2    C313714   0.036   0.287   2.495  0.6435 -0.8091  0.1852
  934MPD2    C413715   4.719   0.395   2.561 -0.4803  0.2624  0.3471
  934MPD2    C513716   0.026   0.412   2.694  0.5719 -0.0218 -0.2178
  934MPD2     H13717   0.176   0.123   2.515  0.0897 -0.6601  2.1459
  934MPD2    H113718   4.649   0.461   2.511  0.0503  1.3851  1.0815
  934MPD2    H213719   0.139   0.356   2.858  2.1987 -0.5860 -0.8083
  934MPD2    H313720   4.726   0.490   2.761  1.4331 -1.1144  1.4692
  934MPD2     N13721   4.724   0.261   2.365  0.1257 -0.1336 -0.0802
  934MPD2    H513722   4.669   0.336   2.325  0.4655  1.2980  2.1851
  934MPD2    N113723   0.281   0.159   2.743  0.2314  0.4225 -0.4320
  934MPD2    H713724   0.325   0.097   2.677 -0.3925  0.0898 -0.5373
  935MPD2     C13725   0.644   4.643   1.711  0.2116  0.1076  0.0072
  935MPD2    C113726   0.532   4.654   1.638 -1.0379 -0.4565 -0.4692
  935MPD2    C213727   0.426   4.716   1.698 -1.0018 -0.0444  0.9296
  935MPD2    C313728   0.433   0.033   1.834  0.3775  0.2453 -0.3860
  935MPD2    C413729   0.558   0.039   1.896 -0.5836  0.5464 -0.2446
  935MPD2    C513730   0.657   4.700   1.834  0.5102  0.3989  0.5574
  935MPD2     H13731   0.336   4.728   1.639  0.4819  1.2229 -1.0912
  935MPD2    H113732   0.594   0.088   1.986 -1.1562  1.8874 -0.7592
  935MPD2    H213733   0.729   4.584   1.680  0.2547 -0.8998  2.0575
  935MPD2    H313734   0.751   4.689   1.886  1.3972 -0.0213 -1.1507
  935MPD2     N13735   0.322   0.086   1.902  0.4271 -0.4592 -0.1100
  935MPD2    H513736   0.325   0.109   2.001  1.5172  0.2153 -0.2981
  935MPD2    N113737   0.513   4.590   1.517  0.4789  0.1953 -0.3064
  935MPD2    H713738   0.420   4.601   1.478  0.0008  3.1139  1.6151
  936MPD2     C13739   3.260   2.229  12.149 -0.5586 -0.3582  0.1030
  936MPD2    C113740   3.330   2.210  12.264  0.2605  0.1521 -0.3598
  936MPD2    C213741   3.438   2.287  12.295 -0.1341  0.1655 -0.0963
  936MPD2    C313742   3.487   2.385  12.212 -0.4478 -0.2964 -0.5692
  936MPD2    C413743   3.414   2.410  12.095  0.0200  0.5346  0.0290
  936MPD2    C513744   3.302   2.336  12.071 -0.9285  0.4518  0.5221
  936MPD2     H13745   3.491   2.260  12.386 -0.2644  0.4280  0.0567
  936MPD2    H113746   3.441   2.486  12.023  1.1482  0.5062  0.4295
  936MPD2    H213747   3.169   2.171  12.136 -0.5477 -0.2068 -0.6223
  936MPD2    H313748   3.235   2.353  11.988  1.3207  1.3010 -1.1032
  936MPD2     N13749   3.608   2.454  12.237 -0.2334 -0.5889 -0.4471
  936MPD2    H513750   3.625   2.530  12.172  1.6039  0.5483  1.3821
  936MPD2    N113751   3.307   2.102  12.350 -0.5781 -0.5907 -0.1615
  936MPD2    H713752   3.373   2.093  12.426 -0.6025 -0.0537 -0.0765
  937MPD2     C13753   1.299   3.407  11.662  0.3063  0.2745 -0.4176
  937MPD2    C113754   1.369   3.504  11.728  0.8224 -0.2580 -0.3764
  937MPD2    C213755   1.472   3.565  11.656  0.4055  0.1643 -0.9099
  937MPD2    C313756   1.504   3.534  11.522  0.0305 -0.2493  0.0347
  937MPD2    C413757   1.438   3.424  11.470 -0.0129  0.0014  0.3713
  937MPD2    C513758   1.339   3.366  11.537 -0.3961 -0.1890 -0.1067
  937MPD2     H13759   1.506   3.659  11.700  0.7829 -0.4830  0.1703
  937MPD2    H113760   1.466   3.381  11.374 -1.2467  1.2608 -0.5678
  937MPD2    H213761   1.208   3.361  11.699  0.5929  1.5620  1.9083
  937MPD2    H313762   1.280   3.287  11.491 -1.0430  0.2927 -0.1097
  937MPD2     N13763   1.583   3.630  11.458  0.5777  0.3560  0.1783
  937MPD2    H513764   1.622   3.706  11.512  2.0491  0.2981 -0.7804
  937MPD2    N113765   1.321   3.554  11.852 -0.0628 -0.4022 -0.4677
  937MPD2    H713766   1.371   3.633  11.891  0.4940 -1.6561  1.3421
  938MPD2     C13767   3.806   0.031   0.740  1.1551  0.0624  0.9627
  938MPD2    C113768   3.855   0.044   0.873  0.4111 -0.3468 -0.1470
  938MPD2    C213769   3.874   4.669   0.951 -0.2448 -0.7626  0.0360
  938MPD2    C313770   3.843   4.541   0.895 -0.2615 -0.2736 -0.2148
  938MPD2    C413771   3.808   4.529   0.766 -0.5612 -0.1717  0.0973
  938MPD2    C513772   3.785   4.644   0.696  0.3591 -0.3785 -0.6699
  938MPD2     H13773   3.895   4.678   1.057  0.9625  0.2995 -0.2996
  938MPD2    H113774   3.808   4.432   0.717  0.6783  0.2832 -0.8067
  938MPD2    H213775   3.780   0.113   0.674  0.2562  0.8624  2.3198
  938MPD2    H313776   3.743   4.635   0.596 -0.8893  1.9070 -0.3394
  938MPD2     N13777   3.819   4.429   0.976 -0.3857 -0.5892  0.4182
  938MPD2    H513778   3.770   4.353   0.929  2.1012 -0.9410 -1.5753
  938MPD2    N113779   3.893   0.172   0.921  0.2528  0.3582  0.0241
  938MPD2    H713780   3.922   0.173   1.018 -1.8842  2.5454  0.6385
  939MPD2     C13781   0.393   0.738   0.872  0.2882 -0.1398  0.0204
  939MPD2    C113782   0.388   0.876   0.882 -0.1199 -0.3935 -0.3455
  939MPD2    C213783   0.425   0.955   0.771 -0.1582  0.2187  0.2203
  939MPD2    C313784   0.465   0.895   0.645 -0.3791 -0.6330 -0.2242
  939MPD2    C413785   0.460   0.757   0.642 -0.1528 -0.3964  0.3227
  939MPD2    C513786   0.428   0.684   0.751  0.4105  0.2085 -0.3828
  939MPD2     H13787   0.401   1.059   0.757  0.9730  0.6702  1.7025
  939MPD2    H113788   0.480   0.699   0.552  2.3557  0.8544  0.0842
  939MPD2    H213789   0.351   0.668   0.944  1.6437 -2.3894 -1.3709
  939MPD2    H313790   0.416   0.576   0.749  1.3694  0.1355 -1.9831
  939MPD2     N13791   0.499   0.985   0.536 -0.0875 -0.4022 -0.0477
  939MPD2    H513792   0.505   1.083   0.562  3.9782 -0.1489 -1.8632
  939MPD2    N113793   0.318   0.939   0.991  0.3634  0.1023  0.3714
  939MPD2    H713794   0.261   0.883   1.054 -0.0547 -1.2639 -1.2160
  940MPD2     C13795   3.291   2.397  13.242 -0.5858 -0.0584 -0.3207
  940MPD2    C113796   3.355   2.371  13.359 -0.0494  0.2939 -0.2781
  940MPD2    C213797   3.471   2.291  13.356 -0.1680 -0.4526 -0.5438
  940MPD2    C313798   3.519   2.236  13.235  0.4925 -0.1184 -0.1431
  940MPD2    C413799   3.453   2.274  13.121 -0.2159  0.2201 -0.3121
  940MPD2    C513800   3.340   2.348  13.129  0.2111  0.0777 -0.2802
  940MPD2     H13801   3.515   2.249  13.446 -0.2422  1.4674  0.4066
  940MPD2    H113802   3.482   2.229  13.027  0.8851 -1.1633  0.6803
  940MPD2    H213803   3.188   2.430  13.250 -1.4032 -2.1449 -2.1527
  940MPD2    H313804   3.284   2.359  13.037  1.8199  0.2946 -1.2306
  940MPD2     N13805   3.626   2.145  13.233 -0.2181 -0.3455 -0.2089
  940MPD2    H513806   3.642   2.119  13.136  3.0366 -0.0637  0.2519
  940MPD2    N113807   3.312   2.410  13.488  0.9233  0.0154  0.2381
  940MPD2    H713808   3.367   2.373  13.564  2.3003  0.0509 -0.7549
  941MPD2     C13809   2.915   1.581   9.938 -0.6548 -0.1185 -0.4723
  941MPD2    C113810   2.993   1.573  10.049  0.1784  0.1251  0.2404
  941MPD2    C213811   2.966   1.465  10.128  0.2839  0.1870  0.3228
  941MPD2    C313812   2.866   1.381  10.103 -0.0616  0.3744  0.8203
  941MPD2    C413813   2.795   1.388   9.986 -0.6998  0.4945 -0.7141
  941MPD2    C513814   2.824   1.486   9.900 -0.6932  0.0288  0.2843
  941MPD2     H13815   3.033   1.449  10.212  1.5830  0.7235 -0.6077
  941MPD2    H113816   2.711   1.321   9.971  0.2689 -1.0636  0.7503
  941MPD2    H213817   2.916   1.663   9.866 -0.5508 -0.0255 -0.3644
  941MPD2    H313818   2.764   1.495   9.810 -0.0472 -3.5811 -0.4894
  941MPD2     N13819   2.822   1.286  10.198  0.3045  0.2038 -0.0232
  941MPD2    H513820   2.729   1.247  10.188  0.3987  0.2213 -0.9643
  941MPD2    N113821   3.091   1.672  10.068  0.4622 -0.2540  0.3380
  941MPD2    H713822   3.137   1.682  10.158  1.1823 -0.3309 -0.0217
  942MPD2     C13823   2.132   3.662   8.987 -0.4397 -0.9440  0.2645
  942MPD2    C113824   2.205   3.670   9.106  0.0648 -0.1775 -0.4551
  942MPD2    C213825   2.335   3.637   9.107 -0.1031 -0.2688 -0.2767
  942MPD2    C313826   2.404   3.595   8.994  0.0859 -0.5946  0.0716
  942MPD2    C413827   2.331   3.589   8.874  0.2271  0.1957  0.1073
  942MPD2    C513828   2.201   3.617   8.876 -1.0233  0.7087  0.7422
  942MPD2     H13829   2.392   3.651   9.199  0.2853 -1.7247 -0.3005
  942MPD2    H113830   2.373   3.553   8.781  0.2544  1.6840 -0.4567
  942MPD2    H213831   2.025   3.678   8.989 -0.3612 -0.2774 -1.1658
  942MPD2    H313832   2.143   3.590   8.788  0.5194 -0.6034  0.1297
  942MPD2     N13833   2.541   3.564   9.000 -0.7923  0.3645 -0.1351
  942MPD2    H513834   2.573   3.521   8.913 -0.0238 -2.3292  1.4816
  942MPD2    N113835   2.148   3.718   9.218  0.3641  0.0422  0.2548
  942MPD2    H713836   2.207   3.715   9.300  0.7039  1.1210  0.0518
  943MPD2     C13837   1.712   1.564  10.106  0.0779  0.5086  0.4279
  943MPD2    C113838   1.680   1.440  10.162 -0.7118  0.1711  0.5188
  943MPD2    C213839   1.694   1.429  10.297  0.5086 -0.0347 -0.5156
  943MPD2    C313840   1.742   1.529  10.375 -0.0447 -0.2394  0.8610
  943MPD2    C413841   1.796   1.642  10.316  0.7673  0.5705 -0.2281
  943MPD2    C513842   1.779   1.657  10.181  0.9593 -0.3258  0.9749
  943MPD2     H13843   1.663   1.337  10.345 -1.2185  1.0069  0.3652
  943MPD2    H113844   1.828   1.725  10.378  0.6728  1.0176 -0.7750
  943MPD2    H213845   1.697   1.582  10.000  3.0239  0.9862  0.1094
  943MPD2    H313846   1.799   1.755  10.139 -3.5363 -0.3630 -1.3117
  943MPD2     N13847   1.750   1.526  10.509 -0.5525 -0.3730  0.8553
  943MPD2    H513848   1.784   1.609  10.556 -0.7709  0.6003 -0.6964
  943MPD2    N113849   1.633   1.341  10.071 -0.4944  0.3789  0.4778
  943MPD2    H713850   1.653   1.354   9.973  1.0484  0.5247  0.8051
  944MPD2     C13851   1.763   0.250  12.131 -0.6484  0.2105 -0.2781
  944MPD2    C113852   1.755   0.271  11.995 -0.0662  0.1938  0.3473
  944MPD2    C213853   1.647   0.349  11.950 -0.1828 -0.2194 -0.0756
  944MPD2    C313854   1.567   0.424  12.035 -0.4406 -0.2225 -0.7450
  944MPD2    C413855   1.571   0.397  12.170  0.1548 -0.7914  0.2180
  944MPD2    C513856   1.672   0.316  12.216  0.2110 -0.0458  0.3335
  944MPD2     H13857   1.632   0.356  11.843 -2.5637 -0.4551  0.2402
  944MPD2    H113858   1.507   0.444  12.243  1.9751  1.8989  0.0938
  944MPD2    H213859   1.842   0.190  12.174  0.2420  1.7344  0.2311
  944MPD2    H313860   1.692   0.315  12.322 -0.3394  1.5841  0.4500
  944MPD2     N13861   1.481   0.516  11.976 -0.4720  0.5847 -0.2136
  944MPD2    H513862   1.483   0.523  11.875  1.5925  0.0445 -0.2146
  944MPD2    N113863   1.854   0.209  11.917  0.3470 -0.2681  0.1969
  944MPD2    H713864   1.929   0.162  11.966 -0.8230  0.4417  2.6607
    1TMC1    C113865   4.591   2.218  15.704  1.4659 -0.4554 -0.0893
    1TMC1    C213866   4.533   2.108  15.753 -0.7066  0.2622  0.2061
    1TMC1    C313867   4.459   2.123  15.869 -0.4604 -0.0149 -0.1179
    1TMC1    C413868   4.575   2.338  15.765  0.7432  0.4566 -0.2563
    1TMC1    C513869   4.499   2.349  15.882  0.1416  0.1223  0.0838
    1TMC1    C613870   4.432   2.239  15.940  0.2087  0.0444 -0.1888
    1TMC1     C13871   4.620   2.234  15.566  0.4785 -0.4974  0.0549
    1TMC1     O13872   4.678   2.338  15.531  0.7593 -0.3237  0.1819
    1TMC1     H13873   4.533   2.009  15.710  1.6204  0.1524  0.4551
    1TMC1    H113874   4.618   2.427  15.720 -2.7884  1.0377 -2.4914
    1TMC1    H213875   4.381   2.227  16.035 -0.5822  1.8258 -0.3765
    1TMC1    C713876   4.501   2.482  15.950  0.4822  0.2421  0.2754
    1TMC1    C813877   4.401   2.004  15.922  0.5598 -0.0842  0.0759
    1TMC1    O113878   4.550   2.489  16.059  0.2584 -0.1522  0.4803
    1TMC1    O213879   4.370   1.912  15.849 -0.1780  0.3587  0.7383
    1TMC1    O313880   4.511   2.586  15.857 -0.1969 -0.1668 -0.7257
    1TMC1    H313881   4.445   2.571  15.786 -0.9738  0.3003 -0.1072
    1TMC1    O513882   4.448   1.987  16.049 -0.1151  0.0120 -0.1065
    1TMC1    H513883   4.476   2.068  16.096 -0.3477  0.4422 -0.7093
    2MPD2     C13884   4.507   2.177  15.067 -0.1907  0.1702 -0.6946
    2MPD2    C113885   4.432   2.090  15.143  0.0442 -0.1264 -0.2601
    2MPD2    C213886   4.450   2.074  15.281 -0.0557  0.2685 -0.7360
    2MPD2    C313887   4.550   2.149  15.343 -0.7450  0.5674 -0.2844
    2MPD2    C413888   4.625   2.239  15.261  0.0151  0.4947 -0.2425
    2MPD2    C513889   4.608   2.248  15.124 -0.4986  0.2971  0.9512
    2MPD2     H13890   4.393   2.009  15.346 -0.2244  0.7580 -0.3952
    2MPD2    H113891   4.698   2.307  15.304 -0.3834  1.8031 -1.6239
    2MPD2    H213892   4.489   2.181  14.960  1.7003 -1.0921 -1.0734
    2MPD2    H313893   4.671   2.310  15.062 -1.4246  0.2054 -0.0797
    2MPD2     N13894   4.555   2.141  15.487  0.2966  0.3343  0.0258
    2MPD2    H513895   4.498   2.071  15.533  0.7841  0.3655  0.6717
    2MPD2    N113896   4.322   2.031  15.069 -1.0344  0.0513  0.2830
    2MPD2    H713897   4.306   2.052  14.971  0.3398 -2.0753 -0.3903
    3TMC2    C113898   4.137   1.890  15.024 -0.3533 -0.1299 -0.1998
    3TMC2    C213899   4.103   1.760  15.045  0.6016 -0.5175  0.0886
    3TMC2    C313900   4.040   1.702  14.942 -0.4285  0.2411 -0.0968
    3TMC2    C413901   4.126   1.947  14.898  0.4259  0.0599  0.3899
    3TMC2    C513902   4.065   1.884  14.799  0.1899 -0.0813 -0.5193
    3TMC2    C613903   4.022   1.758  14.820  1.4167 -0.3668 -0.0135
    3TMC2     C13904   4.229   1.943  15.121  0.7002  0.6834 -0.0497
    3TMC2     O13905   4.207   1.915  15.239  0.2886  0.1567 -0.0612
    3TMC2     H13906   4.135   1.710  15.136 -2.6065 -0.9538  0.9570
    3TMC2    H113907   4.139   2.055  14.889 -0.3398  0.0933 -0.2672
    3TMC2    H213908   3.983   1.698  14.739  2.4349 -1.4647  0.3054
    3TMC2    C713909   4.014   1.951  14.678 -0.2321 -0.5233  0.3901
    3TMC2    C813910   4.020   1.562  14.953 -0.2464  0.6874  0.0333
    3TMC2    O113911   3.911   1.903  14.629 -0.2880 -0.2864  0.7776
    3TMC2    O213912   4.016   1.495  14.850 -0.5155  0.4979  0.3302
    3TMC2    O513913   3.939   1.544  15.061  0.0109  0.1153  0.1842
    3TMC2    H513914   3.939   1.618  15.125  1.5360  2.3777 -2.4442
    4TMC2    C113915   4.393   2.827  14.291 -0.0983 -0.2568  0.3209
    4TMC2    C213916   4.495   2.873  14.366  0.3352 -0.5820 -0.0797
    4TMC2    C313917   4.555   2.796  14.460  0.0443 -0.5524  0.6410
    4TMC2    C413918   4.336   2.701  14.315 -0.2123 -0.4059  0.0288
    4TMC2    C513919   4.391   2.627  14.420  0.2803  0.2544  0.2974
    4TMC2    C613920   4.506   2.666  14.487  0.6948 -0.0730  0.3361
    4TMC2     C13921   4.381   2.888  14.154 -0.9500 -0.3447  0.3990
    4TMC2     O13922   4.410   3.006  14.137 -0.0583 -0.2462  0.1155
    4TMC2     H13923   4.545   2.966  14.340 -1.2075  0.2607 -0.0502
    4TMC2    H113924   4.237   2.675  14.279 -0.0118 -1.6022  0.3656
    4TMC2    H213925   4.556   2.611  14.566  0.2770 -0.3424  0.4108
    4TMC2    C713926   4.333   2.506  14.468 -0.0429  0.3402  0.1959
    4TMC2    C813927   4.678   2.841  14.524 -0.5800  0.3795  0.0761
    4TMC2    O113928   4.381   2.459  14.571  0.0069 -0.3942  0.2204
    4TMC2    O213929   0.034   2.903  14.473  0.4123  0.4910 -0.3287
    4TMC2    O513930   4.683   2.797  14.654 -0.4905 -0.3425 -0.4167
    4TMC2    H513931   4.596   2.760  14.678 -0.8621 -0.2783 -1.6737
    5MPD2     C13932   4.272   2.896  13.660 -0.4215  0.6665  0.4700
    5MPD2    C113933   4.201   2.786  13.717  0.1405  0.5009  0.2810
    5MPD2    C213934   4.226   2.749  13.851 -0.0868  0.0418 -0.2153
    5MPD2    C313935   4.299   2.838  13.929  0.2814 -0.2994 -0.0477
    5MPD2    C413936   4.374   2.942  13.866  0.0569 -0.6131 -0.0612
    5MPD2    C513937   4.360   2.971  13.733  0.0834 -0.1924  0.2224
    5MPD2     H13938   4.172   2.663  13.887 -1.2142 -0.0052 -1.9962
    5MPD2    H113939   4.447   3.005  13.915 -1.0268  0.3768  0.2779
    5MPD2    H213940   4.263   2.922  13.555 -0.0509 -1.3414 -0.0618
    5MPD2    H313941   4.413   3.056  13.691  0.5390 -1.3412 -1.5578
    5MPD2     N13942   4.312   2.811  14.066  0.1681 -0.4177 -0.1553
    5MPD2    H513943   4.270   2.725  14.098  3.7053 -1.8703  0.5555
    5MPD2    N113944   4.130   2.694  13.635 -0.1934 -0.4942 -0.3094
    5MPD2    H713945   4.082   2.618  13.683 -1.9016  0.2353 -0.8475
    6MPD1     C13946   3.097   3.673  12.731  0.5415  0.5606  0.0048
    6MPD1    C113947   3.004   3.574  12.705 -0.2936 -0.1939  0.3334
    6MPD1    C213948   3.039   3.446  12.733  0.8138  0.0518  0.5024
    6MPD1    C313949   3.164   3.417  12.779 -0.7623  0.4985  0.0219
    6MPD1    C413950   3.256   3.511  12.813  0.1774 -0.5888  0.2488
    6MPD1    C513951   3.220   3.641  12.778  0.5799 -0.0378 -1.2237
    6MPD1     H13952   2.965   3.366  12.727  2.1438 -1.1323 -0.2140
    6MPD1    H113953   3.347   3.485  12.865 -0.1562 -2.6827 -0.2086
    6MPD1    H213954   3.080   3.779  12.719  0.6622  0.7160  1.1807
    6MPD1    H313955   3.291   3.720  12.799  0.7102 -0.9351  1.7447
    6MPD1     N13956   3.206   3.282  12.802 -0.2926  0.2654  0.4259
    6MPD1    H513957   3.299   3.272  12.840 -0.4463 -2.7940 -0.0164
    6MPD1    N113958   2.868   3.603  12.681  0.3193 -0.7952 -0.1099
    6MPD1    H613959   2.847   3.681  12.619  1.9113 -1.3415 -1.3457
    6MPD1    H713960   2.827   3.517  12.645 -3.3623  0.4437  1.1100
    7MPD2     C13961   3.320   2.864  13.483 -0.3377 -0.2360  0.0270
    7MPD2    C113962   3.361   2.800  13.371 -0.9166  0.1869  0.0715
    7MPD2    C213963   3.475   2.721  13.375  0.2232 -0.5791 -0.1669
    7MPD2    C313964   3.530   2.689  13.496 -0.5660 -0.2201  0.1643
    7MPD2    C413965   3.470   2.745  13.613  0.7141  0.3997 -0.1995
    7MPD2    C513966   3.369   2.833  13.602  1.0158  0.1737 -0.0112
    7MPD2     H13967   3.522   2.689  13.283  2.6399  2.3743  0.0256
    7MPD2    H113968   3.495   2.710  13.712 -0.4508  0.3048  0.0626
    7MPD2    H213969   3.255   2.950  13.474 -0.8119 -0.5972 -0.0158
    7MPD2    H313970   3.327   2.875  13.692 -0.3125  2.2120 -1.5780
    7MPD2     N13971   3.655   2.618  13.508  0.5183  0.4119 -0.1145
    7MPD2    H513972   3.693   2.599  13.600  0.2158 -0.4140 -0.1584
    7MPD2    N113973   3.326   2.842  13.241 -0.5676 -0.1693  0.2779
    7MPD2    H713974   3.373   2.792  13.167 -0.6508  0.8127 -0.4309
    8TMC3    C113975   3.846   2.489  13.428 -0.0651 -0.5036 -0.5526
    8TMC3    C213976   3.940   2.564  13.500  0.6079 -0.4391 -0.5217
    8TMC3    C313977   4.053   2.594  13.445 -0.3152  0.1058  0.2602
    8TMC3    C413978   3.877   2.432  13.306 -0.0659 -0.9224  0.1267
    8TMC3    C513979   3.999   2.471  13.253  0.3181 -0.2675  0.0681
    8TMC3    C613980   4.093   2.544  13.320 -0.7244  0.4067 -0.2763
    8TMC3     C13981   3.724   2.565  13.397  0.7476 -0.0483  0.0827
    8TMC3     O13982   3.706   2.569  13.277  0.4102  0.7010  0.1320
    8TMC3     H13983   3.915   2.583  13.604  0.3686 -2.0494 -0.2798
    8TMC3    H113984   3.808   2.375  13.246 -0.3628 -1.1883  0.7245
    8TMC3    H213985   4.176   2.575  13.259  0.4319  1.3555  1.8052
    8TMC3    C713986   4.006   2.473  13.110 -0.0286  0.5905 -0.1146
    8TMC3    C813987   4.153   2.682  13.502  0.0524  0.6524 -0.3878
    8TMC3    O113988   4.113   2.470  13.054 -0.1435 -0.1852 -0.1464
    8TMC3    O213989   4.243   2.722  13.432  0.2982  0.1113 -0.0127
    9TMC3    C113990   3.207   3.066  12.864 -0.0092 -0.4202 -0.2901
    9TMC3    C213991   3.312   3.012  12.794 -0.3297 -0.3367 -0.0474
    9TMC3    C313992   3.407   2.954  12.871 -0.2232 -0.2785  0.0200
    9TMC3    C413993   3.180   3.045  12.997 -0.1549  0.7060  0.9235
    9TMC3    C513994   3.275   2.979  13.060 -0.2908  0.4554  0.1101
    9TMC3    C613995   3.399   2.943  13.007 -0.1281 -0.4564 -0.2123
    9TMC3     C13996   3.129   3.167  12.799  0.1214 -0.1555 -0.4847
    9TMC3     O13997   3.011   3.144  12.769 -0.2854  0.1342 -0.3256
    9TMC3     H13998   3.318   3.023  12.687 -3.1589 -2.0947 -0.4079
    9TMC3    H113999   3.093   3.077  13.053  0.6752 -1.0138  3.1973
    9TMC3    H214000   3.492   2.929  13.059  0.7381  0.3893 -1.5222
    9TMC3    C714001   3.246   2.947  13.200 -0.4687  0.0201  0.3031
    9TMC3    C814002   3.510   2.884  12.790 -0.0173  0.6895 -0.2894
    9TMC3    O114003   3.156   3.004  13.260  0.5577  0.0062 -0.2544
    9TMC3    O214004   3.531   2.921  12.674 -0.2907 -0.2397 -0.6754
   10MPD2     C14005   3.951   2.603  12.848  0.8896 -0.0003 -0.4081
   10MPD2    C114006   3.861   2.581  12.950 -0.2830 -1.3192  0.1104
   10MPD2    C214007   3.743   2.649  12.942 -0.1573  0.6214 -0.0448
   10MPD2    C314008   3.702   2.729  12.842 -0.0285  0.2240 -0.2205
   10MPD2    C414009   3.788   2.747  12.740  0.3135  0.2169  0.9751
   10MPD2    C514010   3.914   2.682  12.741 -0.5872  0.0855 -0.7753
   10MPD2     H14011   3.667   2.631  13.018 -1.5731  0.3154 -1.5302
   10MPD2    H114012   3.768   2.800  12.647 -2.5712 -0.4996  1.2003
   10MPD2    H214013   4.037   2.536  12.842  1.6931  1.0016 -0.1372
   10MPD2    H314014   3.980   2.706  12.659 -0.7217  0.4174 -0.7864
   10MPD2     N14015   3.582   2.799  12.867  0.1234  0.3266 -0.1174
   10MPD2    H514016   3.548   2.761  12.955  1.1016  1.3248  0.6924
   10MPD2    N114017   3.884   2.511  13.064 -0.3671 -0.6007 -0.1683
   10MPD2    H714018   3.820   2.522  13.142  2.3965  1.5499  1.7693
   11MPD2     C14019   3.969   2.131  14.438 -0.4978  0.4620  0.5158
   11MPD2    C114020   4.070   2.149  14.530 -0.4740  0.2415  1.3727
   11MPD2    C214021   4.160   2.253  14.516  0.1097 -0.4541 -0.1921
   11MPD2    C314022   4.153   2.344  14.413 -0.6560 -0.0469 -1.2059
   11MPD2    C414023   4.057   2.323  14.322  0.0537 -0.7235  0.6038
   11MPD2    C514024   3.970   2.215  14.330  0.3015  0.0039  0.4774
   11MPD2     H14025   4.246   2.253  14.582 -0.6749 -0.1357  0.8166
   11MPD2    H114026   4.051   2.384  14.233  0.4951  0.3613  1.3264
   11MPD2    H214027   3.898   2.051  14.452 -0.9036  0.9172  1.1137
   11MPD2    H314028   3.895   2.199  14.254  2.4642 -0.6327 -1.4989
   11MPD2     N14029   4.228   2.462  14.389  0.1524 -0.0031 -0.2860
   11MPD2    H514030   4.194   2.517  14.312  0.3102 -0.6568 -0.8187
   11MPD2    N114031   4.088   2.062  14.643 -0.4805  0.0806  0.0592
   11MPD2    H714032   4.169   2.071  14.703 -0.5707 -0.8220  0.3238
    1MPD1     C14033   1.745   4.126  17.246  0.1062  0.1098 -0.4271
    1MPD1    C114034   1.858   4.118  17.321  1.0635 -0.1217  0.1642
    1MPD1    C214035   1.973   4.141  17.247  0.1683 -0.0017 -0.0012
    1MPD1    C314036   1.974   4.182  17.118 -0.8366 -0.2449  0.6512
    1MPD1    C414037   1.859   4.189  17.051  0.1962 -0.3823  0.5755
    1MPD1    C514038   1.743   4.163  17.111  0.2385 -0.2663  0.0079
    1MPD1     H14039   2.065   4.127  17.302  1.3471  0.1653 -1.9356
    1MPD1    H114040   1.868   4.211  16.945 -0.5526  1.3906  0.8900
    1MPD1    H214041   1.656   4.082  17.291 -1.2843  2.7693 -0.5978
    1MPD1    H314042   1.652   4.166  17.052  0.3129 -2.7930 -0.2428
    1MPD1     N14043   2.096   4.191  17.052  0.0669  0.1599 -0.3324
    1MPD1    H514044   2.073   4.203  16.954 -1.0450  0.7225 -0.0028
    1MPD1    N114045   1.857   4.054  17.440 -0.2073  0.5384  0.1181
    1MPD1    H614046   1.773   4.076  17.492  0.1103 -0.2115  0.9658
    1MPD1    H714047   1.933   4.084  17.501 -1.2080 -0.2320  1.7534
    2MPD1     C14048   2.897   0.072  17.074  0.4727 -0.3973 -0.7041
    2MPD1    C114049   2.906   4.688  17.144  0.0115  0.0127 -0.0142
    2MPD1    C214050   2.819   4.586  17.111  0.1208 -0.4083 -0.8356
    2MPD1    C314051   2.738   4.589  17.002 -0.0902  0.9505 -0.9037
    2MPD1    C414052   2.740   4.701  16.924 -0.0064  0.3133  0.5076
    2MPD1    C514053   2.819   0.075  16.958  0.4235  0.2016 -0.4893
    2MPD1     H14054   2.821   4.502  17.180 -0.3001  0.8057  0.6674
    2MPD1    H114055   2.680   4.703  16.833 -2.6640  1.3678  2.2925
    2MPD1    H214056   2.951   0.160  17.107  1.1594 -0.6132 -1.2759
    2MPD1    H314057   2.810   0.169  16.905  1.1552  1.1742  1.1156
    2MPD1     N14058   2.657   4.477  16.985  0.3238 -0.2133 -0.5067
    2MPD1    H514059   2.658   4.408  17.059 -0.9197  0.1906 -0.1210
    2MPD1    N114060   2.989   4.678  17.256  0.8163  0.4720  0.4349
    2MPD1    H614061   3.080   4.722  17.244  1.0179  0.2135  1.0272
    2MPD1    H714062   3.008   4.585  17.293 -0.0431  0.4307  0.7702
    3TMC3    C114063   2.484   4.337  16.881  0.0117  0.5496 -0.5306
    3TMC3    C214064   2.442   4.293  16.762  0.6030 -0.4350  0.1676
    3TMC3    C314065   2.335   4.198  16.756  0.0708  0.5756  0.4834
    3TMC3    C414066   2.434   4.285  16.998 -0.1682 -0.3728  0.5245
    3TMC3    C514067   2.323   4.202  16.991  0.5606  0.3242  0.1478
    3TMC3    C614068   2.277   4.155  16.869 -0.4954 -0.3607 -0.4387
    3TMC3     C14069   2.573   4.455  16.875  0.3470  0.3891  0.0682
    3TMC3     O14070   2.555   4.518  16.771  0.1165 -0.3002 -0.5704
    3TMC3     H14071   2.486   4.332  16.671 -1.2848  0.2431 -0.4419
    3TMC3    H114072   2.451   4.335  17.093 -3.3169  0.6506  0.5164
    3TMC3    H214073   2.221   4.062  16.866  0.9030 -1.1934 -0.8306
    3TMC3    C714074   2.227   4.195  17.099  0.0453 -0.1135  0.1856
    3TMC3    C814075   2.276   4.148  16.635  0.2369  0.7045 -0.7486
    3TMC3    O114076   2.272   4.203  17.213  0.4534  0.1551  0.0673
    3TMC3    O214077   2.201   4.056  16.651 -0.0136 -0.9063  0.0453
    4MPD1     C14078   2.155   4.142  16.144  0.6234 -0.7984 -0.7256
    4MPD1    C114079   2.284   4.193  16.146  0.1397 -0.4893 -0.6181
    4MPD1    C214080   2.333   4.221  16.279 -0.4486 -0.2638 -0.5682
    4MPD1    C314081   2.263   4.192  16.394  0.4167 -0.2557 -0.3382
    4MPD1    C414082   2.138   4.136  16.376 -0.5095  0.5194 -0.0293
    4MPD1    C514083   2.086   4.109  16.257 -0.2818  0.7823 -0.6868
    4MPD1     H14084   2.434   4.260  16.291 -0.0060 -2.0352  1.4151
    4MPD1    H114085   2.076   4.109  16.461  0.5615 -1.7612  0.0364
    4MPD1    H214086   2.109   4.126  16.047  0.9549  1.6326 -1.2670
    4MPD1    H314087   1.982   4.078  16.246  1.0579 -4.7750  2.2741
    4MPD1     N14088   2.319   4.216  16.522  0.0752 -0.4893 -0.2541
    4MPD1    H514089   2.404   4.271  16.522  0.9055 -1.7919  1.9961
    4MPD1    N114090   2.353   4.235  16.028 -0.2508 -0.6788 -0.0175
    4MPD1    H614091   2.319   4.185  15.947 -2.1307 -1.2026  1.1042
    4MPD1    H714092   2.454   4.232  16.039 -0.4918 -2.1922  1.7945
    1TCq1    O114093   2.671   2.968  11.763 -0.4516  0.5251  0.3316
    1TCq1    C114094   2.733   3.081  11.799  0.7664 -1.0429  0.6084
    1TCq1    O214095   2.751   3.180  11.727 -0.2230 -0.6915 -0.0427
    1TCq1    C214096   2.689   3.093  11.940  0.4261 -0.0132  0.2253
    1TCq1    C314097   2.619   3.204  11.963 -0.1273 -0.0422 -0.2753
    1TCq1    C414098   2.589   3.230  12.096 -0.3320  1.1378 -0.2998
    1TCq1    C514099   2.605   3.132  12.187  0.0901  0.0766 -0.1619
    1TCq1    C614100   2.678   3.021  12.150  0.1924  0.0304  0.2749
    1TCq1    C714101   2.726   2.992  12.029  0.0613 -0.1912 -0.0034
    1TCq1    C814102   2.696   2.910  12.248  0.3522  0.0302  0.6353
    1TCq1    O414103   2.786   2.828  12.225 -0.7456  0.0671 -0.1669
    1TCq1    C914104   2.485   3.334  12.128 -0.0474 -0.3569  0.3659
    1TCq1    O514105   2.469   3.426  12.042  0.0656 -0.1627  0.6805
    1TCq1    O614106   2.433   3.339  12.241 -0.1366 -0.1359 -0.2075
    1TCq1    H114107   2.627   2.912  11.831  1.1424 -0.0957  0.8540
    1TCq1    H214108   2.595   3.283  11.892 -3.0755 -0.2021  0.5348
    1TCq1    H314109   2.572   3.155  12.288  0.7372  0.3906 -0.0232
    1TCq1    H414110   2.771   2.899  11.997  1.1184 -0.1566  1.3980
    2MPD1     C14111   2.603   2.715  12.703 -0.0036 -0.0647  0.2252
    2MPD1    C114112   2.493   2.789  12.660 -0.1484  0.2171 -0.3478
    2MPD1    C214113   2.516   2.873  12.552  0.1823 -0.3404  0.1835
    2MPD1    C314114   2.625   2.856  12.471  0.4647  0.6018 -0.6543
    2MPD1    C414115   2.723   2.774  12.510  0.2567 -0.6102  0.3702
    2MPD1    C514116   2.715   2.715  12.629 -0.3380 -0.9682  0.4245
    2MPD1     H14117   2.432   2.938  12.535 -0.1352 -0.4915  1.1563
    2MPD1    H114118   2.822   2.789  12.468 -0.4123  0.1921 -0.9146
    2MPD1    H214119   2.605   2.668  12.801  1.3955  0.0998  0.2680
    2MPD1    H314120   2.797   2.657  12.669 -0.1912 -0.5413  0.7384
    2MPD1     N14121   2.614   2.926  12.347  0.4863  0.0771 -0.2929
    2MPD1    H514122   2.549   3.004  12.336 -0.4257 -1.0300 -2.6882
    2MPD1    N114123   2.385   2.806  12.747  0.6267  0.1755  0.3079
    2MPD1    H614124   2.365   2.723  12.803 -0.1709  0.1951  0.0480
    2MPD1    H714125   2.311   2.843  12.687 -0.4828  1.7457  2.6205
    1TMC1    C114126   2.905   3.953   1.285  0.4549  0.2850  0.4137
    1TMC1    C214127   2.881   3.952   1.151 -0.5364 -0.0094  0.3074
    1TMC1    C314128   2.978   4.019   1.073  0.0707  0.1996  0.5157
    1TMC1    C414129   3.004   4.027   1.346 -0.0696  0.0423  0.2970
    1TMC1    C514130   3.090   4.102   1.261  0.0658 -0.0338 -0.1473
    1TMC1    C614131   3.077   4.097   1.124  0.6778  0.1951 -0.6371
    1TMC1     C14132   2.854   3.839   1.354  0.4582  0.2451 -0.6683
    1TMC1     O14133   2.819   3.742   1.284 -0.4240  0.3400  0.1545
    1TMC1     H14134   2.835   3.866   1.103 -0.4875  1.4616 -2.4107
    1TMC1    H114135   3.027   4.018   1.452  0.6306 -0.5083  0.0967
    1TMC1    H214136   3.136   4.147   1.048  1.4578  0.2481  0.0076
    1TMC1    C714137   3.215   4.123   1.327  0.1568  0.3409  0.3130
    1TMC1    C814138   2.949   4.033   0.932  0.4973 -0.1793  0.4005
    1TMC1    O114139   3.256   4.042   1.405 -0.4898 -0.4115  0.6615
    1TMC1    O214140   3.032   4.049   0.845 -0.1311  0.4314  0.5667
    1TMC1    O314141   3.260   4.247   1.301 -0.1891  0.1300 -0.4002
    1TMC1    H314142   3.203   4.303   1.243 -1.9900 -2.4534 -1.1130
    1TMC1    O514143   2.823   4.068   0.923 -0.8117 -0.4984  0.2120
    1TMC1    H514144   2.786   4.093   1.010  0.4633  1.2958  0.2620
    2MPD1     C14145   2.686   3.589   1.760  0.4940  0.0556 -0.4067
    2MPD1    C114146   2.776   3.682   1.804  0.1825 -0.7201 -0.0705
    2MPD1    C214147   2.832   3.771   1.710 -0.0925  0.2126  0.2856
    2MPD1    C314148   2.801   3.761   1.579 -0.5972  0.4877 -0.6789
    2MPD1    C414149   2.714   3.665   1.537  0.0273  0.7441 -0.6142
    2MPD1    C514150   2.657   3.580   1.629  0.0261  0.1610 -0.0521
    2MPD1     H14151   2.904   3.844   1.746  0.8224  0.3397 -1.8314
    2MPD1    H114152   2.679   3.640   1.438 -2.0602 -0.5306  0.4532
    2MPD1    H214153   2.649   3.519   1.834  1.4839 -0.8206 -0.7584
    2MPD1    H314154   2.594   3.500   1.590 -1.9181  0.7696  1.8580
    2MPD1     N14155   2.863   3.851   1.489 -0.2733 -0.3056 -1.0900
    2MPD1    H514156   2.904   3.931   1.536  0.1158 -0.4614 -1.1644
    2MPD1    N114157   2.787   3.701   1.942  0.9498 -0.3163 -0.1686
    2MPD1    H614158   2.877   3.738   1.972  0.9091  1.0411 -1.7752
    2MPD1    H714159   2.770   3.613   1.990 -3.0674  1.2091  1.2384
    1MPD1     C14160   4.406   3.826  11.761  0.0825 -0.3172 -0.8691
    1MPD1    C114161   4.386   3.848  11.628 -0.2532 -0.1767  0.0034
    1MPD1    C214162   4.472   3.923  11.561 -0.0321  0.5254 -0.2526
    1MPD1    C314163   4.584   3.991  11.610 -0.1535 -0.0886  0.6634
    1MPD1    C414164   4.605   3.976  11.745  0.3193 -0.1385  0.2522
    1MPD1    C514165   4.517   3.899  11.817 -0.1745  0.0533  0.0513
    1MPD1     H14166   4.460   3.934  11.454  0.8274 -1.5671 -0.5756
    1MPD1    H114167   4.693   4.008  11.798 -0.4659 -2.0588  2.7036
    1MPD1    H214168   4.343   3.768  11.828 -2.2069  2.0028 -0.9864
    1MPD1    H314169   4.540   3.891  11.923 -1.5565 -0.4357  0.3157
    1MPD1     N14170   4.667   4.066  11.523 -0.1138  0.5075  0.2991
    1MPD1    H514171   4.642   4.071  11.424  0.8581  0.9880  0.0766
    1MPD1    N114172   4.295   3.766  11.561 -0.6642 -0.0435  0.0169
    1MPD1    H614173   4.262   3.801  11.472  0.6036  0.8392 -0.0966
    1MPD1    H714174   4.217   3.745  11.623  0.3236 -0.9791  0.9473
    2MPD1     C14175   4.172   3.484  11.344  0.4067  0.2264  0.1732
    2MPD1    C114176   4.137   3.359  11.297 -0.4054  0.4313  0.0019
    2MPD1    C214177   4.211   3.298  11.202  0.1270 -0.0110  0.3861
    2MPD1    C314178   4.320   3.360  11.141  0.5275  0.4986  0.3854
    2MPD1    C414179   4.350   3.490  11.181  0.2330  0.0439 -0.8364
    2MPD1    C514180   4.277   3.554  11.278 -0.3111  0.3346  1.1640
    2MPD1     H14181   4.188   3.193  11.183  0.8343 -0.0444 -0.2794
    2MPD1    H114182   4.425   3.546  11.125  0.7083 -0.1890 -0.4312
    2MPD1    H214183   4.108   3.533  11.416  0.6729  0.1763  0.4412
    2MPD1    H314184   4.285   3.659  11.305 -0.8322  0.6398  0.1482
    2MPD1     N14185   4.397   3.294  11.042 -0.3130  0.4004 -0.7858
    2MPD1    H514186   4.479   3.345  11.010 -1.0575  0.8336 -2.0402
    2MPD1    N114187   4.040   3.287  11.373  0.1338 -0.3941  1.3745
    2MPD1    H614188   3.975   3.358  11.406 -0.1881 -1.1428  2.3572
    2MPD1    H714189   3.980   3.227  11.317  1.7379  0.2197 -1.0288
    3MPD1     C14190   4.140   2.536  10.422 -0.1339 -0.0894 -0.0458
    3MPD1    C114191   4.070   2.600  10.529  0.7583 -0.7334  0.1913
    3MPD1    C214192   4.151   2.686  10.607 -0.2867  0.0901  0.5647
    3MPD1    C314193   4.288   2.714  10.587 -0.0799  0.3029  0.6019
    3MPD1    C414194   4.340   2.665  10.469 -0.1348 -0.6886 -0.4905
    3MPD1    C514195   4.268   2.580  10.392 -0.0175  0.2936 -0.4780
    3MPD1     H14196   4.101   2.707  10.701 -0.6692 -0.5359  0.4976
    3MPD1    H114197   4.442   2.688  10.441 -0.5825  3.9316  1.6628
    3MPD1    H214198   4.104   2.447  10.373  0.9624  1.3404 -3.4809
    3MPD1    H314199   4.329   2.514  10.332  0.6972 -0.6115  1.2383
    3MPD1     N14200   4.349   2.809  10.678 -0.3414  0.5473  0.1245
    3MPD1    H514201   4.284   2.864  10.733 -2.0621 -2.0469  0.6939
    3MPD1    N114202   3.949   2.538  10.576 -0.5222 -0.4996 -0.3659
    3MPD1    H614203   3.902   2.600  10.642  0.3037  1.3061 -1.4856
    3MPD1    H714204   3.980   2.471  10.647  1.3924  0.3353 -0.4291
    4MPD2     C14205   4.717   4.370  10.907  1.2913  0.2863 -0.4597
    4MPD2    C114206   0.101   4.320  10.970  0.7422  0.3109 -0.1778
    4MPD2    C214207   0.198   4.258  10.888 -0.2563  0.3846 -0.0421
    4MPD2    C314208   0.182   4.244  10.753 -0.3062  0.3558  0.1571
    4MPD2    C414209   0.064   4.292  10.692 -0.4028 -0.4666  0.2425
    4MPD2    C514210   4.706   4.357  10.770 -0.6311 -1.1759  0.6191
    4MPD2     H14211   0.288   4.220  10.935  1.1637  4.5858  0.6485
    4MPD2    H114212   0.050   4.292  10.584  0.0369  0.3957  0.1874
    4MPD2    H214213   4.633   4.424  10.950  1.0130 -0.1510 -0.4522
    4MPD2    H314214   4.617   4.405  10.731 -0.5817 -0.8038  0.9579
    4MPD2     N14215   0.292   4.192  10.680 -0.2414 -0.1852  0.5914
    4MPD2    H514216   0.373   4.162  10.733  0.2215 -2.2889 -1.3132
    4MPD2    N114217   0.127   4.349  11.104  0.0312 -0.3750 -0.2716
    4MPD2    H714218   0.206   4.293  11.136 -0.2453  0.6261  2.1600
    5TMC3    C114219   0.117   4.376  11.321 -0.2677 -1.0412  0.2399
    5TMC3    C214220   0.053   4.278  11.392  0.4749  0.1456  0.8795
    5TMC3    C314221   0.124   4.176  11.454  0.1024  0.2614  0.6198
    5TMC3    C414222   0.259   4.370  11.314  0.3752 -0.1657 -0.1585
    5TMC3    C514223   0.329   4.271  11.380 -0.4794 -0.6229 -0.0547
    5TMC3    C614224   0.264   4.173  11.452  0.2199 -0.9610  0.4628
    5TMC3     C14225   0.054   4.415  11.200 -0.8685 -0.1892  0.0946
    5TMC3     O14226   4.671   4.449  11.198  0.4828 -0.2253 -0.1313
    5TMC3     H14227   4.680   4.265  11.380  0.5329  0.7013 -0.2358
    5TMC3    H114228   0.310   4.448  11.258 -1.3587  0.3279 -1.0796
    5TMC3    H214229   0.310   4.092  11.507 -0.5976 -1.5248  0.3171
    5TMC3    C714230   0.415   4.219  11.282 -0.2155  0.2424 -0.4050
    5TMC3    C814231   0.057   4.098  11.556  0.8090  0.4551 -0.1375
    5TMC3    O114232   0.376   4.257  11.171  0.4600  0.1680  0.3209
    5TMC3    O214233   0.121   4.056  11.653  0.6570 -0.3176  0.1745
    6TMC3    C114234   4.460   3.126  10.894 -0.0452 -0.9120 -0.2469
    6TMC3    C214235   4.438   3.002  10.851 -0.1094  0.0239  0.5073
    6TMC3    C314236   4.512   2.962  10.744 -0.8128 -0.2490 -0.0515
    6TMC3    C414237   4.548   3.213  10.837 -0.1995 -0.8380  0.5199
    6TMC3    C514238   4.622   3.173  10.730  0.1835 -0.2042  0.2747
    6TMC3    C614239   4.611   3.043  10.687  0.6087 -0.8691 -0.0942
    6TMC3     C14240   4.367   3.172  10.991 -0.7814 -0.3569  0.0763
    6TMC3     O14241   4.287   3.085  11.028  0.2605  0.0538 -0.4679
    6TMC3     H14242   4.380   2.926  10.901  1.0654 -1.0773  0.2054
    6TMC3    H114243   4.557   3.317  10.866  0.0981 -0.8176  0.3493
    6TMC3    H214244   4.648   3.015  10.590  2.6968  0.8026  0.2321
    6TMC3    C714245   4.732   3.262  10.694 -0.3987 -0.8043 -0.2475
    6TMC3    C814246   4.482   2.847  10.668  0.6663  0.0949  0.1046
    6TMC3    O114247   0.003   3.368  10.755 -0.3068 -0.0990  0.4443
    6TMC3    O214248   4.566   2.811  10.587  0.1801 -0.7037  0.6330
    7MPD2     C14249   0.692   3.822  11.115 -0.1145  0.4643 -0.8528
    7MPD2    C114250   0.621   3.921  11.048  0.0495 -0.1524  0.1286
    7MPD2    C214251   0.550   4.010  11.118 -0.2784  0.4760  0.0017
    7MPD2    C314252   0.549   4.010  11.257 -0.3243 -0.9007  0.0094
    7MPD2    C414253   0.608   3.910  11.327 -0.5163 -0.0975 -0.0348
    7MPD2    C514254   0.683   3.817  11.253 -0.4929 -0.2543  0.0110
    7MPD2     H14255   0.488   4.083  11.068 -1.2128  0.3744  1.0044
    7MPD2    H114256   0.616   3.900  11.434  2.4700 -3.9106 -0.6043
    7MPD2    H214257   0.754   3.750  11.064 -1.3594 -1.3138  0.1407
    7MPD2    H314258   0.722   3.736  11.312 -0.6675  0.1775  0.7213
    7MPD2     N14259   0.491   4.112  11.326 -0.0196  0.5140  0.4596
    7MPD2    H514260   0.500   4.108  11.427 -0.3815  1.1055  0.5160
    7MPD2    N114261   0.621   3.917  10.904  0.4922  0.1074  0.2028
    7MPD2    H714262   0.664   3.837  10.860  0.4924 -0.1290  0.6395
    8TMC3    C114263   0.555   3.958  10.678  0.5896 -0.0520  0.6319
    8TMC3    C214264   0.509   3.826  10.657  0.9553  0.1898 -0.1973
    8TMC3    C314265   0.402   3.806  10.572 -0.1253 -0.8498  0.3315
    8TMC3    C414266   0.493   4.057  10.607  0.2575 -0.1651  0.2635
    8TMC3    C514267   0.383   4.038  10.534  0.1148  0.1726 -0.3766
    8TMC3    C614268   0.340   3.909  10.511  0.4481  0.1744  0.1844
    8TMC3     C14269   0.568   4.009  10.819  0.3789 -0.6666  0.1171
    8TMC3     O14270   0.550   4.130  10.830  0.2707  0.1686  0.0233
    8TMC3     H14271   0.537   3.746  10.726 -0.2514 -0.1047 -0.0480
    8TMC3    H114272   0.528   4.159  10.614 -0.1767  0.0617 -0.8861
    8TMC3    H214273   0.253   3.884  10.451  1.5807 -0.5652 -1.1323
    8TMC3    C714274   0.283   4.130  10.554  0.1450  1.0800 -0.5867
    8TMC3    C814275   0.328   3.683  10.576  0.5103  0.0406  0.3833
    8TMC3    O114276   0.184   4.122  10.476 -0.1886 -0.7514  0.2887
    8TMC3    O214277   0.209   3.696  10.569 -0.3516  0.0495 -0.0992
    9MPD2     C14278   0.462   3.347  10.486 -0.5620 -0.1985  0.5353
    9MPD2    C114279   0.373   3.439  10.537  0.4145  0.8924 -0.0339
    9MPD2    C214280   0.250   3.397  10.583 -0.1228 -0.1543 -0.3150
    9MPD2    C314281   0.205   3.263  10.560 -0.0863  0.6385 -0.3367
    9MPD2    C414282   0.295   3.181  10.496 -0.8969  0.4892  0.9284
    9MPD2    C514283   0.422   3.222  10.476  0.6153 -1.2655 -0.5011
    9MPD2     H14284   0.176   3.464  10.625 -1.0499 -1.9495  0.9254
    9MPD2    H114285   0.286   3.073  10.493  0.9161  0.3434  0.6835
    9MPD2    H214286   0.558   3.371  10.441  0.1955  0.7479  2.6327
    9MPD2    H314287   0.484   3.150  10.423 -0.0065 -2.2197  0.0584
    9MPD2     N14288   0.089   3.204  10.606 -0.2974  0.0899 -0.8660
    9MPD2    H514289   0.082   3.105  10.581 -0.9396  0.7693 -3.3575
    9MPD2    N114290   0.412   3.578  10.546 -0.2937 -0.1052 -0.7311
    9MPD2    H714291   0.508   3.596  10.518  0.2224 -0.5802  0.7372
    1MPD1     C14292   0.713   3.151  16.488 -0.4141  0.2670  0.0910
    1MPD1    C114293   0.831   3.080  16.511 -0.8655  0.3187 -0.1936
    1MPD1    C214294   0.825   2.949  16.550 -0.1859 -0.0164  0.2302
    1MPD1    C314295   0.697   2.885  16.556  0.4079  0.4508 -0.7757
    1MPD1    C414296   0.587   2.949  16.504  0.3551  0.7396 -0.5494
    1MPD1    C514297   0.593   3.085  16.471 -0.1377 -1.0273  0.0372
    1MPD1     H14298   0.912   2.891  16.577 -1.3470 -2.1115 -0.5571
    1MPD1    H114299   0.486   2.909  16.507  1.5166 -2.0441  1.0313
    1MPD1    H214300   0.713   3.259  16.476 -1.4502 -0.1703 -3.6765
    1MPD1    H314301   0.500   3.134  16.446  0.8980  1.5301  1.2747
    1MPD1     N14302   0.674   2.758  16.609 -0.5233 -0.0601  0.1049
    1MPD1    H514303   0.580   2.728  16.632 -0.7775  0.4814 -0.2334
    1MPD1    N114304   0.953   3.148  16.523  0.2809 -0.4819 -0.1840
    1MPD1    H614305   1.033   3.087  16.506  0.1349 -0.4756 -0.9017
    1MPD1    H714306   0.951   3.232  16.464 -1.4193 -0.1284  0.3895
    2TMC2    C114307   0.707   2.334  16.781 -0.0815  0.3569  0.5705
    2TMC2    C214308   0.610   2.363  16.872  0.9320 -0.7074 -0.1643
    2TMC2    C314309   0.567   2.493  16.882 -0.2115  0.7036 -0.2133
    2TMC2    C414310   0.757   2.433  16.696  0.2507 -0.1969  0.2721
    2TMC2    C514311   0.707   2.558  16.711  0.0562 -0.0663 -0.3216
    2TMC2    C614312   0.619   2.591  16.811 -0.0970  0.2544 -0.1472
    2TMC2     C14313   0.701   2.202  16.729 -0.2147  0.0993  0.0705
    2TMC2     O14314   0.613   2.126  16.768  0.4077  0.4067 -0.3227
    2TMC2     H14315   0.561   2.284  16.928  1.1408  1.1918  2.7006
    2TMC2    H114316   0.846   2.420  16.636  0.3112  3.5913 -0.4508
    2TMC2    H214317   0.609   2.696  16.836  0.0927  0.3289 -0.3822
    2TMC2    C714318   0.766   2.663  16.632 -0.2678  1.1218 -0.4661
    2TMC2    C814319   0.465   2.531  16.978  0.1929  0.2156 -0.3440
    2TMC2    O114320   0.875   2.657  16.581 -0.9753 -0.2749 -0.0196
    2TMC2    O214321   0.440   2.452  17.066 -0.3236  0.7499 -0.0385
    2TMC2    O514322   0.379   2.621  16.932 -0.1738  0.4363  0.3641
    2TMC2    H514323   0.398   2.673  16.851 -2.1725 -2.2160 -1.8032
    3MPD1     C14324   0.922   1.813  16.486  0.0190  0.3078 -0.5241
    3MPD1    C114325   1.007   1.920  16.481 -0.2456  0.4752  0.8569
    3MPD1    C214326   0.961   2.031  16.547  0.2952 -0.2445  0.0866
    3MPD1    C314327   0.839   2.043  16.607 -0.7219 -0.0652 -1.4279
    3MPD1    C414328   0.755   1.933  16.610 -0.1626 -0.5769 -0.6359
    3MPD1    C514329   0.799   1.823  16.544 -0.1105  0.8685  1.2448
    3MPD1     H14330   1.022   2.119  16.557  0.1917 -0.2705  0.9321
    3MPD1    H114331   0.654   1.941  16.648 -0.0869  0.5368 -0.6712
    3MPD1    H214332   0.929   1.718  16.434  1.5897  1.3789 -2.2286
    3MPD1    H314333   0.737   1.735  16.526 -2.5379  2.0099  4.1502
    3MPD1     N14334   0.810   2.170  16.660  0.2602  0.1602 -0.2107
    3MPD1    H514335   0.885   2.236  16.642  0.6904 -0.9494 -2.4852
    3MPD1    N114336   1.141   1.898  16.455  0.5679  0.5216 -0.1770
    3MPD1    H614337   1.198   1.842  16.518 -0.3540 -0.1208  0.0783
    3MPD1    H714338   1.184   1.990  16.454  0.4612  0.5743  0.3482
    1TMC1    C114339   2.698   0.837  13.526  0.2818  0.6731  0.2130
    1TMC1    C214340   2.738   0.774  13.643 -0.5746 -0.2539  0.1745
    1TMC1    C314341   2.725   0.641  13.654  0.4275 -0.7673  0.6079
    1TMC1    C414342   2.626   0.763  13.434 -0.1421  0.2317  0.2369
    1TMC1    C514343   2.601   0.628  13.456  0.5689 -0.4334 -0.0127
    1TMC1    C614344   2.645   0.565  13.568 -0.4654  0.0774 -0.2954
    1TMC1     C14345   2.754   0.964  13.480  0.4260 -0.3074 -0.3565
    1TMC1     O14346   2.709   1.002  13.375 -0.1532  0.2831  0.2149
    1TMC1     H14347   2.791   0.823  13.723  1.3633 -0.6973 -0.8403
    1TMC1    H114348   2.584   0.806  13.343 -0.5699  1.0820  0.8404
    1TMC1    H214349   2.631   0.458  13.576 -0.1163  0.3165  3.8182
    1TMC1    C714350   2.601   0.552  13.345  0.3762 -0.5301  0.3848
    1TMC1    C814351   2.714   0.589  13.788  0.5104  0.0668  0.2063
    1TMC1    O114352   2.672   0.455  13.327  0.2337  0.2617  0.5848
    1TMC1    O214353   2.673   0.654  13.880 -0.3815 -0.4883  0.1040
    1TMC1    O314354   2.517   0.612  13.257  0.1939 -0.0035  0.4119
    1TMC1    H314355   2.438   0.648  13.302 -0.5798  1.4187 -2.0718
    1TMC1    O514356   2.812   0.503  13.800  0.2661  0.1014 -0.1031
    1TMC1    H514357   2.855   0.480  13.715  1.7894  1.2140  0.3574
    2MPD2     C14358   2.931   1.200  13.428  0.5689  0.3583 -0.1195
    2MPD2    C114359   2.944   1.121  13.537  0.4451 -0.1239 -0.0780
    2MPD2    C214360   3.052   1.150  13.618  0.1827  0.0750 -0.5237
    2MPD2    C314361   3.148   1.244  13.589 -0.4318  0.1355  0.0860
    2MPD2    C414362   3.121   1.325  13.479  0.0030  0.0510  0.3413
    2MPD2    C514363   3.019   1.302  13.392  0.1753 -0.5199  0.3432
    2MPD2     H14364   3.067   1.092  13.708 -0.4479 -1.2576 -1.2875
    2MPD2    H114365   3.187   1.400  13.436  1.3088 -2.0745 -1.3673
    2MPD2    H214366   2.839   1.190  13.371  0.0491 -0.0726  0.8021
    2MPD2    H314367   3.007   1.348  13.294 -0.3061  0.6681  0.9607
    2MPD2     N14368   3.252   1.263  13.683 -0.3215 -0.1559  0.0922
    2MPD2    H514369   3.252   1.198  13.761 -2.9517 -0.5271 -0.2173
    2MPD2    N114370   2.854   1.015  13.567  0.1059 -0.0527 -0.2942
    2MPD2    H714371   2.876   0.969  13.654 -1.8604 -0.7516 -0.1591
    3TCq1    O114372   3.451   1.321  14.193 -0.1366  0.1437  0.2279
    3TCq1    C114373   3.503   1.203  14.135 -0.2013 -0.7985  0.6478
    3TCq1    O214374   3.590   1.141  14.195 -0.3562 -0.0341 -0.2710
    3TCq1    C214375   3.526   1.250  14.005  0.0347 -0.0619  0.4799
    3TCq1    C314376   3.661   1.258  13.967 -0.5872 -0.0710 -0.0045
    3TCq1    C414377   3.690   1.293  13.842  0.3320  0.0130 -0.2335
    3TCq1    C514378   3.594   1.332  13.759  0.0118 -0.0635  0.0174
    3TCq1    C614379   3.459   1.331  13.783 -0.4546 -0.3252  0.3890
    3TCq1    C714380   3.428   1.291  13.912 -1.1368  0.2594  0.1576
    3TCq1    C814381   3.363   1.341  13.674 -0.4954  0.0615 -0.0817
    3TCq1    O414382   3.394   1.400  13.577 -0.0000 -0.3284  0.2064
    3TCq1    C914383   3.818   1.303  13.792 -0.1092 -0.2895 -0.0447
    3TCq1    O514384   3.836   1.348  13.674 -0.5208  0.2494  0.6318
    3TCq1    O614385   3.910   1.264  13.872 -0.1146 -0.5444  0.0193
    3TCq1    H114386   3.414   1.388  14.132  1.4357  0.1921 -0.6810
    3TCq1    H214387   3.741   1.252  14.040  1.0328  0.6756 -1.6926
    3TCq1    H314388   3.621   1.370  13.661 -0.3507  2.3180  0.8424
    3TCq1    H414389   3.326   1.276  13.944 -0.7883 -0.1024  1.1061
    1MPD2     C14390   2.838   2.495  14.767  0.1041 -0.7745  0.7527
    1MPD2    C114391   2.708   2.457  14.790 -0.6064 -0.3790  0.3279
    1MPD2    C214392   2.680   2.355  14.877 -0.7878  0.6118  0.2428
    1MPD2    C314393   2.777   2.293  14.947 -0.5057 -0.0291 -1.0274
    1MPD2    C414394   2.911   2.343  14.932  0.5073 -0.3600  0.5571
    1MPD2    C514395   2.939   2.442  14.849  0.2734  0.2655  0.1745
    1MPD2     H14396   2.574   2.336  14.890 -1.1014  2.5367  0.5899
    1MPD2    H114397   2.999   2.306  14.984  0.1176 -1.2373  0.6053
    1MPD2    H214398   2.860   2.574  14.695  0.2351  0.8356  2.5634
    1MPD2    H314399   3.044   2.466  14.835  0.3635 -0.0428  0.3115
    1MPD2     N14400   2.756   2.187  15.037  0.2698 -0.0565  0.4385
    1MPD2    H514401   2.837   2.150  15.087  0.7800 -1.7323 -1.6067
    1MPD2    N114402   2.610   2.507  14.702 -0.2295 -0.0357  0.3428
    1MPD2    H714403   2.638   2.577  14.634 -1.7449 -1.2667 -1.5162
    2TMC3    C114404   2.389   2.557  14.638  0.7049 -0.0523  0.0959
    2TMC3    C214405   2.268   2.495  14.629  0.2990 -0.2944  0.2834
    2TMC3    C314406   2.156   2.571  14.660  0.0067  0.1623 -0.5900
    2TMC3    C414407   2.397   2.686  14.674 -0.2744 -0.1044 -0.2144
    2TMC3    C514408   2.286   2.764  14.685 -1.3154  0.1925 -0.3867
    2TMC3    C614409   2.160   2.705  14.667  0.4623  0.1140  0.8873
    2TMC3     C14410   2.482   2.461  14.688 -0.0610 -0.0221 -0.0722
    2TMC3     O14411   2.427   2.365  14.736 -0.0230 -0.7818 -0.0638
    2TMC3     H14412   2.254   2.391  14.600  0.6566 -0.3685  0.3743
    2TMC3    H114413   2.496   2.731  14.670  0.2463 -1.2456 -0.1764
    2TMC3    H214414   2.063   2.752  14.666  0.2714 -0.2915  0.4586
    2TMC3    C714415   2.294   2.904  14.652  0.1294 -0.0672 -0.2177
    2TMC3    C814416   2.088   2.517  14.776 -0.9798  1.0274  0.2722
    2TMC3    O114417   2.221   2.951  14.568  0.0121 -0.1422 -0.1510
    2TMC3    O214418   2.005   2.598  14.817  0.2370 -0.4158 -0.2888
    3TCq1    O114419   3.217   3.441  14.850  0.3510  0.5337 -0.1037
    3TCq1    C114420   3.230   3.385  14.972 -0.3437 -0.1924 -0.1363
    3TCq1    O214421   3.338   3.358  15.027 -0.0304 -0.3403  0.0979
    3TCq1    C214422   3.102   3.405  15.045 -1.0203  0.3924 -0.0701
    3TCq1    C314423   3.102   3.478  15.156  0.0643  0.4978  0.2037
    3TCq1    C414424   2.981   3.533  15.199 -0.5938  0.0664  0.3685
    3TCq1    C514425   2.864   3.498  15.137 -0.8217 -0.1688 -0.4666
    3TCq1    C614426   2.859   3.405  15.029 -0.2073 -0.0328  0.3478
    3TCq1    C714427   2.983   3.360  14.979  0.3892  1.7140 -0.6053
    3TCq1    C814428   2.736   3.407  14.946 -0.8706 -1.0451 -0.2238
    3TCq1    O414429   2.655   3.493  14.975 -0.1488  0.2774  0.1863
    3TCq1    C914430   2.986   3.622  15.314 -0.3989 -0.0301  0.3706
    3TCq1    O514431   2.884   3.695  15.330  0.6554  0.2679 -0.0190
    3TCq1    O614432   3.091   3.643  15.381  0.5256  0.1929 -0.0611
    3TCq1    H114433   3.137   3.496  14.850 -0.0802 -0.0815 -1.8922
    3TCq1    H214434   3.195   3.502  15.207 -0.2050  0.3038  0.7741
    3TCq1    H314435   2.766   3.535  15.165 -0.6026 -0.0608  0.1506
    3TCq1    H414436   2.983   3.298  14.890 -1.2283  1.6496 -0.5667
    4MPD2     C14437   2.520   3.358  14.742  0.1784 -0.3150  0.1124
    4MPD2    C114438   2.601   3.262  14.801  0.2084  0.3525  0.3838
    4MPD2    C214439   2.550   3.133  14.788  0.8889  0.0765  0.1878
    4MPD2    C314440   2.448   3.096  14.711 -0.7015 -0.3365  0.0147
    4MPD2    C414441   2.377   3.190  14.644 -0.9445  0.4619 -0.3828
    4MPD2    C514442   2.412   3.323  14.666 -0.5536 -0.1195  0.0378
    4MPD2     H14443   2.602   3.048  14.832  2.2123 -0.2094 -1.9733
    4MPD2    H114444   2.293   3.174  14.577 -0.5444  1.7716 -1.1974
    4MPD2    H214445   2.531   3.463  14.769 -0.8244 -0.5685  1.5116
    4MPD2    H314446   2.348   3.399  14.622  1.8324  1.9329  0.0966
    4MPD2     N14447   2.403   2.965  14.722  0.1449 -0.0943  0.5699
    4MPD2    H514448   2.445   2.910  14.796  2.3011 -0.9164 -1.2692
    4MPD2    N114449   2.713   3.283  14.885 -0.3614 -0.7658 -0.0433
    4MPD2    H714450   2.768   3.200  14.906  1.4790  0.3046 -0.5661
    5TMC2    C114451   2.443   2.031  15.336 -0.1411  0.2482  0.3994
    5TMC2    C214452   2.525   2.061  15.439 -0.0249 -0.0739  0.1420
    5TMC2    C314453   2.659   2.086  15.412  0.1466 -0.3392 -0.1698
    5TMC2    C414454   2.491   2.017  15.209  0.4039 -0.5361 -0.4284
    5TMC2    C514455   2.624   2.055  15.187 -0.1035 -0.9363 -0.1474
    5TMC2    C614456   2.705   2.098  15.287  0.6660  0.2828  0.2335
    5TMC2     C14457   2.315   2.100  15.340  0.1704  0.3435 -1.1165
    5TMC2     O14458   2.249   2.120  15.442 -0.9261  0.2720 -0.0905
    5TMC2     H14459   2.492   2.063  15.543 -0.9116  0.7883 -0.1527
    5TMC2    H114460   2.425   1.969  15.137 -2.4920  0.7348  1.4153
    5TMC2    H214461   2.807   2.125  15.263  0.5718  0.6395  0.2367
    5TMC2    C714462   2.631   2.133  15.068 -0.7494 -0.0761 -0.0550
    5TMC2    C814463   2.743   2.159  15.507 -0.0804 -0.2180  0.0296
    5TMC2    O114464   2.524   2.144  15.015 -0.3903 -0.0082 -0.4448
    5TMC2    O214465   2.697   2.233  15.595 -0.3425  0.1838  0.2084
    5TMC2    O514466   2.871   2.113  15.505  0.2624 -0.1457 -0.2522
    5TMC2    H514467   2.892   2.045  15.439 -2.2848 -0.2660 -0.9611
    6MPD2     C14468   2.018   2.397  15.030  0.2146 -0.1527 -0.0423
    6MPD2    C114469   2.140   2.380  14.976 -0.5397 -0.9053 -0.1383
    6MPD2    C214470   2.236   2.306  15.048  0.0306 -0.2885  0.5298
    6MPD2    C314471   2.206   2.246  15.167  0.5426  0.2788 -0.2527
    6MPD2    C414472   2.083   2.263  15.216 -0.2922  0.0411 -0.4279
    6MPD2    C514473   1.989   2.336  15.152 -0.5901  0.7104  0.2467
    6MPD2     H14474   2.337   2.292  15.012 -0.4050 -1.0587 -0.3919
    6MPD2    H114475   2.066   2.223  15.316  1.7395 -1.9980 -0.8905
    6MPD2    H214476   1.931   2.448  14.991 -1.3858 -2.2415  0.7834
    6MPD2    H314477   1.889   2.356  15.187  0.2843  1.2934  2.4505
    6MPD2     N14478   2.310   2.162  15.220 -0.0044  0.1383 -0.1515
    6MPD2    H514479   2.387   2.140  15.158 -0.6957 -1.5030 -0.4457
    6MPD2    N114480   2.170   2.431  14.845 -0.5233 -0.2240 -0.6322
    6MPD2    H714481   2.261   2.408  14.807  0.5637  1.0610  1.2357
  945NH4     N114482   0.530   1.861   2.724 -0.0030  0.1716  0.4857
  945NH4     H214483   0.515   1.867   2.827  3.0407 -0.7708  0.9806
  945NH4     H314484   0.435   1.846   2.685  0.9736 -3.1812 -0.6250
  945NH4     H414485   0.583   1.774   2.700 -0.3517  0.3762 -1.0141
  945NH4     H514486   0.571   1.941   2.673 -0.9407  0.9320  0.9365
  946SOD     NA14487   2.091   2.774  11.724  0.5004 -0.0945  0.0779
  947SOD     NA14488   0.724   0.955  13.731 -0.4345 -0.3457  0.1374
  948SOD     NA14489   2.675   4.220   7.900 -0.2749 -0.0196  0.2390
  949SOD     NA14490   4.188   4.545  16.488  0.5104 -0.3115  0.3822
  950SOD     NA14491   2.753   3.936  13.002  0.5003 -0.8848  0.1418
  951SOD     NA14492   3.430   3.935  15.742  0.0232  0.3047 -0.0334
  952SOD     NA14493   1.596   0.348   6.766  0.1690  0.0321  0.2949
  953SOL     OW14494   0.127   1.763   3.833  0.0906  0.1141 -0.0647
  953SOL    HW114495   0.084   1.846   3.850 -0.5106 -0.4938  1.3645
  953SOL    HW214496   0.169   1.778   3.749  0.4940  1.6546  0.4212
  954SOL     OW14497   3.334   3.543   7.141 -0.1108  0.4981  0.5222
  954SOL    HW114498   3.282   3.553   7.062  1.1606  2.6124 -0.0428
  954SOL    HW214499   3.395   3.617   7.136 -0.6233  0.7567 -1.5823
  955SOL     OW14500   4.702   4.561   4.428 -0.0869  0.4988 -0.6827
  955SOL    HW114501   4.657   4.500   4.487  3.0684 -1.8593 -0.7038
  955SOL    HW214502   0.044   4.507   4.407  1.2991  2.4923 -0.8745
  956SOL     OW14503   2.500   1.838   6.018  0.4822  0.0507 -0.1516
  956SOL    HW114504   2.512   1.800   5.931 -1.6813  0.6027 -0.6680
  956SOL    HW214505   2.405   1.848   6.022  0.6193 -0.0518  3.0545
  957SOL     OW14506   4.201   1.639   2.673 -0.1965  0.4958  0.4014
  957SOL    HW114507   4.211   1.693   2.752  0.0802 -0.3352  0.9375
  957SOL    HW214508   4.141   1.695   2.625  2.0431  0.9497 -1.8640
  958SOL     OW14509   2.914   1.472   1.127  0.2426  0.2576 -0.3606
  958SOL    HW114510   2.985   1.526   1.093 -0.7924  2.1892  0.5515
  958SOL    HW214511   2.843   1.512   1.076 -0.7940 -0.9605  0.1475
  959SOL     OW14512   3.807   1.842   9.415 -0.0415 -0.4051  0.0183
  959SOL    HW114513   3.808   1.755   9.376 -1.8708  0.4883 -2.0297
  959SOL    HW214514   3.802   1.902   9.340 -0.0157  1.5845  1.6220
  960SOL     OW14515   3.701   0.555  16.159 -0.0727 -0.4601  0.0661
  960SOL    HW114516   3.686   0.644  16.126  0.3031 -0.4706 -0.1323
  960SOL    HW214517   3.660   0.510  16.085  0.5377 -2.5331  1.0121
  961SOL     OW14518   1.502   0.140   5.135  0.4654  0.0137  0.4278
  961SOL    HW114519   1.538   0.107   5.217 -0.0319 -0.4547  0.4562
  961SOL    HW214520   1.447   0.064   5.115  3.0849 -1.7849 -0.0826
  962SOL     OW14521   0.078   1.641   9.844  0.0796  0.7829 -0.0807
  962SOL    HW114522   4.729   1.631   9.891  1.0306  0.7776  1.5925
  962SOL    HW214523   0.137   1.687   9.904 -1.7807  3.5442 -0.3707
  963SOL     OW14524   1.740   4.673  15.392  0.0149  0.1120  0.7467
  963SOL    HW114525   1.691   4.712  15.319  1.7190  0.1060 -0.4153
  963SOL    HW214526   1.830   4.697  15.368 -0.0851  0.0106  0.2725
  964SOL     OW14527   4.014   3.719   8.865 -0.0902 -0.3000 -0.1175
  964SOL    HW114528   3.944   3.781   8.842  1.5552  2.1488  1.4887
  964SOL    HW214529   3.963   3.658   8.918 -1.6826  0.4522 -0.7735
  965SOL     OW14530   2.798   0.156   2.688  0.2092  0.3102  0.2992
  965SOL    HW114531   2.771   0.246   2.669  1.0447  0.6224  0.5909
  965SOL    HW214532   2.737   0.139   2.760 -2.2544 -1.3229 -2.1553
  966SOL     OW14533   3.025   4.347   8.896 -0.1117 -0.0740 -0.1358
  966SOL    HW114534   3.116   4.355   8.926 -0.4852 -0.8398  1.1869
  966SOL    HW214535   2.979   4.361   8.979 -1.8127 -2.1533 -0.7283
  967SOL     OW14536   3.765   1.199   9.501  0.3958 -0.0274  0.8891
  967SOL    HW114537   3.795   1.110   9.480 -0.0227  0.0073  0.1309
  967SOL    HW214538   3.830   1.228   9.566  0.4592  0.1629  0.7410
  968SOL     OW14539   2.271   0.311   9.482  0.5488  0.4413  0.7314
  968SOL    HW114540   2.295   0.320   9.390 -0.7504 -1.1324  0.2427
  968SOL    HW214541   2.181   0.343   9.481 -0.3312 -2.0192  0.6526
  969SOL     OW14542   1.005   3.849   8.452  0.0291 -0.1366  0.3535
  969SOL    HW114543   1.076   3.787   8.471  0.5879  0.0078 -1.2412
  969SOL    HW214544   1.043   3.897   8.378  0.3652  0.1962  0.7386
  970SOL     OW14545   2.901   2.320  16.408 -0.1475 -0.1059 -0.4595
  970SOL    HW114546   2.967   2.305  16.340 -0.9112 -2.3460 -0.7095
  970SOL    HW214547   2.884   2.227  16.427  0.8887  0.4146  3.0535
  971SOL     OW14548   1.223   1.716   2.784  0.5615 -0.8589  0.4426
  971SOL    HW114549   1.190   1.643   2.836 -2.3845 -0.1689 -0.4693
  971SOL    HW214550   1.315   1.691   2.772  0.2623 -2.2845  1.1620
  972SOL     OW14551   2.982   3.341   4.345 -0.2430 -1.1746 -0.4917
  972SOL    HW114552   3.060   3.330   4.292 -0.0544 -0.5004 -0.3517
  972SOL    HW214553   2.987   3.419   4.399 -1.0544 -0.5425 -1.3250
  973SOL     OW14554   3.030   4.126   6.707  0.0750  0.1012  0.7726
  973SOL    HW114555   2.946   4.150   6.747 -0.8600 -1.5113 -0.1960
  973SOL    HW214556   3.000   4.128   6.616 -0.4102  1.4191  0.9593
  974SOL     OW14557   2.814   3.976   3.975  0.3457  0.1524  0.0718
  974SOL    HW114558   2.803   3.983   3.880  0.3236 -1.3792 -0.0524
  974SOL    HW214559   2.813   3.880   3.981 -0.6883  0.0314 -2.0327
  975SOL     OW14560   2.052   1.730   2.187  0.1531 -0.4041  0.2447
  975SOL    HW114561   1.970   1.756   2.145  0.3217  2.1806  1.5343
  975SOL    HW214562   2.050   1.761   2.277 -1.7413  0.3783 -0.0728
  976SOL     OW14563   3.607   0.792  16.030  0.1762 -0.0204  0.0006
  976SOL    HW114564   3.624   0.841  15.950  1.7218 -0.8054 -0.1584
  976SOL    HW214565   3.517   0.820  16.049  0.0224  0.0079 -0.7567
  977SOL     OW14566   1.730   0.736  10.197  1.1471 -0.4005 -0.1165
  977SOL    HW114567   1.637   0.756  10.186  1.4947  0.8467 -0.7068
  977SOL    HW214568   1.753   0.722  10.289  1.0115 -0.2288 -0.0568
  978SOL     OW14569   2.378   0.791   4.465 -0.1565 -0.0526 -0.5222
  978SOL    HW114570   2.407   0.751   4.547  1.2442 -0.3476 -1.1714
  978SOL    HW214571   2.289   0.755   4.465  0.7248 -2.1735  1.3859
  979SOL     OW14572   4.423   4.499  15.412 -0.9020  0.3105  0.7144
  979SOL    HW114573   4.460   4.481  15.325 -1.5238 -0.8257  0.6892
  979SOL    HW214574   4.340   4.538  15.386 -1.3520 -0.4056  1.0753
  980SOL     OW14575   3.080   0.671   2.848 -0.0898 -0.5878 -0.2634
  980SOL    HW114576   3.139   0.736   2.809 -0.0736  0.0288  0.7899
  980SOL    HW214577   3.016   0.650   2.780  0.5596 -0.2825 -0.9659
  981SOL     OW14578   3.818   3.172   2.464  0.2831 -0.2713  0.1451
  981SOL    HW114579   3.780   3.107   2.524  0.3461  0.0751  0.5630
  981SOL    HW214580   3.825   3.246   2.525  1.9162 -1.3391  1.2634
  982SOL     OW14581   2.181   1.595   6.337  0.0787  0.0831 -0.1390
  982SOL    HW114582   2.097   1.635   6.359  0.8381  1.8011 -0.3634
  982SOL    HW214583   2.183   1.527   6.404  2.3368  1.5744  1.3128
  983SOL     OW14584   1.083   2.929   4.923 -0.1043 -0.2022 -0.0906
  983SOL    HW114585   1.021   2.972   4.981  1.0751  2.6364 -0.9330
  983SOL    HW214586   1.154   2.908   4.985 -1.2344 -1.4357  0.7824
  984SOL     OW14587   3.077   4.055   3.182 -0.0787  0.0189 -0.0214
  984SOL    HW114588   2.992   4.030   3.219 -0.2622  0.8686  0.1367
  984SOL    HW214589   3.129   4.089   3.255 -0.9265  1.6177 -0.1642
  985SOL     OW14590   0.151   1.143   6.760  0.0637 -0.4976 -0.0413
  985SOL    HW114591   0.213   1.095   6.705  1.8081  0.9182  0.6955
  985SOL    HW214592   0.075   1.139   6.702 -0.5904  1.8014  0.6792
  986SOL     OW14593   2.063   1.088  16.102  0.5047  0.5493 -0.3212
  986SOL    HW114594   2.098   1.001  16.122  1.1148  1.2583  1.7179
  986SOL    HW214595   2.135   1.131  16.149  0.8362  1.2738 -1.5143
  987SOL     OW14596   0.426   0.877   6.260  0.0854 -0.3784  0.7245
  987SOL    HW114597   0.362   0.829   6.209  0.2115 -0.6691  0.8394
  987SOL    HW214598   0.504   0.842   6.216  2.2628  0.0446  4.1925
  988SOL     OW14599   1.152   4.007  15.494  0.8975 -0.0788  0.4084
  988SOL    HW114600   1.166   3.943  15.564 -1.0759 -2.8988 -1.7300
  988SOL    HW214601   1.125   4.088  15.536 -1.4081  0.4873 -2.1897
  989SOL     OW14602   4.537   3.971   8.476 -0.0756 -0.4117  0.3661
  989SOL    HW114603   4.532   3.918   8.555  1.1793 -0.2887  0.5279
  989SOL    HW214604   4.568   4.050   8.520 -0.7628 -0.4009  0.8327
  990SOL     OW14605   0.637   0.533  13.109  0.5790  0.2161  0.3993
  990SOL    HW114606   0.604   0.526  13.198 -0.7319 -1.7538 -0.2400
  990SOL    HW214607   0.557   0.531  13.057  0.9200  0.7886 -0.1508
  991SOL     OW14608   2.569   3.023   6.146  0.2448 -0.3761 -0.1648
  991SOL    HW114609   2.517   2.945   6.167 -1.3398  0.3302 -1.4398
  991SOL    HW214610   2.630   2.994   6.078 -1.1825  0.1148 -1.6579
  992SOL     OW14611   4.397   1.186  11.391 -0.0003  0.1828 -0.2951
  992SOL    HW114612   4.326   1.165  11.451  1.0669 -1.3568  0.4415
  992SOL    HW214613   4.375   1.139  11.310  0.2505 -2.1117  0.9481
  993SOL     OW14614   0.707   1.834   8.184  0.0308 -0.1470 -0.3673
  993SOL    HW114615   0.778   1.800   8.238  0.6514  0.0792 -1.0403
  993SOL    HW214616   0.719   1.929   8.178  1.3298 -0.2165  1.3383
  994SOL     OW14617   2.849   1.034   2.086 -0.0282 -0.4413  0.2305
  994SOL    HW114618   2.921   1.072   2.137 -0.6069  1.1590 -0.1309
  994SOL    HW214619   2.788   1.011   2.157 -2.0464  0.5858 -1.1764
  995SOL     OW14620   4.528   2.238   8.647 -0.1580  0.7264 -0.3380
  995SOL    HW114621   4.459   2.264   8.586  0.2383  0.5103 -0.8856
  995SOL    HW214622   4.479   2.212   8.724  1.7695 -1.1533  0.2275
  996SOL     OW14623   0.846   0.794   6.912 -0.2884  0.2600 -0.4140
  996SOL    HW114624   0.830   0.873   6.965 -1.1990  0.6671 -1.3084
  996SOL    HW214625   0.758   0.764   6.891 -0.4902 -1.4799  2.9876
  997SOL     OW14626   0.396   3.651   3.145  0.5613 -0.4966  0.0008
  997SOL    HW114627   0.322   3.713   3.142  1.6822  0.7458 -2.6373
  997SOL    HW214628   0.428   3.681   3.230  2.0579  1.0259 -1.0874
  998SOL     OW14629   3.290   3.069   7.368 -0.0705  0.1767  0.4412
  998SOL    HW114630   3.295   3.145   7.310  0.6558 -0.3239 -0.1384
  998SOL    HW214631   3.199   3.040   7.367 -0.5333  1.7095 -1.4262
  999SOL     OW14632   0.476   3.323   9.082 -0.2786 -0.3558 -0.3137
  999SOL    HW114633   0.501   3.411   9.056 -0.8848  0.0360  0.4179
  999SOL    HW214634   0.392   3.345   9.124 -1.2996 -2.3228 -1.2981
 1000SOL     OW14635   0.497   3.057   7.003  0.4967 -0.4542 -1.0069
 1000SOL    HW114636   0.515   2.966   7.029  2.1996 -0.9015 -3.8118
 1000SOL    HW214637   0.425   3.085   7.059  1.4401 -1.6340  0.8125
 1001SOL     OW14638   0.975   0.667   8.306 -0.4272  0.4992  0.1760
 1001SOL    HW114639   1.066   0.640   8.308 -0.5720  0.1691  2.8429
 1001SOL    HW214640   0.980   0.705   8.218  0.8644  2.0779  0.9491
 1002SOL     OW14641   4.247   2.890   8.465 -0.2217  0.3100 -0.2457
 1002SOL    HW114642   4.193   2.890   8.385 -2.3045  0.0033  1.1516
 1002SOL    HW214643   4.204   2.814   8.504 -0.6650  1.0770  0.7479
 1003SOL     OW14644   4.003   2.876   5.506 -0.2841  0.4890  0.1877
 1003SOL    HW114645   4.091   2.907   5.483 -0.2058  0.7683  0.8703
 1003SOL    HW214646   4.012   2.788   5.469 -2.4933  1.3069 -2.3551
 1004SOL     OW14647   0.887   2.567   5.576 -0.0376 -0.1403  0.1921
 1004SOL    HW114648   0.950   2.506   5.615  0.4000  0.7740  0.9144
 1004SOL    HW214649   0.884   2.641   5.636  0.3589  0.8845 -1.0453
 1005SOL     OW14650   2.046   1.021  12.971 -0.4878 -0.8333  0.1483
 1005SOL    HW114651   2.133   1.058  12.954 -0.2824 -1.4419 -0.1100
 1005SOL    HW214652   1.988   1.092  12.944 -1.6705 -1.9169 -0.1751
 1006SOL     OW14653   1.833   4.227  15.166 -0.4542 -0.3344 -0.4327
 1006SOL    HW114654   1.910   4.274  15.133  0.0188  0.2482  1.5195
 1006SOL    HW214655   1.790   4.294  15.218  0.9356  0.4057 -0.2455
 1007SOL     OW14656   1.427   4.520   5.950 -0.6969  0.2920 -0.0036
 1007SOL    HW114657   1.478   4.600   5.933 -1.0497  1.2432  3.3731
 1007SOL    HW214658   1.367   4.505   5.877  1.8352 -2.6640 -1.4890
 1008SOL     OW14659   0.933   3.767   4.327 -0.2131  0.4703  0.0252
 1008SOL    HW114660   0.952   3.787   4.418  0.7731 -1.5138  0.2615
 1008SOL    HW214661   0.995   3.698   4.302 -1.5403 -0.8367  0.3034
 1009SOL     OW14662   1.664   2.849  11.268 -0.3329 -0.2544 -0.5490
 1009SOL    HW114663   1.676   2.797  11.348 -0.7920 -1.1639 -1.0706
 1009SOL    HW214664   1.637   2.929  11.314 -1.4014  0.0202 -1.6669
 1010SOL     OW14665   4.060   4.147   8.161  0.5568  0.1808  0.6277
 1010SOL    HW114666   4.048   4.080   8.095  1.9018 -1.5244  2.1259
 1010SOL    HW214667   3.970   4.166   8.189 -0.0917  0.4176 -1.6437
 1011SOL     OW14668   1.604   0.226   8.047  0.1472  0.4278 -0.9295
 1011SOL    HW114669   1.665   0.252   8.116 -2.0530  0.6631  0.9566
 1011SOL    HW214670   1.543   0.164   8.088 -0.0095  0.8628 -0.4930
 1012SOL     OW14671   3.409   3.014  12.026  0.4079  0.0343  0.1238
 1012SOL    HW114672   3.320   3.010  12.061  0.9291  0.8804  1.5553
 1012SOL    HW214673   3.449   2.946  12.080 -0.8939  0.5990  1.7989
 1013SOL     OW14674   4.531   4.257  11.884  0.7518 -0.3409 -0.3785
 1013SOL    HW114675   4.499   4.223  11.801 -0.4845 -0.2719  0.0674
 1013SOL    HW214676   4.606   4.302  11.845  0.7599 -0.8257 -0.9289
 1014SOL     OW14677   3.428   1.576   7.288  0.2062  0.1224  0.2004
 1014SOL    HW114678   3.481   1.588   7.366  3.2731 -1.2069 -1.6967
 1014SOL    HW214679   3.484   1.621   7.225  0.3432  0.1850  0.3692
 1015SOL     OW14680   2.698   3.664   4.273  0.1012  0.5018 -0.0880
 1015SOL    HW114681   2.714   3.752   4.308  2.9657 -0.3011  0.5557
 1015SOL    HW214682   2.604   3.674   4.258  0.0087  0.0057  0.1632
 1016SOL     OW14683   2.061   3.569  11.122  0.6194 -0.0383  0.1787
 1016SOL    HW114684   2.073   3.533  11.035  0.9071  0.3256  0.0668
 1016SOL    HW214685   2.132   3.524  11.167  1.0759 -0.9839 -1.4987
 1017SOL     OW14686   1.534   1.584   3.858  0.2768  0.2343 -0.2658
 1017SOL    HW114687   1.583   1.640   3.798  3.0408 -0.1846  1.5847
 1017SOL    HW214688   1.569   1.498   3.835  0.2492 -0.1763  1.2546
 1018SOL     OW14689   4.222   3.363   8.279  0.3479  0.5502  0.5702
 1018SOL    HW114690   4.213   3.355   8.374 -0.7612 -0.0572  0.4198
 1018SOL    HW214691   4.275   3.286   8.255  1.8976  1.5289  0.8224
 1019SOL     OW14692   3.364   4.604   1.772 -0.0735  0.5480  0.2917
 1019SOL    HW114693   3.425   4.608   1.846  1.3713  1.4868 -0.9425
 1019SOL    HW214694   3.421   4.616   1.696 -0.3852  1.4411  0.2046
 1020SOL     OW14695   3.141   0.978   7.973 -0.2563 -0.3731  0.0977
 1020SOL    HW114696   3.129   1.050   7.912  0.3236 -0.4937 -0.1592
 1020SOL    HW214697   3.167   1.019   8.056 -1.4847  1.2621 -0.3364
 1021SOL     OW14698   0.516   0.560  16.654 -0.2375  0.7294  0.3188
 1021SOL    HW114699   0.463   0.638  16.667 -0.3973  0.4798  1.1926
 1021SOL    HW214700   0.598   0.598  16.624  0.2582  0.6730  1.6112
 1022SOL     OW14701   0.555   3.202   3.047  0.1715  0.1911 -0.2206
 1022SOL    HW114702   0.575   3.171   3.135 -1.0729 -0.5707 -0.2021
 1022SOL    HW214703   0.482   3.261   3.065 -0.3280 -0.8176  1.0895
 1023SOL     OW14704   0.200   3.243   3.274  0.1409 -0.1118 -0.4062
 1023SOL    HW114705   0.284   3.269   3.313 -0.7507 -0.2604  1.5675
 1023SOL    HW214706   0.153   3.326   3.271  3.9148  2.0370 -0.6038
 1024SOL     OW14707   4.520   1.611   3.667 -0.1415 -0.2540 -0.8310
 1024SOL    HW114708   4.429   1.643   3.669  0.0404  0.2112  0.0207
 1024SOL    HW214709   4.508   1.532   3.614  1.7098  0.8705 -2.9027
 1025SOL     OW14710   2.467   3.669   5.783  0.3215 -0.1867  0.2474
 1025SOL    HW114711   2.383   3.625   5.769 -1.0258  1.9070  1.6876
 1025SOL    HW214712   2.442   3.719   5.861  0.8140  0.9300 -0.3064
 1026SOL     OW14713   0.442   0.913   9.273 -0.1371  0.0338  0.4627
 1026SOL    HW114714   0.466   0.827   9.307 -1.6945  0.3013  2.2148
 1026SOL    HW214715   0.428   0.963   9.353  0.6017 -0.0522  0.6450
 1027SOL     OW14716   4.558   0.941   5.305 -0.2734  0.1028 -0.5689
 1027SOL    HW114717   4.652   0.945   5.290 -0.1925 -1.6179 -0.4713
 1027SOL    HW214718   4.529   0.944   5.214  1.8592 -1.0895 -1.2947
 1028SOL     OW14719   0.454   2.551  11.831 -0.4149  0.2091  0.0861
 1028SOL    HW114720   0.415   2.615  11.890 -0.5113 -0.0176  0.2684
 1028SOL    HW214721   0.497   2.609  11.769 -0.9907 -0.9866 -1.4197
 1029SOL     OW14722   0.059   2.663   7.128  0.0875 -0.2002  0.5965
 1029SOL    HW114723   4.700   2.685   7.139  0.2826  0.7196  0.4347
 1029SOL    HW214724   0.097   2.740   7.085  0.5036  0.1672  1.6195
 1030SOL     OW14725   3.913   0.184  11.937 -0.5178 -0.2204 -0.2955
 1030SOL    HW114726   3.913   0.280  11.930 -0.4015 -0.1353  0.8690
 1030SOL    HW214727   3.965   0.173  11.858  0.0983 -2.5211  0.4214
 1031SOL     OW14728   3.401   2.294   5.859  0.0826 -0.4259  0.0092
 1031SOL    HW114729   3.464   2.363   5.838  0.2891 -0.3335  0.9282
 1031SOL    HW214730   3.460   2.219   5.855  0.3086 -0.1342 -1.8156
 1032SOL     OW14731   0.914   2.949  10.991 -0.1530 -0.9669  0.5588
 1032SOL    HW114732   0.834   2.898  10.980  0.7926 -2.4830  0.6763
 1032SOL    HW214733   0.897   3.034  10.951 -0.9304 -1.0821  0.6455
 1033SOL     OW14734   1.186   3.975   4.091  0.7085 -0.2455 -1.2620
 1033SOL    HW114735   1.276   3.999   4.115  0.2846 -0.3613  0.4696
 1033SOL    HW214736   1.202   3.882   4.079 -1.0594 -0.8596  1.2122
 1034SOL     OW14737   0.293   2.048   5.104 -0.3743 -0.0435  0.3068
 1034SOL    HW114738   0.289   1.955   5.080  0.2205 -0.3258  1.2973
 1034SOL    HW214739   0.383   2.066   5.129 -0.7165  0.5968  1.0507
 1035SOL     OW14740   3.822   0.265  12.894  0.1589 -0.1454  0.0656
 1035SOL    HW114741   3.789   0.190  12.845  0.9702  0.3264 -1.1771
 1035SOL    HW214742   3.774   0.333  12.846 -0.8680 -0.6927  0.2974
 1036SOL     OW14743   0.700   3.334   9.262  0.4128 -0.2289  0.2292
 1036SOL    HW114744   0.643   3.306   9.191  0.6290 -2.4155  0.8900
 1036SOL    HW214745   0.680   3.274   9.334 -0.4491  0.5987  0.6670
 1037SOL     OW14746   2.339   3.726  12.494 -0.1177 -0.3017  0.1976
 1037SOL    HW114747   2.352   3.647  12.441 -0.5187  0.8654 -1.6114
 1037SOL    HW214748   2.249   3.711  12.520 -0.1162 -0.7343 -0.0388
 1038SOL     OW14749   4.199   2.301   5.018  0.3499  0.8380 -0.4199
 1038SOL    HW114750   4.157   2.237   5.076  0.2893 -0.2591 -1.6819
 1038SOL    HW214751   4.155   2.380   5.049 -1.4238 -1.4100  2.8214
 1039SOL     OW14752   2.475   4.323   7.949  0.2991  0.2945  0.0863
 1039SOL    HW114753   2.392   4.276   7.945  0.1595  0.4356  1.3531
 1039SOL    HW214754   2.445   4.412   7.964 -1.8797 -0.1420 -1.6846
 1040SOL     OW14755   1.881   2.212  16.087 -0.2386 -0.1152 -0.0251
 1040SOL    HW114756   1.964   2.253  16.059  0.4809 -1.5690 -0.0265
 1040SOL    HW214757   1.873   2.125  16.049  2.2356  0.1786 -1.2532
 1041SOL     OW14758   4.716   0.041   4.268 -0.4988 -0.1709  0.4134
 1041SOL    HW114759   4.706   4.691   4.314 -3.7662  0.1255  0.2240
 1041SOL    HW214760   0.077   0.038   4.266 -0.5309 -1.7457  0.8059
 1042SOL     OW14761   3.395   2.965   9.807 -0.1796  0.1455  0.2539
 1042SOL    HW114762   3.414   2.878   9.842  0.7159  0.2041 -0.0961
 1042SOL    HW214763   3.340   2.994   9.880 -1.4628 -0.0436 -0.6225
 1043SOL     OW14764   3.218   0.302   7.669 -0.5626 -0.3367  0.0927
 1043SOL    HW114765   3.186   0.304   7.579 -2.7913 -2.1661  0.8476
 1043SOL    HW214766   3.227   0.397   7.680 -0.4706 -0.3794  0.3868
 1044SOL     OW14767   0.596   2.446   5.946 -0.1004 -0.2249  0.4087
 1044SOL    HW114768   0.690   2.455   5.962  0.4225  0.0461 -2.8118
 1044SOL    HW214769   0.579   2.539   5.959  2.7446  0.3768 -0.3102
 1045SOL     OW14770   3.262   3.812  17.639 -0.7349 -0.2820 -0.3480
 1045SOL    HW114771   3.187   3.775  17.591 -1.6170  1.5834 -0.4130
 1045SOL    HW214772   3.229   3.902  17.635  2.3867  0.9651  1.7706
 1046SOL     OW14773   1.657   3.286  10.749  0.1567 -0.1309  0.2693
 1046SOL    HW114774   1.621   3.214  10.802  0.8800 -0.7926 -0.1391
 1046SOL    HW214775   1.674   3.350  10.818 -0.1408 -0.4206  0.6114
 1047SOL     OW14776   1.969   4.040   1.983  0.1091 -0.1185 -0.5520
 1047SOL    HW114777   1.966   3.960   2.036  3.0564  0.2175  0.0912
 1047SOL    HW214778   1.880   4.076   1.979  1.1024  2.4895  1.0386
 1048SOL     OW14779   2.526   4.166   9.980 -0.1870  0.6260  0.3219
 1048SOL    HW114780   2.520   4.237   9.916 -1.4431  0.5280  0.3217
 1048SOL    HW214781   2.552   4.220  10.054 -0.0354  0.5516  0.3223
 1049SOL     OW14782   3.611   1.816   9.609 -0.0439 -0.2871 -0.0151
 1049SOL    HW114783   3.680   1.822   9.543  0.3225 -1.2853  0.2840
 1049SOL    HW214784   3.624   1.904   9.644  0.8335 -0.5910  0.4046
 1050SOL     OW14785   2.237   1.133   7.231 -0.6291 -0.2102 -0.5954
 1050SOL    HW114786   2.256   1.130   7.325 -0.7147  0.7500 -0.5511
 1050SOL    HW214787   2.236   1.227   7.214  0.3490  0.0618  0.8201
 1051SOL     OW14788   3.209   0.370   2.589 -0.1365 -0.1764  0.2814
 1051SOL    HW114789   3.172   0.444   2.540 -0.7782 -0.8108 -0.1816
 1051SOL    HW214790   3.147   0.302   2.565  0.2549 -0.9180  1.3653
 1052SOL     OW14791   1.219   1.501   7.027 -0.1934 -0.1506  0.2363
 1052SOL    HW114792   1.204   1.573   6.966 -0.8706 -0.1867  0.3697
 1052SOL    HW214793   1.155   1.449   6.981  2.1433 -0.8612 -2.1955
 1053SOL     OW14794   1.209   0.543   8.265 -0.2195 -0.3235 -0.1009
 1053SOL    HW114795   1.249   0.460   8.242 -2.6694 -0.5401 -3.5916
 1053SOL    HW214796   1.231   0.587   8.183 -0.6453 -1.1295 -0.6448
 1054SOL     OW14797   0.682   0.883   4.280 -0.1750 -0.2808 -0.3984
 1054SOL    HW114798   0.678   0.925   4.194 -0.4521  1.4742  0.4817
 1054SOL    HW214799   0.773   0.856   4.274 -0.7774 -2.2916 -0.8436
 1055SOL     OW14800   1.300   3.829  15.084 -0.1446 -0.3908 -0.1265
 1055SOL    HW114801   1.226   3.783  15.126 -0.8771 -0.1868 -1.1829
 1055SOL    HW214802   1.247   3.887  15.029 -1.1914 -2.1927 -1.0250
 1056SOL     OW14803   1.932   1.240   5.006 -0.0839 -0.1041  0.1386
 1056SOL    HW114804   1.880   1.320   4.995  0.4995  0.4698  1.5950
 1056SOL    HW214805   1.879   1.189   5.067  0.1072 -2.2048 -1.4445
 1057SOL     OW14806   3.882   4.254  13.373 -0.0351  0.1938 -0.3196
 1057SOL    HW114807   3.905   4.244  13.466  2.4868  0.1212 -0.9615
 1057SOL    HW214808   3.864   4.348  13.369 -0.6050  0.1567  1.0495
 1058SOL     OW14809   3.902   2.551   1.556  0.5369  0.2976  0.4440
 1058SOL    HW114810   3.949   2.478   1.516  0.3684 -0.5119  1.7579
 1058SOL    HW214811   3.946   2.558   1.641  0.1868 -1.6674  0.7784
 1059SOL     OW14812   3.095   1.156   5.828  0.1047 -0.3114 -0.2229
 1059SOL    HW114813   3.142   1.212   5.767 -0.0392  1.3975  1.2472
 1059SOL    HW214814   3.002   1.160   5.808  0.0803 -1.3801 -0.3524
 1060SOL     OW14815   2.274   2.087   0.387 -0.4393 -0.2872  0.1823
 1060SOL    HW114816   2.234   2.162   0.343  3.0804  0.1378 -2.3109
 1060SOL    HW214817   2.201   2.033   0.417 -0.8369 -0.9053 -1.9371
 1061SOL     OW14818   3.703   3.972   8.368  0.1781  0.0371  0.0360
 1061SOL    HW114819   3.652   3.954   8.289 -0.3925 -1.6045  0.7711
 1061SOL    HW214820   3.778   3.915   8.349  0.2424  0.0041  0.3978
 1062SOL     OW14821   0.518   0.055   4.877  0.2510 -0.0315 -0.0052
 1062SOL    HW114822   0.602   0.036   4.919  0.6781 -1.1222 -1.3689
 1062SOL    HW214823   0.543   0.130   4.822  0.6303 -1.3434 -1.6172
 1063SOL     OW14824   1.672   2.417   9.805 -0.0202 -0.1706 -0.2177
 1063SOL    HW114825   1.593   2.414   9.859  0.4837  1.1507  0.5747
 1063SOL    HW214826   1.743   2.428   9.867  1.5868 -1.7551 -1.7776
 1064SOL     OW14827   2.716   1.415   6.539 -0.2672 -0.7027  0.0130
 1064SOL    HW114828   2.725   1.390   6.631 -3.0316 -1.9039 -0.0381
 1064SOL    HW214829   2.632   1.461   6.533  1.2419  2.1438  0.6639
 1065SOL     OW14830   1.448   0.994   8.057 -0.3047 -0.1216  0.3846
 1065SOL    HW114831   1.421   0.919   8.005  0.4361 -0.6434  0.7663
 1065SOL    HW214832   1.399   1.067   8.017 -1.6449 -1.1620  0.1341
 1066SOL     OW14833   0.099   1.866  17.144  1.1012  0.0800  0.1987
 1066SOL    HW114834   0.155   1.848  17.220  1.5395 -2.1396 -0.6685
 1066SOL    HW214835   0.060   1.954  17.142 -1.0026 -0.8995 -2.0711
 1067SOL     OW14836   0.040   2.958  12.314  0.2553  0.4324  0.1765
 1067SOL    HW114837   0.014   3.041  12.272 -2.4012  0.6447  2.2342
 1067SOL    HW214838   4.696   2.917  12.351  1.2600 -0.2788  1.5243
 1068SOL     OW14839   2.058   4.510   7.331  0.3824 -0.3131 -0.0313
 1068SOL    HW114840   2.056   4.469   7.244  0.3172  0.3815 -0.3567
 1068SOL    HW214841   2.046   4.435   7.388  0.9791 -1.2183 -1.0924
 1069SOL     OW14842   2.788   3.208   3.779  0.4504  0.2209  0.0336
 1069SOL    HW114843   2.819   3.293   3.811 -1.4812  1.5077 -1.5220
 1069SOL    HW214844   2.694   3.216   3.765  0.5789  2.6426  0.5930
 1070SOL     OW14845   3.981   1.506  15.790  0.1166  0.1626  0.2343
 1070SOL    HW114846   3.997   1.414  15.810 -1.5617 -0.0895  0.4528
 1070SOL    HW214847   3.888   1.493  15.770 -0.0306  1.6174 -0.0456
 1071SOL     OW14848   3.319   1.603   8.479 -0.0799 -0.6394  0.2858
 1071SOL    HW114849   3.403   1.559   8.470  0.5559  1.1263 -2.7257
 1071SOL    HW214850   3.339   1.679   8.424 -1.8167 -1.2303 -1.1725
 1072SOL     OW14851   3.076   0.192   0.620 -0.3329  0.1964  0.0443
 1072SOL    HW114852   3.019   0.208   0.695 -0.4119 -1.0732  0.2545
 1072SOL    HW214853   3.018   0.183   0.545  1.5681 -1.4207 -1.2234
 1073SOL     OW14854   3.363   2.167   7.244 -0.2388 -0.0690  0.0412
 1073SOL    HW114855   3.418   2.153   7.166 -2.2926  0.4364 -1.4794
 1073SOL    HW214856   3.283   2.206   7.210 -0.1839  0.4130  0.4620
 1074SOL     OW14857   1.293   3.046   6.256  0.5102  0.0584  0.1560
 1074SOL    HW114858   1.383   3.021   6.277  0.3366  1.1242  2.2106
 1074SOL    HW214859   1.251   2.971   6.298  0.9312 -1.1390 -1.5903
 1075SOL     OW14860   0.272   4.406   8.553 -0.2982  0.0620 -0.1478
 1075SOL    HW114861   0.226   4.327   8.581  0.0411  0.3507  1.2447
 1075SOL    HW214862   0.234   4.475   8.608 -1.3609 -0.5726 -0.0771
 1076SOL     OW14863   4.359   2.121  10.009 -0.3785 -0.0662 -0.3223
 1076SOL    HW114864   4.274   2.166  10.007 -1.8543 -2.8362 -0.1076
 1076SOL    HW214865   4.413   2.199  10.024 -0.7291  0.1027  0.0730
 1077SOL     OW14866   1.662   3.061   4.148 -0.1556  0.0299 -0.9397
 1077SOL    HW114867   1.616   2.982   4.176  0.0162  1.3348  3.0428
 1077SOL    HW214868   1.669   3.058   4.053  0.6615  1.5827 -0.9193
 1078SOL     OW14869   3.035   1.715   9.573  0.0458 -0.1874 -1.1876
 1078SOL    HW114870   3.001   1.737   9.660  1.3187 -0.2584 -0.6775
 1078SOL    HW214871   2.976   1.640   9.562 -3.4488  2.1449  1.6784
 1079SOL     OW14872   0.819   1.526   7.559  0.5074  0.0830 -0.1696
 1079SOL    HW114873   0.831   1.514   7.653  0.2174  1.6339  0.0592
 1079SOL    HW214874   0.724   1.531   7.543 -0.0035 -0.1552  2.7329
 1080SOL     OW14875   3.098   2.976   2.671  0.3718  0.5017 -0.3716
 1080SOL    HW114876   3.050   3.010   2.595  2.5060 -0.2901 -2.0664
 1080SOL    HW214877   3.038   2.904   2.691  0.5263  1.3737  3.2038
 1081SOL     OW14878   1.309   4.660   2.623 -0.5210 -0.3320  0.0820
 1081SOL    HW114879   1.282   4.570   2.642  0.1026 -0.7927 -1.2671
 1081SOL    HW214880   1.248   4.680   2.553 -0.5784 -0.2800  0.1468
 1082SOL     OW14881   0.730   4.031   7.883 -0.2876  0.3736 -0.2969
 1082SOL    HW114882   0.803   4.043   7.822  2.0177 -0.5214  2.2690
 1082SOL    HW214883   0.777   4.023   7.967 -2.2298  0.8162  0.8157
 1083SOL     OW14884   4.593   2.801  12.475 -0.2615 -0.2033 -0.7068
 1083SOL    HW114885   4.609   2.815  12.569 -3.0463  0.4322 -0.3271
 1083SOL    HW214886   4.498   2.801  12.485 -0.3469 -0.6993 -1.5737
 1084SOL     OW14887   1.955   4.361   4.218 -0.5205 -0.1896  0.1243
 1084SOL    HW114888   1.962   4.266   4.209 -1.4593 -0.4537  2.1695
 1084SOL    HW214889   2.003   4.394   4.142 -0.2476 -2.9969 -0.9343
 1085SOL     OW14890   2.313   2.864   6.810 -0.3221 -0.2773  0.8793
 1085SOL    HW114891   2.303   2.907   6.894 -0.8963  0.0650  0.6395
 1085SOL    HW214892   2.256   2.788   6.827  1.3706 -1.3851  1.6321
 1086SOL     OW14893   2.193   0.852   3.969 -0.3126 -0.2988  0.2518
 1086SOL    HW114894   2.246   0.909   4.027  0.8799  1.4139 -2.5271
 1086SOL    HW214895   2.235   0.773   4.003 -1.4892 -0.5029  1.2112
 1087SOL     OW14896   1.126   3.817   6.279 -0.2921 -0.0983 -0.2263
 1087SOL    HW114897   1.050   3.869   6.251  0.8850  1.0438 -1.3312
 1087SOL    HW214898   1.133   3.750   6.211 -1.9289 -0.1012 -0.3920
 1088SOL     OW14899   2.712   2.368   1.485 -0.6084  0.1690  0.0056
 1088SOL    HW114900   2.806   2.358   1.474 -0.7414 -2.2899  0.8840
 1088SOL    HW214901   2.694   2.427   1.413 -1.3537  1.3180  1.1349
 1089SOL     OW14902   3.438   3.395   8.011  0.0673  0.1489 -0.2309
 1089SOL    HW114903   3.405   3.413   7.923  1.2727 -1.0443 -0.9433
 1089SOL    HW214904   3.527   3.431   8.011  0.6515 -1.2976  0.7078
 1090SOL     OW14905   1.021   4.687   6.934 -0.0676  0.1577  0.3367
 1090SOL    HW114906   0.971   0.021   6.979  1.4275  0.0434  2.1820
 1090SOL    HW214907   1.068   4.648   7.008  0.1996  0.5767  0.3913
 1091SOL     OW14908   4.383   4.485   1.629  0.3001 -0.1644  0.4389
 1091SOL    HW114909   4.329   4.460   1.704  1.0034 -2.6542  0.1342
 1091SOL    HW214910   4.406   4.401   1.588 -0.7387 -0.6862  0.9237
 1092SOL     OW14911   0.256   4.728   4.241  0.2757  0.4912  0.4208
 1092SOL    HW114912   0.331   0.016   4.295 -0.3486 -1.0894  1.9167
 1092SOL    HW214913   0.308   4.728   4.161  0.2129  1.1594  0.3777
 1093SOL     OW14914   3.046   1.334   3.022 -0.5440 -0.0423 -0.0677
 1093SOL    HW114915   3.067   1.411   2.969  1.0887 -1.3729 -1.3604
 1093SOL    HW214916   2.977   1.372   3.075 -0.5787 -1.4973  0.9001
 1094SOL     OW14917   1.735   1.595  14.296 -0.3966 -0.2302  0.3803
 1094SOL    HW114918   1.719   1.689  14.301 -0.2055 -0.1316 -1.1299
 1094SOL    HW214919   1.704   1.568  14.210  0.5385  0.6569 -0.2363
 1095SOL     OW14920   1.331   4.682   7.380  0.2623 -0.1344  0.1579
 1095SOL    HW114921   1.348   0.018   7.443 -2.1066  1.8079 -1.3499
 1095SOL    HW214922   1.313   0.004   7.305  0.4042 -0.4600 -0.1170
 1096SOL     OW14923   4.228   0.162   8.448 -0.1025  0.0048  0.0437
 1096SOL    HW114924   4.226   0.226   8.518  0.4816  0.9022 -0.7602
 1096SOL    HW214925   4.323   0.151   8.440  0.0352  0.5358  1.0124
 1097SOL     OW14926   4.040   4.480   1.651  0.2842  0.3478 -0.5570
 1097SOL    HW114927   3.973   4.535   1.609  1.0564  2.4776  0.9873
 1097SOL    HW214928   3.981   4.418   1.695  0.3525  0.5090 -0.2324
 1098SOL     OW14929   2.335   1.216   7.523  0.1395  0.0313 -0.0209
 1098SOL    HW114930   2.311   1.173   7.605  2.8622 -0.4301  0.5254
 1098SOL    HW214931   2.381   1.295   7.553  1.5971 -1.1334  0.8653
 1099SOL     OW14932   0.040   1.876   7.830  0.0557 -0.0163 -0.2232
 1099SOL    HW114933   0.013   1.924   7.908  2.1650 -0.7835  0.9840
 1099SOL    HW214934   0.043   1.785   7.860  0.5080  0.5670  1.4970
 1100SOL     OW14935   1.952   2.474   1.589 -0.8682  0.6546 -0.0131
 1100SOL    HW114936   1.946   2.559   1.632 -3.3117  0.5696 -0.2267
 1100SOL    HW214937   1.934   2.494   1.497 -1.6043  0.2127  0.0325
 1101SOL     OW14938   3.430   2.039   4.996  0.6544 -0.4197 -0.0867
 1101SOL    HW114939   3.411   1.949   4.971  1.1322  0.1111 -2.3803
 1101SOL    HW214940   3.352   2.079   4.959 -0.2139  0.8471  3.0994
 1102SOL     OW14941   2.512   1.172  17.197  0.1590  0.0312 -0.2540
 1102SOL    HW114942   2.500   1.153  17.290 -0.3303  1.9459  0.0647
 1102SOL    HW214943   2.421   1.179  17.168 -0.4285  1.0670  1.8604
 1103SOL     OW14944   0.806   2.279   7.001  0.1349  0.8230 -0.0375
 1103SOL    HW114945   0.785   2.317   6.916 -0.3684  0.7943  0.0710
 1103SOL    HW214946   0.810   2.185   6.983  0.0360  1.2588 -2.2494
 1104SOL     OW14947   0.412   0.397   4.550 -0.5652  0.0782 -0.6013
 1104SOL    HW114948   0.328   0.358   4.573 -1.3821  1.2387 -1.5943
 1104SOL    HW214949   0.383   0.479   4.509 -1.0072 -0.6016 -1.6406
 1105SOL     OW14950   1.637   0.154   3.484 -0.0907 -0.0851 -0.3753
 1105SOL    HW114951   1.554   0.153   3.532 -0.9645  0.4723 -1.9026
 1105SOL    HW214952   1.631   0.239   3.441 -0.6833 -0.0528 -0.2191
 1106SOL     OW14953   3.448   1.711   2.751 -0.2567  0.1958  0.5108
 1106SOL    HW114954   3.376   1.768   2.721  1.7208  2.4668  0.0963
 1106SOL    HW214955   3.459   1.665   2.668  2.7384  0.0854  0.9710
 1107SOL     OW14956   3.656   4.188  17.225  0.0270 -0.2490 -0.3998
 1107SOL    HW114957   3.580   4.167  17.171  1.0354 -1.8979 -1.1468
 1107SOL    HW214958   3.617   4.257  17.280 -0.9253 -0.8828 -0.2742
 1108SOL     OW14959   0.894   2.809   8.415  0.5823 -0.1482  0.5147
 1108SOL    HW114960   0.907   2.716   8.397  0.2907 -0.4060  1.6232
 1108SOL    HW214961   0.870   2.842   8.329 -0.4006 -0.5512  0.6301
 1109SOL     OW14962   0.932   0.484   5.047  0.0495  0.3759 -0.0437
 1109SOL    HW114963   0.851   0.454   5.005 -1.2505  0.8968  2.0319
 1109SOL    HW214964   1.004   0.458   4.991  0.2303  2.9081 -0.9783
 1110SOL     OW14965   3.697   4.285  12.321  0.0791  0.0511  0.2492
 1110SOL    HW114966   3.781   4.297  12.275 -0.9804 -1.5128 -2.1206
 1110SOL    HW214967   3.718   4.344  12.393 -0.3336  1.5580 -0.8606
 1111SOL     OW14968   4.054   1.542   9.752  0.1687  0.6597 -0.3555
 1111SOL    HW114969   4.089   1.459   9.785  2.8928  1.0760 -2.1632
 1111SOL    HW214970   3.967   1.521   9.719 -0.6219  0.5989  1.7486
 1112SOL     OW14971   4.734   4.136  10.101 -0.4714  0.1779 -0.6960
 1112SOL    HW114972   4.681   4.172  10.172 -1.1477 -3.4533  0.6831
 1112SOL    HW214973   0.075   4.195  10.095 -1.1217  0.9495 -1.2180
 1113SOL     OW14974   3.793   2.196   0.328  0.4108 -0.6521  0.0478
 1113SOL    HW114975   3.798   2.141   0.406  0.6376  1.3764  1.4576
 1113SOL    HW214976   3.730   2.262   0.356  1.0113 -0.3720  0.7207
 1114SOL     OW14977   2.503   2.513  14.341 -0.5009  0.1083  0.4163
 1114SOL    HW114978   2.579   2.562  14.372 -1.1852  1.7702 -0.5378
 1114SOL    HW214979   2.525   2.431  14.384  0.2749  0.2186  0.2297
 1115SOL     OW14980   1.668   0.352   1.659 -0.0713  0.7702 -0.5442
 1115SOL    HW114981   1.632   0.299   1.730  0.1775  0.6166 -0.5300
 1115SOL    HW214982   1.625   0.311   1.584 -2.4180  1.6697  0.3349
 1116SOL     OW14983   4.131   2.398   4.134  0.6185 -0.2896  0.2733
 1116SOL    HW114984   4.128   2.305   4.109  0.2850 -0.4045  0.7510
 1116SOL    HW214985   4.091   2.440   4.058  1.5513 -0.8618 -0.5328
 1117SOL     OW14986   3.679   2.890   5.014 -0.3780  0.2030  0.0788
 1117SOL    HW114987   3.625   2.951   4.964 -0.7888 -1.2432 -1.2823
 1117SOL    HW214988   3.692   2.923   5.102  0.8663  2.3350 -0.9048
 1118SOL     OW14989   3.193   2.587   4.211  0.1905 -0.3468 -0.0883
 1118SOL    HW114990   3.165   2.570   4.301  1.6885  1.1837  0.6812
 1118SOL    HW214991   3.173   2.500   4.178 -0.6442  0.5221 -1.8706
 1119SOL     OW14992   0.283   0.085   9.556  0.1458  0.8978 -0.0032
 1119SOL    HW114993   0.209   0.032   9.585 -1.2218  3.2187  0.7123
 1119SOL    HW214994   0.317   0.026   9.488 -0.1105  1.2961 -0.4816
 1120SOL     OW14995   2.023   2.818  13.968  0.5215 -0.3695  0.7420
 1120SOL    HW114996   1.935   2.784  13.952  1.6252 -2.8810 -0.0495
 1120SOL    HW214997   2.035   2.886  13.902 -2.4150  0.1183  0.7256
 1121SOL     OW14998   2.324   0.879   2.624 -0.5203 -0.5325  0.7415
 1121SOL    HW114999   2.408   0.889   2.670 -1.1774  1.5433  1.5085
 1121SOL    HW215000   2.280   0.959   2.653 -1.5229 -1.5129  1.8928
 1122SOL     OW15001   1.611   0.749  12.617  0.4624  0.2765  0.5574
 1122SOL    HW115002   1.609   0.733  12.523  0.2253 -1.5639  0.8749
 1122SOL    HW215003   1.703   0.763  12.640  0.4622  0.4982  0.4204
 1123SOL     OW15004   1.144   1.426   7.897 -0.1284 -0.3014  0.0401
 1123SOL    HW115005   1.159   1.520   7.907 -1.9545 -0.0905  0.8003
 1123SOL    HW215006   1.165   1.421   7.804 -0.5528 -0.6902 -0.0351
 1124SOL     OW15007   1.965   1.036   7.401  0.0217  0.4745 -0.2022
 1124SOL    HW115008   1.986   1.094   7.474 -0.3488  0.7811 -0.3395
 1124SOL    HW215009   1.970   1.093   7.324 -0.6597  0.4157 -0.2882
 1125SOL     OW15010   0.682   2.134   2.297  0.2002  0.5730 -0.2014
 1125SOL    HW115011   0.602   2.185   2.307 -2.1309 -3.4289  1.5191
 1125SOL    HW215012   0.654   2.043   2.302  0.5899  0.5494  1.5090
 1126SOL     OW15013   2.228   3.090   2.971 -0.1046  0.1333  0.3240
 1126SOL    HW115014   2.277   3.167   2.998  0.4619  0.7593 -2.4533
 1126SOL    HW215015   2.146   3.083   3.019  0.3586  0.1299  1.1313
 1127SOL     OW15016   0.933   0.876   8.480 -0.2024 -0.6820  0.0261
 1127SOL    HW115017   0.923   0.794   8.432 -2.7188  1.3759 -3.0068
 1127SOL    HW215018   0.851   0.886   8.528  0.8184 -1.2743  1.9095
 1128SOL     OW15019   1.953   1.669  13.356 -0.0807 -0.0257 -0.2029
 1128SOL    HW115020   1.982   1.644  13.269 -0.2508 -3.9208  0.8435
 1128SOL    HW215021   2.007   1.745  13.375  2.0530 -1.5556 -0.1468
 1129SOL     OW15022   3.467   0.467   1.258  0.2348 -0.5963 -0.4834
 1129SOL    HW115023   3.444   0.491   1.348  1.3710 -1.2473 -0.0303
 1129SOL    HW215024   3.464   0.550   1.210 -0.5961  0.4961  1.4409
 1130SOL     OW15025   3.542   0.636   7.564  0.4248  0.1014  0.6861
 1130SOL    HW115026   3.479   0.596   7.504 -0.4025  0.3764  1.3855
 1130SOL    HW215027   3.501   0.624   7.649 -0.8461 -0.8089 -0.0510
 1131SOL     OW15028   4.215   4.197   6.198 -0.1027  0.0633 -0.4115
 1131SOL    HW115029   4.288   4.173   6.141 -0.0801  1.7744 -1.1060
 1131SOL    HW215030   4.244   4.158   6.280  0.9314 -0.9456 -1.2530
 1132SOL     OW15031   2.931   4.207   2.401  0.6320 -0.2368 -0.1919
 1132SOL    HW115032   2.967   4.249   2.479 -1.6612 -2.2230  1.9388
 1132SOL    HW215033   2.984   4.128   2.393 -2.7047 -2.2850 -2.0342
 1133SOL     OW15034   0.392   3.311   4.843  0.5639  0.5093  0.1269
 1133SOL    HW115035   0.412   3.345   4.755 -0.6410  1.4394  0.2097
 1133SOL    HW215036   0.369   3.222   4.816 -2.7312  1.0257  1.2209
 1134SOL     OW15037   2.353   2.428   2.568  0.3650  0.4012  0.4095
 1134SOL    HW115038   2.264   2.419   2.535  0.8468  0.9696 -1.0491
 1134SOL    HW215039   2.383   2.497   2.509 -0.6398  0.8426  0.4252
 1135SOL     OW15040   2.296   0.686  13.630  0.2741 -0.1760  0.1288
 1135SOL    HW115041   2.316   0.700  13.722  0.0527 -0.7656  0.2648
 1135SOL    HW215042   2.332   0.597  13.624  1.0079  0.2726 -1.9897
 1136SOL     OW15043   2.403   3.671   3.574 -0.0688  0.1696  0.0252
 1136SOL    HW115044   2.397   3.591   3.522  1.8087 -0.0774  0.1620
 1136SOL    HW215045   2.417   3.737   3.505 -0.6387 -1.3825 -1.5695
 1137SOL     OW15046   1.624   2.974   8.914 -0.0197 -0.0378  0.2150
 1137SOL    HW115047   1.643   2.985   9.007  2.0517 -2.4886  0.0883
 1137SOL    HW215048   1.552   2.911   8.923 -0.4805  0.6054  0.9743
 1138SOL     OW15049   4.328   3.318  16.987  0.0401  0.1035  0.5870
 1138SOL    HW115050   4.414   3.283  16.963 -0.3867  0.2888 -1.2045
 1138SOL    HW215051   4.294   3.335  16.900  0.0975 -0.5180  0.4420
 1139SOL     OW15052   0.063   0.818   2.400  0.0325 -0.5012 -0.0588
 1139SOL    HW115053   0.095   0.858   2.319 -1.1862  0.4950 -0.0581
 1139SOL    HW215054   0.141   0.806   2.455  1.8399 -0.0187 -2.5304
 1140SOL     OW15055   2.880   1.143   5.068  0.2656 -0.5593 -0.0679
 1140SOL    HW115056   2.819   1.198   5.117  0.3414 -1.1907  0.7439
 1140SOL    HW215057   2.909   1.209   5.004 -0.4353 -1.0155 -0.8497
 1141SOL     OW15058   0.625   4.039  15.799 -0.5043 -0.0512 -0.3800
 1141SOL    HW115059   0.547   3.990  15.824  0.2350 -0.2123  1.6986
 1141SOL    HW215060   0.682   3.970  15.766 -1.3390 -0.1396 -1.6100
 1142SOL     OW15061   3.777   3.721  13.690 -0.3439  0.2407  0.2573
 1142SOL    HW115062   3.844   3.786  13.673 -1.0040  0.3033 -2.0779
 1142SOL    HW215063   3.811   3.652  13.634 -1.3037 -1.8218  2.2073
 1143SOL     OW15064   3.226   1.971   2.652  0.6397  0.2021  0.4873
 1143SOL    HW115065   3.248   1.986   2.560 -0.4431  0.2420  0.2307
 1143SOL    HW215066   3.134   1.958   2.629  0.2886  0.3501  1.8504
 1144SOL     OW15067   0.888   4.136   2.611 -0.5319 -0.2365  0.2079
 1144SOL    HW115068   0.959   4.161   2.551 -3.1821  4.0244 -1.1421
 1144SOL    HW215069   0.904   4.042   2.599 -1.6982 -0.4750  0.5244
 1145SOL     OW15070   4.720   1.836   9.309 -0.2134  0.4742 -0.5360
 1145SOL    HW115071   0.069   1.821   9.354 -2.0039 -1.1704  2.1934
 1145SOL    HW215072   4.727   1.792   9.225 -0.8223 -0.1518 -0.2571
 1146SOL     OW15073   0.941   1.817   3.593  0.2439 -0.6282  0.2762
 1146SOL    HW115074   0.942   1.728   3.558  0.3093  0.0302 -1.4145
 1146SOL    HW215075   0.848   1.841   3.595  0.5695  0.5923  0.5699
 1147SOL     OW15076   1.370   3.350  15.042 -0.4971  0.0294  0.2411
 1147SOL    HW115077   1.285   3.379  15.009 -1.0269 -0.1686  1.4374
 1147SOL    HW215078   1.409   3.288  14.981  0.6318 -0.2634  1.2574
 1148SOL     OW15079   3.150   2.991   6.336  0.4480 -0.3499 -0.1270
 1148SOL    HW115080   3.163   2.961   6.426  0.5902 -0.2845 -0.1250
 1148SOL    HW215081   3.070   3.044   6.342  1.3169  0.9623 -0.0359
 1149SOL     OW15082   2.379   1.889  15.800 -0.3917  0.2397 -0.1525
 1149SOL    HW115083   2.422   1.916  15.881 -0.8716  0.6579 -0.0363
 1149SOL    HW215084   2.455   1.891  15.742 -1.4799  0.0886 -1.5887
 1150SOL     OW15085   2.960   3.218   8.506  0.4086  0.4491  0.6477
 1150SOL    HW115086   3.001   3.283   8.448  0.2193  0.3544  0.4069
 1150SOL    HW215087   2.919   3.167   8.436  0.5560  1.0856  0.0976
 1151SOL     OW15088   1.394   2.907   0.767 -0.2498  0.1143  0.1441
 1151SOL    HW115089   1.484   2.903   0.799  0.6351  1.5576 -2.1520
 1151SOL    HW215090   1.353   2.821   0.774  2.6777 -1.3845 -0.9843
 1152SOL     OW15091   0.495   0.427   0.928 -0.6547 -0.0428  0.2426
 1152SOL    HW115092   0.405   0.400   0.913 -0.6618 -0.4149  0.9739
 1152SOL    HW215093   0.513   0.360   0.993  0.5366  1.2640  1.2703
 1153SOL     OW15094   3.460   3.269  12.923 -0.4774 -0.3164  0.5362
 1153SOL    HW115095   3.420   3.273  13.009  1.2154 -0.9118  1.3578
 1153SOL    HW215096   3.535   3.327  12.938 -0.2975 -0.1095 -1.1910
 1154SOL     OW15097   4.297   1.529  13.699 -0.6540  0.0968  0.3464
 1154SOL    HW115098   4.232   1.460  13.682  0.6049 -0.2839 -2.9411
 1154SOL    HW215099   4.243   1.608  13.698  1.5167  1.5786 -0.1153
 1155SOL     OW15100   3.315   0.754   3.417  0.2051  0.4848 -0.2730
 1155SOL    HW115101   3.242   0.807   3.387 -1.6228 -1.5651  0.5458
 1155SOL    HW215102   3.278   0.673   3.453 -1.6153  2.1888  1.6740
 1156SOL     OW15103   4.237   0.229   4.018 -0.5946 -0.7647  0.4097
 1156SOL    HW115104   4.265   0.259   4.104 -1.1101  1.9080 -0.3595
 1156SOL    HW215105   4.199   0.144   4.042  0.3587 -1.3239 -0.0305
 1157SOL     OW15106   1.853   0.568  14.441 -0.7226 -0.5026 -0.4958
 1157SOL    HW115107   1.797   0.641  14.415 -0.8850  0.2136  1.9148
 1157SOL    HW215108   1.912   0.598  14.510 -1.6278 -3.0808  1.4065
 1158SOL     OW15109   3.761   4.428   1.832 -0.3418 -0.2317 -0.4499
 1158SOL    HW115110   3.790   4.392   1.916  0.5432 -1.0540 -1.1074
 1158SOL    HW215111   3.672   4.393   1.836 -0.7041  0.8747  1.3260
 1159SOL     OW15112   3.981   1.072   4.056  0.6337  0.1198  0.0276
 1159SOL    HW115113   4.008   0.987   4.091  0.0707  0.4194  1.2044
 1159SOL    HW215114   3.888   1.074   4.077  0.8862  0.6170  1.1239
 1160SOL     OW15115   1.591   3.271   5.147  0.2358  0.4378  0.6757
 1160SOL    HW115116   1.522   3.243   5.086 -0.5140  2.8454  0.4152
 1160SOL    HW215117   1.670   3.231   5.112 -0.6432 -2.7630  2.4240
 1161SOL     OW15118   1.080   0.433  17.204 -0.1355 -0.5861 -0.4665
 1161SOL    HW115119   1.045   0.354  17.162 -1.3561  0.3631 -1.2289
 1161SOL    HW215120   1.112   0.401  17.288  0.3015 -0.9516 -0.7676
 1162SOL     OW15121   2.208   0.531   1.981 -0.0254  0.0375  0.3332
 1162SOL    HW115122   2.183   0.590   1.911 -0.1431 -2.8609 -2.0469
 1162SOL    HW215123   2.226   0.449   1.934 -0.7474 -0.3867  0.7819
 1163SOL     OW15124   2.884   1.321   7.962 -0.1454  0.0353  0.4146
 1163SOL    HW115125   2.911   1.295   8.050 -1.0879 -1.0446  0.3734
 1163SOL    HW215126   2.959   1.374   7.933  0.9769 -0.8339  1.7303
 1164SOL     OW15127   0.924   3.000   4.535 -0.2604  0.1858 -0.0412
 1164SOL    HW115128   0.832   3.024   4.547 -0.8060 -0.9850 -1.9954
 1164SOL    HW215129   0.968   3.040   4.610 -1.3752 -0.0807  0.7518
 1165SOL     OW15130   1.638   3.091  11.411 -0.2666  0.1900  0.0855
 1165SOL    HW115131   1.550   3.058  11.431  0.2482 -2.4401 -2.0674
 1165SOL    HW215132   1.637   3.171  11.464 -0.3565  0.3208 -0.1146
 1166SOL     OW15133   3.435   0.627   2.804 -0.5217  0.4600 -0.0942
 1166SOL    HW115134   3.448   0.588   2.717 -3.5401  1.8509 -1.1827
 1166SOL    HW215135   3.463   0.551   2.855 -2.5549 -1.4585 -1.8362
 1167SOL     OW15136   0.528   0.167  10.749 -0.0358 -0.0194  0.4078
 1167SOL    HW115137   0.513   0.122  10.832  1.0098  0.4423  0.8354
 1167SOL    HW215138   0.609   0.216  10.763 -1.3913  1.9495  1.3359
 1168SOL     OW15139   2.848   3.643   6.146 -0.1537  0.0530 -0.4964
 1168SOL    HW115140   2.772   3.661   6.200  0.7305 -3.0783  1.8429
 1168SOL    HW215141   2.815   3.576   6.087  0.2909  0.4418 -1.1883
 1169SOL     OW15142   1.415   0.389   3.917 -0.3411 -0.0215  0.0905
 1169SOL    HW115143   1.408   0.295   3.898 -1.4096  0.0568  0.1071
 1169SOL    HW215144   1.327   0.417   3.891  0.5264  1.3458 -1.3983
 1170SOL     OW15145   1.557   1.043   6.194  0.0265 -0.1004  0.4820
 1170SOL    HW115146   1.463   1.029   6.177  0.1415  0.1954 -0.4057
 1170SOL    HW215147   1.596   0.975   6.140 -0.8450  1.0408 -1.5684
 1171SOL     OW15148   4.001   4.012   4.207  0.0035 -0.1789  0.3490
 1171SOL    HW115149   4.030   3.997   4.297 -0.0345 -0.8910  0.2427
 1171SOL    HW215150   3.910   4.026   4.234  0.8748  1.7975  2.2679
 1172SOL     OW15151   4.447   3.641   8.906  0.1521 -0.2033  0.1916
 1172SOL    HW115152   4.517   3.657   8.843  1.2915  1.4336  1.8395
 1172SOL    HW215153   4.373   3.607   8.856 -0.3654  0.5973  0.4014
 1173SOL     OW15154   0.798   4.402   8.305  0.2417  0.2907 -0.0332
 1173SOL    HW115155   0.819   4.486   8.265  0.5358  0.5681  0.6876
 1173SOL    HW215156   0.789   4.416   8.400 -1.3517  0.0324 -0.1374
 1174SOL     OW15157   2.232   0.820   7.418  0.2619  0.0383 -0.1385
 1174SOL    HW115158   2.193   0.832   7.505 -2.0685  0.4194 -1.2404
 1174SOL    HW215159   2.319   0.853   7.440 -0.3114  0.5381  1.4269
 1175SOL     OW15160   2.698   4.644  10.140 -0.1212 -0.1042 -0.5757
 1175SOL    HW115161   2.742   4.586  10.078  1.3156  0.8658 -0.4841
 1175SOL    HW215162   2.641   4.697  10.085  1.1629  0.2981 -1.5131
 1176SOL     OW15163   4.303   1.365  17.620  0.0712 -0.0785 -0.4684
 1176SOL    HW115164   4.382   1.352  17.673  0.7138  1.3277 -1.0850
 1176SOL    HW215165   4.346   1.381  17.536 -1.0057 -1.0730 -1.2100
 1177SOL     OW15166   3.586   3.172   8.939  0.0855 -0.5039 -0.0189
 1177SOL    HW115167   3.603   3.086   8.977 -0.0560  0.5323  2.3801
 1177SOL    HW215168   3.670   3.213   8.961 -1.0809  1.7121  0.2937
 1178SOL     OW15169   4.012   1.231  15.846  0.6544 -0.0110 -0.0384
 1178SOL    HW115170   4.091   1.178  15.854  0.1976 -0.6723  0.1102
 1178SOL    HW215171   3.976   1.182  15.773  2.2752  0.1611 -0.9294
 1179SOL     OW15172   4.581   1.101  15.735  0.0676  0.0144  0.1378
 1179SOL    HW115173   4.643   1.051  15.682  1.0295  0.7394  0.5807
 1179SOL    HW215174   4.520   1.147  15.677 -1.5645  0.3100  2.0851
 1180SOL     OW15175   2.231   0.282   1.811  0.7003 -0.0024  0.6208
 1180SOL    HW115176   2.254   0.294   1.718 -0.1863 -0.9379  0.2729
 1180SOL    HW215177   2.316   0.256   1.845  1.2190 -1.4943 -1.7705
 1181SOL     OW15178   0.963   1.905   4.057  0.3964 -0.1713 -0.2081
 1181SOL    HW115179   1.043   1.913   4.110 -0.6197  1.9708  0.9783
 1181SOL    HW215180   0.975   1.983   4.004 -0.3583 -0.2193 -0.4514
 1182SOL     OW15181   2.893   0.328  13.256 -1.0599 -0.2867 -0.1906
 1182SOL    HW115182   2.928   0.319  13.344 -0.0429  2.0208 -0.3547
 1182SOL    HW215183   2.806   0.361  13.277 -1.8656 -3.1669  1.0122
 1183SOL     OW15184   1.468   2.307   3.164 -0.0955  0.3197  0.4377
 1183SOL    HW115185   1.506   2.220   3.181 -2.2406 -0.2746  2.2617
 1183SOL    HW215186   1.527   2.356   3.221  1.4265  0.9489 -1.6837
 1184SOL     OW15187   3.247   4.543   6.794 -0.3126 -0.4481  0.1611
 1184SOL    HW115188   3.192   4.472   6.827 -0.4391  0.0307  0.9790
 1184SOL    HW215189   3.331   4.498   6.807  0.0268 -0.3763 -1.8428
 1185SOL     OW15190   1.251   2.357  17.125 -0.1101 -0.0189 -0.3855
 1185SOL    HW115191   1.189   2.306  17.178  0.4560  0.8814  1.1588
 1185SOL    HW215192   1.189   2.396  17.063  0.6673  0.2687 -0.9846
 1186SOL     OW15193   0.862   1.769   4.738  0.6014  0.1632 -0.1135
 1186SOL    HW115194   0.780   1.726   4.761  0.3146  0.0914 -1.3077
 1186SOL    HW215195   0.894   1.705   4.675 -0.4793  0.5613 -1.0538
 1187SOL     OW15196   1.784   2.145   2.482  0.0710  0.3593  0.3196
 1187SOL    HW115197   1.713   2.081   2.491  0.7479 -0.2390  1.5320
 1187SOL    HW215198   1.782   2.171   2.574 -0.7727  0.2104  0.3428
 1188SOL     OW15199   4.116   4.581   6.491 -0.9330  0.3197 -0.3088
 1188SOL    HW115200   4.084   4.495   6.518  1.7945 -0.9497 -1.0921
 1188SOL    HW215201   4.210   4.564   6.482 -1.2619 -0.8019 -1.5070
 1189SOL     OW15202   1.699   2.182   2.787 -0.4804  0.0347 -0.5871
 1189SOL    HW115203   1.619   2.205   2.740 -0.2204 -0.8940 -1.4980
 1189SOL    HW215204   1.698   2.255   2.849  1.4376  1.0518 -1.7504
 1190SOL     OW15205   3.444   4.270   7.693 -0.4015  0.1342 -0.1216
 1190SOL    HW115206   3.416   4.361   7.677 -1.4736 -0.0903  0.4845
 1190SOL    HW215207   3.538   4.278   7.707 -0.0186  0.4688 -2.7855
 1191SOL     OW15208   3.919   4.367   7.992  0.5544 -0.3762  0.0911
 1191SOL    HW115209   3.938   4.304   7.922  2.2681 -0.5062  0.6761
 1191SOL    HW215210   3.865   4.316   8.053 -2.7326 -0.1219 -2.6058
 1192SOL     OW15211   3.749   1.567   9.639  0.0065 -0.3905  0.0824
 1192SOL    HW115212   3.687   1.639   9.656 -0.5831 -1.3472  1.9245
 1192SOL    HW215213   3.697   1.492   9.611 -0.8936  0.7932 -1.4787
 1193SOL     OW15214   3.092   0.682   4.515 -0.0590  0.3991  0.4995
 1193SOL    HW115215   3.178   0.722   4.529 -1.1868  2.5334  1.2566
 1193SOL    HW215216   3.116   0.602   4.467 -1.3827  0.0967  0.3590
 1194SOL     OW15217   3.335   0.771   8.728  0.5357  0.4266  0.3575
 1194SOL    HW115218   3.331   0.759   8.822 -0.8728  0.3365  0.2859
 1194SOL    HW215219   3.297   0.858   8.713  0.4725  0.3327 -0.0431
 1195SOL     OW15220   3.037   4.139   9.299  0.1879  0.3251  0.0378
 1195SOL    HW115221   3.066   4.073   9.362  1.4079  1.3861  0.5915
 1195SOL    HW215222   2.944   4.118   9.300  0.0913  0.7835  0.8449
 1196SOL     OW15223   3.270   2.628   7.829  0.6304 -0.2568 -0.0921
 1196SOL    HW115224   3.323   2.575   7.889  0.3331  1.2644  1.4900
 1196SOL    HW215225   3.219   2.678   7.892 -0.1677 -0.4993 -0.5433
 1197SOL     OW15226   1.715   3.014   3.333  0.1523  0.5896 -0.2611
 1197SOL    HW115227   1.685   3.097   3.372 -2.0444 -0.0892 -0.5345
 1197SOL    HW215228   1.705   3.030   3.239 -2.5665  1.2775  0.1513
 1198SOL     OW15229   1.682   0.141   4.132  0.5956  0.3135 -0.0491
 1198SOL    HW115230   1.721   0.168   4.048  0.6478  1.6165  0.3870
 1198SOL    HW215231   1.642   0.058   4.106 -0.5686  0.4762  1.2610
 1199SOL     OW15232   3.503   4.725  14.890 -0.1421  0.2215  0.7171
 1199SOL    HW115233   3.463   0.017  14.974 -0.5880  0.6502  0.3744
 1199SOL    HW215234   3.475   4.634  14.886 -3.2021  1.0386  3.2131
 1200SOL     OW15235   4.589   3.301   8.754  0.5596 -0.3606 -0.1026
 1200SOL    HW115236   4.657   3.360   8.784 -1.2556  0.8314  1.6875
 1200SOL    HW215237   4.552   3.344   8.677 -4.0299 -0.3441  2.0729
 1201SOL     OW15238   0.592   1.631   8.044  0.0584  0.1308  0.1233
 1201SOL    HW115239   0.512   1.681   8.027 -0.1156 -0.7534 -1.5899
 1201SOL    HW215240   0.627   1.692   8.109 -0.1893 -0.1594  0.5262
 1202SOL     OW15241   0.336   0.933  14.244  1.0358  0.1101 -0.6380
 1202SOL    HW115242   0.375   0.875  14.309 -0.1924  1.2373  1.1000
 1202SOL    HW215243   0.280   0.874  14.192  0.0858  0.2779  0.1870
 1203SOL     OW15244   0.091   1.299  11.479  0.2744 -0.4521 -0.1056
 1203SOL    HW115245   0.034   1.221  11.482 -0.3438  0.0088  0.1767
 1203SOL    HW215246   0.038   1.343  11.413  1.4985  0.5265 -0.4255
 1204SOL     OW15247   1.007   1.295   3.243  0.2173  0.0724  0.3475
 1204SOL    HW115248   0.940   1.228   3.252  1.2229 -0.7381  1.9648
 1204SOL    HW215249   0.944   1.365   3.260 -0.3613 -0.0008 -1.5748
 1205SOL     OW15250   3.961   2.086   2.410  0.3402  0.2804 -0.2006
 1205SOL    HW115251   3.946   2.064   2.318 -1.4778  0.3226  0.0861
 1205SOL    HW215252   3.985   2.178   2.400  0.8810  0.3017  1.3629
 1206SOL     OW15253   1.072   3.796   0.376 -0.1626  0.5469  0.1455
 1206SOL    HW115254   1.068   3.820   0.283 -0.8305  0.0449  0.0447
 1206SOL    HW215255   1.072   3.886   0.409  2.9781  0.2124  1.0033
 1207SOL     OW15256   2.897   0.208   0.823 -0.9177  0.1946  0.2160
 1207SOL    HW115257   2.821   0.175   0.776  1.1877  0.6549 -3.5070
 1207SOL    HW215258   2.866   0.290   0.863  0.2036  0.4280  0.6253
 1208SOL     OW15259   4.169   0.166   5.756 -0.2039  0.0536  0.6363
 1208SOL    HW115260   4.131   0.084   5.786 -0.2028  0.5272  1.9206
 1208SOL    HW215261   4.205   0.200   5.838  1.9707 -1.6773  0.3779
 1209SOL     OW15262   4.308   0.618   2.498 -0.1380 -0.2661 -0.0832
 1209SOL    HW115263   4.386   0.673   2.493 -1.2744  1.4020  0.6901
 1209SOL    HW215264   4.349   0.555   2.556  0.0329 -0.9371 -0.9267
 1210SOL     OW15265   3.527   1.822   5.298 -0.2029  0.5435 -0.2098
 1210SOL    HW115266   3.440   1.824   5.259 -0.4433  0.6348  0.3329
 1210SOL    HW215267   3.576   1.776   5.230  1.0762  1.9513 -0.2487
 1211SOL     OW15268   1.007   4.094   4.592  0.5215 -0.3511 -0.5983
 1211SOL    HW115269   1.058   4.166   4.630 -0.8679  0.2595  0.1041
 1211SOL    HW215270   1.044   4.094   4.503  1.1307  0.3114 -0.3511
 1212SOL     OW15271   3.709   2.759   9.222 -0.0352 -0.3679  0.1479
 1212SOL    HW115272   3.796   2.735   9.254  0.4762  0.1322 -0.8573
 1212SOL    HW215273   3.653   2.700   9.272  0.2147  0.3405  1.2691
 1213SOL     OW15274   0.419   3.623   5.209 -0.2985  0.2340 -0.1951
 1213SOL    HW115275   0.423   3.650   5.118  1.8021  1.8418  0.3766
 1213SOL    HW215276   0.343   3.673   5.241  0.7250  1.1993  0.7646
 1214SOL     OW15277   3.858   0.010  12.510 -0.3912  0.4775 -0.3367
 1214SOL    HW115278   3.810   0.071  12.567  0.4132  0.7703  0.0165
 1214SOL    HW215279   3.796   4.705  12.448  2.3507 -1.9972 -1.4897
 1215SOL     OW15280   3.591   2.029   3.748  0.9396  0.1794  0.2819
 1215SOL    HW115281   3.653   2.029   3.821  0.5245 -1.6742  0.6264
 1215SOL    HW215282   3.627   1.967   3.685  0.1608  0.1490 -0.1293
 1216SOL     OW15283   2.569   3.887   9.322  0.0619 -0.1132  0.2151
 1216SOL    HW115284   2.479   3.912   9.301 -0.1050 -1.3481 -0.5179
 1216SOL    HW215285   2.576   3.801   9.280 -2.1195  0.6400 -1.6438
 1217SOL     OW15286   3.102   0.756   6.632 -0.4807 -0.1210  0.0104
 1217SOL    HW115287   3.034   0.743   6.698 -0.4591 -0.2248  0.0117
 1217SOL    HW215288   3.152   0.675   6.638  0.4591  0.4857  0.4883
 1218SOL     OW15289   0.608   0.040   7.994 -0.0609 -0.1569 -0.0234
 1218SOL    HW115290   0.569   4.727   8.068  0.7240 -0.6552  0.0678
 1218SOL    HW215291   0.551   0.117   8.001 -0.8037 -0.5589 -1.6159
 1219SOL     OW15292   4.414   4.169   2.683 -0.5686 -0.3482  0.9339
 1219SOL    HW115293   4.354   4.211   2.743  0.2013  2.1165 -0.0371
 1219SOL    HW215294   4.495   4.199   2.725 -0.8083 -0.1704  1.2636
 1220SOL     OW15295   0.674   2.697  12.466  0.4219 -0.3651 -0.2731
 1220SOL    HW115296   0.757   2.719  12.508  0.3683 -0.0912 -0.3132
 1220SOL    HW215297   0.613   2.749  12.518  0.2811  0.4555 -1.2709
 1221SOL     OW15298   0.367   1.319   6.371 -0.3145  0.1867 -0.6087
 1221SOL    HW115299   0.367   1.408   6.407 -1.9488  0.4572 -1.2873
 1221SOL    HW215300   0.313   1.277   6.438  0.2077 -0.9861 -0.9132
 1222SOL     OW15301   2.918   1.648   4.918 -0.2809 -0.2501  0.4200
 1222SOL    HW115302   2.919   1.584   4.989 -0.0707 -0.1318  0.5223
 1222SOL    HW215303   3.008   1.640   4.888  0.4946  1.9354  2.1712
 1223SOL     OW15304   0.812   1.191   5.770  0.7027 -0.6226  1.1813
 1223SOL    HW115305   0.849   1.140   5.697  1.3668  0.4231  0.7914
 1223SOL    HW215306   0.891   1.230   5.808  0.7968  1.5132 -1.1895
 1224SOL     OW15307   0.263   1.743   6.185  0.5304 -0.1066 -0.1509
 1224SOL    HW115308   0.210   1.792   6.247  1.6531  2.0647 -0.9039
 1224SOL    HW215309   0.229   1.653   6.186 -1.1051  0.5087 -1.3277
 1225SOL     OW15310   4.338   2.868  12.602 -0.1057  0.4308  0.3141
 1225SOL    HW115311   4.266   2.917  12.563  0.2845  1.0241  0.3293
 1225SOL    HW215312   4.369   2.931  12.668 -1.2506  0.3294  0.9446
 1226SOL     OW15313   0.826   4.426  14.522 -0.3588  0.1711  0.0895
 1226SOL    HW115314   0.814   4.350  14.464  0.1576 -0.3986  0.7376
 1226SOL    HW215315   0.901   4.391  14.569  0.3799  2.9744  0.9743
 1227SOL     OW15316   3.186   0.972  16.399  0.7976  0.3731  0.1451
 1227SOL    HW115317   3.150   0.927  16.323  0.8083 -0.3352  0.5631
 1227SOL    HW215318   3.179   1.066  16.383  0.8773  0.2393 -0.6454
 1228SOL     OW15319   3.576   0.739   6.445  0.3082  0.3539  0.0684
 1228SOL    HW115320   3.627   0.765   6.522  2.1168 -0.0293 -1.0168
 1228SOL    HW215321   3.582   0.824   6.403 -2.7952  1.4365  1.8146
 1229SOL     OW15322   1.231   0.330   7.725  0.4120 -0.3470 -0.3709
 1229SOL    HW115323   1.153   0.355   7.775 -0.0369 -0.1818 -1.1511
 1229SOL    HW215324   1.280   0.409   7.748 -2.1810  0.8960  0.9551
 1230SOL     OW15325   0.571   0.630   4.142  0.6194 -0.2278 -0.3998
 1230SOL    HW115326   0.512   0.573   4.094  0.7883  0.0944 -0.9960
 1230SOL    HW215327   0.524   0.656   4.221  0.1549  1.5941 -1.2715
 1231SOL     OW15328   2.527   2.910   1.878 -0.1609  0.3338  0.1393
 1231SOL    HW115329   2.561   2.999   1.874  2.3900 -0.6374  0.1771
 1231SOL    HW215330   2.518   2.880   1.788 -0.1305  0.9657 -0.0704
 1232SOL     OW15331   0.472   1.750   5.203  0.5165 -0.3754  0.1237
 1232SOL    HW115332   0.462   1.840   5.233 -0.1062 -0.4701  0.1970
 1232SOL    HW215333   0.419   1.712   5.273 -0.3625 -0.6273 -0.6816
 1233SOL     OW15334   3.557   3.489   6.931  0.1231 -0.2291  0.7235
 1233SOL    HW115335   3.649   3.516   6.927 -0.3396  1.5641  2.0912
 1233SOL    HW215336   3.514   3.551   6.990 -1.7055  1.0644 -1.9726
 1234SOL     OW15337   2.562   0.220   5.700 -0.1377  0.0425  0.2193
 1234SOL    HW115338   2.478   0.257   5.729 -0.3427 -0.1825 -0.0792
 1234SOL    HW215339   2.595   0.302   5.664 -0.1052 -0.2449 -0.4142
 1235SOL     OW15340   0.231   0.486   7.021 -0.1082  0.7043 -0.2493
 1235SOL    HW115341   0.301   0.544   6.992 -1.0891  1.7560 -0.4916
 1235SOL    HW215342   0.267   0.451   7.102  0.9720  0.5650 -0.7908
 1236SOL     OW15343   0.565   3.995   0.784  0.0415  0.4190 -0.3080
 1236SOL    HW115344   0.579   4.086   0.759  2.9553  1.0445  3.6189
 1236SOL    HW215345   0.478   3.982   0.820 -0.4786 -0.1716 -1.7844
 1237SOL     OW15346   0.755   0.457   3.981 -0.4672  0.0914  0.1620
 1237SOL    HW115347   0.830   0.515   3.989  0.0316 -0.4338 -0.6639
 1237SOL    HW215348   0.799   0.379   3.948  2.9142  1.9314  0.2891
 1238SOL     OW15349   4.680   3.913   6.259 -0.6443 -0.3652  0.1387
 1238SOL    HW115350   4.663   3.899   6.166 -1.1111  1.0904  0.0057
 1238SOL    HW215351   4.678   4.009   6.265 -0.8668 -0.2465 -1.9033
 1239SOL     OW15352   1.126   4.304  11.080 -0.0440  0.0551 -0.2528
 1239SOL    HW115353   1.071   4.227  11.066  0.0899 -0.0965  0.0396
 1239SOL    HW215354   1.095   4.357  11.007 -1.7685 -0.3752  0.1775
 1240SOL     OW15355   2.019   4.211  15.604  0.4802  0.5895  0.5739
 1240SOL    HW115356   2.045   4.221  15.513  1.8644  0.0317  0.9075
 1240SOL    HW215357   1.945   4.151  15.599  0.7975  0.2269  0.1824
 1241SOL     OW15358   2.228   0.967  17.292 -0.4863  0.9580 -0.2348
 1241SOL    HW115359   2.171   1.022  17.346 -0.7012  0.2397  0.2677
 1241SOL    HW215360   2.235   1.021  17.213 -0.8124  0.0516 -0.8840
 1242SOL     OW15361   3.759   4.226   8.472 -0.1557 -0.3794 -0.2488
 1242SOL    HW115362   3.678   4.276   8.485 -0.0660 -0.9487  2.5437
 1242SOL    HW215363   3.728   4.135   8.472  0.2147 -0.5027  0.3484
 1243SOL     OW15364   2.688   3.985   2.524  0.2216  1.0282  0.1685
 1243SOL    HW115365   2.643   4.001   2.441 -0.8266  1.7286  0.8650
 1243SOL    HW215366   2.777   3.997   2.494  1.4007  0.9731  3.6013
 1244SOL     OW15367   4.656   1.417   1.819 -0.6948 -0.3645  0.6859
 1244SOL    HW115368   4.635   1.496   1.769  0.3714  0.2610  1.2106
 1244SOL    HW215369   4.657   1.355   1.747 -0.1548 -1.0073  1.2422
 1245SOL     OW15370   4.299   3.618   8.148  0.2723  0.6760  0.2941
 1245SOL    HW115371   4.362   3.615   8.076 -1.4724 -1.2562 -1.1526
 1245SOL    HW215372   4.283   3.525   8.163  3.5817  0.0142 -0.2380
 1246SOL     OW15373   4.112   2.179   8.056  0.2367 -0.0780  0.7507
 1246SOL    HW115374   4.027   2.216   8.032  0.9955  0.6277 -0.8586
 1246SOL    HW215375   4.140   2.146   7.970  2.9254 -2.0028  2.3872
 1247SOL     OW15376   0.178   1.605  16.463 -0.1242  0.1825 -0.2739
 1247SOL    HW115377   0.102   1.547  16.463  0.5209 -0.6559  3.6248
 1247SOL    HW215378   0.181   1.628  16.370 -3.0706 -0.5119 -0.5479
 1248SOL     OW15379   1.032   3.315   2.104  0.0437  0.3151  0.1662
 1248SOL    HW115380   1.044   3.340   2.195  0.8982 -1.2870  0.5003
 1248SOL    HW215381   0.988   3.391   2.065 -0.6703 -0.7978 -1.2060
 1249SOL     OW15382   2.677   1.884   3.257 -0.1363  0.3028 -0.4024
 1249SOL    HW115383   2.752   1.923   3.302  0.8258 -1.7689 -0.1995
 1249SOL    HW215384   2.647   1.961   3.209  1.2403  1.3896  0.4728
 1250SOL     OW15385   1.803   3.492   4.989 -0.0418  0.2184 -0.2183
 1250SOL    HW115386   1.757   3.521   4.910 -1.3919  0.7487  0.7665
 1250SOL    HW215387   1.760   3.538   5.061  0.9407  1.3482 -0.3415
 1251SOL     OW15388   1.780   3.714  12.622 -0.1057  0.0402  0.4176
 1251SOL    HW115389   1.697   3.725  12.576 -0.2704 -0.8349  0.5058
 1251SOL    HW215390   1.787   3.618  12.624  2.0923  0.2421  1.9425
 1252SOL     OW15391   3.985   3.793   7.019 -0.6530  0.3216  0.0654
 1252SOL    HW115392   3.908   3.850   7.020 -1.3369 -0.5781 -2.1940
 1252SOL    HW215393   3.994   3.766   7.111  1.9133  1.3176  0.1247
 1253SOL     OW15394   1.262   0.608   9.431 -0.0936  0.3723  0.3690
 1253SOL    HW115395   1.184   0.624   9.378 -0.8884 -0.6136  1.2260
 1253SOL    HW215396   1.331   0.606   9.365 -1.1907  3.5492 -0.8411
 1254SOL     OW15397   3.071   1.683   3.014  0.2552 -0.0301 -0.1668
 1254SOL    HW115398   3.041   1.658   3.101  2.2595  1.3835  0.9490
 1254SOL    HW215399   3.123   1.760   3.039  1.7260 -1.2511  0.5196
 1255SOL     OW15400   2.246   1.870   7.515 -0.1036  0.6631 -0.2896
 1255SOL    HW115401   2.208   1.906   7.595  1.7624  2.1003 -0.0470
 1255SOL    HW215402   2.334   1.865   7.553 -0.3428  0.8091  0.2821
 1256SOL     OW15403   4.504   1.118  14.139  0.1769  0.3518 -0.2993
 1256SOL    HW115404   4.465   1.031  14.128 -0.1809  0.8018 -2.5063
 1256SOL    HW215405   4.422   1.167  14.137  0.1566  0.3616  0.5559
 1257SOL     OW15406   3.405   0.767  12.757 -0.1678 -0.3152 -0.0977
 1257SOL    HW115407   3.417   0.695  12.819  0.8037  0.4655  0.6405
 1257SOL    HW215408   3.313   0.752  12.736 -0.8012  1.9544  1.0496
 1258SOL     OW15409   3.057   2.257   5.096  0.0737  0.2915 -0.3418
 1258SOL    HW115410   3.109   2.178   5.088 -1.4826 -0.5650 -2.0162
 1258SOL    HW215411   2.965   2.230   5.097  0.1651  0.0522  2.3004
 1259SOL     OW15412   0.733   2.692   6.244 -0.0850  0.2188 -0.8143
 1259SOL    HW115413   0.754   2.621   6.184 -0.2711  0.0161 -0.6429
 1259SOL    HW215414   0.725   2.768   6.186  0.5552  0.2888 -0.8112
 1260SOL     OW15415   0.567   4.575   6.927  0.1222  0.3169  0.7737
 1260SOL    HW115416   0.648   4.619   6.905 -1.0651  0.0063 -4.0407
 1260SOL    HW215417   0.537   4.542   6.843 -1.0496 -0.0980  1.3405
 1261SOL     OW15418   1.358   2.055   7.545  0.2406  0.6775 -0.0854
 1261SOL    HW115419   1.287   2.114   7.571 -0.8751  0.0583 -1.7698
 1261SOL    HW215420   1.411   2.067   7.624 -1.7942 -1.6856  1.6382
 1262SOL     OW15421   1.661   1.147   9.148 -0.1090  0.4278 -0.1487
 1262SOL    HW115422   1.666   1.056   9.178 -1.1632  0.5431  0.3947
 1262SOL    HW215423   1.606   1.186   9.217 -1.7870 -1.4501 -0.4439
 1263SOL     OW15424   4.416   0.673  14.924  0.2422  0.2973  0.3358
 1263SOL    HW115425   4.444   0.638  15.009 -3.8726 -2.2308  0.6126
 1263SOL    HW215426   4.397   0.766  14.939  0.2074  0.6504 -1.8207
 1264SOL     OW15427   0.592   1.315   5.703  0.2849  0.1917 -0.4029
 1264SOL    HW115428   0.572   1.247   5.638 -1.5286 -0.9586  1.3657
 1264SOL    HW215429   0.664   1.265   5.742 -0.6214  0.0109  1.0169
 1265SOL     OW15430   2.185   4.612  10.477 -0.8764 -0.0111 -0.6470
 1265SOL    HW115431   2.219   4.655  10.399  1.1340 -3.2974 -1.5747
 1265SOL    HW215432   2.196   4.524  10.443  1.3267 -0.1741  0.4826
 1266SOL     OW15433   0.727   3.199   6.968 -0.5549 -0.2211 -0.2784
 1266SOL    HW115434   0.782   3.150   7.030 -0.4811  0.8645  0.5219
 1266SOL    HW215435   0.639   3.166   6.985 -0.6773  1.6354  2.8132
 1267SOL     OW15436   3.102   2.594   2.545  0.2847  0.1721 -0.4253
 1267SOL    HW115437   3.076   2.540   2.619  3.4501  0.2555  0.7368
 1267SOL    HW215438   3.020   2.621   2.504  0.1550 -2.4708 -1.9522
 1268SOL     OW15439   3.566   2.307   2.625 -0.1428  0.1224  0.3301
 1268SOL    HW115440   3.631   2.343   2.686  0.3622 -1.1553  0.5403
 1268SOL    HW215441   3.487   2.299   2.678 -0.1129 -0.0872  0.3432
 1269SOL     OW15442   3.039   2.285   2.703  0.0708 -0.6214  0.1466
 1269SOL    HW115443   3.009   2.199   2.733 -0.1360 -0.6265 -0.0831
 1269SOL    HW215444   2.955   2.327   2.687  1.8260  2.0296 -2.1036
 1270SOL     OW15445   3.132   2.728   6.835  0.1329 -0.0168  0.5114
 1270SOL    HW115446   3.057   2.670   6.849  0.4591 -0.5255  0.1064
 1270SOL    HW215447   3.182   2.717   6.916  1.2795  0.8667 -0.0729
 1271SOL     OW15448   4.159   3.812  14.021 -0.1246  0.5700 -0.6206
 1271SOL    HW115449   4.068   3.801  13.993  0.3410  0.6523 -2.1562
 1271SOL    HW215450   4.210   3.830  13.942 -1.4853 -1.8217 -2.0487
 1272SOL     OW15451   4.679   2.256   5.912 -0.0300 -0.2120 -0.2416
 1272SOL    HW115452   4.718   2.172   5.937  1.6425  0.1623 -1.5640
 1272SOL    HW215453   4.715   2.313   5.980 -2.0461  0.5297  0.2016
 1273SOL     OW15454   3.710   1.380   3.744 -0.1197  0.4372 -0.0220
 1273SOL    HW115455   3.786   1.323   3.756  0.0295  0.4722 -0.7702
 1273SOL    HW215456   3.667   1.321   3.681  1.0887 -0.8590  0.3645
 1274SOL     OW15457   4.088   0.630   5.885 -0.8373  0.1430  0.3077
 1274SOL    HW115458   4.053   0.718   5.869 -2.3721 -0.9498 -2.2015
 1274SOL    HW215459   4.181   0.649   5.868 -0.7374 -0.6656 -0.0197
 1275SOL     OW15460   0.636   0.369   0.145  0.0212 -0.1546  0.0841
 1275SOL    HW115461   0.710   0.430   0.141 -0.1298  0.0157 -0.1082
 1275SOL    HW215462   0.682   0.285   0.151 -0.4726 -0.4312 -0.0316
 1276SOL     OW15463   0.985   2.258   3.315  0.2120  0.2965  0.0257
 1276SOL    HW115464   1.056   2.220   3.263 -0.0982 -0.5727  0.2411
 1276SOL    HW215465   0.981   2.349   3.284 -0.2696  0.2424 -0.0731
 1277SOL     OW15466   2.813   0.624   5.966  0.1215 -0.9836  0.1885
 1277SOL    HW115467   2.786   0.703   5.920  3.8613  0.3297  0.2690
 1277SOL    HW215468   2.908   0.632   5.952 -0.3572  1.4656 -1.5859
 1278SOL     OW15469   2.893   2.240   5.657 -0.0930 -0.2973 -0.0561
 1278SOL    HW115470   2.964   2.196   5.705  0.4882  1.7193  0.9248
 1278SOL    HW215471   2.944   2.309   5.614 -0.6847  1.0339  1.3804
 1279SOL     OW15472   2.641   1.523   8.601 -0.3997 -0.5557 -0.3346
 1279SOL    HW115473   2.570   1.584   8.622 -0.4820 -0.8626  0.3052
 1279SOL    HW215474   2.602   1.437   8.616 -2.3088  0.2489 -0.7249
 1280SOL     OW15475   0.235   0.888   8.332  0.3778 -0.2875 -0.2242
 1280SOL    HW115476   0.154   0.903   8.381  0.5525 -1.9292  0.5864
 1280SOL    HW215477   0.300   0.879   8.402 -0.4541 -0.7563  0.5017
 1281SOL     OW15478   2.324   3.297   9.436  0.5605 -0.3855  0.2205
 1281SOL    HW115479   2.327   3.377   9.488 -1.2942 -0.5954  0.6551
 1281SOL    HW215480   2.315   3.234   9.508  1.4570  2.0211  2.4280
 1282SOL     OW15481   1.454   3.154  12.667  0.4108  0.1369 -0.2062
 1282SOL    HW115482   1.466   3.216  12.738  0.1383  0.2496 -0.2568
 1282SOL    HW215483   1.389   3.093  12.702  0.6498  0.2967  0.5195
 1283SOL     OW15484   2.299   0.535  16.821 -0.0134  0.1517  0.1384
 1283SOL    HW115485   2.330   0.624  16.838  1.1836  0.0021 -1.3064
 1283SOL    HW215486   2.303   0.541  16.726 -2.2123  1.4847  0.1316
 1284SOL     OW15487   0.811   2.066   6.541  0.0367  0.3624  0.2423
 1284SOL    HW115488   0.855   2.094   6.622  0.5717  0.7917 -0.1915
 1284SOL    HW215489   0.773   1.982   6.566  0.4649 -0.4987 -2.0483
 1285SOL     OW15490   2.142   4.293   0.638 -0.5303  0.6244  0.2328
 1285SOL    HW115491   2.061   4.256   0.675  0.2947 -1.5884 -0.1405
 1285SOL    HW215492   2.114   4.384   0.627 -0.8967  0.3508 -1.2102
 1286SOL     OW15493   4.453   1.917   3.757  0.7799  0.0259  0.0458
 1286SOL    HW115494   4.421   1.958   3.838 -3.1656  0.4138 -1.7133
 1286SOL    HW215495   4.373   1.877   3.724  0.4844 -0.0240  0.8283
 1287SOL     OW15496   3.818   2.731  10.734 -0.6731 -0.2624 -0.1650
 1287SOL    HW115497   3.895   2.781  10.760  0.4671 -1.6006 -0.9975
 1287SOL    HW215498   3.756   2.769  10.796 -0.3962 -2.2551  1.3320
 1288SOL     OW15499   1.788   0.582   5.934  0.1930 -0.0775  0.3327
 1288SOL    HW115500   1.799   0.487   5.934 -0.8604 -0.2050  0.3112
 1288SOL    HW215501   1.877   0.616   5.935  0.6014 -1.1841  2.5636
 1289SOL     OW15502   4.216   4.644   2.899  0.3789 -0.3106 -0.1486
 1289SOL    HW115503   4.219   4.650   2.804  1.6205  1.3873  0.0027
 1289SOL    HW215504   4.138   4.590   2.908  1.1740 -0.9762  2.7973
 1290SOL     OW15505   2.555   2.667  13.621 -0.2033  0.0348  0.2564
 1290SOL    HW115506   2.473   2.662  13.670 -0.7861  1.3788 -0.5716
 1290SOL    HW215507   2.533   2.654  13.529  0.8782 -2.8797  0.4332
 1291SOL     OW15508   1.649   2.199   7.608  0.2525  0.5376  0.1102
 1291SOL    HW115509   1.616   2.242   7.529 -0.2727 -1.2419 -0.6388
 1291SOL    HW215510   1.652   2.109   7.576 -1.0041  1.3185 -2.2026
 1292SOL     OW15511   2.006   3.324  10.889  0.7134  0.2851  0.1098
 1292SOL    HW115512   1.981   3.405  10.844 -0.7190 -1.4393 -2.2310
 1292SOL    HW215513   2.100   3.334  10.908  0.7263 -0.8891  0.6714
 1293SOL     OW15514   0.758   1.277   6.156  0.1648 -0.1606 -0.4347
 1293SOL    HW115515   0.736   1.205   6.097  2.5542 -0.5970 -0.8012
 1293SOL    HW215516   0.848   1.248   6.175  0.4113 -0.6918 -2.3866
 1294SOL     OW15517   0.847   3.092   7.190 -0.4230  0.3869  0.0186
 1294SOL    HW115518   0.829   3.038   7.267  2.2440 -1.7377 -0.8532
 1294SOL    HW215519   0.877   3.022   7.132 -0.5897 -2.1957  3.0671
 1295SOL     OW15520   2.682   1.782  14.980 -0.6997  0.1399  0.5392
 1295SOL    HW115521   2.606   1.835  14.955  0.1718  1.6008  1.0695
 1295SOL    HW215522   2.672   1.708  14.920  2.3482  0.9028 -0.8951
 1296SOL     OW15523   1.183   3.333   7.792 -0.1625  0.1917 -0.1223
 1296SOL    HW115524   1.117   3.264   7.791 -0.9784  0.9608 -0.2529
 1296SOL    HW215525   1.165   3.371   7.878 -1.9373  2.1597 -1.3596
 1297SOL     OW15526   1.489   2.086   9.054  0.0477 -0.1414  0.0950
 1297SOL    HW115527   1.447   2.008   9.019 -0.0297 -1.4841  3.1298
 1297SOL    HW215528   1.412   2.144   9.061 -0.4219 -0.7127 -0.4066
 1298SOL     OW15529   2.754   0.052  16.110  0.3852  0.4609  0.3254
 1298SOL    HW115530   2.660   0.061  16.127  0.2848  2.1380 -1.0592
 1298SOL    HW215531   2.792   0.113  16.174  0.4420 -0.2337  0.9484
 1299SOL     OW15532   1.811   3.545   6.111  0.4186  0.4116  0.3126
 1299SOL    HW115533   1.754   3.468   6.115  0.8996  0.2454  3.8646
 1299SOL    HW215534   1.881   3.513   6.168  0.2358  1.4437  1.1203
 1300SOL     OW15535   0.072   0.522   5.800 -0.0134 -0.5280 -0.8594
 1300SOL    HW115536   0.095   0.462   5.870  1.2225 -0.3124 -1.0780
 1300SOL    HW215537   4.714   0.500   5.781  0.1376  0.1674 -2.4577
 1301SOL     OW15538   2.158   2.613   6.239 -0.5022  0.3151  0.3249
 1301SOL    HW115539   2.120   2.539   6.191  0.2113  1.6997 -2.3462
 1301SOL    HW215540   2.179   2.674   6.169  1.4949 -0.0523  0.5909
 1302SOL     OW15541   1.412   1.402   4.604  0.3019  0.7186 -0.4793
 1302SOL    HW115542   1.478   1.383   4.671  1.2105  1.6582 -1.1124
 1302SOL    HW215543   1.451   1.372   4.522 -1.1751  0.3346 -1.0359
 1303SOL     OW15544   4.385   0.403   2.649  0.5328 -1.1603 -0.2842
 1303SOL    HW115545   4.380   0.308   2.645  0.5272 -1.1187 -1.5760
 1303SOL    HW215546   4.433   0.416   2.730 -0.6256  2.0107 -0.1028
 1304SOL     OW15547   4.040   1.856   3.840 -0.0629 -0.3534  0.0722
 1304SOL    HW115548   4.013   1.941   3.807 -1.9417 -0.8744  0.2604
 1304SOL    HW215549   3.998   1.849   3.926  1.6909 -0.3929  0.9341
 1305SOL     OW15550   1.054   4.542  11.731  0.1466 -0.2755 -0.5041
 1305SOL    HW115551   1.004   4.499  11.802  2.4080 -1.2612  0.4937
 1305SOL    HW215552   1.128   4.570  11.784 -2.9105 -0.6224  3.9792
 1306SOL     OW15553   2.089   0.342  12.076  0.3668  0.6230  0.5788
 1306SOL    HW115554   2.177   0.379  12.075  1.4186 -1.7963  2.5637
 1306SOL    HW215555   2.034   0.418  12.055  0.4101  0.0768 -1.4903
 1307SOL     OW15556   0.326   0.255   3.456  0.0389 -0.2753 -0.1216
 1307SOL    HW115557   0.282   0.327   3.502  1.1533  0.0286  0.4815
 1307SOL    HW215558   0.410   0.255   3.502 -0.1043  0.3814  0.1515
 1308SOL     OW15559   0.728   3.751   4.985 -0.0505  0.6390 -0.3447
 1308SOL    HW115560   0.755   3.666   4.951  0.0594 -0.0649  1.5038
 1308SOL    HW215561   0.798   3.804   4.946 -1.5031  3.0995  0.3530
 1309SOL     OW15562   4.015   1.446   2.748  0.2147 -0.5578 -0.0441
 1309SOL    HW115563   4.071   1.524   2.750  0.1501 -0.5497  1.5610
 1309SOL    HW215564   4.029   1.409   2.835  1.3106  3.5305  1.5348
 1310SOL     OW15565   3.831   2.939   2.914 -0.2093 -0.2541 -0.0954
 1310SOL    HW115566   3.923   2.942   2.941 -0.4249  1.4796  0.3710
 1310SOL    HW215567   3.826   2.843   2.908 -2.1298 -0.1166 -0.5830
 1311SOL     OW15568   2.682   3.204   8.507  0.2763  0.3802 -0.1383
 1311SOL    HW115569   2.649   3.285   8.545  3.2124  1.8389 -0.6437
 1311SOL    HW215570   2.768   3.202   8.551  0.5197 -2.3205 -0.6982
 1312SOL     OW15571   2.884   2.604   2.391  0.4941 -0.1222 -0.8293
 1312SOL    HW115572   2.831   2.527   2.371  1.4485 -0.6097 -1.4793
 1312SOL    HW215573   2.810   2.660   2.411  2.8041  1.7613  2.3686
 1313SOL     OW15574   3.878   1.647   6.617  0.6276 -0.2420 -0.1224
 1313SOL    HW115575   3.843   1.565   6.653  1.8505 -1.0374 -0.7603
 1313SOL    HW215576   3.969   1.637   6.644  0.3025  1.6325  1.7461
 1314SOL     OW15577   4.290   2.304   8.970  0.1777  0.4957 -0.1654
 1314SOL    HW115578   4.275   2.335   8.881 -0.1654  1.5591  0.2660
 1314SOL    HW215579   4.300   2.212   8.948  2.4929  0.5941  0.5185
 1315SOL     OW15580   2.368   1.910   6.510  0.0177 -0.2310  0.1719
 1315SOL    HW115581   2.383   1.995   6.551 -1.3433  0.0539  0.0936
 1315SOL    HW215582   2.397   1.930   6.421 -0.5847 -1.6405 -0.3510
 1316SOL     OW15583   1.587   0.169   4.859  0.1052 -0.0175  0.3398
 1316SOL    HW115584   1.509   0.133   4.817  1.0160 -1.4800 -0.1003
 1316SOL    HW215585   1.570   0.162   4.952 -0.7966  0.1998  0.1875
 1317SOL     OW15586   0.438   0.856  12.414  0.2521  0.5435 -0.4752
 1317SOL    HW115587   0.494   0.790  12.373 -2.2119 -0.6152 -1.9387
 1317SOL    HW215588   0.362   0.837  12.359  1.4058  2.3028 -2.6945
 1318SOL     OW15589   1.409   3.492   7.293  0.1708  0.2656  1.2855
 1318SOL    HW115590   1.419   3.541   7.375  0.9383  0.5198  1.0460
 1318SOL    HW215591   1.329   3.441   7.303 -0.4574  0.5478 -2.2857
 1319SOL     OW15592   2.248   4.312   8.206 -0.1747  0.2267  0.6328
 1319SOL    HW115593   2.231   4.279   8.118  0.4718  1.1594  0.1676
 1319SOL    HW215594   2.297   4.389   8.180 -1.6470  1.2149  0.7883
 1320SOL     OW15595   4.454   3.733   3.953 -0.1519 -0.1213  0.4114
 1320SOL    HW115596   4.413   3.760   4.035 -1.5217 -0.1134 -0.2719
 1320SOL    HW215597   4.481   3.818   3.920  1.7148 -0.4170  1.1574
 1321SOL     OW15598   2.147   2.381   2.400  0.1158  0.2924 -0.0918
 1321SOL    HW115599   2.073   2.320   2.404  0.0893  0.3025 -0.4813
 1321SOL    HW215600   2.104   2.464   2.378  2.2724  1.9782  1.9738
 1322SOL     OW15601   2.349   1.366  15.954 -0.2413  0.1843  0.6704
 1322SOL    HW115602   2.420   1.384  15.892  0.5997  0.0481  1.5819
 1322SOL    HW215603   2.301   1.448  15.964  0.5879  1.0375 -2.2913
 1323SOL     OW15604   2.163   2.467   5.467  0.1033  0.1947 -0.0067
 1323SOL    HW115605   2.119   2.431   5.544 -0.4940  0.0263 -0.4266
 1323SOL    HW215606   2.176   2.388   5.414 -0.2596  0.1428 -0.0224
 1324SOL     OW15607   1.306   0.946   4.593  0.4183  0.4453 -0.0432
 1324SOL    HW115608   1.381   1.005   4.599 -1.1092  2.3028  1.0039
 1324SOL    HW215609   1.353   0.870   4.628 -1.8893 -0.5835  0.8293
 1325SOL     OW15610   1.596   4.142   6.670 -0.2322  0.2982 -0.3697
 1325SOL    HW115611   1.688   4.119   6.655 -1.3166 -2.0844 -3.3966
 1325SOL    HW215612   1.551   4.104   6.596 -1.5406 -0.7060  0.9518
 1326SOL     OW15613   1.777   1.320   7.453  0.3067 -0.0123  0.9122
 1326SOL    HW115614   1.694   1.274   7.466  0.2790 -0.5720 -1.1732
 1326SOL    HW215615   1.798   1.300   7.362 -0.8425 -1.0619  0.8803
 1327SOL     OW15616   1.995   2.847  11.523  0.3263 -0.2898 -0.0083
 1327SOL    HW115617   1.991   2.775  11.460 -3.5935  1.2564 -1.4961
 1327SOL    HW215618   1.984   2.931  11.479 -0.9379 -1.6822 -2.3544
 1328SOL     OW15619   3.046   0.724   9.453 -0.1259 -0.2633 -0.0429
 1328SOL    HW115620   3.007   0.685   9.375  1.1842 -1.3389 -0.1615
 1328SOL    HW215621   3.135   0.740   9.421  0.1006 -0.8348  0.3064
 1329SOL     OW15622   1.970   1.352  14.602 -0.4302  0.6794 -0.2175
 1329SOL    HW115623   1.960   1.350  14.507 -2.9180  0.1768  0.0460
 1329SOL    HW215624   1.998   1.261  14.616  0.5102  1.1626  1.0853
 1330SOL     OW15625   4.615   0.048  17.219 -0.1902  0.8992  0.1272
 1330SOL    HW115626   4.609   4.692  17.187 -0.1724  0.1083  2.3511
 1330SOL    HW215627   4.666   0.034  17.298 -0.5776 -2.1545 -0.1906
 1331SOL     OW15628   1.747   1.495  16.619  0.1448  0.1766  0.6094
 1331SOL    HW115629   1.669   1.452  16.585 -0.6844  1.8027  0.4610
 1331SOL    HW215630   1.815   1.434  16.590 -0.6691 -0.0160 -0.9164
 1332SOL     OW15631   0.390   0.855   8.564 -0.1117  0.3976 -0.8606
 1332SOL    HW115632   0.416   0.862   8.656 -2.4595 -0.9309 -0.1048
 1332SOL    HW215633   0.335   0.778   8.573  1.6607 -0.8517 -0.8202
 1333SOL     OW15634   2.589   4.071   7.747  0.3103 -0.5110 -0.0583
 1333SOL    HW115635   2.654   4.031   7.689 -1.1279  0.0203 -2.0263
 1333SOL    HW215636   2.562   3.985   7.779 -0.8880 -0.2401 -0.3337
 1334SOL     OW15637   3.872   2.120  13.986 -0.2691  0.3572 -0.7552
 1334SOL    HW115638   3.956   2.163  13.998  0.3435 -0.4786 -2.0711
 1334SOL    HW215639   3.874   2.080  14.073  0.5254  0.4371 -0.7366
 1335SOL     OW15640   0.150   2.797   8.669 -0.4123 -0.1845 -0.1074
 1335SOL    HW115641   0.228   2.742   8.682 -0.2576  0.5365  2.1284
 1335SOL    HW215642   0.141   2.838   8.755  0.1024 -1.8975  0.7573
 1336SOL     OW15643   3.567   1.358  15.867 -0.3678 -0.5183 -0.0198
 1336SOL    HW115644   3.495   1.420  15.879 -2.0750 -2.3792 -0.5891
 1336SOL    HW215645   3.624   1.363  15.943  2.2043 -0.4786 -1.9458
 1337SOL     OW15646   4.577   1.451   2.392 -0.4367  0.5227 -0.2386
 1337SOL    HW115647   4.522   1.456   2.470  0.5349  1.8827  0.3654
 1337SOL    HW215648   4.643   1.392   2.430  0.9081  1.4381 -1.1347
 1338SOL     OW15649   1.349   0.859   5.600 -0.0782 -0.7959  0.2253
 1338SOL    HW115650   1.271   0.832   5.648 -2.4045  2.8735 -1.4927
 1338SOL    HW215651   1.349   0.807   5.519  0.6949  1.9792 -1.5716
 1339SOL     OW15652   0.205   2.414  12.407 -0.0301 -0.7318 -0.5767
 1339SOL    HW115653   0.227   2.432  12.316  1.3722  1.4492  0.2134
 1339SOL    HW215654   0.112   2.435  12.400  0.4221  1.8910  1.3531
 1340SOL     OW15655   0.207   4.109   8.133 -0.2510 -0.7345  0.4795
 1340SOL    HW115656   0.125   4.120   8.181  0.0108 -1.8699  1.1916
 1340SOL    HW215657   0.182   4.049   8.063  0.2344 -0.0199 -0.3118
 1341SOL     OW15658   4.400   3.598  12.012  0.0056 -0.4598 -0.1446
 1341SOL    HW115659   4.478   3.636  12.052  0.7195 -0.6768 -1.3381
 1341SOL    HW215660   4.325   3.654  12.035 -1.1781 -1.8771 -0.4893
 1342SOL     OW15661   3.842   4.425   2.507 -0.6701  0.3018 -0.0097
 1342SOL    HW115662   3.765   4.412   2.451 -1.6689  2.0061  0.9684
 1342SOL    HW215663   3.902   4.355   2.481 -0.5922  0.8899 -1.3787
 1343SOL     OW15664   0.426   3.102   9.888 -0.0114  0.7254  0.2830
 1343SOL    HW115665   0.348   3.157   9.897  1.9684  3.8933 -1.7258
 1343SOL    HW215666   0.386   3.016   9.898 -2.3640  1.4782 -2.9222
 1344SOL     OW15667   1.299   3.980   4.695  0.1863  0.4158 -0.6613
 1344SOL    HW115668   1.296   3.957   4.788  1.7935 -0.1095 -0.7406
 1344SOL    HW215669   1.335   4.069   4.703 -1.1314  1.0061 -1.3037
 1345SOL     OW15670   2.250   0.798   8.646  0.2177 -0.8185 -0.1809
 1345SOL    HW115671   2.317   0.768   8.706  2.2495 -1.2088 -2.6573
 1345SOL    HW215672   2.197   0.862   8.694 -1.9131 -1.8635 -1.1334
 1346SOL     OW15673   1.899   4.721   2.658  0.0338 -0.0055  0.1570
 1346SOL    HW115674   1.980   0.037   2.664 -0.3471  0.7927 -1.3991
 1346SOL    HW215675   1.888   4.698   2.751  1.4508 -0.1124  0.2958
 1347SOL     OW15676   0.146   1.148  14.073 -0.2088  0.4780  1.0167
 1347SOL    HW115677   0.162   1.148  14.168  1.2860 -0.1745  0.7702
 1347SOL    HW215678   0.235   1.175  14.049  0.0445 -1.8108 -0.6213
 1348SOL     OW15679   0.525   2.016   5.241 -0.1554 -0.1774  0.4061
 1348SOL    HW115680   0.564   2.102   5.254  1.1787 -0.1414 -3.6975
 1348SOL    HW215681   0.509   1.998   5.334 -0.6173  1.4809  0.6435
 1349SOL     OW15682   4.444   2.446   4.429 -0.1898  0.2120  0.0026
 1349SOL    HW115683   4.455   2.383   4.358  1.1756  0.5051 -0.0280
 1349SOL    HW215684   4.351   2.462   4.412  0.0456  0.9207 -0.6055
 1350SOL     OW15685   4.723   3.307  12.709 -0.0098  0.0515  0.5742
 1350SOL    HW115686   0.081   3.309  12.680 -0.4668  0.9557 -0.8055
 1350SOL    HW215687   4.712   3.390  12.754  0.5029  0.8367 -0.7597
 1351SOL     OW15688   1.075   4.552  15.246  0.0303 -0.2378 -0.1944
 1351SOL    HW115689   1.055   4.568  15.338  2.8161 -1.6477  0.6613
 1351SOL    HW215690   0.993   4.577  15.203  0.6277 -0.7676 -1.6082
 1352SOL     OW15691   2.448   1.722   0.607  0.1619 -0.6055  0.4061
 1352SOL    HW115692   2.503   1.775   0.549 -1.5646  0.6451 -0.1051
 1352SOL    HW215693   2.500   1.642   0.597  0.5773 -0.4911  1.7259
 1353SOL     OW15694   2.250   0.817  16.831  0.0815 -0.5588  0.5240
 1353SOL    HW115695   2.316   0.812  16.900  1.7724 -2.0452 -1.1966
 1353SOL    HW215696   2.168   0.827  16.879 -1.2344 -2.0193 -1.4575
 1354SOL     OW15697   1.790   0.905   2.181 -0.5260  0.2753 -0.2970
 1354SOL    HW115698   1.706   0.861   2.167  0.3537 -1.2315 -0.8002
 1354SOL    HW215699   1.859   0.840   2.170  1.7013  2.4911  0.5526
 1355SOL     OW15700   4.423   4.333  10.202 -0.3120  0.0537 -0.7600
 1355SOL    HW115701   4.464   4.253  10.234 -1.7602  0.9406  3.3393
 1355SOL    HW215702   4.474   4.343  10.121 -0.8743  1.4453 -0.9435
 1356SOL     OW15703   4.695   1.058  11.536 -0.4214  0.2304  0.0692
 1356SOL    HW115704   0.001   0.990  11.483 -2.0409  1.4649 -2.7239
 1356SOL    HW215705   4.600   1.049  11.523 -0.9068  1.0061  2.9928
 1357SOL     OW15706   3.247   0.544  13.081 -0.1086 -0.3880 -0.0802
 1357SOL    HW115707   3.264   0.638  13.085  2.1447 -0.7887  0.0134
 1357SOL    HW215708   3.257   0.521  12.988  0.8473 -0.0839 -0.0606
 1358SOL     OW15709   1.863   2.469   3.014 -0.4971  0.3887  0.2244
 1358SOL    HW115710   1.854   2.468   2.919  2.0672 -0.6132 -0.0080
 1358SOL    HW215711   1.918   2.547   3.024  0.5445 -0.3420  0.2230
 1359SOL     OW15712   0.323   3.009   6.662  0.6333 -0.1542 -0.2917
 1359SOL    HW115713   0.352   3.095   6.630  0.8213 -0.7682 -1.7576
 1359SOL    HW215714   0.349   3.024   6.753  1.3522  0.4561 -0.6000
 1360SOL     OW15715   2.679   0.349  10.074 -0.4582  0.4188 -0.0862
 1360SOL    HW115716   2.601   0.395  10.103 -1.4975 -0.7867 -0.9955
 1360SOL    HW215717   2.696   0.392   9.991  0.4145 -0.1657 -0.2093
 1361SOL     OW15718   1.240   1.259   6.453  0.0161 -0.0864 -0.8434
 1361SOL    HW115719   1.278   1.347   6.447  3.8092 -1.7388 -0.9899
 1361SOL    HW215720   1.153   1.268   6.413 -0.9904  1.8006  1.7453
 1362SOL     OW15721   0.619   2.844   4.526 -0.1322  0.3170  0.7089
 1362SOL    HW115722   0.686   2.829   4.459  0.6144  2.0693  1.0727
 1362SOL    HW215723   0.531   2.844   4.489  1.4595 -0.6722 -3.0860
 1363SOL     OW15724   4.144   2.768   8.223 -0.2983 -0.2437  0.6324
 1363SOL    HW115725   4.127   2.782   8.130  2.1469 -0.8606  0.0863
 1363SOL    HW215726   4.102   2.683   8.235  1.0664 -0.7045  2.1960
 1364SOL     OW15727   3.968   2.407   8.888  0.7756  0.1578  0.2416
 1364SOL    HW115728   4.042   2.425   8.830  1.9480 -0.3104  1.5858
 1364SOL    HW215729   4.003   2.435   8.973  3.2828  1.0672 -1.1020
 1365SOL     OW15730   4.080   4.678   8.605  0.3098 -0.0765 -0.2035
 1365SOL    HW115731   4.058   4.586   8.593  0.6398 -0.3307  1.2046
 1365SOL    HW215732   4.103   4.722   8.523  0.4687  0.6219  0.2114
 1366SOL     OW15733   3.671   2.036   7.216 -0.0502  0.0812  0.6343
 1366SOL    HW115734   3.680   2.125   7.181 -2.7441 -0.3509 -1.1342
 1366SOL    HW215735   3.709   2.042   7.303  3.2843  1.5339 -0.9149
 1367SOL     OW15736   1.236   4.223   8.796  0.1359  0.4289 -0.4193
 1367SOL    HW115737   1.188   4.254   8.873  1.2684 -1.3138  0.9949
 1367SOL    HW215738   1.174   4.165   8.751  0.1551  0.8926 -1.0334
 1368SOL     OW15739   0.129   1.936  16.430 -0.1383  0.0989 -0.1105
 1368SOL    HW115740   0.187   1.861  16.413  0.8667  0.6180  1.0447
 1368SOL    HW215741   0.202   1.997  16.427 -0.0231 -0.1475 -2.5367
 1369SOL     OW15742   2.486   1.940  11.212  0.0758 -0.2890 -0.2536
 1369SOL    HW115743   2.483   1.916  11.305 -1.0668  2.7191  0.4855
 1369SOL    HW215744   2.428   1.875  11.173 -1.5193 -0.1589  1.8670
 1370SOL     OW15745   1.865   2.601  11.021 -0.4820  0.0795  0.6795
 1370SOL    HW115746   1.861   2.532  10.955  1.0978 -0.5623  1.2678
 1370SOL    HW215747   1.772   2.613  11.043 -0.4029  2.7768 -0.4803
 1371SOL     OW15748   1.029   3.414   6.240  0.1756  0.2518 -0.3455
 1371SOL    HW115749   1.069   3.488   6.193 -0.4140  1.1017  0.5106
 1371SOL    HW215750   1.079   3.419   6.321 -0.7970  0.1305  0.2625
 1372SOL     OW15751   2.170   0.919  10.007  0.4435  0.1586  0.6619
 1372SOL    HW115752   2.222   0.941  10.084 -0.5601  0.5696  1.2230
 1372SOL    HW215753   2.171   1.000   9.957 -3.3771 -2.0371 -2.9756
 1373SOL     OW15754   3.981   0.279   4.397 -0.1774 -0.2341  0.3272
 1373SOL    HW115755   3.892   0.276   4.434 -0.1760 -0.5064  0.3091
 1373SOL    HW215756   3.968   0.337   4.322  0.4018  2.8822  2.6001
 1374SOL     OW15757   2.408   3.450  12.464  0.0155  0.2990 -0.6219
 1374SOL    HW115758   2.488   3.444  12.516 -0.6594  0.0347  0.3932
 1374SOL    HW215759   2.432   3.422  12.376 -0.3790  1.8212 -1.2186
 1375SOL     OW15760   3.644   0.332   8.936 -0.3323  0.2265  0.8815
 1375SOL    HW115761   3.587   0.266   8.975  0.0213 -0.4226  0.3100
 1375SOL    HW215762   3.589   0.368   8.866 -0.0702  0.2252  0.6742
 1376SOL     OW15763   2.294   3.834   4.458  0.0833  0.6108 -0.2438
 1376SOL    HW115764   2.356   3.878   4.516  1.8587 -0.8044 -1.0567
 1376SOL    HW215765   2.238   3.800   4.528  0.9940 -1.3369 -0.4407
 1377SOL     OW15766   3.412   4.717   9.514 -0.1646  0.2761 -0.2155
 1377SOL    HW115767   3.418   0.036   9.594 -1.3178  0.8160 -0.4800
 1377SOL    HW215768   3.473   4.648   9.537 -0.5503  0.5423  1.6533
 1378SOL     OW15769   2.277   0.305   2.346 -0.0285 -0.1892 -0.2506
 1378SOL    HW115770   2.338   0.366   2.306  0.7772 -0.0800  1.1497
 1378SOL    HW215771   2.317   0.297   2.433 -0.6500 -0.2270  0.0388
 1379SOL     OW15772   1.949   0.077   5.474  0.0926 -0.7918  0.1878
 1379SOL    HW115773   1.952   4.717   5.488  0.4113 -0.8722 -0.4648
 1379SOL    HW215774   2.041   0.096   5.459  0.1683 -1.2851  0.0425
 1380SOL     OW15775   1.877   0.553   1.854 -0.1527  0.5438 -0.7487
 1380SOL    HW115776   1.906   0.467   1.883 -1.9073  0.6606  1.2806
 1380SOL    HW215777   1.847   0.550   1.763 -0.4244  1.0251 -0.6723
 1381SOL     OW15778   3.932   2.048   4.439 -0.1953  0.2861 -0.0422
 1381SOL    HW115779   3.865   2.111   4.415 -0.0666  0.2957 -0.3753
 1381SOL    HW215780   4.001   2.092   4.488  0.1006  0.0575 -0.2534
 1382SOL     OW15781   1.307   3.811  14.669 -0.0360 -0.1257  0.0615
 1382SOL    HW115782   1.390   3.830  14.713  0.5152 -1.6706 -0.3050
 1382SOL    HW215783   1.255   3.777  14.741 -0.1427 -0.8312 -0.3483
 1383SOL     OW15784   0.800   4.432  14.833 -0.0858 -0.6713 -0.0844
 1383SOL    HW115785   0.847   4.353  14.805  0.2186 -1.5544  3.0135
 1383SOL    HW215786   0.822   4.488  14.758 -0.6774 -0.4655 -0.1044
 1384SOL     OW15787   4.479   2.973   5.723  0.5098 -0.2173 -0.0759
 1384SOL    HW115788   4.449   3.051   5.771  0.4657 -0.3602  0.1273
 1384SOL    HW215789   4.424   2.908   5.767  2.0815 -0.5757  1.3522
 1385SOL     OW15790   0.697   3.323  10.749  0.7962 -0.6151  0.6210
 1385SOL    HW115791   0.778   3.325  10.800  0.8320 -0.8564  0.5726
 1385SOL    HW215792   0.724   3.289  10.664 -0.3085  0.6147 -0.2182
 1386SOL     OW15793   3.670   3.666   7.415 -0.4289 -0.4469  0.5308
 1386SOL    HW115794   3.717   3.745   7.388 -2.6223 -0.0690 -2.2054
 1386SOL    HW215795   3.579   3.689   7.394 -0.5082 -2.2859 -1.1487
 1387SOL     OW15796   3.268   0.574   7.758 -0.3047 -0.3238 -0.0605
 1387SOL    HW115797   3.267   0.663   7.795  2.2303  0.2271 -1.3518
 1387SOL    HW215798   3.184   0.586   7.714  0.6243 -0.5749 -1.8692
 1388SOL     OW15799   3.922   2.214   7.376  0.2144 -0.1208 -0.1539
 1388SOL    HW115800   3.830   2.227   7.400  0.2885  1.5461 -0.7753
 1388SOL    HW215801   3.922   2.118   7.374 -0.5148 -0.1414  0.8849
 1389SOL     OW15802   2.395   1.370  12.778  0.1034  0.0579 -0.3799
 1389SOL    HW115803   2.431   1.296  12.730 -1.9589  0.9526 -3.3295
 1389SOL    HW215804   2.400   1.328  12.864  0.2708  1.5543  0.3294
 1390SOL     OW15805   0.684   1.369   7.226 -0.0335  0.1874  0.2479
 1390SOL    HW115806   0.748   1.402   7.163  0.6038 -0.1611  0.7134
 1390SOL    HW215807   0.734   1.314   7.287  0.2271 -1.7078 -1.6775
 1391SOL     OW15808   3.531   0.186   9.163 -0.2168  0.0058  0.1847
 1391SOL    HW115809   3.577   0.102   9.162  0.0873  0.1479  1.9617
 1391SOL    HW215810   3.565   0.218   9.246  1.2017  1.0811 -0.8235
 1392SOL     OW15811   1.161   2.775   9.037  0.6634  0.0239  0.4856
 1392SOL    HW115812   1.105   2.822   8.975  1.3870 -0.0815 -0.2556
 1392SOL    HW215813   1.171   2.689   8.997 -0.3780 -1.0515  2.5541
 1393SOL     OW15814   1.418   3.945   7.942  0.8786 -0.3054 -0.2444
 1393SOL    HW115815   1.334   3.945   7.897  0.4185  0.6960  0.6029
 1393SOL    HW215816   1.474   3.918   7.870 -2.0284 -0.7802 -2.3228
 1394SOL     OW15817   1.178   2.117  16.067  0.3708  0.0047  0.7147
 1394SOL    HW115818   1.156   2.108  16.159  0.7306  1.6372  0.9682
 1394SOL    HW215819   1.272   2.134  16.080  0.6886 -1.5411  0.4403
 1395SOL     OW15820   2.762   2.967   8.059  0.3943 -0.6275 -0.1647
 1395SOL    HW115821   2.691   2.933   8.114  0.3334  1.1281  0.8437
 1395SOL    HW215822   2.812   3.021   8.120  0.4016  0.9693 -1.5762
 1396SOL     OW15823   3.342   1.315   5.373 -0.5646  0.3008 -0.0973
 1396SOL    HW115824   3.324   1.225   5.401  3.0856  0.0563  1.4761
 1396SOL    HW215825   3.390   1.295   5.293  1.6161  0.7661  1.1045
 1397SOL     OW15826   2.701   3.213   6.296 -0.0309 -0.8448  0.1110
 1397SOL    HW115827   2.642   3.176   6.231 -0.1184 -1.2874  0.4440
 1397SOL    HW215828   2.668   3.166   6.372 -0.2936 -0.9924 -0.0961
 1398SOL     OW15829   2.956   1.278   8.216  0.0736 -0.1481 -0.2934
 1398SOL    HW115830   2.878   1.310   8.261 -0.3758 -1.3417 -0.2228
 1398SOL    HW215831   2.989   1.215   8.280  1.9669 -0.1919 -1.3022
 1399SOL     OW15832   1.622   3.527   5.229  0.1105  0.0451  0.9030
 1399SOL    HW115833   1.527   3.537   5.236  0.3231  1.2028  2.0764
 1399SOL    HW215834   1.627   3.436   5.199 -2.4313  0.1257  0.2127
 1400SOL     OW15835   1.871   3.225  11.121 -0.1868 -0.2278 -0.5503
 1400SOL    HW115836   1.896   3.246  11.031  1.1122  0.8160  0.0416
 1400SOL    HW215837   1.891   3.131  11.128  1.1062  0.1407  0.8447
 1401SOL     OW15838   0.365   4.281   5.627  0.4080  0.0165  0.0557
 1401SOL    HW115839   0.404   4.336   5.559 -1.3696  1.4283  0.1750
 1401SOL    HW215840   0.283   4.264   5.580 -0.3378  2.2119  0.6010
 1402SOL     OW15841   0.827   0.439   0.428  0.4100 -0.4560 -0.2648
 1402SOL    HW115842   0.782   0.439   0.512 -0.1768  1.4577 -0.5744
 1402SOL    HW215843   0.788   0.521   0.397  2.0059  0.0362 -0.9822
 1403SOL     OW15844   4.256   3.422   5.129  0.2465  0.0077 -0.1373
 1403SOL    HW115845   4.303   3.406   5.047  0.4224  2.6515 -0.5513
 1403SOL    HW215846   4.189   3.486   5.103  0.2495  0.8009  1.8533
 1404SOL     OW15847   4.733   3.204   5.533  0.9836  0.3067  0.2450
 1404SOL    HW115848   0.042   3.267   5.590 -0.2416  0.7630  0.6602
 1404SOL    HW215849   0.048   3.215   5.452  1.5016 -1.3404  0.3389
 1405SOL     OW15850   4.335   2.479   2.303 -0.3004  0.5039  0.3466
 1405SOL    HW115851   4.326   2.561   2.255 -2.3947 -0.1367 -0.3349
 1405SOL    HW215852   4.425   2.494   2.334 -0.7951  0.2435  1.8758
 1406SOL     OW15853   2.403   3.997   2.210 -0.3705  0.1768  0.0121
 1406SOL    HW115854   2.346   4.030   2.140  0.7848 -1.2658 -1.6257
 1406SOL    HW215855   2.485   3.983   2.163  0.4274 -1.3173  1.8496
 1407SOL     OW15856   1.814   0.788   6.455 -0.3962 -0.3442  0.3017
 1407SOL    HW115857   1.859   0.762   6.375  2.6678  0.1990  1.8792
 1407SOL    HW215858   1.736   0.829   6.417 -1.8161 -1.3376  2.1242
 1408SOL     OW15859   2.032   0.139  16.458  0.2236  0.1006 -0.3325
 1408SOL    HW115860   1.996   0.050  16.455  2.7065 -0.8622 -2.0859
 1408SOL    HW215861   1.954   0.191  16.442 -0.4693 -0.3243  1.7581
 1409SOL     OW15862   1.926   4.281  14.349 -0.2191  0.0305  0.1204
 1409SOL    HW115863   1.983   4.206  14.331 -0.7882 -0.2050 -0.7118
 1409SOL    HW215864   1.948   4.333  14.271 -1.0704 -0.2460 -0.3027
 1410SOL     OW15865   1.977   4.338   4.952  0.1125  0.2956  0.1077
 1410SOL    HW115866   1.974   4.342   5.048 -0.6338 -1.9021  0.1613
 1410SOL    HW215867   1.994   4.429   4.925 -0.9858  0.1145 -1.2253
 1411SOL     OW15868   1.243   3.210   1.921  0.3828  0.1636  0.3008
 1411SOL    HW115869   1.228   3.141   1.986  0.9167 -0.3427 -0.1031
 1411SOL    HW215870   1.193   3.280   1.962  0.4764 -0.2259  1.0667
 1412SOL     OW15871   2.264   2.160   5.044 -0.5893  0.1842 -0.0093
 1412SOL    HW115872   2.339   2.101   5.034 -1.2096 -0.8973  1.6439
 1412SOL    HW215873   2.279   2.220   4.972  1.3377  1.4532  1.4512
 1413SOL     OW15874   0.033   4.250   7.531  0.3402 -0.3858  0.0475
 1413SOL    HW115875   4.719   4.304   7.468  1.3828 -0.6013 -0.9229
 1413SOL    HW215876   4.682   4.220   7.564  1.2933 -0.5760  2.3381
 1414SOL     OW15877   3.727   0.308  15.438 -0.1195 -0.3272  0.6667
 1414SOL    HW115878   3.752   0.229  15.487 -0.6636 -2.3909 -2.3812
 1414SOL    HW215879   3.812   0.352  15.434  0.1940 -0.7786  2.3718
 1415SOL     OW15880   3.955   2.993  16.705  0.0003 -0.1994  0.1169
 1415SOL    HW115881   3.878   2.986  16.649 -0.8167  2.1253  0.9997
 1415SOL    HW215882   3.992   2.905  16.690  0.2448 -0.5140  2.6509
 1416SOL     OW15883   2.718   2.631   7.186  0.2853 -0.2171  0.4771
 1416SOL    HW115884   2.813   2.635   7.194  0.1775  2.8915  0.2864
 1416SOL    HW215885   2.690   2.543   7.210 -1.8825  1.2709  3.4577
 1417SOL     OW15886   2.357   2.470   9.527  0.1704 -0.3037 -0.0583
 1417SOL    HW115887   2.384   2.507   9.611  0.2065 -2.3784  0.8488
 1417SOL    HW215888   2.328   2.548   9.480  3.7856  0.8269 -0.4298
 1418SOL     OW15889   2.145   0.990   9.466  0.4969 -0.4244 -0.4233
 1418SOL    HW115890   2.119   0.914   9.518 -0.8187  0.9923  0.9475
 1418SOL    HW215891   2.127   0.972   9.373 -0.3336  0.5303 -0.4453
 1419SOL     OW15892   2.763   3.013   3.973  0.0235 -0.4973 -0.3862
 1419SOL    HW115893   2.772   3.096   3.926  0.1382  2.2121  4.4307
 1419SOL    HW215894   2.818   3.024   4.050 -0.0820  1.6984 -0.6152
 1420SOL     OW15895   2.228   4.397   5.492 -0.1862 -0.0404 -0.0334
 1420SOL    HW115896   2.276   4.314   5.497 -1.1576 -0.6546 -0.9436
 1420SOL    HW215897   2.212   4.404   5.398 -3.5142 -1.6480  0.4073
 1421SOL     OW15898   4.586   0.359   4.676  0.8018 -0.2264 -0.0315
 1421SOL    HW115899   4.518   0.292   4.684  3.1117 -2.4873  1.0321
 1421SOL    HW215900   4.528   0.435   4.678  1.3172  0.1319  1.2942
 1422SOL     OW15901   2.847   2.044  17.425  0.2178  0.1691 -0.6656
 1422SOL    HW115902   2.836   2.054  17.330  1.6141  0.3690 -0.8118
 1422SOL    HW215903   2.796   2.121  17.451 -1.6016  0.1436 -4.1227
 1423SOL     OW15904   0.268   2.613   7.359 -0.1595  0.8021  0.8981
 1423SOL    HW115905   0.249   2.703   7.386 -0.2331  1.7191 -2.1450
 1423SOL    HW215906   0.213   2.614   7.281  1.4632  0.6903 -0.2382
 1424SOL     OW15907   0.595   1.939  12.193  0.9248 -0.1861 -0.3606
 1424SOL    HW115908   0.666   2.003  12.191  0.9955 -0.2500  0.1764
 1424SOL    HW215909   0.568   1.947  12.101 -0.5364  2.5660  0.3130
 1425SOL     OW15910   1.186   2.811   8.638 -0.2133 -0.4763 -0.3056
 1425SOL    HW115911   1.213   2.720   8.646  0.8201 -0.1410  0.0571
 1425SOL    HW215912   1.158   2.815   8.547  0.1341 -0.8738 -0.4315
 1426SOL     OW15913   2.851   4.606  11.593 -0.1098 -0.1797  0.0662
 1426SOL    HW115914   2.858   4.585  11.687 -0.0289  0.5619  0.2263
 1426SOL    HW215915   2.942   4.629  11.572  0.3485 -0.7338  1.4042
 1427SOL     OW15916   3.043   1.137   2.242  0.5601  0.0544 -0.6578
 1427SOL    HW115917   3.120   1.084   2.218 -0.1274 -0.7305 -1.1237
 1427SOL    HW215918   3.052   1.210   2.182 -2.1065  1.0727  0.2080
 1428SOL     OW15919   1.710   3.389  12.720  0.0299  0.3146 -0.1611
 1428SOL    HW115920   1.762   3.411  12.797 -0.4414  1.2213 -0.1090
 1428SOL    HW215921   1.623   3.421  12.745  0.1098 -1.1785  2.0356
 1429SOL     OW15922   3.018   0.409   4.663  0.0457  0.4161  0.8186
 1429SOL    HW115923   3.028   0.504   4.654  1.1353  0.4284  2.2918
 1429SOL    HW215924   2.978   0.405   4.750 -3.4560  0.2229 -0.7740
 1430SOL     OW15925   1.434   3.247   1.346  0.5529  0.0760  0.1738
 1430SOL    HW115926   1.393   3.284   1.424 -0.5117  0.5429 -0.6120
 1430SOL    HW215927   1.515   3.298   1.344  0.8282 -0.4196 -1.0952
 1431SOL     OW15928   3.816   3.137   5.703 -0.2414  0.1559 -0.3961
 1431SOL    HW115929   3.806   3.086   5.784  2.8518  2.2485  1.3234
 1431SOL    HW215930   3.908   3.124   5.679 -0.3440 -0.9978 -0.1470
 1432SOL     OW15931   3.111   1.528  13.875  0.5412 -0.2391  0.2986
 1432SOL    HW115932   3.041   1.589  13.897 -1.5643 -2.5159 -0.1350
 1432SOL    HW215933   3.067   1.445  13.857 -1.2268  1.0198 -1.1933
 1433SOL     OW15934   3.201   1.221   2.546 -0.1786 -0.5119 -0.3738
 1433SOL    HW115935   3.205   1.233   2.641  2.4474  2.1624 -0.8303
 1433SOL    HW215936   3.216   1.128   2.528 -0.1242 -0.6950  0.6062
 1434SOL     OW15937   4.060   2.772   2.351  0.3461  0.1086 -0.2791
 1434SOL    HW115938   4.044   2.858   2.313 -1.4215 -0.6553 -1.2521
 1434SOL    HW215939   4.044   2.714   2.277  2.6743 -0.9883  0.0539
 1435SOL     OW15940   3.121   1.675   1.283  0.0542 -0.3732  0.3387
 1435SOL    HW115941   3.173   1.710   1.355 -0.0893  1.0421 -0.2290
 1435SOL    HW215942   3.109   1.748   1.222 -0.6399 -0.5558  0.2485
 1436SOL     OW15943   2.439   0.184   4.340 -0.3888  0.1124  0.8977
 1436SOL    HW115944   2.354   0.148   4.311 -0.4053  1.4506 -0.7344
 1436SOL    HW215945   2.415   0.222   4.424  0.5092  0.4272  1.0034
 1437SOL     OW15946   3.336   2.448   6.728  0.3442 -0.0794 -0.4172
 1437SOL    HW115947   3.427   2.479   6.725  0.1054  0.5188 -1.5338
 1437SOL    HW215948   3.299   2.516   6.671  0.3721  0.5144  0.2833
 1438SOL     OW15949   1.077   3.257   9.104  0.0670  0.3515 -0.8517
 1438SOL    HW115950   1.088   3.350   9.086  0.0492  0.3163 -1.0482
 1438SOL    HW215951   1.147   3.219   9.050 -0.3338 -1.7701  0.1269
 1439SOL     OW15952   2.480   1.975  10.802  0.4238  0.3173  0.0644
 1439SOL    HW115953   2.538   1.994  10.876  1.0491  2.2402 -0.9092
 1439SOL    HW215954   2.404   2.029  10.825  0.5980  2.4654 -4.4430
 1440SOL     OW15955   2.211   0.864   8.359 -0.3098 -0.2368  0.2533
 1440SOL    HW115956   2.200   0.957   8.378 -0.4639  0.0412 -1.1868
 1440SOL    HW215957   2.268   0.843   8.433  2.0077 -1.6507 -1.9288
 1441SOL     OW15958   1.655   2.972   7.497 -0.2507  0.4070 -0.1268
 1441SOL    HW115959   1.727   2.933   7.448  0.4120  1.3570  0.0812
 1441SOL    HW215960   1.583   2.964   7.435  0.4513 -2.0710 -0.6066
 1442SOL     OW15961   2.531   2.693   5.958 -0.5009 -0.1285  0.3961
 1442SOL    HW115962   2.563   2.778   5.928 -1.0481 -0.3579 -0.8314
 1442SOL    HW215963   2.488   2.664   5.878 -0.2447 -0.0345  0.2221
 1443SOL     OW15964   2.127   1.078   2.352  0.1476  0.9802  0.2074
 1443SOL    HW115965   2.128   1.136   2.427 -0.9511  0.2284  0.8086
 1443SOL    HW215966   2.037   1.048   2.368  0.6313 -0.3743  0.4195
 1444SOL     OW15967   2.718   0.509   7.853  0.2556  0.4587 -0.0699
 1444SOL    HW115968   2.805   0.491   7.817  0.9242  1.3969  1.0776
 1444SOL    HW215969   2.725   0.598   7.887  0.7764  0.7198 -0.8608
 1445SOL     OW15970   0.761   2.608   8.089 -0.7779  0.5452  0.5381
 1445SOL    HW115971   0.837   2.575   8.041 -2.1289 -1.9473  0.1241
 1445SOL    HW215972   0.755   2.694   8.049  0.0705  0.6831  0.7107
 1446SOL     OW15973   4.166   2.242  15.259  0.6955  0.2238 -0.1273
 1446SOL    HW115974   4.143   2.182  15.330  1.1233 -2.2683 -2.1316
 1446SOL    HW215975   4.196   2.183  15.190  0.4267 -1.9010  1.5666
 1447SOL     OW15976   1.241   1.253   1.374 -0.2437 -0.1288 -0.5860
 1447SOL    HW115977   1.260   1.231   1.465  0.9699 -1.4708 -1.1678
 1447SOL    HW215978   1.330   1.254   1.340 -0.6062 -0.0467 -1.5501
 1448SOL     OW15979   2.396   2.488   7.460 -0.5415  0.1081 -0.0300
 1448SOL    HW115980   2.429   2.403   7.430 -0.7201 -0.3175  0.9678
 1448SOL    HW215981   2.476   2.533   7.487 -0.4194  1.4802 -2.6380
 1449SOL     OW15982   1.494   3.882  13.966  0.3997 -0.5107 -0.2412
 1449SOL    HW115983   1.489   3.812  13.900  1.1036 -0.0911 -0.7355
 1449SOL    HW215984   1.438   3.848  14.036  1.6136 -4.7855 -1.3421
 1450SOL     OW15985   1.573   1.208   8.538  0.0096  0.0685 -1.0162
 1450SOL    HW115986   1.551   1.169   8.623  0.2691  1.6721 -0.2333
 1450SOL    HW215987   1.487   1.206   8.495 -0.1309 -1.4933 -0.6958
 1451SOL     OW15988   0.094   2.959   8.896  0.5705 -0.1738 -0.3851
 1451SOL    HW115989   0.048   2.990   8.975  2.4469  0.3261  0.5251
 1451SOL    HW215990   0.173   2.921   8.933 -0.0648  0.3339  1.5384
 1452SOL     OW15991   0.599   0.222   5.383  0.3388 -0.0687 -0.1317
 1452SOL    HW115992   0.531   0.244   5.319 -1.3131 -1.3157  1.1756
 1452SOL    HW215993   0.592   0.295   5.444 -1.8409  0.4292 -0.9381
 1453SOL     OW15994   4.238   2.070   4.818  0.3709  0.1333 -0.2221
 1453SOL    HW115995   4.231   2.133   4.889  1.4687 -0.2812  0.2620
 1453SOL    HW215996   4.269   1.995   4.869  0.4678  3.2662  4.3890
 1454SOL     OW15997   2.365   4.206   2.393 -0.6779  0.0800  0.1389
 1454SOL    HW115998   2.394   4.127   2.348  1.3346  0.8237  0.1300
 1454SOL    HW215999   2.410   4.186   2.475 -0.0428 -3.4467 -1.1048
 1455SOL     OW16000   0.539   1.723   3.716  0.0396  0.6801  0.2110
 1455SOL    HW116001   0.563   1.766   3.798 -3.7756  2.5990  0.3373
 1455SOL    HW216002   0.594   1.762   3.649 -0.4301  0.6284 -0.2065
 1456SOL     OW16003   3.015   0.506   3.962  0.4373 -0.2337 -0.0881
 1456SOL    HW116004   2.920   0.495   3.968  0.1626  2.5506  0.6125
 1456SOL    HW216005   3.013   0.595   3.926 -0.6166 -0.7364 -1.2687
 1457SOL     OW16006   4.727   3.367  11.060 -0.9046  0.4106 -0.2869
 1457SOL    HW116007   4.725   3.338  11.151 -1.5649  0.4470 -0.2909
 1457SOL    HW216008   0.072   3.320  11.032 -0.3293  1.6968 -0.8247
 1458SOL     OW16009   3.627   3.452   6.087 -0.2326 -0.1913 -0.1296
 1458SOL    HW116010   3.683   3.408   6.151 -2.2805 -0.6627  1.3338
 1458SOL    HW216011   3.544   3.408   6.104 -0.1351 -0.2553  0.1762
 1459SOL     OW16012   1.180   1.062   2.480 -0.1725 -0.1210  0.3489
 1459SOL    HW116013   1.089   1.053   2.506 -0.9801  2.7042 -1.5305
 1459SOL    HW216014   1.170   1.068   2.385  0.6911  1.7572  0.3622
 1460SOL     OW16015   1.742   1.744  12.986 -0.3816 -0.2335  0.0777
 1460SOL    HW116016   1.769   1.824  12.941 -2.0748  2.4660  3.8733
 1460SOL    HW216017   1.828   1.717  13.020 -0.2102 -0.5972 -0.6362
 1461SOL     OW16018   0.412   0.435   6.229 -0.3636  0.5373 -0.2849
 1461SOL    HW116019   0.486   0.482   6.192  1.1527 -1.6240 -0.0407
 1461SOL    HW216020   0.414   0.431   6.325 -3.9142 -1.6701 -0.3072
 1462SOL     OW16021   3.188   0.231   6.053 -0.1692  0.8214  0.1313
 1462SOL    HW116022   3.195   0.292   6.127  1.2768 -0.9256  1.4382
 1462SOL    HW216023   3.277   0.239   6.021 -1.4208  1.1454 -3.2539
 1463SOL     OW16024   2.430   0.774  17.014 -0.3183  0.1853 -0.1256
 1463SOL    HW116025   2.501   0.716  16.988 -0.1733  0.5935 -0.6342
 1463SOL    HW216026   2.383   0.723  17.081 -0.1911  1.2740  0.8014
 1464SOL     OW16027   1.893   2.215  13.957 -0.3585 -0.2350 -0.5143
 1464SOL    HW116028   1.834   2.179  14.024  1.4060 -1.2432  0.5073
 1464SOL    HW216029   1.962   2.149  13.950  0.2343  0.3909 -0.5095
 1465SOL     OW16030   2.438   3.477  10.115  0.5467  0.0625 -0.7269
 1465SOL    HW116031   2.483   3.561  10.109  1.6105 -0.3372  1.5609
 1465SOL    HW216032   2.382   3.473  10.038 -1.5452  2.4956  0.6709
 1466SOL     OW16033   1.360   1.531   2.968 -0.0702 -0.1664 -0.3713
 1466SOL    HW116034   1.428   1.551   3.032 -0.3775 -1.1876  0.2785
 1466SOL    HW216035   1.404   1.539   2.883  0.2606  1.0187 -0.0758
 1467SOL     OW16036   4.508   2.781   8.389 -0.1361  0.3157 -0.2722
 1467SOL    HW116037   4.425   2.794   8.434  1.7239  1.6473  2.7957
 1467SOL    HW216038   4.547   2.714   8.446  1.1190  3.9939  3.1813
 1468SOL     OW16039   2.794   2.108   0.373  0.0748  0.0082  0.8518
 1468SOL    HW116040   2.725   2.173   0.366  0.7365  0.3664 -2.1994
 1468SOL    HW216041   2.761   2.045   0.437 -0.4463 -0.6993 -0.1067
 1469SOL     OW16042   2.676   0.740   9.849  0.0527  0.2869  0.1581
 1469SOL    HW116043   2.683   0.789   9.767  0.5328  1.6388  1.0088
 1469SOL    HW216044   2.763   0.755   9.885 -0.1852 -0.1600  0.9329
 1470SOL     OW16045   4.430   1.312  15.642  0.3343  0.1232  0.0059
 1470SOL    HW116046   4.381   1.242  15.600 -2.0802  0.7754  1.7427
 1470SOL    HW216047   4.376   1.391  15.647 -1.4524 -1.1121  0.2862
 1471SOL     OW16048   1.326   0.512   5.862  0.2873  0.0760 -0.0204
 1471SOL    HW116049   1.310   0.439   5.921 -0.4999 -0.3527 -0.7751
 1471SOL    HW216050   1.301   0.480   5.776  0.9547  2.9350 -1.2864
 1472SOL     OW16051   2.078   1.508   6.991  0.0034  0.3631  0.4596
 1472SOL    HW116052   2.044   1.465   6.913  0.4003 -1.0802  1.0632
 1472SOL    HW216053   1.995   1.539   7.027  0.2854 -0.4798  1.8582
 1473SOL     OW16054   3.323   4.673   5.828 -0.2583  0.4880 -0.5144
 1473SOL    HW116055   3.234   4.667   5.862 -0.3399 -3.5681 -1.4238
 1473SOL    HW216056   3.303   4.671   5.735 -1.1301 -1.6657 -0.2800
 1474SOL     OW16057   0.900   2.914  11.282  0.7997  0.1360  0.1798
 1474SOL    HW116058   0.887   2.995  11.330  1.0128  0.6065 -0.5500
 1474SOL    HW216059   0.935   2.941  11.197 -0.8539  1.2445 -0.1411
 1475SOL     OW16060   4.067   3.519   7.893 -0.6903 -0.3277 -0.8538
 1475SOL    HW116061   4.078   3.597   7.948 -1.3141 -2.4769  2.2663
 1475SOL    HW216062   4.034   3.455   7.955  2.0699 -2.3767 -1.4489
 1476SOL     OW16063   3.355   2.935   5.756  0.6068  0.6453 -0.1343
 1476SOL    HW116064   3.449   2.918   5.748  1.0559  2.4104  1.5232
 1476SOL    HW216065   3.339   2.950   5.663  1.7317 -0.2068 -0.4569
 1477SOL     OW16066   1.331   2.902   2.775 -0.2970 -0.3884  0.0165
 1477SOL    HW116067   1.408   2.931   2.824 -1.4389  1.9107  0.4889
 1477SOL    HW216068   1.317   2.977   2.717 -2.3762 -0.8860 -0.1291
 1478SOL     OW16069   0.603   1.078   8.451 -0.1549 -0.3104  0.4757
 1478SOL    HW116070   0.639   1.157   8.490 -0.1460 -0.6521  1.1642
 1478SOL    HW216071   0.647   1.007   8.496  0.8077  0.2971  0.4745
 1479SOL     OW16072   2.075   2.954  13.737 -0.0113  0.1115  0.3888
 1479SOL    HW116073   2.036   2.874  13.700  1.7516 -0.1186 -0.9970
 1479SOL    HW216074   2.007   3.015  13.711  1.9526  1.4200 -1.6906
 1480SOL     OW16075   0.119   3.161   6.114  0.0777 -0.4129 -0.0168
 1480SOL    HW116076   0.148   3.078   6.153  1.3706 -0.4437 -1.0670
 1480SOL    HW216077   0.066   3.135   6.039 -2.4125  3.3025  0.4867
 1481SOL     OW16078   3.481   3.949   1.487  0.1843 -0.0944  0.4983
 1481SOL    HW116079   3.444   3.901   1.561  0.9208  0.5605  1.2914
 1481SOL    HW216080   3.408   4.003   1.458 -0.2269 -0.4497  0.8724
 1482SOL     OW16081   2.823   4.180  13.976 -0.1602 -0.1013  0.6409
 1482SOL    HW116082   2.848   4.156  14.065  1.3794 -1.1013 -0.0590
 1482SOL    HW216083   2.747   4.123  13.962 -0.8179  0.6271  1.2163
 1483SOL     OW16084   4.055   4.693   5.506  0.5584  0.3736 -0.1502
 1483SOL    HW116085   3.989   4.633   5.543  3.2439 -1.0623  2.3561
 1483SOL    HW216086   4.076   0.008   5.585 -1.2623 -0.4370  0.8542
 1484SOL     OW16087   2.299   4.125   9.403 -0.5417  0.5880  0.7220
 1484SOL    HW116088   2.323   4.139   9.311 -2.7594 -0.4618  0.0013
 1484SOL    HW216089   2.225   4.185   9.407 -0.0542  1.2474  0.0159
 1485SOL     OW16090   4.156   0.094   7.879 -0.1826 -0.2650 -0.0935
 1485SOL    HW116091   4.172   0.015   7.828 -0.1917  0.3694 -1.0681
 1485SOL    HW216092   4.127   0.156   7.812  1.7058 -1.0031 -1.5964
 1486SOL     OW16093   4.623   2.348  16.448  0.3109 -0.2741  0.0656
 1486SOL    HW116094   4.678   2.275  16.479  1.6323  1.0558  0.8145
 1486SOL    HW216095   4.561   2.367  16.519 -2.3228 -1.6237 -1.8623
 1487SOL     OW16096   3.094   0.873   5.880  0.4291 -0.4954  0.4529
 1487SOL    HW116097   3.000   0.858   5.880  0.4412 -0.4851 -1.4600
 1487SOL    HW216098   3.095   0.966   5.904 -1.6991 -0.1240 -0.9056
 1488SOL     OW16099   4.687   0.999   4.971 -0.3194  0.1915  0.5892
 1488SOL    HW116100   4.722   0.958   5.050 -0.8243 -1.2542  0.0542
 1488SOL    HW216101   4.593   0.993   4.987 -0.5132 -3.6925 -2.1870
 1489SOL     OW16102   0.365   1.701   5.766  0.0736 -0.1635  0.2330
 1489SOL    HW116103   0.429   1.730   5.831  0.7983 -1.8697  0.2912
 1489SOL    HW216104   0.284   1.724   5.813 -2.0797 -1.1256 -3.0391
 1490SOL     OW16105   1.187   2.497   2.924  0.4871 -0.0550 -0.0177
 1490SOL    HW116106   1.216   2.413   2.889  4.0112  1.0392  0.2926
 1490SOL    HW216107   1.203   2.552   2.847  1.5393  0.3217  0.4682
 1491SOL     OW16108   4.359   3.334   0.201  0.2256  0.6411  0.1303
 1491SOL    HW116109   4.449   3.304   0.213  0.0056 -0.5245 -1.0595
 1491SOL    HW216110   4.372   3.400   0.132 -0.2591  0.8649  0.2552
 1492SOL     OW16111   3.043   4.549   4.409 -0.1436  0.1553 -0.1408
 1492SOL    HW116112   3.038   4.477   4.346 -1.0276 -1.2811  1.5723
 1492SOL    HW216113   2.982   4.609   4.367  0.1862  0.8380  0.3713
 1493SOL     OW16114   4.474   1.481  10.264 -0.0924 -0.4125 -0.3146
 1493SOL    HW116115   4.562   1.476  10.302  0.4174 -0.9152 -1.5732
 1493SOL    HW216116   4.419   1.453  10.338 -1.0274  0.4956 -0.6752
 1494SOL     OW16117   2.363   3.665   0.845 -0.4816  0.1316  0.0564
 1494SOL    HW116118   2.302   3.682   0.774  0.4039  0.6329 -0.5778
 1494SOL    HW216119   2.302   3.682   0.917 -1.3269 -0.1769 -0.5900
 1495SOL     OW16120   1.316   1.924   2.032  0.3489 -0.4963 -0.2192
 1495SOL    HW116121   1.301   2.015   2.009 -1.2283 -0.4649  0.8900
 1495SOL    HW216122   1.377   1.942   2.104 -0.2508 -0.8526  0.3798
 1496SOL     OW16123   1.303   3.188   8.945 -0.0615  0.7552  0.1354
 1496SOL    HW116124   1.301   3.137   9.026 -2.4621  0.1701 -0.3057
 1496SOL    HW216125   1.316   3.114   8.886  2.1347  0.1324  1.3994
 1497SOL     OW16126   2.278   4.308   4.853  0.0024 -0.9192 -0.2309
 1497SOL    HW116127   2.193   4.318   4.894  0.4111 -0.8131  0.5935
 1497SOL    HW216128   2.302   4.221   4.887  3.0228  0.7034  1.8531
 1498SOL     OW16129   1.257   3.105   4.740  0.0327  0.3947  0.4105
 1498SOL    HW116130   1.184   3.093   4.800 -1.7509  1.6789 -1.5007
 1498SOL    HW216131   1.255   3.015   4.706  0.2629  1.0204 -1.2728
 1499SOL     OW16132   4.175   0.561   2.878  0.8859 -1.0830 -0.0614
 1499SOL    HW116133   4.127   0.626   2.827  0.2887 -0.4781  1.2774
 1499SOL    HW216134   4.155   0.481   2.831 -0.3545 -0.1375 -1.1291
 1500SOL     OW16135   0.311   2.006   6.631  0.6531 -0.2578  0.6419
 1500SOL    HW116136   0.239   2.032   6.688  0.5466  0.6040  0.0999
 1500SOL    HW216137   0.374   2.068   6.668  0.6773  0.6715 -0.9474
 1501SOL     OW16138   2.061   4.102  10.257  0.3324  0.2710  0.9309
 1501SOL    HW116139   2.155   4.104  10.238 -0.0044  0.8250 -0.6454
 1501SOL    HW216140   2.041   4.023  10.206  3.1056 -0.4456  0.9504
 1502SOL     OW16141   1.337   2.104   4.583 -1.0008 -0.0505 -0.3852
 1502SOL    HW116142   1.372   2.017   4.566  0.7759  0.9210 -1.6455
 1502SOL    HW216143   1.247   2.077   4.603 -0.8644 -2.3395 -2.8654
 1503SOL     OW16144   4.521   2.943   1.174 -0.0384 -0.1082 -0.3347
 1503SOL    HW116145   4.432   2.945   1.138 -0.0358  0.4407 -0.3237
 1503SOL    HW216146   4.532   3.038   1.182  3.7667 -0.5353 -0.7658
 1504SOL     OW16147   2.965   3.419   3.684 -0.1536  0.0152  0.5159
 1504SOL    HW116148   2.991   3.343   3.737  0.7782 -0.8152 -1.1276
 1504SOL    HW216149   3.031   3.484   3.708  1.0096 -1.6386  1.8774
 1505SOL     OW16150   2.414   3.020  12.949 -0.2396 -0.1858 -0.3103
 1505SOL    HW116151   2.415   2.956  12.878 -3.2751 -0.5457 -0.0149
 1505SOL    HW216152   2.397   3.085  12.881 -0.2532  0.9566  0.7861
 1506SOL     OW16153   3.163   4.180  12.167 -0.5625  0.0822 -0.7714
 1506SOL    HW116154   3.219   4.127  12.111  0.9051  0.5799  0.2374
 1506SOL    HW216155   3.072   4.152  12.154 -1.1609  0.9787  1.4502
 1507SOL     OW16156   3.841   1.211   9.082  0.0016  0.5387 -0.1622
 1507SOL    HW116157   3.857   1.295   9.039 -0.1706  0.5560 -0.1950
 1507SOL    HW216158   3.756   1.227   9.123 -0.3783 -4.9674  1.2614
 1508SOL     OW16159   4.115   1.384   3.865 -0.1477  0.1100 -0.0893
 1508SOL    HW116160   4.144   1.385   3.773 -0.6200  0.7345 -0.2318
 1508SOL    HW216161   4.046   1.318   3.857 -0.8703  0.7240  1.1790
 1509SOL     OW16162   1.756   3.783   6.687  0.2625 -0.3454 -0.1308
 1509SOL    HW116163   1.755   3.753   6.778  2.5842 -0.4814 -0.1357
 1509SOL    HW216164   1.666   3.773   6.658  0.0760  2.7075 -0.6478
 1510SOL     OW16165   1.761   0.996   5.449  0.5566 -0.3373 -0.5917
 1510SOL    HW116166   1.766   1.091   5.443  0.1325 -0.2362  0.7002
 1510SOL    HW216167   1.687   0.983   5.508  0.9162  1.6649  0.2944
 1511SOL     OW16168   3.418   3.092   7.843 -0.5384  0.2539 -0.4711
 1511SOL    HW116169   3.423   3.184   7.816 -0.8359  0.8833  1.6952
 1511SOL    HW216170   3.447   3.057   7.758 -2.1727  1.1981 -1.4198
 1512SOL     OW16171   4.040   2.115   5.693  0.1111  0.3234  0.3223
 1512SOL    HW116172   4.061   2.123   5.786 -2.0661  0.0682  0.8297
 1512SOL    HW216173   3.977   2.186   5.677 -0.6601 -0.3019  0.5927
 1513SOL     OW16174   4.412   0.699  12.088  0.1458  0.3785  0.0984
 1513SOL    HW116175   4.434   0.653  12.006 -0.4112 -0.6996  0.5476
 1513SOL    HW216176   4.486   0.674  12.144  0.2028  2.1488  0.7897
 1514SOL     OW16177   0.407   0.661   1.205 -0.4174  0.6232 -0.2614
 1514SOL    HW116178   0.390   0.690   1.295 -0.0004  1.4439 -0.4477
 1514SOL    HW216179   0.387   0.569   1.220  0.9785  0.2920 -0.4128
 1515SOL     OW16180   1.377   3.611   7.851  0.4747 -0.3744 -0.4567
 1515SOL    HW116181   1.463   3.600   7.811  0.5726 -1.1658 -0.0479
 1515SOL    HW216182   1.329   3.659   7.784  1.2740 -1.1250 -1.5542
 1516SOL     OW16183   2.835   1.096  12.166 -0.0726 -0.3972  0.3320
 1516SOL    HW116184   2.784   1.015  12.166  1.7422 -1.5439  0.3683
 1516SOL    HW216185   2.790   1.152  12.102 -1.4332 -0.6939  1.0412
 1517SOL     OW16186   1.726   2.576   3.620 -0.0652 -0.2238 -0.5703
 1517SOL    HW116187   1.699   2.654   3.572 -1.0600 -0.5486 -0.5477
 1517SOL    HW216188   1.820   2.580   3.603  0.1443  0.2389  0.7123
 1518SOL     OW16189   3.941   3.399  17.476  0.7146 -0.0863  0.2910
 1518SOL    HW116190   4.034   3.407  17.454  0.5859  2.7086  0.8282
 1518SOL    HW216191   3.959   3.317  17.523  0.8735  0.0131  0.4030
 1519SOL     OW16192   0.369   0.960   9.994  0.6121 -0.1240  0.5361
 1519SOL    HW116193   0.323   0.995   9.918  0.9820 -0.3789  0.1918
 1519SOL    HW216194   0.455   0.949   9.953 -0.1593 -0.4770 -1.0025
 1520SOL     OW16195   4.204   4.539  15.126 -0.1993 -0.0686  0.2680
 1520SOL    HW116196   4.281   4.483  15.137  1.3299  1.5242 -2.3714
 1520SOL    HW216197   4.237   4.597  15.058 -0.1258 -0.4485 -0.0198
 1521SOL     OW16198   0.403   2.852   6.345 -0.7194 -0.0325  0.8518
 1521SOL    HW116199   0.402   2.759   6.324  0.5002 -0.4097  2.4519
 1521SOL    HW216200   0.444   2.851   6.432  1.3339 -0.4162 -0.1316
 1522SOL     OW16201   0.996   2.907  14.247 -0.3872  0.6890  0.0424
 1522SOL    HW116202   0.985   2.996  14.214 -1.5887 -0.1408 -1.7982
 1522SOL    HW216203   1.077   2.909  14.297  0.2570 -0.6787 -0.9546
 1523SOL     OW16204   0.849   3.912  14.079 -0.0586 -0.3720  0.6299
 1523SOL    HW116205   0.930   3.934  14.124 -0.5247  2.8846 -0.0886
 1523SOL    HW216206   0.781   3.882  14.140  0.9419  0.9157  2.3693
 1524SOL     OW16207   0.883   0.303  11.041 -0.3286  0.8247 -0.1905
 1524SOL    HW116208   0.875   0.268  11.129 -1.3894  1.6987  0.0621
 1524SOL    HW216209   0.939   0.378  11.062  0.3172  0.3759 -0.3270
 1525SOL     OW16210   1.772   1.479   8.292  0.4355 -0.0321 -0.4299
 1525SOL    HW116211   1.756   1.386   8.308  1.4906  0.3790  2.9414
 1525SOL    HW216212   1.795   1.473   8.199  0.3298 -1.0702 -0.3931
 1526SOL     OW16213   4.110   3.178  17.102  0.1815  0.2768  0.3889
 1526SOL    HW116214   4.074   3.198  17.015 -0.0677  1.4882  0.7740
 1526SOL    HW216215   4.195   3.222  17.091 -0.3220  1.0633 -0.3246
 1527SOL     OW16216   3.602   4.100   3.290 -0.0676 -0.2954 -0.2690
 1527SOL    HW116217   3.529   4.153   3.259  1.3476  1.3400 -0.7903
 1527SOL    HW216218   3.643   4.158   3.353  0.1945  0.5099 -1.1757
 1528SOL     OW16219   1.177   4.108   3.253  0.1561  0.0283  0.5176
 1528SOL    HW116220   1.213   4.054   3.323 -1.2923  0.5333  1.6525
 1528SOL    HW216221   1.237   4.090   3.180 -0.4371  1.7640 -0.4135
 1529SOL     OW16222   1.205   1.877   4.196  0.0280 -0.0280 -0.3749
 1529SOL    HW116223   1.265   1.949   4.213  2.1471 -1.6646 -0.8642
 1529SOL    HW216224   1.263   1.820   4.145 -1.3648 -1.9971  0.2173
 1530SOL     OW16225   4.225   3.580   3.291  0.6226  0.0162 -0.2648
 1530SOL    HW116226   4.247   3.654   3.348 -0.7120 -1.2032  1.8424
 1530SOL    HW216227   4.160   3.609   3.228 -0.1856 -1.7058 -0.2363
 1531SOL     OW16228   4.131   1.422  15.535 -0.9594  0.2034  0.0612
 1531SOL    HW116229   4.043   1.420  15.497 -1.0855 -0.8811  0.3911
 1531SOL    HW216230   4.178   1.439  15.454  0.6964  0.4915  1.0907
 1532SOL     OW16231   3.973   1.489   5.240 -0.1270  0.0378 -0.0808
 1532SOL    HW116232   3.936   1.551   5.303 -3.3330 -3.8290  1.8194
 1532SOL    HW216233   4.055   1.468   5.286 -0.5003 -1.2399 -0.0054
 1533SOL     OW16234   2.577   2.606   0.141 -0.1447  0.6024  0.6220
 1533SOL    HW116235   2.643   2.629   0.207 -0.3192  1.5368  0.4775
 1533SOL    HW216236   2.593   2.665   0.067  1.1193 -1.6449 -0.9088
 1534SOL     OW16237   4.712   0.389   6.590 -0.2284  0.4652  0.0379
 1534SOL    HW116238   0.017   0.317   6.540 -3.1806 -0.5514 -0.7658
 1534SOL    HW216239   4.617   0.377   6.587 -0.0617 -1.1149  0.9787
 1535SOL     OW16240   0.971   2.243   4.728 -0.1725 -0.1006  0.3215
 1535SOL    HW116241   1.000   2.334   4.739 -0.4984  0.1459 -0.8774
 1535SOL    HW216242   0.937   2.233   4.817  0.6476 -0.8660  0.5467
 1536SOL     OW16243   1.572   3.460   9.100  0.0434 -0.1759  0.2477
 1536SOL    HW116244   1.573   3.392   9.033 -1.4432  0.1124 -0.0832
 1536SOL    HW216245   1.500   3.513   9.064  0.2911  2.1789  3.1741
 1537SOL     OW16246   3.388   0.617   7.298 -0.1018 -0.4298  0.0079
 1537SOL    HW116247   3.422   0.691   7.249  2.2994  0.8701  3.6081
 1537SOL    HW216248   3.306   0.651   7.335 -0.1835 -0.1541 -0.4321
 1538SOL     OW16249   1.221   2.830   4.635  0.0984  0.1646  0.9974
 1538SOL    HW116250   1.129   2.818   4.659 -0.3049  1.7385  0.2312
 1538SOL    HW216251   1.270   2.755   4.667 -1.6346 -1.6236 -0.4847
 1539SOL     OW16252   3.950   2.644   0.372 -0.0689 -0.9822  0.0904
 1539SOL    HW116253   3.945   2.565   0.318 -3.3435 -1.0437  0.4851
 1539SOL    HW216254   3.939   2.723   0.320  0.7445  1.0254  2.9763
 1540SOL     OW16255   1.326   3.455   8.945 -0.0721  0.8595  0.1499
 1540SOL    HW116256   1.330   3.360   8.952  0.6107  0.8722 -0.0271
 1540SOL    HW216257   1.239   3.475   8.979 -1.1591 -1.3704 -1.3145
 1541SOL     OW16258   1.049   4.616  16.966  0.1951 -0.2623 -0.2203
 1541SOL    HW116259   1.054   4.695  16.912  1.7176 -2.2515 -2.9733
 1541SOL    HW216260   1.117   4.561  16.927 -0.5957 -1.5558  0.2261
 1542SOL     OW16261   0.680   2.076  15.479 -1.1650  0.7402  0.3364
 1542SOL    HW116262   0.668   2.169  15.495  1.0666  1.1485 -0.5001
 1542SOL    HW216263   0.654   2.045  15.566 -2.4784  2.6814  0.6460
 1543SOL     OW16264   2.095   2.076   1.730 -0.5042  0.1099  0.1931
 1543SOL    HW116265   2.131   2.148   1.782  0.6273  0.6413 -1.3231
 1543SOL    HW216266   2.158   2.005   1.743  1.3913  1.3082 -2.4877
 1544SOL     OW16267   0.013   1.292   5.494  0.2541  0.2971 -0.1755
 1544SOL    HW116268   4.673   1.331   5.542 -0.6510 -1.7342  0.0929
 1544SOL    HW216269   0.038   1.223   5.555 -0.0140  0.0197 -0.3772
 1545SOL     OW16270   3.502   4.038   5.568  0.0839  0.0052 -0.7146
 1545SOL    HW116271   3.545   4.069   5.648 -1.8932 -0.8987  0.6753
 1545SOL    HW216272   3.422   4.007   5.610  0.7635 -0.1020  0.4879
 1546SOL     OW16273   1.161   2.559   8.892 -0.3495 -0.0404  0.0860
 1546SOL    HW116274   1.172   2.564   8.797 -2.0485  0.5185 -0.0800
 1546SOL    HW216275   1.176   2.465   8.907 -0.6769  0.0880  1.1710
 1547SOL     OW16276   0.085   3.499   9.825 -0.0172  0.3200 -0.3165
 1547SOL    HW116277   0.099   3.565   9.756 -0.0664  2.1297  1.3892
 1547SOL    HW216278   0.017   3.548   9.873 -0.6092 -0.9477  0.1366
 1548SOL     OW16279   3.791   0.196   2.563  0.0671 -0.1730 -0.0616
 1548SOL    HW116280   3.766   0.246   2.641 -1.7047 -1.7815  0.4134
 1548SOL    HW216281   3.822   0.265   2.505 -0.0691  2.1913  2.6559
 1549SOL     OW16282   1.831   3.220   5.011 -0.8332 -0.4382  0.0899
 1549SOL    HW116283   1.809   3.309   4.982  1.2217 -0.5578 -1.7991
 1549SOL    HW216284   1.814   3.166   4.934  1.3644  1.1919 -1.5744
 1550SOL     OW16285   4.234   1.800   3.652 -0.0461 -0.0154  0.2568
 1550SOL    HW116286   4.186   1.822   3.733  0.2107  0.7869  0.1931
 1550SOL    HW216287   4.160   1.791   3.591 -0.1876 -0.2265  0.4587
 1551SOL     OW16288   0.395   2.288  13.956 -0.4513 -0.4908 -0.0310
 1551SOL    HW116289   0.480   2.244  13.960 -0.5067 -0.7028 -1.2982
 1551SOL    HW216290   0.427   2.370  13.919 -0.2303 -0.3631  0.4397
 1552SOL     OW16291   2.257   0.605   3.324  0.6307  0.1240  0.6731
 1552SOL    HW116292   2.185   0.666   3.308 -0.4040 -0.6534  2.4138
 1552SOL    HW216293   2.224   0.551   3.395  0.4993 -1.2209 -0.4156
 1553SOL     OW16294   2.855   0.776   3.362 -0.3523  0.1563  0.1153
 1553SOL    HW116295   2.789   0.831   3.404 -1.8748 -1.7163  0.1733
 1553SOL    HW216296   2.848   0.696   3.413 -0.0359 -1.5144 -2.4744
 1554SOL     OW16297   1.699   4.596   8.264 -0.1506 -0.3235 -0.2705
 1554SOL    HW116298   1.679   4.689   8.271 -1.1795 -0.3968 -2.3157
 1554SOL    HW216299   1.794   4.598   8.253 -0.3304 -0.6597 -1.8158
 1555SOL     OW16300   1.982   1.008  11.997 -0.2035  0.2670 -0.2596
 1555SOL    HW116301   1.960   0.936  12.055  0.0014  1.8086  1.7116
 1555SOL    HW216302   1.914   1.073  12.012  0.2086  0.2140  1.8148
 1556SOL     OW16303   2.784   2.081  12.134  0.6011  0.3118  0.1804
 1556SOL    HW116304   2.815   2.092  12.044 -3.0958 -0.9255 -1.2053
 1556SOL    HW216305   2.749   2.168  12.152 -0.2938  0.1264 -0.7027
 1557SOL     OW16306   3.791   0.421   8.678 -0.6470  0.1831 -0.2631
 1557SOL    HW116307   3.702   0.388   8.670 -0.8550  0.8243 -0.6127
 1557SOL    HW216308   3.841   0.341   8.666 -0.6298  0.2993 -0.9734
 1558SOL     OW16309   0.250   3.869  17.130 -0.0715  0.3723 -0.5082
 1558SOL    HW116310   0.244   3.950  17.180  0.9568 -0.6534  1.2970
 1558SOL    HW216311   0.343   3.868  17.112  0.2507  1.1996  1.0577
 1559SOL     OW16312   2.911   3.254   4.594  0.1944 -0.3742  0.0584
 1559SOL    HW116313   2.934   3.326   4.653  1.4867 -1.3994  0.8020
 1559SOL    HW216314   2.899   3.296   4.509 -1.1844 -0.4356  0.2141
 1560SOL     OW16315   3.745   2.006   5.003  0.4237 -0.4483 -0.5094
 1560SOL    HW116316   3.655   2.031   4.982 -0.2322 -2.8481 -0.5020
 1560SOL    HW216317   3.755   2.030   5.095  1.9953 -0.6300 -0.6352
 1561SOL     OW16318   3.532   1.971   1.313 -1.4280 -0.3815 -0.0616
 1561SOL    HW116319   3.475   1.894   1.316  0.9745 -2.0643  1.8010
 1561SOL    HW216320   3.516   1.981   1.219  1.1280  0.5329 -0.3770
 1562SOL     OW16321   2.980   1.084   7.569 -0.2837 -0.3743 -0.4219
 1562SOL    HW116322   3.016   1.095   7.657 -1.3276  0.0716 -0.0481
 1562SOL    HW216323   3.058   1.067   7.516 -1.3320  0.2370 -2.1516
 1563SOL     OW16324   4.003   1.878   3.493  0.9344  0.0913  0.3686
 1563SOL    HW116325   4.020   1.962   3.535  1.4731 -0.4423  1.2189
 1563SOL    HW216326   4.031   1.892   3.402 -1.1558 -0.6643 -0.3886
 1564SOL     OW16327   2.370   1.163   9.299  0.4056 -0.2812  0.2153
 1564SOL    HW116328   2.465   1.168   9.308  0.4620 -1.8522  0.4638
 1564SOL    HW216329   2.343   1.163   9.391 -2.2131  2.1387 -0.5314
 1565SOL     OW16330   0.445   0.903   2.951 -0.4827  0.3003 -0.3652
 1565SOL    HW116331   0.504   0.831   2.930 -0.4962 -0.6263  2.6648
 1565SOL    HW216332   0.362   0.862   2.925 -0.9567  0.4069  0.9681
 1566SOL     OW16333   1.327   0.123  16.621  0.0346 -0.3262  0.1003
 1566SOL    HW116334   1.385   0.152  16.690 -0.9832 -0.2903  0.9439
 1566SOL    HW216335   1.386   0.097  16.550  0.4219 -1.0805  0.7050
 1567SOL     OW16336   1.161   2.594   8.238  0.5210 -0.2096 -0.2220
 1567SOL    HW116337   1.244   2.570   8.280 -1.3584 -2.8546  1.9847
 1567SOL    HW216338   1.115   2.511   8.253  0.0635  0.1685  0.4430
 1568SOL     OW16339   1.234   2.851   3.666  0.5836  0.4508  0.1935
 1568SOL    HW116340   1.325   2.880   3.670  0.6312  0.3921 -0.5440
 1568SOL    HW216341   1.239   2.757   3.683  1.5849  0.2809 -1.0636
 1569SOL     OW16342   1.607   0.359   7.539  0.0755  0.0013  0.3235
 1569SOL    HW116343   1.593   0.392   7.627 -0.8058  1.2729 -0.2886
 1569SOL    HW216344   1.628   0.270   7.564 -0.3127  0.3001  1.7185
 1570SOL     OW16345   2.698   0.262   6.020  0.2188  0.1785 -0.1071
 1570SOL    HW116346   2.791   0.258   5.997  0.4357 -0.8305  0.9632
 1570SOL    HW216347   2.666   0.286   5.933  2.6748 -0.8705 -1.3092
 1571SOL     OW16348   0.382   0.203   2.173  0.6378  0.5056  0.1816
 1571SOL    HW116349   0.403   0.263   2.245  1.5945  0.2318  0.1311
 1571SOL    HW216350   0.304   0.159   2.208 -0.9215  2.5568 -0.7413
 1572SOL     OW16351   0.527   1.693   3.344 -0.6019  0.2728  0.0406
 1572SOL    HW116352   0.477   1.613   3.328 -2.0309  1.1813 -0.0392
 1572SOL    HW216353   0.463   1.754   3.380  0.8223  1.8435 -0.0768
 1573SOL     OW16354   2.512   4.462   4.784  0.4828  0.2764 -0.0200
 1573SOL    HW116355   2.436   4.414   4.817  0.7129 -0.7450 -0.9726
 1573SOL    HW216356   2.572   4.472   4.857 -0.0617  1.5235  0.2539
 1574SOL     OW16357   0.809   3.487   2.018 -0.4977  0.1861 -0.2742
 1574SOL    HW116358   0.813   3.580   1.995 -1.2901 -0.0379 -1.2813
 1574SOL    HW216359   0.722   3.476   2.057 -1.1139  0.7838 -1.5033
 1575SOL     OW16360   2.383   0.617   6.615  0.1433  0.1276 -1.1918
 1575SOL    HW116361   2.342   0.614   6.528 -0.5134  1.5692 -0.9359
 1575SOL    HW216362   2.337   0.688   6.659  0.9981  0.1988 -0.4348
 1576SOL     OW16363   4.110   1.918   6.857 -0.3055 -0.0209  0.1695
 1576SOL    HW116364   4.152   2.003   6.866  0.8714 -0.5974  0.1032
 1576SOL    HW216365   4.178   1.851   6.856 -1.5144 -1.2658  0.8695
 1577SOL     OW16366   2.083   4.601   1.902  0.0224  1.2887 -0.0744
 1577SOL    HW116367   2.085   4.600   1.807  3.7250  1.1965 -0.0052
 1577SOL    HW216368   2.159   4.656   1.921  1.0862 -0.3270  0.3348
 1578SOL     OW16369   1.014   4.572  13.118  0.5197  0.0068 -0.7188
 1578SOL    HW116370   1.091   4.599  13.169  0.0598  2.7756 -1.4802
 1578SOL    HW216371   1.060   4.509  13.064  1.5474  0.3496 -0.2438
 1579SOL     OW16372   1.915   1.321  11.939  0.0625 -0.0929 -0.2294
 1579SOL    HW116373   1.848   1.389  11.936  2.2735  2.0946 -0.8061
 1579SOL    HW216374   1.934   1.315  12.032 -1.4343  3.1129  0.2979
 1580SOL     OW16375   1.109   3.526   2.897  0.2502 -0.0688  0.2752
 1580SOL    HW116376   1.071   3.498   2.980  1.1968  1.0248  1.0742
 1580SOL    HW216377   1.039   3.579   2.858 -0.8118 -1.9612 -0.3709
 1581SOL     OW16378   4.701   4.105   4.317  0.0621 -0.6293 -0.0248
 1581SOL    HW116379   4.635   4.036   4.317 -0.3173 -0.2706 -0.7395
 1581SOL    HW216380   4.649   4.180   4.288 -0.7520 -1.1466  0.1131
 1582SOL     OW16381   0.903   0.530   3.011  0.5826 -0.5292 -0.0141
 1582SOL    HW116382   0.922   0.614   2.970  0.5460 -0.5094  0.0098
 1582SOL    HW216383   0.920   0.466   2.942 -0.5386  0.2381 -1.0101
 1583SOL     OW16384   1.282   0.304   6.012  0.6301  0.0009 -0.0041
 1583SOL    HW116385   1.284   0.253   6.093  0.3197 -0.0636 -0.0393
 1583SOL    HW216386   1.199   0.282   5.971 -0.7852  1.4416  2.1206
 1584SOL     OW16387   2.936   0.511   8.971  0.2193  1.1179 -0.8074
 1584SOL    HW116388   3.020   0.554   8.954  0.7256  0.4271 -0.0431
 1584SOL    HW216389   2.891   0.491   8.889  0.7470 -0.2831 -0.7464
 1585SOL     OW16390   0.218   1.420   1.711 -0.3520 -0.3615 -0.0974
 1585SOL    HW116391   0.176   1.409   1.796  0.7015 -0.7046  0.3869
 1585SOL    HW216392   0.142   1.408   1.654  1.3977 -0.4125 -2.4126
 1586SOL     OW16393   2.123   1.203   6.421 -0.4491 -0.0641  0.1298
 1586SOL    HW116394   2.071   1.150   6.481  0.4056  0.0330  0.9552
 1586SOL    HW216395   2.194   1.233   6.478 -1.9377  0.7303  1.5370
 1587SOL     OW16396   1.006   4.158   0.995  0.2776  0.5979 -0.8423
 1587SOL    HW116397   1.050   4.083   1.034 -1.8805 -0.2311  0.0216
 1587SOL    HW216398   0.921   4.116   0.983  1.0980 -0.1080 -4.2040
 1588SOL     OW16399   2.804   3.297   2.756  0.0830  0.2954  0.4529
 1588SOL    HW116400   2.735   3.299   2.822 -0.1405  1.5692  0.1792
 1588SOL    HW216401   2.793   3.212   2.714 -0.9142  0.5433  0.2193
 1589SOL     OW16402   3.133   4.270  11.401  0.4244  0.2937 -0.5373
 1589SOL    HW116403   3.091   4.354  11.384 -0.3484  0.4370  2.0513
 1589SOL    HW216404   3.205   4.288  11.461  1.5342  1.8628 -2.3504
 1590SOL     OW16405   0.101   2.020  16.842 -0.0564 -0.1185  0.1330
 1590SOL    HW116406   0.120   1.947  16.901  4.3875 -0.1778 -1.3934
 1590SOL    HW216407   0.187   2.061  16.837  0.4541 -1.2410 -0.2283
 1591SOL     OW16408   1.254   2.191   6.773 -0.0490  0.4142 -0.4503
 1591SOL    HW116409   1.207   2.265   6.812 -0.9863 -1.6004  2.2411
 1591SOL    HW216410   1.275   2.228   6.687 -0.5159  0.0004 -0.7442
 1592SOL     OW16411   2.585   1.654   8.332  0.2342  0.3243  0.6054
 1592SOL    HW116412   2.673   1.687   8.311 -0.5272  1.6260 -0.5167
 1592SOL    HW216413   2.612   1.591   8.399  0.4284 -0.3347 -0.0888
 1593SOL     OW16414   2.457   4.569   2.451 -0.4039  0.1235  1.0043
 1593SOL    HW116415   2.525   4.563   2.518  1.3938 -2.6576 -1.0675
 1593SOL    HW216416   2.449   4.475   2.434  2.6726  0.3691 -1.7515
 1594SOL     OW16417   3.820   4.167   7.408  0.5017 -0.5348  0.1637
 1594SOL    HW116418   3.737   4.163   7.359  0.8566  0.0560 -0.4811
 1594SOL    HW216419   3.879   4.212   7.348  0.7533 -0.3459  0.5594
 1595SOL     OW16420   0.257   2.635   3.270  0.2694 -0.1891 -0.3065
 1595SOL    HW116421   0.193   2.598   3.332 -1.2680  0.3613 -1.5629
 1595SOL    HW216422   0.247   2.575   3.196  0.6891  1.7343 -1.9133
 1596SOL     OW16423   2.498   3.925   4.891 -0.4076 -0.6347 -0.3438
 1596SOL    HW116424   2.574   3.901   4.944  0.0273 -2.3241 -1.7358
 1596SOL    HW216425   2.523   3.882   4.809 -0.4495  1.3435 -1.3797
 1597SOL     OW16426   3.353   1.304   2.939  0.2532  0.5108  0.0758
 1597SOL    HW116427   3.354   1.349   3.023  2.2649  1.1099 -0.2726
 1597SOL    HW216428   3.297   1.367   2.894 -0.3980 -0.9005 -1.0799
 1598SOL     OW16429   0.233   4.550   9.917 -0.2093  0.0565 -0.2316
 1598SOL    HW116430   0.228   4.492   9.841 -1.2627 -1.3275  0.9173
 1598SOL    HW216431   0.328   4.557   9.925 -0.3179  1.5879 -0.1328
 1599SOL     OW16432   0.523   3.648   5.966  0.3700 -0.4091 -0.0003
 1599SOL    HW116433   0.556   3.704   5.896 -2.1243 -1.4025 -1.9935
 1599SOL    HW216434   0.465   3.704   6.018  0.2871 -0.4153 -0.0858
 1600SOL     OW16435   4.175   0.336   4.788  0.1154 -0.2367  0.0499
 1600SOL    HW116436   4.170   0.260   4.845  1.3358 -1.5700 -1.6381
 1600SOL    HW216437   4.213   0.298   4.709  0.4554  1.5195 -0.6305
 1601SOL     OW16438   1.502   4.189   7.159  0.3772 -0.3142 -0.3372
 1601SOL    HW116439   1.503   4.133   7.237 -0.3900  0.6483  0.3789
 1601SOL    HW216440   1.428   4.158   7.106 -1.0397 -0.7992  1.9219
 1602SOL     OW16441   0.981   4.338   9.660 -0.6942 -0.0391 -0.2418
 1602SOL    HW116442   1.018   4.415   9.616 -1.3040 -0.0320 -0.7489
 1602SOL    HW216443   0.962   4.383   9.743  0.2376 -2.6722  1.3662
 1603SOL     OW16444   0.039   1.015  10.220 -0.4285  0.2748 -0.1786
 1603SOL    HW116445   4.712   0.944  10.239  0.7927 -0.1238  2.1359
 1603SOL    HW216446   0.042   1.015  10.124  0.6269  1.8335 -0.1548
 1604SOL     OW16447   3.516   0.187   3.523  0.0018  0.0653 -0.7465
 1604SOL    HW116448   3.599   0.207   3.480  0.1084  0.6990 -0.2436
 1604SOL    HW216449   3.543   0.099   3.552 -0.8934  0.4247  1.2002
 1605SOL     OW16450   0.477   0.609   9.284 -0.2873 -1.1497  0.1156
 1605SOL    HW116451   0.442   0.625   9.372  0.8699 -0.5673  0.4651
 1605SOL    HW216452   0.392   0.596   9.241  0.3332  2.5581 -2.1865
 1606SOL     OW16453   3.517   1.482  12.981  0.2546  0.1033  0.1508
 1606SOL    HW116454   3.611   1.484  12.999  0.2231 -0.1282  0.3460
 1606SOL    HW216455   3.512   1.428  12.902 -0.4386  2.5448 -1.4472
 1607SOL     OW16456   4.618   1.685   5.872 -0.3923 -0.3276 -0.2587
 1607SOL    HW116457   4.588   1.599   5.900 -0.3820 -0.0189  0.7076
 1607SOL    HW216458   4.582   1.725   5.951  1.0196  0.3292  0.0546
 1608SOL     OW16459   3.023   3.401   1.076  0.2354 -0.1763  0.4373
 1608SOL    HW116460   3.109   3.389   1.037 -0.0056  3.6708 -1.2329
 1608SOL    HW216461   2.981   3.428   0.994  0.0533  0.0328  0.5985
 1609SOL     OW16462   2.457   3.139   3.427  0.2385 -0.0268 -0.4052
 1609SOL    HW116463   2.364   3.120   3.427  0.7985 -2.7281 -0.4147
 1609SOL    HW216464   2.492   3.074   3.365  2.3225  1.1016 -0.4370
 1610SOL     OW16465   0.217   4.128  17.276  0.3065  0.3225 -0.0590
 1610SOL    HW116466   0.198   4.213  17.238 -0.4220 -1.2905 -3.3032
 1610SOL    HW216467   0.312   4.130  17.288  0.5108 -0.3712 -1.5147
 1611SOL     OW16468   1.817   3.147  17.583  0.6785 -0.1917  0.1060
 1611SOL    HW116469   1.773   3.213  17.636 -3.1738 -0.6409 -2.5030
 1611SOL    HW216470   1.894   3.139  17.640  0.2348  0.6772  0.8211
 1612SOL     OW16471   1.653   2.754   6.063  0.3270 -0.3308 -0.3468
 1612SOL    HW116472   1.622   2.693   5.997 -1.0815  0.9096 -0.8258
 1612SOL    HW216473   1.724   2.709   6.109  0.9943  0.0512 -1.0012
 1613SOL     OW16474   0.332   0.859  13.451 -0.6833 -0.0154 -0.2702
 1613SOL    HW116475   0.415   0.860  13.403  0.1229 -2.1456  1.0744
 1613SOL    HW216476   0.351   0.791  13.517  0.7404  1.1131  0.4823
 1614SOL     OW16477   1.287   0.085  12.991  0.1288 -0.5920  0.6126
 1614SOL    HW116478   1.211   0.143  12.994 -0.4071 -1.2069 -1.0331
 1614SOL    HW216479   1.364   0.142  12.995 -0.5815  0.3761  0.3648
 1615SOL     OW16480   1.465   2.226  14.555  0.6521  0.4365  0.4165
 1615SOL    HW116481   1.532   2.293  14.569  0.7641  0.4684 -0.2442
 1615SOL    HW216482   1.412   2.276  14.493  1.1422  0.8736  0.3436
 1616SOL     OW16483   4.405   2.386   4.053 -0.1388 -0.4073 -0.5391
 1616SOL    HW116484   4.415   2.322   4.124 -0.7234  0.5763  0.4277
 1616SOL    HW216485   4.313   2.405   4.069  0.6713  1.3870  1.9099
 1617SOL     OW16486   1.504   2.678  15.281  0.0876  0.3949  0.2716
 1617SOL    HW116487   1.591   2.714  15.299 -0.1805  0.5091  1.3588
 1617SOL    HW216488   1.475   2.733  15.208 -1.6799 -0.0891  0.6128
 1618SOL     OW16489   3.215   3.915   4.498 -0.1149  0.3396  0.0820
 1618SOL    HW116490   3.307   3.892   4.502 -0.0305  0.6010 -0.3329
 1618SOL    HW216491   3.194   3.896   4.406  1.2930  0.9720 -0.3727
 1619SOL     OW16492   1.978   3.823   2.142  0.7477 -0.0966 -0.1302
 1619SOL    HW116493   1.986   3.895   2.204 -0.8262 -0.7346  0.8159
 1619SOL    HW216494   2.061   3.776   2.155  0.0077 -1.2821  0.3698
 1620SOL     OW16495   1.859   2.123   3.942 -0.2737  0.0377 -0.0531
 1620SOL    HW116496   1.827   2.207   3.908 -3.6779 -0.3535  2.2042
 1620SOL    HW216497   1.952   2.143   3.936 -0.2430 -0.4386 -1.2062
 1621SOL     OW16498   1.833   3.657   8.190 -0.3222  0.2730  0.4551
 1621SOL    HW116499   1.783   3.576   8.185  0.7137 -0.3018 -0.7348
 1621SOL    HW216500   1.838   3.665   8.285  2.8716  0.1387  0.3235
 1622SOL     OW16501   4.148   3.113   4.509  0.0672 -0.3108 -0.0936
 1622SOL    HW116502   4.056   3.090   4.493  1.3778 -4.9178 -0.9374
 1622SOL    HW216503   4.200   3.054   4.455  1.0287 -0.9879  1.5852
 1623SOL     OW16504   0.681   3.547   0.546 -0.0702  0.1877  0.9602
 1623SOL    HW116505   0.648   3.599   0.620 -3.0543  1.2979 -1.1538
 1623SOL    HW216506   0.760   3.597   0.523 -0.2101  0.5856  1.3491
 1624SOL     OW16507   0.055   3.212   4.161 -0.0065  0.0480  0.2239
 1624SOL    HW116508   0.047   3.126   4.202  1.2127 -0.4125 -0.5061
 1624SOL    HW216509   0.083   3.190   4.072 -2.2888 -0.8456 -0.2698
 1625SOL     OW16510   1.625   3.248   8.869 -0.0837  0.2138  0.2604
 1625SOL    HW116511   1.684   3.257   8.794 -1.5883  1.8276 -0.7255
 1625SOL    HW216512   1.641   3.157   8.893  1.2121 -0.2503 -2.3059
 1626SOL     OW16513   1.505   1.174  17.228 -0.0164 -0.2145 -0.4555
 1626SOL    HW116514   1.526   1.135  17.143 -2.2344 -0.5970 -0.8232
 1626SOL    HW216515   1.536   1.105  17.286 -1.2227 -0.8168 -0.5176
 1627SOL     OW16516   0.217   3.371  13.072 -0.5502 -0.3923 -0.0769
 1627SOL    HW116517   0.218   3.448  13.129 -2.1445 -1.4097  1.3251
 1627SOL    HW216518   0.293   3.326  13.106 -0.0612 -1.0141 -1.9702
 1628SOL     OW16519   3.479   4.168   8.307 -0.2829 -0.3305  0.2463
 1628SOL    HW116520   3.512   4.170   8.216  0.5612 -1.5319  0.5149
 1628SOL    HW216521   3.448   4.078   8.314 -1.4062  0.0465 -0.0248
 1629SOL     OW16522   3.487   2.847   3.924  0.0915  0.7086 -0.8302
 1629SOL    HW116523   3.442   2.908   3.983 -0.1702  0.0398 -0.3374
 1629SOL    HW216524   3.563   2.824   3.978 -2.7072 -0.8569  2.4256
 1630SOL     OW16525   1.839   0.096   4.802 -0.3625 -0.4385  0.9078
 1630SOL    HW116526   1.860   0.184   4.832 -0.0810  0.2752 -1.4138
 1630SOL    HW216527   1.743   0.100   4.804 -0.4054 -1.2272  0.4529
 1631SOL     OW16528   4.437   0.949  14.515 -0.3450 -0.1543  0.1297
 1631SOL    HW116529   4.499   0.932  14.586 -0.7415  0.7052  0.6822
 1631SOL    HW216530   4.498   0.995  14.457 -0.0343  0.1796  0.7096
 1632SOL     OW16531   4.505   3.617   9.200  0.2976  0.3593  0.5342
 1632SOL    HW116532   4.494   3.600   9.107  0.3143  2.1018  0.2058
 1632SOL    HW216533   4.429   3.674   9.202  1.5252  2.1485 -3.9426
 1633SOL     OW16534   3.100   2.997   5.551  0.3609 -0.0111 -0.0687
 1633SOL    HW116535   3.031   2.930   5.557  1.1496 -0.7974  0.2781
 1633SOL    HW216536   3.174   2.941   5.575 -0.7866 -1.5260 -0.0684
 1634SOL     OW16537   2.155   3.317  16.375  0.3668 -0.0931  0.4965
 1634SOL    HW116538   2.084   3.376  16.351  1.2389  0.7701  0.0245
 1634SOL    HW216539   2.177   3.359  16.458 -1.0563  0.3347  0.6416
 1635SOL     OW16540   4.052   0.096   1.162 -0.3784  0.1387  0.6567
 1635SOL    HW116541   4.114   0.031   1.130  0.4481  0.8290  0.8439
 1635SOL    HW216542   4.060   0.093   1.258 -1.5204 -1.0906  0.7093
 1636SOL     OW16543   4.204   1.261   6.505  0.0527  0.4562 -0.0032
 1636SOL    HW116544   4.274   1.231   6.562 -1.6949  0.1496  1.9553
 1636SOL    HW216545   4.192   1.175   6.465 -1.4971 -0.0282  1.5125
 1637SOL     OW16546   1.490   3.986  11.964 -0.0348 -0.5297  0.5116
 1637SOL    HW116547   1.522   4.017  12.048 -0.8276 -1.0366  0.9945
 1637SOL    HW216548   1.531   3.899  11.964  1.1712  0.0313 -0.6583
 1638SOL     OW16549   1.265   4.563   4.210 -0.5129 -0.3055 -0.0603
 1638SOL    HW116550   1.201   4.494   4.227  0.5929 -1.1860  0.5689
 1638SOL    HW216551   1.204   4.624   4.169 -0.2469 -0.6464 -0.9572
 1639SOL     OW16552   2.398   1.749   2.446 -0.3941 -0.3796 -0.7849
 1639SOL    HW116553   2.439   1.663   2.439  0.1589 -0.2389  0.9016
 1639SOL    HW216554   2.349   1.742   2.527  0.8753  2.7500  0.2506
 1640SOL     OW16555   1.397   1.761   6.325  0.4702 -0.5087  0.3072
 1640SOL    HW116556   1.458   1.783   6.396  2.6961 -1.3254 -1.3682
 1640SOL    HW216557   1.402   1.840   6.271 -0.4473 -1.2453 -0.8530
 1641SOL     OW16558   1.202   2.974  16.513  0.3307 -0.5722 -0.1251
 1641SOL    HW116559   1.265   3.017  16.455  0.4434 -0.0650  0.3615
 1641SOL    HW216560   1.166   2.904  16.460 -2.1949  0.3294  0.3596
 1642SOL     OW16561   0.371   1.151   7.648 -0.0863  0.1433  0.1200
 1642SOL    HW116562   0.390   1.155   7.741  0.5082  0.3585 -0.0128
 1642SOL    HW216563   0.371   1.056   7.632 -1.9102  0.1173  0.3327
 1643SOL     OW16564   1.925   4.168   9.104  0.4650 -0.1459 -0.0978
 1643SOL    HW116565   1.849   4.134   9.057  0.6225 -2.6321  1.4267
 1643SOL    HW216566   1.893   4.234   9.165 -1.4825 -1.8519  0.7125
 1644SOL     OW16567   2.460   1.754   9.545  0.4536  0.9460  0.3974
 1644SOL    HW116568   2.380   1.702   9.537  0.7180  0.3743  1.4210
 1644SOL    HW216569   2.527   1.686   9.535 -1.0025 -0.2517 -1.1287
 1645SOL     OW16570   0.189   4.139  13.581  0.5845 -0.1399 -0.3540
 1645SOL    HW116571   0.096   4.117  13.581  0.2861  1.1621  1.7113
 1645SOL    HW216572   0.232   4.054  13.568  1.1399 -0.0757  1.0671
 1646SOL     OW16573   1.323   1.746   0.927  0.4678  0.0057  0.1148
 1646SOL    HW116574   1.406   1.792   0.940 -0.0487  0.9875 -0.0931
 1646SOL    HW216575   1.290   1.774   0.842  0.8226 -0.2759 -0.1174
 1647SOL     OW16576   2.924   0.018   8.165 -0.1202 -0.5764 -0.0591
 1647SOL    HW116577   2.960   4.665   8.183  0.4125 -0.6649 -1.5689
 1647SOL    HW216578   2.834   0.004   8.195  0.2894 -1.0393  0.9835
 1648SOL     OW16579   2.514   2.453  10.383  0.2332  0.0670  0.5409
 1648SOL    HW116580   2.457   2.480  10.455 -1.4155 -1.1870 -0.2694
 1648SOL    HW216581   2.532   2.539  10.345 -0.5346 -0.2235 -0.4837
 1649SOL     OW16582   3.178   1.572   4.840  0.5598  0.3559 -0.5957
 1649SOL    HW116583   3.142   1.546   4.755 -0.7332 -2.2583  0.7842
 1649SOL    HW216584   3.217   1.490   4.869  0.4047  0.8046  0.8747
 1650SOL     OW16585   4.407   3.162   5.929  0.1532 -0.0871 -0.2036
 1650SOL    HW116586   4.468   3.153   6.002 -0.9058 -1.2102  0.5351
 1650SOL    HW216587   4.324   3.169   5.975 -0.1086 -0.8075 -0.5660
 1651SOL     OW16588   2.986   3.316   7.700 -0.0534  0.2242  0.4521
 1651SOL    HW116589   3.053   3.282   7.642 -0.6017 -0.6222  0.3109
 1651SOL    HW216590   3.032   3.391   7.738 -0.5291  0.8887 -0.2741
 1652SOL     OW16591   2.494   4.186   2.636  0.2770  0.0075  0.1735
 1652SOL    HW116592   2.563   4.241   2.599  1.2703 -1.0256  0.5095
 1652SOL    HW216593   2.543   4.134   2.699  0.1647  2.2103  2.0703
 1653SOL     OW16594   4.012   1.932   0.377  0.2458 -0.1817  0.9274
 1653SOL    HW116595   3.957   1.865   0.336  0.8751 -1.4693  2.1690
 1653SOL    HW216596   3.952   1.950   0.449  0.0479 -1.6115  1.1284
 1654SOL     OW16597   3.136   0.318  11.115 -0.1183 -0.3200 -0.1269
 1654SOL    HW116598   3.126   0.306  11.210  1.7246 -0.6851  0.0227
 1654SOL    HW216599   3.229   0.341  11.122 -0.5069  1.7576 -1.8654
 1655SOL     OW16600   1.264   4.444   2.942  0.1576  0.3627  0.2211
 1655SOL    HW116601   1.352   4.472   2.967  0.4452  0.8919 -1.4079
 1655SOL    HW216602   1.287   4.378   2.877 -0.8248 -0.0512  0.3010
 1656SOL     OW16603   4.101   3.842  15.336 -0.0992 -0.0274  0.0340
 1656SOL    HW116604   4.158   3.807  15.405 -0.0312 -1.9753 -1.0348
 1656SOL    HW216605   4.013   3.822  15.367 -0.5781  1.2132 -0.4997
 1657SOL     OW16606   4.471   0.118  15.929  0.3791  0.2621 -0.0922
 1657SOL    HW116607   4.457   0.185  15.997  0.5950 -1.0747  1.2661
 1657SOL    HW216608   4.560   0.142  15.903  0.0216  0.2148 -1.3379
 1658SOL     OW16609   2.286   1.258   9.044  0.3955 -0.9035  0.9794
 1658SOL    HW116610   2.312   1.350   9.056  0.7365 -1.3227  3.5426
 1658SOL    HW216611   2.320   1.220   9.125  1.1413  0.8047  1.4752
 1659SOL     OW16612   2.812   1.380   6.120 -0.6958  0.9385  0.2345
 1659SOL    HW116613   2.741   1.436   6.152 -1.1550  0.4930 -0.0077
 1659SOL    HW216614   2.766   1.307   6.078 -1.1388  1.0966  0.4417
 1660SOL     OW16615   0.966   0.598   4.752 -0.2150 -0.3607  0.5852
 1660SOL    HW116616   0.921   0.513   4.751 -0.3465 -0.2885  0.3813
 1660SOL    HW216617   0.893   0.655   4.728 -0.1059 -0.0186  1.0660
 1661SOL     OW16618   3.245   3.122   4.914 -0.3707  0.0636  0.3584
 1661SOL    HW116619   3.261   3.139   4.821  4.3266 -0.0457  1.1575
 1661SOL    HW216620   3.192   3.199   4.937 -0.7834  0.1157 -0.7755
 1662SOL     OW16621   0.790   2.027   3.106  0.0417  0.3015 -0.1035
 1662SOL    HW116622   0.790   2.115   3.070  0.6437  0.3593  0.0345
 1662SOL    HW216623   0.761   1.981   3.028  0.4162  0.7586 -0.5064
 1663SOL     OW16624   4.117   1.249  11.478  0.2483 -0.5712  0.1302
 1663SOL    HW116625   4.060   1.176  11.502 -3.7925  2.9220  1.0029
 1663SOL    HW216626   4.138   1.281  11.566  0.8618 -0.0830 -0.1952
 1664SOL     OW16627   3.933   1.760   8.333 -0.3220  0.8706 -0.1658
 1664SOL    HW116628   3.923   1.854   8.347 -0.4067  0.9970 -1.1094
 1664SOL    HW216629   3.905   1.731   8.420 -2.6939  2.0581 -0.5412
 1665SOL     OW16630   1.589   4.530   0.680  0.1791 -0.7118 -0.7571
 1665SOL    HW116631   1.508   4.485   0.703 -1.5441  2.3989 -0.7246
 1665SOL    HW216632   1.646   4.474   0.733  1.5641  2.4418  1.1067
 1666SOL     OW16633   4.523   3.521   7.998  0.2440  0.4217  0.2796
 1666SOL    HW116634   4.619   3.527   7.995  0.2082  1.5373  1.1570
 1666SOL    HW216635   4.507   3.428   8.015  1.1337  0.6936  2.5886
 1667SOL     OW16636   4.715   1.464   6.539 -0.6827 -0.8322  0.3898
 1667SOL    HW116637   4.718   1.375   6.505 -2.3250 -1.4805  1.9353
 1667SOL    HW216638   0.050   1.491   6.478 -0.2641 -0.8956  0.8349
 1668SOL     OW16639   1.803   1.700  16.765  0.3789 -0.0914  0.5076
 1668SOL    HW116640   1.745   1.665  16.833  2.3535 -0.7633  1.8414
 1668SOL    HW216641   1.801   1.632  16.698  1.9592 -0.0625  0.4369
 1669SOL     OW16642   1.006   0.742  10.790  0.2586  0.4809  0.2017
 1669SOL    HW116643   0.974   0.722  10.878 -1.9779 -0.9412 -0.9427
 1669SOL    HW216644   1.073   0.673  10.788  1.0834  1.3459 -1.7400
 1670SOL     OW16645   2.352   0.418  13.649 -0.0820  0.7779 -0.2634
 1670SOL    HW116646   2.385   0.328  13.641 -1.9304  0.1452 -0.6696
 1670SOL    HW216647   2.282   0.396  13.711  0.2507  0.0605 -0.1341
 1671SOL     OW16648   0.177   0.012   9.057  0.3468  0.0080  0.0521
 1671SOL    HW116649   0.168   0.107   9.052 -0.6184 -0.0591  0.4727
 1671SOL    HW216650   0.085   4.723   9.068 -0.1348  1.5694 -0.6535
 1672SOL     OW16651   3.054   2.500   4.912 -0.7094 -0.2033  0.5101
 1672SOL    HW116652   3.006   2.423   4.943  0.1295 -0.6515  0.7005
 1672SOL    HW216653   3.012   2.566   4.966  0.7333  1.7900 -0.8144
 1673SOL     OW16654   3.544   1.670  14.324 -0.4129  0.0438 -0.1531
 1673SOL    HW116655   3.547   1.575  14.331  0.9812 -0.0233 -1.7628
 1673SOL    HW216656   3.573   1.694  14.412 -0.8210 -1.1979  0.3207
 1674SOL     OW16657   1.291   0.956   7.624 -0.0314 -0.4754 -0.7401
 1674SOL    HW116658   1.363   0.941   7.686 -1.2894  0.3826  0.9319
 1674SOL    HW216659   1.275   0.866   7.597  0.0501 -1.4487  2.4846
 1675SOL     OW16660   0.131   3.314  12.224 -0.6226  0.2512  0.0310
 1675SOL    HW116661   0.082   3.236  12.251  0.2249  0.1052  1.1726
 1675SOL    HW216662   0.068   3.385  12.237  0.7163  1.4792 -0.2275
 1676SOL     OW16663   0.602   4.403   9.594 -0.2902 -0.3585  0.3852
 1676SOL    HW116664   0.655   4.323   9.591  1.9235  1.1444  0.0840
 1676SOL    HW216665   0.547   4.380   9.669  1.4002 -1.2675  1.3199
 1677SOL     OW16666   0.398   0.490   2.635 -0.1745 -0.0584 -0.0997
 1677SOL    HW116667   0.353   0.425   2.689 -1.2760  0.0990 -0.8148
 1677SOL    HW216668   0.447   0.550   2.691 -1.4424  0.3254  0.5994
 1678SOL     OW16669   3.058   3.073   6.819 -0.7314 -0.2353  0.1510
 1678SOL    HW116670   3.136   3.111   6.778 -0.5808 -1.5915 -0.8307
 1678SOL    HW216671   2.988   3.119   6.774  0.0428  1.5598  0.8053
 1679SOL     OW16672   4.306   1.080  15.538 -0.4354 -0.8122 -0.1622
 1679SOL    HW116673   4.302   0.991  15.573 -3.6731 -0.2647  0.9183
 1679SOL    HW216674   4.248   1.072  15.462  0.9555  0.0754 -1.3343
 1680SOL     OW16675   2.182   0.183   1.153  0.2372  0.0492 -0.6377
 1680SOL    HW116676   2.121   0.217   1.218 -1.6522  0.7324 -2.7639
 1680SOL    HW216677   2.258   0.238   1.170 -0.7302  0.6647  1.6231
 1681SOL     OW16678   4.336   2.060   8.816 -0.8049 -0.0171 -0.0536
 1681SOL    HW116679   4.329   1.965   8.831 -0.9898  0.1261  0.7829
 1681SOL    HW216680   4.249   2.085   8.786 -1.3333 -0.7906  0.8315
 1682SOL     OW16681   3.894   2.108  15.413  0.0488 -0.7716 -0.6757
 1682SOL    HW116682   3.872   2.194  15.449  0.6390 -0.3462 -1.3161
 1682SOL    HW216683   3.861   2.048  15.479 -0.0920 -1.7205 -1.6082
 1683SOL     OW16684   3.333   3.752   3.169 -0.0486 -0.3657 -0.1573
 1683SOL    HW116685   3.268   3.770   3.237 -0.9379  0.0023 -1.1090
 1683SOL    HW216686   3.283   3.688   3.119  0.6715 -2.4340  1.7785
 1684SOL     OW16687   0.583   2.176  14.647  0.3977  0.2185 -0.6767
 1684SOL    HW116688   0.549   2.088  14.664  0.0909  0.0788 -2.0635
 1684SOL    HW216689   0.507   2.227  14.675 -0.4636 -0.6175 -1.5112
 1685SOL     OW16690   0.818   0.700   5.238 -0.4249 -0.0108 -0.0007
 1685SOL    HW116691   0.876   0.644   5.187  0.2210  1.4213 -0.8530
 1685SOL    HW216692   0.742   0.644   5.252 -1.3236  1.3259  0.5380
 1686SOL     OW16693   4.255   3.443   6.516  0.2136  0.1260 -0.5737
 1686SOL    HW116694   4.288   3.393   6.441  0.6272  1.4462 -1.2686
 1686SOL    HW216695   4.339   3.483   6.537  0.0796 -0.1067  0.3882
 1687SOL     OW16696   0.103   2.991   7.743 -0.1464  0.1235 -0.4336
 1687SOL    HW116697   0.019   3.027   7.715  1.3469  1.1450 -3.6105
 1687SOL    HW216698   0.067   2.960   7.826 -1.3872  0.4363 -0.8423
 1688SOL     OW16699   0.414   3.835   5.552 -0.3126  0.1296  0.0212
 1688SOL    HW116700   0.375   3.907   5.601  1.0830  0.1158  1.1515
 1688SOL    HW216701   0.355   3.766   5.581  0.2870  0.2342  1.4991
 1689SOL     OW16702   3.193   2.307   2.412  0.3659  0.7700 -0.2169
 1689SOL    HW116703   3.151   2.341   2.333  2.5497  2.3326 -0.6820
 1689SOL    HW216704   3.151   2.356   2.483  3.5798  0.9063  1.6054
 1690SOL     OW16705   0.270   2.136   8.185  0.2615  0.0080  0.1726
 1690SOL    HW116706   0.282   2.198   8.257  0.6274  1.0994 -0.8334
 1690SOL    HW216707   0.175   2.138   8.173  0.2128  2.2391  0.8880
 1691SOL     OW16708   1.081   1.545   3.578  0.0091 -0.2313  0.1819
 1691SOL    HW116709   1.102   1.595   3.657 -1.4820  0.8952 -0.1392
 1691SOL    HW216710   1.058   1.457   3.607  1.8045 -0.1200  1.9027
 1692SOL     OW16711   1.848   2.441   5.498  0.0149  0.6130  0.0091
 1692SOL    HW116712   1.855   2.535   5.510  0.9322  0.3856  1.2383
 1692SOL    HW216713   1.845   2.420   5.404  1.5502 -1.8186  0.4938
 1693SOL     OW16714   3.466   0.083   2.792  0.7911 -0.1422 -0.1051
 1693SOL    HW116715   3.494   0.073   2.882 -0.5985  0.1052  0.3613
 1693SOL    HW216716   3.462   4.732   2.747 -3.6382 -0.5653  1.0209
 1694SOL     OW16717   1.174   3.394   7.140  0.1768 -0.5140  0.5578
 1694SOL    HW116718   1.100   3.394   7.201 -1.4665  1.2739 -1.4055
 1694SOL    HW216719   1.181   3.489   7.125 -0.4341 -0.4237  0.8329
 1695SOL     OW16720   3.887   1.495   1.986 -0.0363 -0.2541  0.1156
 1695SOL    HW116721   3.834   1.571   2.011  0.6806 -0.2799  1.6786
 1695SOL    HW216722   3.969   1.515   2.031 -1.4022  1.4301  1.8263
 1696SOL     OW16723   2.321   4.117  10.176 -0.0765 -1.0719  0.5707
 1696SOL    HW116724   2.400   4.125  10.122 -0.9684  2.2845 -0.2647
 1696SOL    HW216725   2.351   4.149  10.262 -0.4135  0.9198 -0.0516
 1697SOL     OW16726   1.610   3.205   7.333 -0.1033  0.2716 -0.4016
 1697SOL    HW116727   1.562   3.123   7.335 -0.6096  0.5673 -0.3934
 1697SOL    HW216728   1.562   3.269   7.385 -1.9180 -0.4164 -1.2491
 1698SOL     OW16729   3.006   2.733   5.536 -0.0036  0.4788  0.2353
 1698SOL    HW116730   2.948   2.703   5.606 -0.5128 -0.6997 -0.7087
 1698SOL    HW216731   2.955   2.729   5.456  0.8817 -0.2216 -0.2913
 1699SOL     OW16732   1.793   4.316   2.992 -0.0513 -0.6320  0.3837
 1699SOL    HW116733   1.853   4.322   3.067  0.5483 -2.6016  0.0570
 1699SOL    HW216734   1.716   4.280   3.036 -0.0826  0.4107  1.1921
 1700SOL     OW16735   3.604   1.230   8.385 -0.1565 -0.5139 -0.1688
 1700SOL    HW116736   3.682   1.219   8.330 -0.9835 -1.4152 -1.1677
 1700SOL    HW216737   3.575   1.139   8.385 -0.6829 -0.3453 -2.3951
 1701SOL     OW16738   1.665   3.743   7.271 -0.0547  0.1117 -0.4823
 1701SOL    HW116739   1.708   3.658   7.277  2.0022  1.2506  0.8868
 1701SOL    HW216740   1.745   3.791   7.292 -1.1800  0.7066  2.4304
 1702SOL     OW16741   2.350   3.723   9.757 -0.4723 -0.0992  0.4993
 1702SOL    HW116742   2.360   3.690   9.846  0.2008  0.2253  0.5375
 1702SOL    HW216743   2.382   3.812   9.773 -0.8913  0.3201 -1.0312
 1703SOL     OW16744   1.067   2.081   9.578  0.0478 -0.2920 -0.1290
 1703SOL    HW116745   1.046   2.046   9.491 -1.5513  1.9375 -0.6434
 1703SOL    HW216746   1.125   2.010   9.605  0.9018  1.0439  1.5100
 1704SOL     OW16747   2.326   3.602   8.176  0.1463 -1.0401  0.1752
 1704SOL    HW116748   2.255   3.574   8.233  0.2672  1.0557  1.3750
 1704SOL    HW216749   2.373   3.522   8.153  0.3542 -0.6264 -0.8685
 1705SOL     OW16750   2.996   2.994   8.655  0.6227  0.1511  0.4008
 1705SOL    HW116751   3.005   3.074   8.603  1.7376  0.1946  0.6672
 1705SOL    HW216752   2.957   3.024   8.736  2.0641 -0.8603  1.4783
 1706SOL     OW16753   0.786   2.935  15.735 -0.1179  0.0714 -0.7376
 1706SOL    HW116754   0.722   2.970  15.672 -2.3550 -2.0434  0.3490
 1706SOL    HW216755   0.853   3.003  15.740  0.8662 -1.0922  1.8757
 1707SOL     OW16756   4.158   4.679   3.991  0.6425  0.4006  0.0474
 1707SOL    HW116757   4.065   4.654   3.995  0.8267 -0.2805  0.1340
 1707SOL    HW216758   4.158   4.732   3.912  1.6352 -0.2459 -0.3820
 1708SOL     OW16759   0.592   4.398   8.843  0.1506  0.3079  0.6097
 1708SOL    HW116760   0.536   4.444   8.905 -2.0587 -0.7247 -0.6449
 1708SOL    HW216761   0.659   4.460   8.812 -0.2179  0.0315 -0.7440
 1709SOL     OW16762   2.947   0.623   5.294  0.4130  0.9004 -0.3733
 1709SOL    HW116763   2.891   0.574   5.354  0.0192 -0.3633 -1.7695
 1709SOL    HW216764   3.023   0.568   5.277 -0.6750 -0.8269  0.3887
 1710SOL     OW16765   4.256   1.774   6.625  0.2843  0.2289 -0.4192
 1710SOL    HW116766   4.201   1.853   6.626 -0.0223  0.0105 -0.1414
 1710SOL    HW216767   4.261   1.761   6.530 -0.6898 -1.0775 -0.2869
 1711SOL     OW16768   3.153   3.783   2.419 -0.4091 -0.1879 -0.5802
 1711SOL    HW116769   3.104   3.720   2.472  1.1412 -1.2928 -0.4672
 1711SOL    HW216770   3.242   3.765   2.448 -0.2652  3.2095  1.0800
 1712SOL     OW16771   3.226   4.498  17.466 -0.0125  0.0475 -0.0859
 1712SOL    HW116772   3.145   4.515  17.515 -1.0012  3.5803 -3.0330
 1712SOL    HW216773   3.299   4.528  17.520 -1.3105  1.6855  0.7485
 1713SOL     OW16774   3.828   3.786   3.637  0.5021 -0.4661 -0.6472
 1713SOL    HW116775   3.919   3.766   3.658  0.1039 -0.1460  1.3828
 1713SOL    HW216776   3.841   3.829   3.553 -1.1498 -2.8436 -2.1355
 1714SOL     OW16777   2.486   1.378  16.242 -0.2944  0.6739 -0.0986
 1714SOL    HW116778   2.550   1.430  16.194  0.7009 -1.6192 -1.2794
 1714SOL    HW216779   2.518   1.393  16.331  0.2564  0.2566 -0.2251
 1715SOL     OW16780   1.202   3.880   3.684 -0.2137  0.4460  0.0307
 1715SOL    HW116781   1.110   3.883   3.711  0.0906  1.3026  0.9584
 1715SOL    HW216782   1.243   3.952   3.732 -0.7599  1.8111 -1.5369
 1716SOL     OW16783   3.765   3.401  15.796 -0.1790  0.1417 -0.0466
 1716SOL    HW116784   3.847   3.402  15.845  1.2697  2.1931 -2.5127
 1716SOL    HW216785   3.786   3.413  15.703  1.1026  1.1686  0.3612
 1717SOL     OW16786   1.181   0.877   1.322  0.4302 -0.4670  0.1438
 1717SOL    HW116787   1.168   0.917   1.408 -0.5448 -0.4180 -0.0224
 1717SOL    HW216788   1.230   0.800   1.352 -0.8766 -0.6328  1.8580
 1718SOL     OW16789   1.268   0.797   9.613 -0.8544 -0.2467 -0.5720
 1718SOL    HW116790   1.310   0.741   9.547  4.3341  2.8442  0.1278
 1718SOL    HW216791   1.176   0.773   9.599 -1.4959  1.0286  1.4076
 1719SOL     OW16792   0.245   3.353  11.700 -0.0876 -0.3397  0.3042
 1719SOL    HW116793   0.223   3.440  11.666  2.8418  0.5394  0.7013
 1719SOL    HW216794   0.262   3.304  11.620 -1.2019  1.5542 -1.1024
 1720SOL     OW16795   4.085   2.129   5.975  0.8559 -0.0249 -0.5754
 1720SOL    HW116796   3.997   2.159   5.997  0.9956 -1.0060  1.2871
 1720SOL    HW216797   4.130   2.210   5.953 -1.8211  1.4631 -0.6392
 1721SOL     OW16798   0.934   2.921   2.202 -0.1303 -0.2314  0.5403
 1721SOL    HW116799   0.858   2.931   2.146  1.2390  1.4081 -1.0236
 1721SOL    HW216800   0.923   2.828   2.224  1.0729 -0.4959  0.0330
 1722SOL     OW16801   3.430   3.826   7.370  0.5925  0.8686  0.2764
 1722SOL    HW116802   3.361   3.838   7.305  0.1607  2.0046  0.9352
 1722SOL    HW216803   3.409   3.899   7.428  0.8307  0.6775  0.6024
 1723SOL     OW16804   3.367   3.411   1.217 -0.2069 -0.2219  0.1397
 1723SOL    HW116805   3.309   3.484   1.239 -1.3201 -0.6236 -1.4156
 1723SOL    HW216806   3.431   3.456   1.163 -1.4237  0.9930 -0.2930
 1724SOL     OW16807   2.988   1.384   3.436 -0.4345  0.0126  0.6158
 1724SOL    HW116808   2.984   1.293   3.463  0.9856  0.4327  2.2998
 1724SOL    HW216809   3.081   1.401   3.452 -0.4912  2.6332 -1.8506
 1725SOL     OW16810   3.915   3.252   8.923  0.0402  0.2525 -0.0087
 1725SOL    HW116811   3.890   3.163   8.947  1.9808 -0.2695  0.1260
 1725SOL    HW216812   4.007   3.232   8.904  0.3050  0.4809  1.0795
 1726SOL     OW16813   1.294   2.993   3.192 -0.0307  0.0760  0.2493
 1726SOL    HW116814   1.243   2.952   3.261  1.9903 -0.6221  1.3356
 1726SOL    HW216815   1.350   2.920   3.166 -1.9944 -1.2612 -0.1962
 1727SOL     OW16816   3.307   0.810   9.330 -0.0418  0.4880  0.1850
 1727SOL    HW116817   3.388   0.829   9.378  0.0080 -2.2020  1.1868
 1727SOL    HW216818   3.288   0.891   9.283 -2.4465  0.6897  1.5036
 1728SOL     OW16819   0.089   4.727   7.134 -0.1432  0.0238 -0.4854
 1728SOL    HW116820   0.091   4.668   7.209  1.3040 -0.7021 -1.0903
 1728SOL    HW216821   0.183   4.720   7.116 -0.0389 -3.1262  1.1832
 1729SOL     OW16822   0.330   3.661   3.550 -0.6207  0.1975 -0.0227
 1729SOL    HW116823   0.254   3.702   3.591 -0.2300 -0.9815  1.8852
 1729SOL    HW216824   0.343   3.587   3.609  1.3188 -2.0635 -3.2946
 1730SOL     OW16825   4.164   4.329   6.567  0.2597  0.1820  0.2042
 1730SOL    HW116826   4.170   4.337   6.663  3.1649 -1.7996  0.2154
 1730SOL    HW216827   4.140   4.238   6.554 -0.9408  0.2311  2.0272
 1731SOL     OW16828   1.976   1.002  17.704  0.9155  0.0825  0.1637
 1731SOL    HW116829   1.973   1.003   0.064 -0.9279  3.5248  0.0808
 1731SOL    HW216830   1.990   0.908  17.697 -1.1474 -0.2593  0.8190
 1732SOL     OW16831   1.248   0.805   2.198 -0.5810  0.6901  0.1780
 1732SOL    HW116832   1.238   0.795   2.103  0.6588 -0.9651  0.2064
 1732SOL    HW216833   1.341   0.786   2.215 -0.7610 -0.6992 -0.3800
 1733SOL     OW16834   0.737   3.862   6.037 -0.5781  0.6825  0.2283
 1733SOL    HW116835   0.813   3.919   6.035  0.6348 -1.0135 -1.3903
 1733SOL    HW216836   0.721   3.817   5.954 -0.9951 -0.1254  0.7462
 1734SOL     OW16837   0.018   0.008   1.557 -0.3095  0.4060  0.4689
 1734SOL    HW116838   0.077   0.047   1.622 -1.1431  0.6566  1.0851
 1734SOL    HW216839   4.672   0.061   1.565 -2.3125 -2.5218 -0.5487
 1735SOL     OW16840   0.359   2.287  15.612 -0.3923  0.4542  0.1190
 1735SOL    HW116841   0.430   2.251  15.559  1.4621 -1.2336  3.6978
 1735SOL    HW216842   0.400   2.291  15.699 -0.9403 -2.0307  0.4751
 1736SOL     OW16843   1.252   1.533   9.307  0.3330  0.9507 -0.1769
 1736SOL    HW116844   1.201   1.600   9.353  1.8043  2.0360 -0.1289
 1736SOL    HW216845   1.297   1.506   9.387  0.3631  0.6007 -0.3125
 1737SOL     OW16846   1.445   3.455   3.661  0.4367 -0.1483  0.2082
 1737SOL    HW116847   1.497   3.375   3.667  1.3806  0.3935 -0.9551
 1737SOL    HW216848   1.508   3.515   3.702 -1.7696  1.7449  0.8534
 1738SOL     OW16849   2.325   2.839   7.464 -0.5878 -0.4332 -0.3366
 1738SOL    HW116850   2.409   2.878   7.487 -1.3821  0.5147  0.9523
 1738SOL    HW216851   2.291   2.807   7.547  2.5731  1.5345  1.6837
 1739SOL     OW16852   4.733   2.591  12.383 -0.2535 -0.6739  0.2081
 1739SOL    HW116853   4.663   2.650  12.410  0.9958 -0.5032  3.0179
 1739SOL    HW216854   0.069   2.655  12.387  0.2880 -1.2579  0.0916
 1740SOL     OW16855   3.384   3.325   6.208 -0.6165  0.1227  0.1935
 1740SOL    HW116856   3.348   3.334   6.296 -0.8270  0.0612  0.1130
 1740SOL    HW216857   3.306   3.330   6.153 -0.5757 -0.5152  0.0688
 1741SOL     OW16858   1.935   2.785   2.797  0.1057 -0.5755  0.7772
 1741SOL    HW116859   1.873   2.712   2.802  0.2316 -0.6521  1.2241
 1741SOL    HW216860   1.967   2.798   2.887  1.8902 -0.4838  0.1352
 1742SOL     OW16861   2.414   1.512  17.209 -0.1924  0.0846 -0.3434
 1742SOL    HW116862   2.323   1.501  17.183 -0.0187 -0.4970 -0.6934
 1742SOL    HW216863   2.456   1.487  17.127  0.1824  0.4698 -0.2702
 1743SOL     OW16864   1.949   3.599  12.205  0.9474  0.6110 -0.2467
 1743SOL    HW116865   2.003   3.536  12.157  2.1069  2.0848 -0.9032
 1743SOL    HW216866   1.959   3.677  12.150 -1.1332  1.6928  0.8975
 1744SOL     OW16867   0.754   2.056   5.520 -0.5103 -0.0504  0.0394
 1744SOL    HW116868   0.766   2.028   5.611 -2.5956  0.3804  0.4346
 1744SOL    HW216869   0.716   1.971   5.498 -0.5030 -0.2361  0.7273
 1745SOL     OW16870   1.262   3.127   0.672  0.4197 -0.4195  0.3729
 1745SOL    HW116871   1.295   3.049   0.716 -0.1714 -1.1649 -0.4974
 1745SOL    HW216872   1.215   3.087   0.599  1.8213 -0.6734 -0.3855
 1746SOL     OW16873   3.188   4.411   8.650 -0.1308  0.4561  0.0962
 1746SOL    HW116874   3.166   4.318   8.642  0.6601  0.3014 -0.2627
 1746SOL    HW216875   3.183   4.431   8.557  1.5387 -0.1498 -0.1228
 1747SOL     OW16876   3.986   1.103   2.038  0.1014  0.5910  0.0088
 1747SOL    HW116877   4.066   1.102   2.091  0.1242  2.4875  0.0276
 1747SOL    HW216878   3.976   1.012   2.009  0.9948  0.7646 -0.8428
 1748SOL     OW16879   4.155   2.127   9.340  0.3753  0.6125  0.2080
 1748SOL    HW116880   4.241   2.152   9.374  0.4339  0.5607  0.0987
 1748SOL    HW216881   4.171   2.066   9.269 -0.0216  0.3257  0.3671
 1749SOL     OW16882   4.225   2.704   5.687  0.4691  0.0900 -0.8359
 1749SOL    HW116883   4.289   2.636   5.666 -1.1745 -1.3186 -1.2618
 1749SOL    HW216884   4.150   2.662   5.645  0.6034 -1.2788  0.2876
 1750SOL     OW16885   3.787   2.966   6.768  0.9416 -0.7164 -0.2244
 1750SOL    HW116886   3.807   2.923   6.851  1.8159 -1.7914 -0.9776
 1750SOL    HW216887   3.742   2.897   6.718 -0.0032 -1.0016  1.0161
 1751SOL     OW16888   3.312   2.497   3.361 -0.7683 -0.4182 -0.0042
 1751SOL    HW116889   3.277   2.529   3.278  0.4284  0.0650 -0.3353
 1751SOL    HW216890   3.300   2.402   3.366 -1.1903 -0.4946 -2.6868
 1752SOL     OW16891   2.802   2.993   5.413 -0.2219  0.2499 -0.5132
 1752SOL    HW116892   2.749   3.026   5.485  0.1782 -0.1238 -0.0536
 1752SOL    HW216893   2.826   3.074   5.366  0.6418  0.6790  0.6497
 1753SOL     OW16894   4.022   0.598   8.607 -0.4341  0.8201 -0.6175
 1753SOL    HW116895   3.981   0.679   8.577  1.9840  2.5274  0.6594
 1753SOL    HW216896   3.944   0.544   8.616 -0.6812  1.3242  0.1909
 1754SOL     OW16897   4.701   3.014   6.978 -0.2300 -0.1973 -0.4383
 1754SOL    HW116898   4.620   2.983   7.019 -1.2411  0.2020 -2.1104
 1754SOL    HW216899   4.687   3.109   6.980 -1.3848 -0.4297  1.9481
 1755SOL     OW16900   0.887   4.354   3.552 -0.1405 -0.4499  0.1839
 1755SOL    HW116901   0.865   4.307   3.472  1.0499  0.2859 -0.5673
 1755SOL    HW216902   0.979   4.377   3.541 -0.7334  0.7769 -2.1544
 1756SOL     OW16903   1.117   3.241   2.688  0.2793  0.4928  0.1173
 1756SOL    HW116904   1.037   3.243   2.636  0.3005  1.5550  0.1321
 1756SOL    HW216905   1.076   3.194   2.762  0.4476  2.3108  1.3525
 1757SOL     OW16906   0.624   2.227   8.496  0.2356  0.0906 -0.2292
 1757SOL    HW116907   0.669   2.146   8.520  3.1044  1.2261 -1.7731
 1757SOL    HW216908   0.647   2.285   8.570 -0.5561 -1.5702  1.3230
 1758SOL     OW16909   0.814   1.055   0.967 -0.0831 -0.3102  0.8999
 1758SOL    HW116910   0.867   0.975   0.958 -0.6973 -0.5418 -0.6532
 1758SOL    HW216911   0.725   1.021   0.970 -2.2801  5.3033 -0.9875
 1759SOL     OW16912   4.338   1.867   8.589  0.4550  0.4703 -0.4212
 1759SOL    HW116913   4.434   1.872   8.593  0.5017 -0.7788 -0.0320
 1759SOL    HW216914   4.323   1.961   8.599  0.8655  0.5865 -0.8781
 1760SOL     OW16915   1.971   4.385  14.799 -0.1573  0.1544  0.2049
 1760SOL    HW116916   2.019   4.308  14.768 -1.3388 -0.7777  0.6776
 1760SOL    HW216917   1.881   4.366  14.772 -0.3354 -1.8386  2.2111
 1761SOL     OW16918   2.871   3.497   3.459 -0.8309 -0.3014  0.6609
 1761SOL    HW116919   2.904   3.495   3.549  0.7137  0.3438  0.0901
 1761SOL    HW216920   2.801   3.432   3.469 -0.9295 -0.1009  1.2751
 1762SOL     OW16921   1.974   3.147   3.070 -0.4149 -0.1804  0.1441
 1762SOL    HW116922   1.971   3.218   3.005 -2.1913  0.1750  0.6133
 1762SOL    HW216923   1.887   3.109   3.082 -1.8612  2.8510 -0.6591
 1763SOL     OW16924   3.632   4.404   2.950 -0.4416  0.0626 -0.1033
 1763SOL    HW116925   3.652   4.313   2.929 -0.2005 -0.0295  0.5169
 1763SOL    HW216926   3.702   4.447   2.900 -0.8847  0.7718 -0.1124
 1764SOL     OW16927   0.813   3.964   0.903 -0.6808 -0.3888  0.3249
 1764SOL    HW116928   0.763   3.915   0.969 -2.4702  2.7164  1.2996
 1764SOL    HW216929   0.743   3.996   0.846  1.5048  0.5178 -1.8455
 1765SOL     OW16930   0.185   2.634  13.411  0.0032  0.7072  0.6193
 1765SOL    HW116931   0.202   2.541  13.428 -0.2212 -0.1307 -3.7568
 1765SOL    HW216932   0.095   2.629  13.378  0.1439  0.6662  0.2366
 1766SOL     OW16933   1.468   2.828   9.704 -0.0404 -0.9217 -0.2603
 1766SOL    HW116934   1.494   2.766   9.636  1.0815 -1.6865  0.8799
 1766SOL    HW216935   1.551   2.831   9.750 -0.0382 -2.3326 -0.1743
 1767SOL     OW16936   1.941   0.570  16.582 -0.5016 -0.0304 -0.0177
 1767SOL    HW116937   1.925   0.607  16.668  0.3743  0.5234 -0.0980
 1767SOL    HW216938   2.007   0.503  16.598  1.1310  1.6913  0.3500
 1768SOL     OW16939   1.958   0.557   3.321  0.2553 -0.1654 -0.3377
 1768SOL    HW116940   1.875   0.593   3.354 -0.3330 -2.7133  0.8897
 1768SOL    HW216941   1.952   0.472   3.364 -1.2092 -0.4253 -1.0391
 1769SOL     OW16942   1.231   3.603   2.251 -0.2018 -0.0223  0.2717
 1769SOL    HW116943   1.292   3.529   2.257 -0.2632  0.0164  1.3109
 1769SOL    HW216944   1.244   3.640   2.338  0.7553  0.1379  0.0600
 1770SOL     OW16945   0.138   3.911  16.300  0.6110 -0.0914  0.4000
 1770SOL    HW116946   0.054   3.949  16.272  0.7886  0.5472  0.7405
 1770SOL    HW216947   0.199   3.961  16.246 -2.5464  2.4901 -0.8385
 1771SOL     OW16948   0.531   0.390   2.938  0.1933  0.3904 -0.9044
 1771SOL    HW116949   0.623   0.401   2.913  0.5784  0.2856  0.4584
 1771SOL    HW216950   0.503   0.481   2.933 -0.3508  0.2373 -0.6343
 1772SOL     OW16951   3.250   0.379   7.978 -0.3747 -0.5502 -0.1696
 1772SOL    HW116952   3.244   0.444   7.907  0.7747 -0.4553 -0.1828
 1772SOL    HW216953   3.217   0.439   8.045  2.8258  3.0149 -1.7653
 1773SOL     OW16954   2.266   0.604   1.144  0.3986  0.1596 -0.0991
 1773SOL    HW116955   2.193   0.601   1.082 -0.7506  1.0630  1.2298
 1773SOL    HW216956   2.301   0.692   1.132  0.2961  0.2917  0.6008
 1774SOL     OW16957   3.811   0.307   9.764 -0.0812 -0.2740  0.0459
 1774SOL    HW116958   3.747   0.238   9.782 -0.5822 -0.0428 -0.8447
 1774SOL    HW216959   3.764   0.336   9.686 -2.1085 -0.2306  1.3041
 1775SOL     OW16960   1.189   1.185   3.014 -0.3155  0.2497  0.1237
 1775SOL    HW116961   1.245   1.120   3.055 -0.3059 -0.1758 -0.5599
 1775SOL    HW216962   1.122   1.196   3.082  1.3775 -0.1976  1.8579
 1776SOL     OW16963   1.912   0.785   5.305 -0.3336  0.6536  0.3136
 1776SOL    HW116964   1.861   0.821   5.377 -1.9164  0.9573 -0.9817
 1776SOL    HW216965   1.876   0.698   5.292  1.0446  0.2614 -0.9273
 1777SOL     OW16966   3.106   2.114   4.498  0.3578 -0.3612 -0.5359
 1777SOL    HW116967   3.054   2.037   4.476  2.2016 -1.3463 -1.4945
 1777SOL    HW216968   3.047   2.175   4.453 -1.7808 -1.2465  1.0346
 1778SOL     OW16969   3.396   2.744  14.728  0.3252  0.8080  0.5206
 1778SOL    HW116970   3.464   2.801  14.693  1.0253  0.4709  1.3277
 1778SOL    HW216971   3.346   2.803  14.783 -2.0855 -1.8688  1.2105
 1779SOL     OW16972   1.447   0.248  13.899  0.3117  0.7662 -0.2739
 1779SOL    HW116973   1.387   0.287  13.836  1.6691  0.6300 -1.6373
 1779SOL    HW216974   1.390   0.210  13.967  1.0178  0.8814  0.3803
 1780SOL     OW16975   0.626   4.362  13.098  0.5023 -0.4094 -0.5904
 1780SOL    HW116976   0.599   4.442  13.143  0.0056 -0.3075 -1.0773
 1780SOL    HW216977   0.709   4.344  13.143 -1.7196 -3.5263  2.3223
 1781SOL     OW16978   1.218   2.824   6.405 -0.5060  0.0652 -0.3454
 1781SOL    HW116979   1.165   2.779   6.338 -0.6248  0.7661 -0.7210
 1781SOL    HW216980   1.283   2.760   6.435 -0.1862  0.6109  0.1097
 1782SOL     OW16981   3.913   2.999   8.184 -0.3813  0.7469 -0.4220
 1782SOL    HW116982   4.004   2.973   8.180 -0.3406  1.2509 -2.7423
 1782SOL    HW216983   3.879   2.924   8.232  1.8808 -0.7637 -1.2312
 1783SOL     OW16984   2.194   3.110  16.135 -0.2328 -0.0236 -0.8114
 1783SOL    HW116985   2.181   3.185  16.192  1.9840  1.8263 -2.7087
 1783SOL    HW216986   2.143   3.036  16.168  0.8823 -0.4167  0.0472
 1784SOL     OW16987   1.044   4.076   8.624  0.2416 -0.4340  0.3462
 1784SOL    HW116988   1.059   3.992   8.580  0.1302 -0.7950  0.9872
 1784SOL    HW216989   1.040   4.133   8.548  0.8508 -1.4716 -0.4701
 1785SOL     OW16990   1.666   3.445  10.986 -0.0230 -0.4713  0.3679
 1785SOL    HW116991   1.630   3.372  11.036 -3.1001  0.8760  0.0618
 1785SOL    HW216992   1.634   3.510  11.048 -0.3779  0.4694 -0.8065
 1786SOL     OW16993   3.547   3.495   4.765  0.2137 -0.6003 -0.2367
 1786SOL    HW116994   3.598   3.419   4.793 -1.4264 -2.3509 -1.9994
 1786SOL    HW216995   3.596   3.527   4.690 -0.6231 -0.2717 -0.6451
 1787SOL     OW16996   2.660   1.576   9.515  0.7933  0.5960 -0.3286
 1787SOL    HW116997   2.621   1.491   9.494 -3.8704  2.4472  1.0478
 1787SOL    HW216998   2.751   1.548   9.500  0.6757 -0.3036  0.6423
 1788SOL     OW16999   0.202   2.135   1.598 -0.1441 -0.3733  0.1032
 1788SOL    HW117000   0.193   2.088   1.515 -0.7300 -0.0641 -0.0103
 1788SOL    HW217001   0.117   2.115   1.636 -0.1742  0.1446  0.3105
 1789SOL     OW17002   3.653   0.332   9.362  0.0008  0.0480  0.2819
 1789SOL    HW117003   3.739   0.289   9.364  0.0020  0.0886  1.3023
 1789SOL    HW217004   3.636   0.361   9.452  0.1893  1.1780 -0.0494
 1790SOL     OW17005   1.925   3.458  16.360  0.5614  0.5928  0.0310
 1790SOL    HW117006   1.834   3.473  16.336 -0.0834 -2.3064  0.6096
 1790SOL    HW217007   1.927   3.496  16.448  0.1621  0.3690  0.1386
 1791SOL     OW17008   1.038   3.685  15.126 -0.1985 -0.2694  0.0965
 1791SOL    HW117009   0.949   3.681  15.159  0.1915  0.4161  1.2029
 1791SOL    HW217010   1.073   3.602  15.157 -1.8840 -0.8073  0.5551
 1792SOL     OW17011   4.003   0.897   9.980 -0.0045  0.2668 -0.4568
 1792SOL    HW117012   4.066   0.964  10.005 -0.5962  0.2223  1.1084
 1792SOL    HW217013   4.016   0.839  10.055 -3.4840 -1.3987 -1.1423
 1793SOL     OW17014   2.167   3.711  10.652  0.1813 -0.6346 -0.4971
 1793SOL    HW117015   2.228   3.785  10.651 -0.9048  0.2456 -0.7219
 1793SOL    HW217016   2.229   3.647  10.616  0.7974  0.6936 -1.7527
 1794SOL     OW17017   4.538   1.411   5.640 -0.2278 -0.0761 -0.5802
 1794SOL    HW117018   4.523   1.322   5.672 -2.9302  0.5341 -0.0650
 1794SOL    HW217019   4.469   1.462   5.683 -0.0006  0.1358 -0.4724
 1795SOL     OW17020   4.518   3.583   5.406  0.0829  0.4305 -0.1596
 1795SOL    HW117021   4.499   3.526   5.331 -1.5047  0.7606 -0.0171
 1795SOL    HW217022   4.430   3.610   5.433 -0.5838  0.3605 -2.2986
 1796SOL     OW17023   1.385   1.755   8.870 -0.1008 -0.0690 -0.2708
 1796SOL    HW117024   1.414   1.663   8.868 -1.3023 -0.4292 -1.2398
 1796SOL    HW217025   1.365   1.767   8.963  0.5191  0.9929 -0.2776
 1797SOL     OW17026   1.059   1.678   7.724  0.2608 -0.6230  0.0030
 1797SOL    HW117027   1.108   1.614   7.673 -0.7097  0.7478 -2.6174
 1797SOL    HW217028   1.049   1.755   7.668 -0.2976  0.0767  1.0618
 1798SOL     OW17029   2.636   3.471   8.742  0.0723 -0.1457  0.0054
 1798SOL    HW117030   2.562   3.443   8.689  0.0588 -1.0582  0.5117
 1798SOL    HW217031   2.669   3.550   8.699 -0.2347 -0.4510 -0.7891
 1799SOL     OW17032   2.565   0.303   7.960  0.1057 -0.3734 -0.5933
 1799SOL    HW117033   2.622   0.367   7.919 -0.0339  0.7851  1.0044
 1799SOL    HW217034   2.572   0.235   7.894 -1.2689 -0.2882 -0.8298
 1800SOL     OW17035   0.353   3.556   7.126 -0.3838  0.3494  0.4505
 1800SOL    HW117036   0.339   3.578   7.034  1.3850 -2.8779 -0.5678
 1800SOL    HW217037   0.261   3.555   7.154 -0.4245 -1.9531  0.2025
 1801SOL     OW17038   2.559   1.475   0.316  0.2195  0.3245 -0.4013
 1801SOL    HW117039   2.589   1.406   0.256 -0.6410 -1.2385  0.9873
 1801SOL    HW217040   2.586   1.551   0.265 -0.1272 -0.5015 -1.8168
 1802SOL     OW17041   3.662   3.678  17.732 -0.0180  0.1758  0.2537
 1802SOL    HW117042   3.720   3.611  17.697 -1.1388 -0.1840 -0.9000
 1802SOL    HW217043   3.620   3.714  17.654 -1.1879 -0.5688  0.5369
 1803SOL     OW17044   0.598   4.231  13.430 -0.2151 -0.4237 -0.0517
 1803SOL    HW117045   0.520   4.279  13.400 -0.8014 -1.4681 -0.2181
 1803SOL    HW217046   0.651   4.293  13.479 -0.3566  0.2936 -0.8045
 1804SOL     OW17047   0.235   3.305   0.976  0.3024  0.1576 -0.0454
 1804SOL    HW117048   0.208   3.270   1.061 -1.4573 -1.3196 -1.2237
 1804SOL    HW217049   0.180   3.255   0.915  1.9322 -2.1243  0.3627
 1805SOL     OW17050   1.363   1.218  13.241  0.2897 -0.0990 -0.1193
 1805SOL    HW117051   1.310   1.173  13.307 -0.9664  0.9134 -0.4162
 1805SOL    HW217052   1.440   1.241  13.293 -0.3411 -0.3140  0.9187
 1806SOL     OW17053   2.045   4.302  10.923  0.3483  0.8116  0.0692
 1806SOL    HW117054   2.021   4.320  10.832 -1.4077  0.2730  0.4293
 1806SOL    HW217055   2.006   4.383  10.957  2.1795  1.4218  0.6834
 1807SOL     OW17056   2.369   3.507   9.601 -0.3626 -0.9224 -0.2244
 1807SOL    HW117057   2.344   3.595   9.628 -1.2218 -1.9843  2.5332
 1807SOL    HW217058   2.416   3.486   9.682  0.7307  0.5091 -0.4999
 1808SOL     OW17059   0.999   1.526  13.102  0.0860 -0.0880  0.5538
 1808SOL    HW117060   1.016   1.617  13.126 -0.2119  1.0297 -3.4291
 1808SOL    HW217061   1.010   1.538  13.007  0.3023  0.9756  0.7171
 1809SOL     OW17062   3.259   3.963   8.838 -0.2206  0.2497  0.2940
 1809SOL    HW117063   3.334   4.009   8.800 -0.5484  0.8140  0.3376
 1809SOL    HW217064   3.279   3.962   8.932 -0.2209  0.1482  0.2934
 1810SOL     OW17065   3.364   2.008  10.708 -0.4319 -0.0622  0.6383
 1810SOL    HW117066   3.442   1.983  10.759 -0.3366  0.9431  0.9839
 1810SOL    HW217067   3.349   2.094  10.746 -0.1702 -0.1932  1.0334
 1811SOL     OW17068   0.148   2.641   2.311  0.3058  0.3337  0.5797
 1811SOL    HW117069   0.078   2.631   2.375  0.5444  1.5649  1.0362
 1811SOL    HW217070   0.097   2.651   2.230  2.0226  0.4077 -0.5080
 1812SOL     OW17071   2.264   2.534   6.487 -0.0293 -0.1352  0.1271
 1812SOL    HW117072   2.316   2.468   6.441  0.8417 -0.8607  2.1422
 1812SOL    HW217073   2.208   2.561   6.414  0.8111 -1.2891 -0.9321
 1813SOL     OW17074   3.521   0.012   8.600 -0.2242  0.0574  0.6508
 1813SOL    HW117075   3.441   4.695   8.603 -0.5166  0.3736 -1.8865
 1813SOL    HW217076   3.477   0.095   8.614 -1.2207 -0.2245 -0.8366
 1814SOL     OW17077   4.444   1.247  13.775 -0.1274  0.0647 -0.1486
 1814SOL    HW117078   4.498   1.186  13.826  0.6895  1.5673  0.7760
 1814SOL    HW217079   4.443   1.205  13.689  2.6763 -0.9241  0.2895
 1815SOL     OW17080   3.080   1.829   2.095 -0.4260  0.1324 -0.4215
 1815SOL    HW117081   3.074   1.924   2.100 -1.8629 -0.0199  0.8054
 1815SOL    HW217082   3.134   1.813   2.017 -1.7043  1.1681 -1.5128
 1816SOL     OW17083   4.270   2.161   5.455 -0.0899 -0.7979 -0.4502
 1816SOL    HW117084   4.190   2.110   5.437 -0.3972 -1.0395  1.5970
 1816SOL    HW217085   4.242   2.203   5.536  0.1348 -3.0122  0.7913
 1817SOL     OW17086   3.334   3.410   5.934 -0.6500 -0.1443 -0.3790
 1817SOL    HW117087   3.417   3.430   5.890 -0.8423  0.9710 -0.2412
 1817SOL    HW217088   3.306   3.322   5.909 -1.3870  0.4548 -1.6170
 1818SOL     OW17089   0.529   1.396   2.020 -0.0004  0.3053 -0.0612
 1818SOL    HW117090   0.486   1.480   2.005 -1.6932 -0.6009 -0.3365
 1818SOL    HW217091   0.534   1.352   1.935  0.8348  0.5869 -0.1551
 1819SOL     OW17092   4.273   0.244   1.890  0.7490  0.1943  0.9588
 1819SOL    HW117093   4.345   0.281   1.839 -1.0309  2.6031  0.1931
 1819SOL    HW217094   4.272   0.150   1.875  0.5666  0.0955  1.5832
 1820SOL     OW17095   4.381   3.886   7.981 -0.1905 -0.5569  0.5052
 1820SOL    HW117096   4.470   3.868   7.951  0.0734  0.1729  0.8563
 1820SOL    HW217097   4.388   3.892   8.076  0.1145  0.1882  0.4319
 1821SOL     OW17098   4.065   2.172   4.652  0.0737 -0.1093 -0.5027
 1821SOL    HW117099   4.103   2.108   4.712 -3.5904 -1.0938  0.8108
 1821SOL    HW217100   4.126   2.245   4.657 -0.8893  0.5867  1.0203
 1822SOL     OW17101   2.316   3.289   8.359 -0.1844 -0.4060  0.2500
 1822SOL    HW117102   2.240   3.322   8.310  1.3031  1.9155 -0.4748
 1822SOL    HW217103   2.307   3.198   8.330  2.1094 -0.6483  0.2946
 1823SOL     OW17104   2.543   1.405   3.838 -0.2215  0.5161  0.1535
 1823SOL    HW117105   2.580   1.318   3.827  1.2779  1.5624 -3.2124
 1823SOL    HW217106   2.448   1.392   3.841  0.0384 -0.9826  1.7036
 1824SOL     OW17107   0.695   3.534  11.902  0.5378 -0.5556 -0.2265
 1824SOL    HW117108   0.629   3.502  11.840 -0.8331  3.2146 -0.7343
 1824SOL    HW217109   0.635   3.576  11.964  0.8700  2.5903 -2.0654
 1825SOL     OW17110   3.744   3.356  13.853 -0.2469  0.0725 -0.0155
 1825SOL    HW117111   3.739   3.301  13.931  0.1909  0.7389  0.4806
 1825SOL    HW217112   3.825   3.402  13.874  0.5612 -0.5745 -1.6913
 1826SOL     OW17113   2.471   3.162   7.160  0.0567 -0.1009  0.2312
 1826SOL    HW117114   2.415   3.089   7.132  0.4166  0.1838 -1.2547
 1826SOL    HW217115   2.407   3.231   7.181  0.6355 -0.4180  2.9456
 1827SOL     OW17116   3.340   2.078   1.025 -0.6552 -0.5565 -0.4304
 1827SOL    HW117117   3.407   2.143   1.005  1.1365 -2.1398  0.4140
 1827SOL    HW217118   3.299   2.062   0.940  0.9988 -3.0694 -0.7735
 1828SOL     OW17119   2.419   1.548   5.928 -0.3406 -0.2101  0.0524
 1828SOL    HW117120   2.383   1.504   5.851 -1.3202  0.7815 -0.0632
 1828SOL    HW217121   2.465   1.618   5.882 -0.0054 -0.4974 -0.0448
 1829SOL     OW17122   2.208   0.226   3.849 -0.1572  0.2558  0.4416
 1829SOL    HW117123   2.175   0.315   3.841 -4.5872 -1.4512 -0.2597
 1829SOL    HW217124   2.229   0.208   3.758  1.4566  2.1153  0.4364
 1830SOL     OW17125   2.065   2.380   6.043 -0.0171 -0.4389 -0.3216
 1830SOL    HW117126   2.086   2.320   5.972  1.7156 -0.9472  0.6158
 1830SOL    HW217127   1.993   2.428   6.002  0.1170 -0.9881 -1.1887
 1831SOL     OW17128   2.919   1.351   8.967  0.4066  0.4178  0.2108
 1831SOL    HW117129   2.882   1.283   8.912  1.2705 -2.0806  2.7159
 1831SOL    HW217130   2.939   1.307   9.050  1.7078 -2.2517 -1.5313
 1832SOL     OW17131   0.220   0.106   5.660  0.6470 -0.5297  0.0565
 1832SOL    HW117132   0.210   0.011   5.650 -0.0307 -0.6833  2.1030
 1832SOL    HW217133   0.315   0.110   5.671  0.5828 -0.2493  0.5275
 1833SOL     OW17134   4.106   0.869   2.943  0.0983  0.6531  0.3517
 1833SOL    HW117135   4.159   0.914   2.877 -2.1311  0.5896 -1.4681
 1833SOL    HW217136   4.046   0.939   2.966  0.5008  0.8865  0.6915
 1834SOL     OW17137   3.291   2.803   7.613 -0.0073  0.5198  0.3265
 1834SOL    HW117138   3.330   2.890   7.627 -0.0007  0.3087  1.5428
 1834SOL    HW217139   3.279   2.758   7.696 -1.5874 -0.5811 -0.5133
 1835SOL     OW17140   4.643   0.726   3.299 -0.1539  0.5886 -0.2340
 1835SOL    HW117141   4.717   0.666   3.287 -0.9924 -0.1156 -2.0118
 1835SOL    HW217142   4.689   0.805   3.274  2.0984 -1.3108 -2.0914
 1836SOL     OW17143   2.570   3.554   7.396 -0.1649  0.1253 -0.0266
 1836SOL    HW117144   2.605   3.470   7.364  1.4217 -0.2192  2.5995
 1836SOL    HW217145   2.616   3.616   7.341 -0.7276  0.7497  0.2135
 1837SOL     OW17146   3.787   3.388   4.353 -0.1998  0.4153 -0.1420
 1837SOL    HW117147   3.716   3.342   4.398 -1.4784  2.0906 -0.4416
 1837SOL    HW217148   3.819   3.320   4.294  1.8257  0.4389  0.9337
 1838SOL     OW17149   4.113   2.911   4.007  0.6736 -1.0061  0.5663
 1838SOL    HW117150   4.113   2.997   4.048 -0.6213  0.4680 -2.4964
 1838SOL    HW217151   4.056   2.919   3.930  0.4287 -1.6152  0.6862
 1839SOL     OW17152   0.802   0.867  13.992  0.1049 -0.2036 -0.0586
 1839SOL    HW117153   0.836   0.782  14.019  0.1381 -0.6011 -1.3628
 1839SOL    HW217154   0.707   0.855  13.987  0.4244 -1.5643 -2.7606
 1840SOL     OW17155   0.279   1.834   8.493 -0.1645 -0.1989  0.7883
 1840SOL    HW117156   0.234   1.915   8.516 -0.3006  0.2017 -0.8755
 1840SOL    HW217157   0.232   1.761   8.533  0.2989 -0.9785 -0.0907
 1841SOL     OW17158   2.061   3.856   5.239 -0.2032  0.4048 -0.3645
 1841SOL    HW117159   2.112   3.775   5.239 -0.0464  0.5002  0.9305
 1841SOL    HW217160   1.969   3.831   5.230 -0.0429  0.1043 -1.1416
 1842SOL     OW17161   1.798   3.677   5.552  0.0054  0.4953 -0.4770
 1842SOL    HW117162   1.817   3.650   5.642  1.2581  0.0169 -0.8956
 1842SOL    HW217163   1.828   3.768   5.546 -0.1752  0.8433  4.1547
 1843SOL     OW17164   4.088   4.724   1.410  0.1845 -0.2140 -0.2440
 1843SOL    HW117165   4.164   4.731   1.468  2.9271 -2.8640 -3.5598
 1843SOL    HW217166   4.092   4.635   1.377  1.0463  0.2987 -1.4983
 1844SOL     OW17167   1.916   1.728   8.722 -0.3342  0.1557 -0.6974
 1844SOL    HW117168   1.958   1.651   8.760 -0.8542  0.8193  1.2316
 1844SOL    HW217169   1.971   1.796   8.762 -1.8971  1.0378 -0.0243
 1845SOL     OW17170   0.531   0.813   9.655 -0.0434 -0.7314  0.1520
 1845SOL    HW117171   0.615   0.827   9.613 -1.1662  0.8476 -1.5626
 1845SOL    HW217172   0.556   0.778   9.741  0.4861  0.4103  0.4634
 1846SOL     OW17173   3.756   2.690   8.658 -0.1101 -0.0981 -0.1559
 1846SOL    HW117174   3.829   2.713   8.716 -0.2303  2.0909 -0.8692
 1846SOL    HW217175   3.747   2.595   8.667  0.2039  0.2857  4.5291
 1847SOL     OW17176   3.584   1.422   6.937 -0.3022 -0.3618 -0.3580
 1847SOL    HW117177   3.580   1.396   7.029 -1.8521  0.3187 -0.2271
 1847SOL    HW217178   3.554   1.513   6.946 -0.2866 -0.4494  0.5192
 1848SOL     OW17179   1.929   0.129   5.762  0.1631  0.6724 -0.0164
 1848SOL    HW117180   1.893   0.043   5.780 -2.6658  1.6927 -0.7538
 1848SOL    HW217181   1.916   0.127   5.667  1.3343 -0.4029 -0.1436
 1849SOL     OW17182   4.286   1.350  14.172  0.3235 -0.6097  0.2580
 1849SOL    HW117183   4.344   1.397  14.112 -0.9592  1.9040  0.9758
 1849SOL    HW217184   4.203   1.382  14.136  0.3869 -0.1106  0.5549
 1850SOL     OW17185   1.063   4.636  16.387  0.4485 -0.2309 -0.6835
 1850SOL    HW117186   1.108   4.565  16.341  0.5411 -0.2635 -0.5433
 1850SOL    HW217187   1.101   4.713  16.345  0.4024  0.9746  1.5008
 1851SOL     OW17188   3.427   2.355  10.618  0.5000 -0.4942  0.0741
 1851SOL    HW117189   3.505   2.404  10.644 -0.6231  2.1495 -1.6482
 1851SOL    HW217190   3.417   2.302  10.697  0.2303  1.0914  1.0818
 1852SOL     OW17191   0.581   0.424   6.748 -0.5682  0.0802  0.3526
 1852SOL    HW117192   0.635   0.500   6.728 -1.6964  0.4967 -1.1465
 1852SOL    HW217193   0.588   0.417   6.843  2.9703 -0.6031  0.0221
 1853SOL     OW17194   0.900   1.451  15.710 -0.3644  0.5745  0.3380
 1853SOL    HW117195   0.955   1.485  15.781 -1.2589 -1.0231  1.7953
 1853SOL    HW217196   0.880   1.535  15.668  1.2054  0.7522 -0.0371
 1854SOL     OW17197   4.545   3.477   2.244  0.2619 -0.5572 -0.0915
 1854SOL    HW117198   4.576   3.402   2.295  1.2771  0.0145  0.1511
 1854SOL    HW217199   4.476   3.431   2.197  0.5507 -1.7941  0.6882
 1855SOL     OW17200   3.783   2.543   3.714  0.4385  0.4294 -0.3466
 1855SOL    HW117201   3.782   2.586   3.628 -0.9598  1.1917  0.0530
 1855SOL    HW217202   3.807   2.452   3.695 -0.9417  0.0394 -0.2299
 1856SOL     OW17203   2.712   2.192   7.502  0.4781  0.5715 -0.4667
 1856SOL    HW117204   2.664   2.223   7.579  2.8518 -1.2315  1.7435
 1856SOL    HW217205   2.804   2.204   7.527 -0.6656 -0.9522  4.2882
 1857SOL     OW17206   2.811   1.269  14.955 -0.2434 -0.6105 -0.6458
 1857SOL    HW117207   2.810   1.347  15.011 -2.6755 -1.1408  0.0300
 1857SOL    HW217208   2.725   1.280  14.915 -0.0950 -2.3186 -1.4471
 1858SOL     OW17209   2.235   3.224   8.663 -0.0632 -0.0763 -0.2806
 1858SOL    HW117210   2.142   3.229   8.640 -0.2383 -1.0150  0.2474
 1858SOL    HW217211   2.239   3.138   8.703 -0.8016 -0.5456 -1.2031
 1859SOL     OW17212   1.278   2.979  11.171  0.3248  0.0657  0.1439
 1859SOL    HW117213   1.207   3.039  11.191 -0.0088 -0.6513  1.1544
 1859SOL    HW217214   1.344   2.992  11.240 -0.9766  1.5727  1.1123
 1860SOL     OW17215   0.922   3.012   5.158  0.0760 -0.2030 -0.1452
 1860SOL    HW117216   0.969   3.048   5.233  2.3285 -1.6983 -0.8452
 1860SOL    HW217217   0.832   3.043   5.171 -0.3475 -0.5212 -2.2644
 1861SOL     OW17218   4.387   3.083  17.208  0.0617  1.0399  0.4183
 1861SOL    HW117219   4.409   3.002  17.254 -2.4331 -1.0217 -2.0375
 1861SOL    HW217220   4.294   3.074  17.186  0.3420 -0.5280 -0.0994
 1862SOL     OW17221   3.156   1.060   4.774 -0.3109  0.6218 -0.0021
 1862SOL    HW117222   3.062   1.076   4.775 -0.6133 -1.1065 -0.5410
 1862SOL    HW217223   3.154   0.966   4.791  0.5811 -0.0560 -3.5846
 1863SOL     OW17224   4.485   3.277   5.418  0.1380 -0.4535  0.3143
 1863SOL    HW117225   4.491   3.250   5.326  0.8012  1.4180 -0.1881
 1863SOL    HW217226   4.574   3.254   5.447  1.0860  2.8982  0.0325
 1864SOL     OW17227   0.953   4.050   7.694 -0.2684 -0.8286 -0.6588
 1864SOL    HW117228   1.007   4.041   7.616 -1.3500 -0.2787 -1.4647
 1864SOL    HW217229   0.885   4.100   7.649 -1.5288 -0.2792  1.8587
 1865SOL     OW17230   3.712   1.645   5.693 -0.0598 -0.3317  0.2930
 1865SOL    HW117231   3.703   1.561   5.647  0.2406 -0.7984  1.0819
 1865SOL    HW217232   3.802   1.624   5.718  0.5362 -0.8484 -2.2841
 1866SOL     OW17233   1.303   3.593   3.445 -0.2065 -0.1484  0.2344
 1866SOL    HW117234   1.322   3.530   3.515  0.9754 -2.5374 -2.2153
 1866SOL    HW217235   1.208   3.582   3.436 -0.1733  0.7655 -1.1642
 1867SOL     OW17236   2.684   4.389   9.532  0.1724  0.3324 -0.6464
 1867SOL    HW117237   2.685   4.464   9.591  0.0160 -0.3316  0.2042
 1867SOL    HW217238   2.716   4.422   9.448  2.2385  0.5547  0.2270
 1868SOL     OW17239   2.303   2.808   8.613 -0.4770 -0.5029  0.6393
 1868SOL    HW117240   2.354   2.879   8.573 -1.0069 -0.4539  0.0464
 1868SOL    HW217241   2.229   2.860   8.646 -0.9238  1.2044 -3.0116
 1869SOL     OW17242   3.565   3.950   2.348 -0.1188  0.2488  0.0696
 1869SOL    HW117243   3.551   3.872   2.295 -2.2112 -1.3619  3.0251
 1869SOL    HW217244   3.517   4.019   2.301 -1.4582 -0.3864  0.5150
 1870SOL     OW17245   0.628   4.047   3.395 -0.3524  0.7282 -0.0223
 1870SOL    HW117246   0.653   4.023   3.485 -3.3521  2.6128  1.2890
 1870SOL    HW217247   0.542   4.006   3.384  0.2458 -0.1256 -1.5377
 1871SOL     OW17248   4.271   2.300   5.890 -0.6881  0.1179  0.0737
 1871SOL    HW117249   4.282   2.287   5.796 -0.0871 -3.6640  0.6836
 1871SOL    HW217250   4.334   2.234   5.920 -1.5000 -0.3488  0.7720
 1872SOL     OW17251   1.988   4.280   7.858  0.4979 -0.2025  0.0394
 1872SOL    HW117252   2.001   4.320   7.772  3.4597  0.2383  0.6873
 1872SOL    HW217253   1.942   4.350   7.905  3.2544  0.0051  2.4284
 1873SOL     OW17254   3.239   1.896   6.880 -0.6547  0.6661  0.2612
 1873SOL    HW117255   3.321   1.938   6.903  0.5256 -1.4462 -0.0922
 1873SOL    HW217256   3.218   1.841   6.955 -1.0020 -0.3184 -0.5494
 1874SOL     OW17257   0.324   2.745  16.392 -0.1143 -0.0300 -0.5950
 1874SOL    HW117258   0.325   2.841  16.389  0.7025  0.0131  1.4050
 1874SOL    HW217259   0.317   2.723  16.299 -0.7645 -1.4064 -0.2199
 1875SOL     OW17260   2.420   0.800   5.291 -0.5301 -0.0835  0.5878
 1875SOL    HW117261   2.494   0.825   5.346 -1.6921  0.3274  1.9623
 1875SOL    HW217262   2.358   0.847   5.347  1.4095  0.6169  2.1401
 1876SOL     OW17263   2.023   1.748   7.997 -0.1819  0.8254 -0.0797
 1876SOL    HW117264   1.993   1.666   7.958 -1.5724  0.7597  1.1202
 1876SOL    HW217265   2.058   1.786   7.917 -1.0447  0.4452 -0.6382
 1877SOL     OW17266   2.107   2.281  12.111  0.2612  0.3074 -0.3018
 1877SOL    HW117267   2.104   2.374  12.134  1.5331 -0.8467  4.6077
 1877SOL    HW217268   2.131   2.278  12.019  2.8033 -2.3472  0.4626
 1878SOL     OW17269   2.921   4.337  17.487  0.0082 -0.0218  0.0909
 1878SOL    HW117270   2.947   4.375  17.571 -0.5502  2.6368 -0.9214
 1878SOL    HW217271   2.990   4.272  17.471 -0.6724 -1.0978  1.6185
 1879SOL     OW17272   4.362   1.551   8.253 -0.0417 -0.1000 -0.2614
 1879SOL    HW117273   4.282   1.569   8.204  0.3195  0.5349 -0.6084
 1879SOL    HW217274   4.412   1.499   8.191  1.8260  0.2387  0.9482
 1880SOL     OW17275   4.516   2.337   5.702 -0.1119  0.3965 -0.0412
 1880SOL    HW117276   4.564   2.276   5.647 -1.3787 -0.8406  0.2142
 1880SOL    HW217277   4.566   2.314   5.781  0.1674  0.6461 -0.1484
 1881SOL     OW17278   1.131   3.825  16.096 -0.1501  0.1613  0.6881
 1881SOL    HW117279   1.077   3.803  16.171 -0.5060  1.1344  0.7143
 1881SOL    HW217280   1.213   3.836  16.144 -0.0010 -1.4778  0.8112
 1882SOL     OW17281   4.442   1.826  15.598 -0.4391  0.5152  0.3451
 1882SOL    HW117282   4.386   1.765  15.551 -2.1153  2.4022 -0.1210
 1882SOL    HW217283   4.396   1.815  15.682 -0.6604 -3.1251 -0.2613
 1883SOL     OW17284   1.214   0.310   5.317  0.1911  0.2092  0.2699
 1883SOL    HW117285   1.308   0.307   5.298 -0.0056 -1.2848 -0.4483
 1883SOL    HW217286   1.214   0.228   5.366 -0.4268 -0.0310 -0.1322
 1884SOL     OW17287   1.744   3.857   6.141 -0.2315 -0.5400 -0.3852
 1884SOL    HW117288   1.703   3.844   6.056  1.0155 -0.0597 -1.0683
 1884SOL    HW217289   1.811   3.788   6.136  1.4357  0.8846  2.0978
 1885SOL     OW17290   2.795   0.423   6.752  0.1856  0.4654  0.2999
 1885SOL    HW117291   2.767   0.424   6.660  0.7508 -0.2577  0.1248
 1885SOL    HW217292   2.746   0.496   6.788 -2.1177 -0.9709  0.1101
 1886SOL     OW17293   2.198   2.980   7.970  0.4528  0.0180  0.4828
 1886SOL    HW117294   2.186   2.923   7.894  3.3108 -0.4758  0.3967
 1886SOL    HW217295   2.170   3.067   7.941  2.0647  0.5530  0.5534
 1887SOL     OW17296   3.030   3.821   2.034  0.5186 -0.1402  0.3984
 1887SOL    HW117297   3.041   3.894   1.974 -1.4834  0.6376  0.9809
 1887SOL    HW217298   3.084   3.750   1.999  0.5951 -1.0244  2.3268
 1888SOL     OW17299   3.677   2.303   7.206  0.2373 -0.5258 -0.0187
 1888SOL    HW117300   3.643   2.353   7.280 -2.3311 -1.1445 -0.7566
 1888SOL    HW217301   3.692   2.370   7.139 -0.2789 -0.4057 -0.0170
 1889SOL     OW17302   0.460   3.927   8.231 -0.2505 -0.4714 -0.1145
 1889SOL    HW117303   0.539   3.914   8.178  1.2159  1.1600  1.6707
 1889SOL    HW217304   0.390   3.908   8.168  0.3632  1.6953 -1.4424
 1890SOL     OW17305   3.990   2.537   3.931 -0.5360 -0.3348  0.3286
 1890SOL    HW117306   3.924   2.519   3.864  0.5294  0.5075 -0.9473
 1890SOL    HW217307   3.935   2.593   3.987  1.4870  0.8325  1.1264
 1891SOL     OW17308   1.839   1.486   8.029  1.0654  0.4770 -0.4841
 1891SOL    HW117309   1.777   1.538   7.978 -0.0418 -0.9723 -0.6226
 1891SOL    HW217310   1.866   1.420   7.965 -1.2020 -1.2499  0.3129
 1892SOL     OW17311   1.565   0.755   9.583  0.2085 -0.0639  0.0850
 1892SOL    HW117312   1.625   0.769   9.656 -1.0051 -0.9776  1.2762
 1892SOL    HW217313   1.586   0.664   9.562 -1.4526  0.3555 -3.3047
 1893SOL     OW17314   1.241   4.142   6.581  0.5328  0.1390 -0.0308
 1893SOL    HW117315   1.168   4.197   6.551  0.7996  0.0472 -0.8388
 1893SOL    HW217316   1.214   4.124   6.671 -0.9919  1.5813 -0.1955
 1894SOL     OW17317   3.684   0.701   2.324 -0.0453  0.3711 -0.2479
 1894SOL    HW117318   3.644   0.788   2.320  1.8187  1.2954  1.2760
 1894SOL    HW217319   3.771   0.724   2.290 -0.0908 -2.7743 -2.4890
 1895SOL     OW17320   4.092   2.943   6.849  0.1534  1.1361  0.0556
 1895SOL    HW117321   4.008   2.899   6.832  1.3732 -0.5020 -1.6690
 1895SOL    HW217322   4.170   2.889   6.838 -0.2499  0.2090  1.7612
 1896SOL     OW17323   0.148   1.591   4.552 -0.0116 -0.4966 -0.2114
 1896SOL    HW117324   0.159   1.667   4.609 -1.0005 -0.2013 -0.4242
 1896SOL    HW217325   0.232   1.544   4.559  0.8173  1.0491  0.1998
 1897SOL     OW17326   3.489   0.962   0.927  0.0969  0.9481  0.3051
 1897SOL    HW117327   3.569   0.920   0.959 -0.1005  0.2259 -0.1296
 1897SOL    HW217328   3.516   0.993   0.840  1.1078  1.3295  0.7626
 1898SOL     OW17329   4.023   0.647   9.413 -0.3138 -0.5930 -0.3279
 1898SOL    HW117330   4.083   0.589   9.366 -0.3677 -1.5345  0.7614
 1898SOL    HW217331   3.951   0.654   9.351  0.6915  1.5039 -1.2876
 1899SOL     OW17332   0.128   3.782   3.258 -0.0971  0.1943 -0.0411
 1899SOL    HW117333   0.106   3.860   3.309  1.2537  0.8645 -0.4501
 1899SOL    HW217334   0.088   3.795   3.172 -0.9114  0.8508  0.4389
 1900SOL     OW17335   0.226   3.213   5.773 -0.1136  0.0923  0.0870
 1900SOL    HW117336   0.277   3.166   5.840  0.0854  0.7506  0.3909
 1900SOL    HW217337   0.138   3.178   5.791 -0.7886  1.9952  0.4268
 1901SOL     OW17338   1.664   2.610   3.165  0.7442 -0.0098  0.5357
 1901SOL    HW117339   1.727   2.570   3.104 -1.0644 -2.4472  0.2616
 1901SOL    HW217340   1.667   2.544   3.234  0.5721 -0.9396 -0.3564
 1902SOL     OW17341   0.513   2.630   2.734 -0.2175  0.1009  0.1842
 1902SOL    HW117342   0.429   2.670   2.757 -0.3598 -0.2312  0.2331
 1902SOL    HW217343   0.557   2.645   2.817  1.6489  0.3622 -0.8358
 1903SOL     OW17344   0.932   0.366   0.049 -0.0115  0.3519 -0.0066
 1903SOL    HW117345   0.969   0.350   0.136  1.2937  0.5415 -0.5192
 1903SOL    HW217346   0.993   0.328  17.720  0.4643  0.2273  0.5178
 1904SOL     OW17347   1.677   3.070   3.862 -0.2121 -0.0666 -0.1709
 1904SOL    HW117348   1.668   2.975   3.862 -1.1093  0.0191  1.1311
 1904SOL    HW217349   1.596   3.093   3.817 -0.8289 -0.9693  0.4963
 1905SOL     OW17350   0.504   4.495   5.446 -0.2599 -0.4239  0.0519
 1905SOL    HW117351   0.565   4.453   5.385  0.4863 -0.4854  0.8345
 1905SOL    HW217352   0.424   4.484   5.395  0.0032 -1.9782 -0.0192
 1906SOL     OW17353   2.252   0.088   6.469  0.2621  0.8416 -0.0932
 1906SOL    HW117354   2.337   0.106   6.509 -0.4788 -0.9109  2.2756
 1906SOL    HW217355   2.201   0.069   6.548  0.1942 -1.9693 -0.8072
 1907SOL     OW17356   0.386   2.289   8.396 -0.1785  0.4990  0.2879
 1907SOL    HW117357   0.468   2.246   8.418 -0.8564 -0.5806  0.6820
 1907SOL    HW217358   0.406   2.381   8.417 -0.0907 -0.3800  3.9240
 1908SOL     OW17359   2.247   0.207   4.645  0.0978  0.0672 -0.3033
 1908SOL    HW117360   2.273   0.134   4.588 -0.3699  0.7280 -1.3773
 1908SOL    HW217361   2.263   0.177   4.734 -1.2802 -1.8058 -0.6760
 1909SOL     OW17362   4.697   1.279   4.957 -1.1249  0.6396  0.3439
 1909SOL    HW117363   0.013   1.278   5.039  0.9776 -0.1427 -0.9464
 1909SOL    HW217364   4.684   1.185   4.949 -1.0236  0.6626 -0.0739
 1910SOL     OW17365   0.041   3.238   2.932 -0.4695 -0.5724 -0.0080
 1910SOL    HW117366   4.720   3.316   2.940 -0.4770 -0.5021 -0.7385
 1910SOL    HW217367   0.110   3.288   2.888  0.8093 -1.2689  1.2196
 1911SOL     OW17368   2.277   4.232   1.097  0.1039  0.5574 -0.1840
 1911SOL    HW117369   2.264   4.218   1.191 -0.3749 -0.2631 -0.3696
 1911SOL    HW217370   2.187   4.242   1.067  0.4283  0.7438 -1.0944
 1912SOL     OW17371   4.387   3.128   8.535  0.3687 -0.1273  1.0286
 1912SOL    HW117372   4.309   3.177   8.509  0.7695  0.2672  0.5708
 1912SOL    HW217373   4.349   3.043   8.556 -1.7708  0.7940  0.8767
 1913SOL     OW17374   4.075   3.343   3.256 -0.1222  0.0004  0.0959
 1913SOL    HW117375   4.122   3.426   3.261  3.2109 -1.7840 -1.3970
 1913SOL    HW217376   3.985   3.377   3.261  0.0195  0.3730  0.1214
 1914SOL     OW17377   3.979   1.706  15.587 -0.6697 -0.0227 -0.5029
 1914SOL    HW117378   4.072   1.728  15.579 -0.6653  0.3138  0.5021
 1914SOL    HW217379   3.985   1.625  15.639  2.2222  0.2629 -0.3579
 1915SOL     OW17380   1.898   4.029  13.375 -0.1535  0.2922  0.4107
 1915SOL    HW117381   1.819   4.002  13.423 -0.7086  1.5290  0.1750
 1915SOL    HW217382   1.954   4.076  13.437 -0.2057  0.4317  0.3518
 1916SOL     OW17383   1.406   0.155   9.780 -0.4503 -0.1388  0.0117
 1916SOL    HW117384   1.411   0.213   9.704 -1.0563  2.9503  2.3355
 1916SOL    HW217385   1.456   0.205   9.844 -2.1517 -0.0632  1.2613
 1917SOL     OW17386   4.337   0.415   5.027 -0.6611 -0.2297  0.5200
 1917SOL    HW117387   4.267   0.378   5.082  0.8846 -0.9094  2.0275
 1917SOL    HW217388   4.294   0.395   4.943 -0.2343 -1.7902  0.6762
 1918SOL     OW17389   1.495   1.449   7.589 -0.0978 -0.4016  0.1722
 1918SOL    HW117390   1.589   1.433   7.579  0.2469  3.3912 -2.3297
 1918SOL    HW217391   1.485   1.544   7.587 -2.1711 -0.6302 -0.8012
 1919SOL     OW17392   3.922   0.612   7.788  0.3441  0.3472 -0.3357
 1919SOL    HW117393   3.940   0.538   7.847  0.6072  0.5985 -0.1029
 1919SOL    HW217394   4.009   0.650   7.773 -0.6345  2.7141  0.0008
 1920SOL     OW17395   3.763   2.831  11.923  0.4031 -0.3313 -0.1986
 1920SOL    HW117396   3.844   2.837  11.974 -1.4436 -0.7293  2.7979
 1920SOL    HW217397   3.802   2.856  11.840 -0.4436 -2.9913 -1.4170
 1921SOL     OW17398   4.513   0.887   5.567  0.5211  0.2361  0.0230
 1921SOL    HW117399   4.520   0.902   5.473  0.9015 -2.1643 -0.3261
 1921SOL    HW217400   4.604   0.859   5.569 -0.1545 -1.8029  2.0049
 1922SOL     OW17401   3.570   1.953   6.060 -0.3885  0.3851 -0.2111
 1922SOL    HW117402   3.567   1.907   6.144 -1.3844  1.7806  0.5179
 1922SOL    HW217403   3.578   1.879   6.000  0.3283  1.7863 -1.8323
 1923SOL     OW17404   1.679   2.368   0.154  0.6156 -0.3656 -0.2229
 1923SOL    HW117405   1.715   2.446   0.112 -2.8733  0.7281 -1.1366
 1923SOL    HW217406   1.632   2.409   0.227 -0.5755  1.0997 -1.8285
 1924SOL     OW17407   4.524   2.430   6.508  0.2690 -0.1584  0.4950
 1924SOL    HW117408   4.526   2.523   6.485  1.5400  0.0998  1.7141
 1924SOL    HW217409   4.590   2.418   6.576  0.4830  0.9263  0.4774
 1925SOL     OW17410   2.008   2.496   3.785 -0.0420 -0.1734  0.2872
 1925SOL    HW117411   2.015   2.524   3.877  0.6984 -0.4281  0.3091
 1925SOL    HW217412   2.028   2.403   3.791  1.4183  0.1463  0.3947
 1926SOL     OW17413   3.946   1.033   6.046 -0.1630 -0.7388 -0.4402
 1926SOL    HW117414   4.023   1.087   6.061 -0.5884 -0.6659  1.4816
 1926SOL    HW217415   3.970   0.990   5.964 -0.3628 -2.1900  0.2605
 1927SOL     OW17416   0.860   1.685  13.854 -0.2038  0.0374 -0.1024
 1927SOL    HW117417   0.833   1.730  13.934  2.8688  4.7234 -1.6874
 1927SOL    HW217418   0.792   1.716  13.794 -0.3838  2.2584  1.2519
 1928SOL     OW17419   0.337   1.393   4.280  0.1652 -0.2483 -0.1040
 1928SOL    HW117420   0.328   1.387   4.185  0.5253  1.1082 -0.2155
 1928SOL    HW217421   0.391   1.471   4.286  0.0332 -0.0897 -1.0784
 1929SOL     OW17422   0.114   0.375   9.360 -0.2981  0.5086 -0.0483
 1929SOL    HW117423   0.202   0.340   9.375 -0.8269 -1.0443 -0.5589
 1929SOL    HW217424   0.089   0.343   9.273 -0.4757  0.2514  0.0947
 1930SOL     OW17425   4.498   1.239   6.139  0.1345  0.0663 -0.2695
 1930SOL    HW117426   4.523   1.157   6.183  0.9473  0.7364  0.5254
 1930SOL    HW217427   4.568   1.245   6.073 -2.4692  0.7090 -2.9539
 1931SOL     OW17428   3.938   1.720  15.293 -0.4296 -0.9417  0.1511
 1931SOL    HW117429   3.988   1.786  15.340 -1.7834 -0.9310  1.5676
 1931SOL    HW217430   3.894   1.672  15.363 -1.5667 -2.0464 -1.3236
 1932SOL     OW17431   0.097   3.858   8.446  0.1809  0.3256 -0.4644
 1932SOL    HW117432   0.125   3.944   8.477  1.1721  0.1201 -0.7829
 1932SOL    HW217433   0.004   3.869   8.430  0.3870  2.5031 -0.1213
 1933SOL     OW17434   2.530   2.463   1.675  0.5789 -0.8360 -0.0831
 1933SOL    HW117435   2.446   2.425   1.648  0.7424 -0.1978 -1.5263
 1933SOL    HW217436   2.583   2.414   1.612 -0.9154 -1.5409 -0.8021
 1934SOL     OW17437   3.275   1.579   1.721 -0.0650  0.5679  0.6940
 1934SOL    HW117438   3.216   1.515   1.680 -1.3517  2.1787  0.0695
 1934SOL    HW217439   3.353   1.523   1.730 -1.7798 -1.8565  0.6748
 1935SOL     OW17440   2.022   4.339  10.403 -0.1239  0.4254  0.1141
 1935SOL    HW117441   2.084   4.387  10.348 -0.6719 -1.3891 -2.0858
 1935SOL    HW217442   2.021   4.252  10.361 -2.1729  1.0121 -1.0484
 1936SOL     OW17443   3.023   3.911  12.024 -0.5475 -0.0924  0.2021
 1936SOL    HW117444   3.106   3.866  12.009 -0.0095  0.9119  0.1051
 1936SOL    HW217445   2.989   3.908  11.934  4.0742 -1.4439 -1.4725
 1937SOL     OW17446   3.116   3.874   6.531  0.7270 -0.3634  0.0184
 1937SOL    HW117447   3.126   3.853   6.624  0.1177 -3.2040 -0.5715
 1937SOL    HW217448   3.069   3.799   6.496 -1.2171  1.6038 -1.6651
 1938SOL     OW17449   1.462   1.939   5.414 -0.4007  0.0042  0.0354
 1938SOL    HW117450   1.385   1.955   5.359 -0.8114  0.1180  0.6420
 1938SOL    HW217451   1.440   1.996   5.488  2.5937 -0.4477  1.2643
 1939SOL     OW17452   2.828   1.831  11.054  0.1556  0.5236 -0.2090
 1939SOL    HW117453   2.804   1.792  11.138  1.2678  0.9129  0.2928
 1939SOL    HW217454   2.905   1.783  11.024 -0.2687 -0.6570  0.6064
 1940SOL     OW17455   3.345   4.034   7.547 -0.3831  0.1929 -0.0723
 1940SOL    HW117456   3.256   4.066   7.536 -1.6074 -2.6212  1.6219
 1940SOL    HW217457   3.375   4.120   7.576  0.0750 -0.4002  1.2165
 1941SOL     OW17458   3.699   2.086   2.836 -0.3540 -0.2286 -0.0380
 1941SOL    HW117459   3.668   2.168   2.797 -0.7828  0.7338  2.3719
 1941SOL    HW217460   3.744   2.046   2.761  2.2839 -1.4739  2.2084
 1942SOL     OW17461   1.702   0.149   9.141 -0.2831 -1.2168  0.0601
 1942SOL    HW117462   1.667   0.222   9.091 -1.8678 -4.0990 -3.0071
 1942SOL    HW217463   1.656   0.168   9.223 -0.5403  0.8342 -0.5538
 1943SOL     OW17464   1.961   2.920  11.853 -0.2040  0.2088 -0.2489
 1943SOL    HW117465   1.966   2.991  11.916  1.7097 -1.6612  1.7109
 1943SOL    HW217466   1.911   2.968  11.788 -0.2755  2.3723  1.4196
 1944SOL     OW17467   3.005   1.865   4.434  0.3590  0.6217 -0.0277
 1944SOL    HW117468   2.984   1.819   4.515  0.2842 -0.3537 -0.6010
 1944SOL    HW217469   3.040   1.794   4.380 -1.2492 -1.0420  1.1217
 1945SOL     OW17470   3.998   2.143   1.803 -0.1961 -0.5013 -0.2097
 1945SOL    HW117471   3.963   2.160   1.890 -2.8860  0.0623 -1.4194
 1945SOL    HW217472   3.918   2.159   1.752  0.4580  1.2732 -0.6827
 1946SOL     OW17473   4.433   4.061   3.433 -0.1066  0.2718  0.0410
 1946SOL    HW117474   4.432   4.046   3.339  2.5690  2.0157 -0.2355
 1946SOL    HW217475   4.522   4.091   3.450  0.0912 -0.5962  0.5667
 1947SOL     OW17476   4.288   2.391  16.461 -0.1873 -0.5252 -0.1069
 1947SOL    HW117477   4.350   2.441  16.514 -0.7122  0.4708 -0.4243
 1947SOL    HW217478   4.308   2.302  16.489  0.6494 -0.3238 -0.0619
 1948SOL     OW17479   4.345   1.302   9.225  0.6682 -0.2262  0.4347
 1948SOL    HW117480   4.318   1.220   9.185  0.6324 -0.6682  1.3715
 1948SOL    HW217481   4.280   1.325   9.292 -0.1468 -1.7929  0.1671
 1949SOL     OW17482   3.109   0.646   9.703 -0.2893  0.2446 -0.0063
 1949SOL    HW117483   3.168   0.575   9.678 -1.9527 -0.9227 -0.6386
 1949SOL    HW217484   3.095   0.686   9.617 -1.0674 -0.6086 -0.2821
 1950SOL     OW17485   3.089   0.556  12.446  0.0671  0.4324 -0.0212
 1950SOL    HW117486   3.169   0.507  12.466 -0.3346  0.2943  1.2619
 1950SOL    HW217487   3.116   0.646  12.433 -1.3259  0.5795 -2.0242
 1951SOL     OW17488   4.449   0.010   4.697 -0.5016  0.1861 -0.0841
 1951SOL    HW117489   4.405   4.682   4.637 -0.7339 -0.1402  0.4214
 1951SOL    HW217490   4.401   0.090   4.675  0.1557 -0.3577 -3.5005
 1952SOL     OW17491   1.934   0.689   7.578  0.5463 -0.0245 -0.1959
 1952SOL    HW117492   1.996   0.630   7.535  0.5486  0.9146 -1.4895
 1952SOL    HW217493   1.983   0.770   7.595 -0.1487 -0.1137  2.2587
 1953SOL     OW17494   0.098   2.743  16.123 -0.1319 -0.0474  0.0512
 1953SOL    HW117495   0.040   2.680  16.165  0.8737 -0.6579  0.5166
 1953SOL    HW217496   0.155   2.685  16.072 -0.7274  0.4738 -1.2141
 1954SOL     OW17497   1.835   1.501  12.636 -0.8922 -0.2391 -0.2848
 1954SOL    HW117498   1.915   1.551  12.655 -0.1086 -1.4408 -0.4236
 1954SOL    HW217499   1.792   1.493  12.721 -1.0262 -1.6054 -0.4785
 1955SOL     OW17500   0.448   4.180  11.899 -0.3094 -0.5069  0.0513
 1955SOL    HW117501   0.427   4.152  11.988  0.3385  0.6385  0.5696
 1955SOL    HW217502   0.428   4.097  11.855 -0.2669  0.1534 -1.2066
 1956SOL     OW17503   4.539   0.761   2.506 -0.5132 -0.2140  0.2059
 1956SOL    HW117504   4.625   0.765   2.465 -0.8068 -4.3300 -0.8598
 1956SOL    HW217505   4.558   0.745   2.599  0.1127  0.3083  0.1693
 1957SOL     OW17506   0.079   0.725  11.193 -0.4684  0.7360  0.7406
 1957SOL    HW117507   0.136   0.739  11.117 -1.7742  0.3718 -0.3140
 1957SOL    HW217508   0.049   0.637  11.174  1.5097  0.1801  0.1848
 1958SOL     OW17509   0.422   2.599   5.732  0.2050  0.0376 -0.0966
 1958SOL    HW117510   0.465   2.630   5.812 -0.9865  0.8725  0.2338
 1958SOL    HW217511   0.386   2.516   5.764 -0.8370  0.3532 -0.4574
 1959SOL     OW17512   4.607   0.757  11.589 -0.0491 -0.4166 -0.0017
 1959SOL    HW117513   4.654   0.739  11.670 -2.6967  1.3814  1.9000
 1959SOL    HW217514   4.675   0.763  11.521 -1.3694  0.4322 -1.2351
 1960SOL     OW17515   1.381   1.183   2.756 -0.6715  0.0184  0.1051
 1960SOL    HW117516   1.338   1.215   2.835  0.4826  1.1551  0.2643
 1960SOL    HW217517   1.464   1.182   2.803 -1.2547 -2.1009  1.1370
 1961SOL     OW17518   2.123   0.318   9.754  0.3409 -0.2405 -0.0820
 1961SOL    HW117519   2.195   0.349   9.699 -0.0406 -0.5412 -0.7489
 1961SOL    HW217520   2.141   0.368   9.833 -1.2835 -0.4908  0.4310
 1962SOL     OW17521   2.530   2.813   7.125  0.3800  0.4779 -0.1604
 1962SOL    HW117522   2.457   2.763   7.088  0.3015  1.3304 -1.1443
 1962SOL    HW217523   2.600   2.748   7.138 -0.4496 -0.3312  0.2638
 1963SOL     OW17524   4.462   1.262   0.082  0.2550 -0.0788 -0.1711
 1963SOL    HW117525   4.383   1.216   0.110  0.4535  1.4009  2.8030
 1963SOL    HW217526   4.529   1.208   0.125 -0.7231  1.3272  3.1326
 1964SOL     OW17527   3.970   3.883  13.607 -0.0805  0.4590 -0.5892
 1964SOL    HW117528   4.049   3.827  13.604 -2.3398 -2.6994 -1.1301
 1964SOL    HW217529   4.017   3.966  13.607  1.9193 -0.6611 -1.7250
 1965SOL     OW17530   3.605   1.170  15.674  0.8571 -0.4334  0.2317
 1965SOL    HW117531   3.551   1.234  15.628  0.1383  1.6019  3.8772
 1965SOL    HW217532   3.619   1.223  15.753  1.0002 -1.0019  0.5863
 1966SOL     OW17533   0.371   0.608  11.404 -0.1477 -0.3426 -0.3670
 1966SOL    HW117534   0.426   0.650  11.337  0.3254 -0.5617 -0.1125
 1966SOL    HW217535   0.301   0.573  11.349 -0.6494  1.1111 -0.6607
 1967SOL     OW17536   2.397   2.033   8.532  0.4083  0.1569  0.0215
 1967SOL    HW117537   2.484   2.048   8.569  0.9560 -2.3236 -0.2634
 1967SOL    HW217538   2.335   2.077   8.591  2.0001  2.8288 -0.3028
 1968SOL     OW17539   0.129   3.640   2.615 -0.2598 -0.2103 -0.2170
 1968SOL    HW117540   0.187   3.636   2.691 -0.0670  1.4846 -0.2743
 1968SOL    HW217541   0.110   3.547   2.611 -3.0758  0.3021  1.7446
 1969SOL     OW17542   1.534   2.667   9.476 -0.0268  0.4225  0.1060
 1969SOL    HW117543   1.593   2.604   9.518  1.6382  1.5691 -0.5067
 1969SOL    HW217544   1.549   2.645   9.384 -1.3748 -0.6673  0.1526
 1970SOL     OW17545   4.638   0.007   7.443 -0.0976  0.6212  0.2343
 1970SOL    HW117546   4.627   4.670   7.505 -0.2679  0.6880  0.2829
 1970SOL    HW217547   4.721   0.034   7.481  1.2938  1.2429 -3.2423
 1971SOL     OW17548   1.020   1.617   4.254  0.5558  0.6482  0.0175
 1971SOL    HW117549   1.001   1.605   4.347 -1.8094 -3.1685 -0.9875
 1971SOL    HW217550   1.115   1.628   4.250  0.6598 -0.2127  0.2110
 1972SOL     OW17551   0.532   3.117   6.130 -0.0318 -0.7620  0.2672
 1972SOL    HW117552   0.582   3.196   6.109  0.7664 -0.8818  1.6992
 1972SOL    HW217553   0.533   3.112   6.226  1.8024 -0.1291  0.2903
 1973SOL     OW17554   1.378   1.242   1.585  0.6909 -0.1847 -0.4397
 1973SOL    HW117555   1.421   1.229   1.670  0.5234  3.1029  0.1310
 1973SOL    HW217556   1.399   1.333   1.566 -1.8060  1.1772  3.3518
 1974SOL     OW17557   4.382   1.468   2.570 -0.5919 -0.5038  0.0638
 1974SOL    HW117558   4.357   1.393   2.624 -0.4170 -0.0961  0.7009
 1974SOL    HW217559   4.327   1.535   2.611  0.5540  3.7722 -5.3165
 1975SOL     OW17560   3.860   1.361   5.020 -0.1894  0.0606 -0.5119
 1975SOL    HW117561   3.900   1.393   5.100 -1.0742 -0.1371  0.0046
 1975SOL    HW217562   3.907   1.278   5.008  1.1946  0.5247  1.7442
 1976SOL     OW17563   1.199   0.949  16.111  0.1628  0.1807  0.2531
 1976SOL    HW117564   1.282   0.968  16.068 -0.8977  2.0424 -0.9495
 1976SOL    HW217565   1.142   1.011  16.065  2.5008  2.1963  0.1020
 1977SOL     OW17566   1.362   3.739   3.101 -0.0972  0.1072  0.5805
 1977SOL    HW117567   1.454   3.747   3.074 -0.5966 -1.1612 -1.4887
 1977SOL    HW217568   1.372   3.652   3.140 -0.8099  0.3351  1.2763
 1978SOL     OW17569   4.208   3.078   7.559 -0.0292  0.1687  0.1745
 1978SOL    HW117570   4.212   3.149   7.623  0.9440  0.2722  0.0037
 1978SOL    HW217571   4.160   3.012   7.609 -0.2015  0.8562  0.9136
 1979SOL     OW17572   3.582   2.799   4.197  1.0980  0.4242  0.7256
 1979SOL    HW117573   3.637   2.870   4.232  1.0524  1.3973 -1.1409
 1979SOL    HW217574   3.646   2.743   4.153  2.2538  1.4930  1.0319
 1980SOL     OW17575   0.880   0.765   3.624  0.0360 -0.6053  0.0947
 1980SOL    HW117576   0.918   0.816   3.696 -0.1138 -1.8771  1.0650
 1980SOL    HW217577   0.898   0.815   3.545 -1.8090  0.3527  0.2575
 1981SOL     OW17578   1.439   2.023   8.422  0.2922  0.7646 -0.2967
 1981SOL    HW117579   1.371   2.037   8.489  0.4081  1.5762 -0.3447
 1981SOL    HW217580   1.510   2.072   8.464 -0.8601  0.1055  2.4446
 1982SOL     OW17581   2.970   0.703   8.420 -0.6008 -0.3866 -0.2291
 1982SOL    HW117582   2.989   0.635   8.485  1.7829 -1.6467 -2.2789
 1982SOL    HW217583   2.955   0.770   8.487  0.5697 -1.7618  1.4304
 1983SOL     OW17584   0.478   2.390   7.037  0.1174  0.0042  0.1060
 1983SOL    HW117585   0.384   2.408   7.028  0.5162  1.4010 -1.1135
 1983SOL    HW217586   0.508   2.402   6.947 -1.2326 -0.2860 -0.3869
 1984SOL     OW17587   2.502   1.286   2.073  0.1655  0.0895 -0.4180
 1984SOL    HW117588   2.433   1.297   2.139  2.9853 -0.1779  2.5321
 1984SOL    HW217589   2.450   1.276   1.992 -1.1073 -2.1803  0.6581
 1985SOL     OW17590   0.503   0.180   8.734  0.3521 -0.2603  0.1244
 1985SOL    HW117591   0.476   0.099   8.691 -0.2539 -0.3068  0.5821
 1985SOL    HW217592   0.498   0.167   8.829  0.4741 -2.2721 -0.1391
 1986SOL     OW17593   2.330   1.510   8.543  0.0914 -0.0231  0.0462
 1986SOL    HW117594   2.241   1.482   8.522 -0.8245  1.8876  1.3905
 1986SOL    HW217595   2.329   1.591   8.491 -3.0996 -0.0085  0.1822
 1987SOL     OW17596   1.897   0.811   7.051 -0.0715 -0.2273 -0.3516
 1987SOL    HW117597   1.854   0.795   7.136  0.8454 -0.3285  0.0952
 1987SOL    HW217598   1.988   0.820   7.079 -0.1083 -0.2395 -0.2275
 1988SOL     OW17599   2.884   0.474   6.348 -0.3057  0.6277 -0.0671
 1988SOL    HW117600   2.902   0.551   6.403 -0.1736  0.4785  0.0954
 1988SOL    HW217601   2.789   0.485   6.340 -0.0834  1.8698 -1.0094
 1989SOL     OW17602   0.274   3.182   3.677 -0.0484  0.4727  0.3462
 1989SOL    HW117603   0.301   3.097   3.713  0.7849  0.8063  0.4890
 1989SOL    HW217604   0.331   3.191   3.601 -1.6263 -0.5850 -0.9724
 1990SOL     OW17605   2.115   1.840   9.726  0.0531  0.0686  0.1509
 1990SOL    HW117606   2.188   1.886   9.768 -0.4785  1.2209 -0.1935
 1990SOL    HW217607   2.139   1.749   9.747 -0.6024 -0.4656 -1.4075
 1991SOL     OW17608   0.839   3.876  15.683 -0.1487 -0.1610 -0.2086
 1991SOL    HW117609   0.915   3.865  15.626  1.2334 -2.3529  2.0227
 1991SOL    HW217610   0.882   3.889  15.767  0.1482  2.8702 -0.8487
 1992SOL     OW17611   2.721   2.417  10.097  0.4424  0.3445  0.5340
 1992SOL    HW117612   2.804   2.374  10.079 -0.6448 -1.2292 -0.7134
 1992SOL    HW217613   2.671   2.345  10.134  2.0386 -0.2231  1.5835
 1993SOL     OW17614   4.578   2.071  12.680  0.0291  0.2947  0.1750
 1993SOL    HW117615   4.515   2.055  12.750  0.2933  2.6853  0.9461
 1993SOL    HW217616   4.648   2.005  12.687 -1.4191 -1.2615 -0.1908
 1994SOL     OW17617   2.663   0.074   1.400 -0.2627 -0.0078  0.0789
 1994SOL    HW117618   2.661   0.163   1.433 -0.5647  0.5445 -1.4446
 1994SOL    HW217619   2.568   0.061   1.400 -0.4089  0.8990 -4.8138
 1995SOL     OW17620   0.650   3.429   8.691 -0.4162  0.0753 -0.1222
 1995SOL    HW117621   0.665   3.340   8.725  0.4878  1.2718  2.6193
 1995SOL    HW217622   0.724   3.471   8.735  2.2032 -3.1442 -1.4614
 1996SOL     OW17623   0.777   3.980   5.609 -0.0570  0.1955  0.6110
 1996SOL    HW117624   0.761   3.891   5.639 -0.8330 -0.0002 -0.4125
 1996SOL    HW217625   0.719   4.000   5.536 -0.1458 -0.8421  0.3981
 1997SOL     OW17626   3.357   4.647  13.970 -0.5684  0.0426  0.0477
 1997SOL    HW117627   3.336   4.554  13.962 -1.0947  0.2420 -0.8257
 1997SOL    HW217628   3.270   4.686  13.967 -0.2500  0.7891  0.2985
 1998SOL     OW17629   3.781   0.744   8.739 -0.0431  0.2315  0.4948
 1998SOL    HW117630   3.703   0.721   8.688  0.6916 -0.5411 -0.2931
 1998SOL    HW217631   3.833   0.787   8.672  0.6476 -0.3792  0.6454
 1999SOL     OW17632   2.581   0.583   6.825  0.8568  0.3785 -0.2577
 1999SOL    HW117633   2.498   0.565   6.869  2.9200 -4.3830  1.6978
 1999SOL    HW217634   2.560   0.592   6.733 -1.6062  1.3718  0.4140
 2000SOL     OW17635   2.768   4.576   5.278  0.4417  0.2966  0.1463
 2000SOL    HW117636   2.731   4.640   5.339 -1.6764 -0.1631 -0.6711
 2000SOL    HW217637   2.780   4.633   5.202  1.1721  0.5345  0.4420
 2001SOL     OW17638   2.796   1.902   7.927  0.1354 -0.0205  0.1569
 2001SOL    HW117639   2.844   1.953   7.992  0.2600 -0.0909  0.1199
 2001SOL    HW217640   2.705   1.933   7.930  0.3554  0.6868 -0.2954
 2002SOL     OW17641   0.551   0.822  17.495 -0.0021  0.1932  0.2785
 2002SOL    HW117642   0.621   0.758  17.490  0.2283  0.4864 -0.3408
 2002SOL    HW217643   0.606   0.900  17.499  0.5137 -0.1861  0.4423
 2003SOL     OW17644   4.036   0.222   9.880 -0.5163  0.3117 -0.2175
 2003SOL    HW117645   3.985   0.146   9.907 -1.0551  1.7308  2.7289
 2003SOL    HW217646   3.968   0.270   9.831 -0.6242 -0.0142 -0.3865
 2004SOL     OW17647   4.471   2.886   5.182  0.0841 -0.0756 -0.4928
 2004SOL    HW117648   4.444   2.973   5.153 -0.3868  0.9495  3.1070
 2004SOL    HW217649   4.409   2.856   5.248 -1.9649  2.4558 -1.2863
 2005SOL     OW17650   0.554   3.567   4.296 -0.1799  0.2795 -0.3560
 2005SOL    HW117651   0.622   3.511   4.259 -1.1854 -1.1525 -0.0498
 2005SOL    HW217652   0.495   3.552   4.222 -0.6295  1.7926 -0.3036
 2006SOL     OW17653   1.431   2.666   7.856  0.6630  0.2007  0.5162
 2006SOL    HW117654   1.523   2.679   7.832  0.4767  0.4144 -0.0704
 2006SOL    HW217655   1.401   2.751   7.825 -1.4129 -0.0685  1.7774
 2007SOL     OW17656   4.168   1.448   2.338  0.0919  0.4313  0.3824
 2007SOL    HW117657   4.250   1.439   2.388  0.0521  1.6157  0.6558
 2007SOL    HW217658   4.188   1.519   2.278 -0.2581 -0.5794 -0.9150
 2008SOL     OW17659   2.675   0.707   8.700 -0.3206 -0.0828  0.5732
 2008SOL    HW117660   2.625   0.626   8.705 -1.5881  0.4187 -3.9383
 2008SOL    HW217661   2.631   0.756   8.630 -1.5809 -2.1377 -0.0789
 2009SOL     OW17662   0.803   2.531  11.401  0.5363 -0.1287  0.0253
 2009SOL    HW117663   0.838   2.484  11.325 -1.3363 -0.6529 -0.5185
 2009SOL    HW217664   0.750   2.600  11.361 -1.7785 -1.2384  1.1617
 2010SOL     OW17665   0.286   1.291  12.122  0.1420  0.4767 -0.2342
 2010SOL    HW117666   0.206   1.308  12.173  0.7378  1.3784  0.3935
 2010SOL    HW217667   0.249   1.220  12.071 -1.3848  0.0890  1.4044
 2011SOL     OW17668   3.336   0.356   8.381 -0.3497 -0.2046 -0.4032
 2011SOL    HW117669   3.245   0.383   8.366 -0.2910 -0.1703 -0.6971
 2011SOL    HW217670   3.350   0.295   8.308  1.2055 -0.6447  0.2552
 2012SOL     OW17671   3.132   3.137   5.230 -0.1796  0.1382 -0.1884
 2012SOL    HW117672   3.213   3.170   5.192  0.5745  0.2764  1.5760
 2012SOL    HW217673   3.162   3.124   5.320  1.0041  0.7678 -0.5003
 2013SOL     OW17674   0.658   2.913   8.551  0.3919 -0.5342 -0.5463
 2013SOL    HW117675   0.742   2.869   8.536  2.1994  2.0469  1.8543
 2013SOL    HW217676   0.664   2.942   8.642 -1.2319  0.1981 -0.6730
 2014SOL     OW17677   2.852   2.357  16.688 -0.0504 -0.8452 -0.0016
 2014SOL    HW117678   2.872   2.447  16.713  0.5402 -0.8486 -0.4365
 2014SOL    HW217679   2.882   2.352  16.597  0.1657 -1.9798  0.1350
 2015SOL     OW17680   1.027   0.875   4.153  0.1672 -0.1188 -0.2819
 2015SOL    HW117681   0.997   0.957   4.112  1.6932  0.4519 -0.2458
 2015SOL    HW217682   0.954   0.816   4.135 -1.0512  0.5777  2.3551
 2016SOL     OW17683   1.154   1.071   0.198  0.3989  0.0729 -0.5200
 2016SOL    HW117684   1.219   1.034   0.138 -2.2924 -3.0090 -1.5495
 2016SOL    HW217685   1.183   1.163   0.200  1.5680 -0.3802  2.7575
 2017SOL     OW17686   2.796   2.409   0.033 -0.4783  0.1602 -0.1571
 2017SOL    HW117687   2.853   2.486   0.036  1.2404 -1.1727  1.4874
 2017SOL    HW217688   2.792   2.382   0.125 -1.8037  1.6488  0.2058
 2018SOL     OW17689   0.852   1.881   5.118 -0.0664  0.1604  0.1959
 2018SOL    HW117690   0.926   1.893   5.059 -0.4499  3.0374  0.3049
 2018SOL    HW217691   0.878   1.948   5.182  1.1890  1.7910 -2.0442
 2019SOL     OW17692   4.443   0.461  15.790 -0.9743  0.1784  0.1925
 2019SOL    HW117693   4.463   0.493  15.702  1.0924  3.5758  1.9056
 2019SOL    HW217694   4.515   0.399  15.796 -0.4635  0.7388 -0.2930
 2020SOL     OW17695   3.882   1.893   5.271 -0.2179 -0.2130 -0.4584
 2020SOL    HW117696   3.836   1.949   5.333  3.1683  3.6568 -1.4884
 2020SOL    HW217697   3.934   1.835   5.327 -0.6571 -0.9256 -0.7790
 2021SOL     OW17698   3.816   4.715  12.115 -0.8837 -0.0114 -0.1180
 2021SOL    HW117699   3.751   4.678  12.057  0.7320 -0.4933 -1.6360
 2021SOL    HW217700   3.845   0.054  12.060 -2.4536 -0.2069 -1.1849
 2022SOL     OW17701   3.185   3.824   7.213  0.1302  0.1133  0.0023
 2022SOL    HW117702   3.127   3.748   7.216 -0.8496  0.7893 -2.0346
 2022SOL    HW217703   3.150   3.870   7.290  0.9877 -0.4009  0.7093
 2023SOL     OW17704   0.139   0.544   4.813  0.1200 -0.1714 -0.2190
 2023SOL    HW117705   0.129   0.637   4.791 -1.0666 -0.5863 -1.4876
 2023SOL    HW217706   0.076   0.541   4.884 -0.5291  3.7791 -0.6079
 2024SOL     OW17707   2.015   2.741   3.064 -0.9139 -0.3004  0.0702
 2024SOL    HW117708   2.108   2.721   3.075 -1.2062 -0.8662  1.6112
 2024SOL    HW217709   2.001   2.793   3.144  0.4198  1.9529 -1.1647
 2025SOL     OW17710   3.945   2.547   3.294  0.6006 -0.1537 -0.3221
 2025SOL    HW117711   3.957   2.563   3.200  0.3716  2.0130  0.0265
 2025SOL    HW217712   3.928   2.453   3.288  0.0175 -0.2297  2.4807
 2026SOL     OW17713   2.533   4.403   9.831  0.0332 -0.1203  0.8949
 2026SOL    HW117714   2.609   4.437   9.783 -2.0021 -0.6653 -2.7222
 2026SOL    HW217715   2.515   4.476   9.889 -2.7057  0.8840 -1.2194
 2027SOL     OW17716   2.783   2.536  13.648  0.3461 -0.3067 -0.4042
 2027SOL    HW117717   2.703   2.589  13.646 -1.0583 -2.3845  1.2478
 2027SOL    HW217718   2.821   2.568  13.566 -0.4722  2.9167  0.4800
 2028SOL     OW17719   1.343   4.643   5.170  0.2950 -0.0889 -0.1536
 2028SOL    HW117720   1.312   4.620   5.258  0.8959 -2.2450 -0.5093
 2028SOL    HW217721   1.432   4.608   5.178 -0.6496 -2.1240  1.2941
 2029SOL     OW17722   1.324   1.469   7.320  0.4137 -0.7516 -0.0188
 2029SOL    HW117723   1.290   1.448   7.234  0.9220  1.3376 -0.7356
 2029SOL    HW217724   1.381   1.393   7.329 -1.8429 -2.0023  3.7942
 2030SOL     OW17725   2.695   0.445   9.797 -0.1368 -0.2696 -0.0995
 2030SOL    HW117726   2.699   0.540   9.809 -2.7836 -0.2586  0.7358
 2030SOL    HW217727   2.765   0.428   9.734  0.4060 -0.3256  0.5241
 2031SOL     OW17728   0.186   2.500   8.250 -0.2043 -0.1436  0.3446
 2031SOL    HW117729   0.234   2.480   8.170  0.5224 -0.3620  0.8331
 2031SOL    HW217730   0.237   2.576   8.279 -0.2183  0.5062 -1.3212
 2032SOL     OW17731   4.672   1.726   2.058  0.9066 -0.4550  0.4644
 2032SOL    HW117732   4.607   1.719   1.989  0.9319  2.4142  0.1518
 2032SOL    HW217733   4.617   1.724   2.136 -1.6870  1.8569 -1.3008
 2033SOL     OW17734   1.549   3.899   3.281 -0.1030 -0.1348 -0.2928
 2033SOL    HW117735   1.569   3.835   3.213  0.7700 -0.2499  0.0609
 2033SOL    HW217736   1.454   3.896   3.294  0.0672 -0.6673  0.8937
 2034SOL     OW17737   1.070   3.960   2.870 -0.1676  0.1034  0.7612
 2034SOL    HW117738   1.041   4.049   2.854 -2.2957 -0.9020 -1.0758
 2034SOL    HW217739   1.133   3.979   2.939  0.0778  0.6563  0.3856
 2035SOL     OW17740   2.376   3.024   9.535  0.2638 -0.0551  0.5057
 2035SOL    HW117741   2.448   3.063   9.584  1.3046  0.5026 -1.4368
 2035SOL    HW217742   2.339   2.972   9.605 -0.2196  0.0120  0.3011
 2036SOL     OW17743   2.005   2.090   9.617  0.0465 -0.1543  0.3009
 2036SOL    HW117744   2.078   2.120   9.672 -0.4531 -1.1616  1.4969
 2036SOL    HW217745   2.020   1.996   9.610  1.2576  0.1819 -1.6213
 2037SOL     OW17746   2.975   4.629   9.099  0.2722 -0.1655  0.5658
 2037SOL    HW117747   2.985   4.545   9.144  2.5100 -0.4173 -0.3680
 2037SOL    HW217748   3.045   4.680   9.141  1.1410 -0.7584 -0.1679
 2038SOL     OW17749   3.643   2.961  10.855  0.0009 -0.7763  0.2303
 2038SOL    HW117750   3.665   2.981  10.764  0.2014 -2.2661 -0.0436
 2038SOL    HW217751   3.619   3.047  10.890 -1.3231 -0.8744 -0.4134
 2039SOL     OW17752   2.592   2.576   4.807 -0.2413 -0.1348  0.5682
 2039SOL    HW117753   2.548   2.504   4.762  1.8699 -2.0479  1.5660
 2039SOL    HW217754   2.519   2.615   4.855  0.1549  2.2146 -0.6948
 2040SOL     OW17755   1.792   4.374   6.366  0.4380 -0.0403 -0.7024
 2040SOL    HW117756   1.876   4.419   6.357  2.1819 -3.1378 -0.0066
 2040SOL    HW217757   1.774   4.402   6.455 -1.1140 -1.7429 -0.4618
 2041SOL     OW17758   0.703   1.748   6.181 -0.2240 -0.1414  0.1917
 2041SOL    HW117759   0.763   1.685   6.221 -1.7859 -1.0859  1.0168
 2041SOL    HW217760   0.730   1.832   6.219  0.5818 -0.4009  0.1986
 2042SOL     OW17761   1.776   1.618   2.258 -0.1835  0.3205 -0.2277
 2042SOL    HW117762   1.748   1.710   2.255  0.5903  0.5605 -0.1320
 2042SOL    HW217763   1.850   1.634   2.317 -1.6493  0.4535  1.5601
 2043SOL     OW17764   0.151   3.238   2.547 -0.3532 -0.0611 -0.0089
 2043SOL    HW117765   0.236   3.247   2.503 -0.4090 -3.1604 -0.7786
 2043SOL    HW217766   0.185   3.221   2.635 -0.8204 -0.6930  0.0465
 2044SOL     OW17767   3.317   4.525   7.669 -0.3339 -0.2660  0.5953
 2044SOL    HW117768   3.267   4.548   7.590 -0.2064 -1.9920  0.0165
 2044SOL    HW217769   3.364   4.600   7.705 -2.8395  2.0118 -0.8022
 2045SOL     OW17770   2.862   0.632   3.128 -0.0153 -0.1218 -0.1591
 2045SOL    HW117771   2.816   0.667   3.205  0.1662  1.7876 -0.9244
 2045SOL    HW217772   2.798   0.660   3.063 -2.5000 -0.9468  1.9342
 2046SOL     OW17773   0.823   1.708  12.008 -0.0714  0.1204  0.0772
 2046SOL    HW117774   0.810   1.628  11.958 -0.6464  1.0222 -1.2181
 2046SOL    HW217775   0.744   1.759  11.987  0.2324  0.1468 -0.9943
 2047SOL     OW17776   0.149   4.553   7.374  0.7742 -0.4033 -0.1091
 2047SOL    HW117777   0.083   4.490   7.346  0.4880  0.3410 -1.1115
 2047SOL    HW217778   0.114   4.573   7.461  1.1043  0.1702 -0.1018
 2048SOL     OW17779   2.796   4.197   3.315  0.5971 -0.5749 -0.7490
 2048SOL    HW117780   2.702   4.178   3.314  0.3902  0.4020  2.2768
 2048SOL    HW217781   2.833   4.122   3.363  0.9873  1.4186  2.0697
 2049SOL     OW17782   4.288   1.156   8.790 -0.0832  0.2067 -0.3291
 2049SOL    HW117783   4.278   1.077   8.737  2.6670  0.2671 -0.9345
 2049SOL    HW217784   4.197   1.168   8.818  0.6053  3.9503  0.2870
 2050SOL     OW17785   4.531   0.216   4.422 -0.0828  0.1921  0.2508
 2050SOL    HW117786   4.604   0.177   4.373  0.1909  0.4994  0.4129
 2050SOL    HW217787   4.579   0.256   4.494 -0.7986  0.9986  0.2669
 2051SOL     OW17788   0.811   1.762   7.902  0.1124  0.2180  0.2815
 2051SOL    HW117789   0.867   1.701   7.855 -1.8362 -0.9255 -0.5185
 2051SOL    HW217790   0.766   1.720   7.976 -0.0469 -0.0489  0.0292
 2052SOL     OW17791   4.138   4.577  16.722 -0.6505  0.4113  0.1449
 2052SOL    HW117792   4.148   4.666  16.688 -1.1285  0.6028  0.5053
 2052SOL    HW217793   4.167   4.583  16.813  0.9219  0.7806 -0.3872
 2053SOL     OW17794   1.169   4.134   0.365 -0.0211 -0.7097  0.1134
 2053SOL    HW117795   1.116   4.138   0.445 -0.2716  3.2399 -0.2344
 2053SOL    HW217796   1.109   4.105   0.296 -1.4411  1.7653  0.2930
 2054SOL     OW17797   0.773   0.738   4.630  0.4201 -0.6157 -0.2865
 2054SOL    HW117798   0.763   0.827   4.664 -0.1197 -0.4736 -0.8100
 2054SOL    HW217799   0.691   0.699   4.661  1.4446 -1.8583  0.8103
 2055SOL     OW17800   2.438   1.766  14.089  0.0487  0.2786 -0.3877
 2055SOL    HW117801   2.520   1.725  14.117 -0.2261 -0.9790 -1.4374
 2055SOL    HW217802   2.439   1.851  14.134 -1.9180  0.1990 -0.2185
 2056SOL     OW17803   0.784   1.999   1.525 -0.1923  0.3741 -0.2830
 2056SOL    HW117804   0.833   1.957   1.455 -0.0578  2.0730 -1.2003
 2056SOL    HW217805   0.699   2.000   1.483 -0.8186 -1.2720  0.9249
 2057SOL     OW17806   2.230   4.074   9.913  0.3972  0.5218 -0.2770
 2057SOL    HW117807   2.246   4.097  10.005  0.8445 -0.9719  0.0176
 2057SOL    HW217808   2.293   4.116   9.854  0.0401  0.8416 -0.4287
 2058SOL     OW17809   1.641   1.789   4.277  0.4142 -0.0421  0.0027
 2058SOL    HW117810   1.583   1.714   4.259 -2.7787  2.9566 -2.0941
 2058SOL    HW217811   1.618   1.814   4.367  1.1609  0.7466 -0.0381
 2059SOL     OW17812   1.122   2.398   2.550  0.3889 -0.0689 -0.0253
 2059SOL    HW117813   1.044   2.353   2.582  1.1374  0.5559  2.6676
 2059SOL    HW217814   1.097   2.489   2.568  0.7499  0.2448 -1.1419
 2060SOL     OW17815   2.125   4.662  10.821 -0.1839  0.6525 -0.3675
 2060SOL    HW117816   2.192   4.593  10.818 -2.4979 -1.5005 -2.5625
 2060SOL    HW217817   2.065   4.630  10.753  2.2255 -2.0255 -1.2461
 2061SOL     OW17818   0.407   1.795  10.535  1.0855 -0.7394  0.0083
 2061SOL    HW117819   0.393   1.886  10.564  2.1944 -0.3877 -0.5637
 2061SOL    HW217820   0.459   1.764  10.609  0.6195  1.0879  1.1119
 2062SOL     OW17821   3.745   3.077   2.719 -0.0694 -0.0051 -0.0113
 2062SOL    HW117822   3.763   3.169   2.738  2.0814 -0.4190 -0.0444
 2062SOL    HW217823   3.767   3.034   2.802 -0.6213  1.1352  0.7274
 2063SOL     OW17824   2.319   1.725   9.930 -0.6381  0.3805  0.2013
 2063SOL    HW117825   2.288   1.651   9.878  1.7264 -0.8724  0.5767
 2063SOL    HW217826   2.409   1.701   9.950 -0.6312  0.3189  0.0966
 2064SOL     OW17827   0.995   3.869   6.601  0.5014 -0.6643  0.0964
 2064SOL    HW117828   1.009   3.902   6.512  2.0862  1.9289  1.3033
 2064SOL    HW217829   1.071   3.811   6.613  0.4117 -0.6353  0.7732
 2065SOL     OW17830   2.506   2.394   5.547  0.7951 -0.4314 -0.3765
 2065SOL    HW117831   2.482   2.418   5.636  0.3124 -0.1879 -0.5726
 2065SOL    HW217832   2.515   2.481   5.509  1.5192  0.2290  1.3122
 2066SOL     OW17833   3.573   2.377  17.205 -0.8561 -0.1822  0.0886
 2066SOL    HW117834   3.608   2.382  17.116  2.1505 -0.0183  1.2719
 2066SOL    HW217835   3.564   2.282  17.206  1.4302 -0.3761  1.5999
 2067SOL     OW17836   0.109   3.250   4.626 -0.1512  0.3383  0.7307
 2067SOL    HW117837   0.155   3.173   4.660  0.3830  0.1732 -0.3734
 2067SOL    HW217838   0.124   3.237   4.533  1.1016  2.8567  0.5746
 2068SOL     OW17839   3.293   4.018  17.326  0.3947  0.3963 -0.2268
 2068SOL    HW117840   3.350   3.953  17.286 -0.7756 -0.7651 -0.0204
 2068SOL    HW217841   3.254   4.051  17.246  2.1257 -0.7851 -1.5451
 2069SOL     OW17842   4.560   1.940   9.010  0.1710  0.3291  0.0446
 2069SOL    HW117843   4.485   1.889   8.981 -0.2818  0.0258  1.7548
 2069SOL    HW217844   4.624   1.877   8.978 -0.3422  0.2769 -0.8741
 2070SOL     OW17845   1.096   0.373   4.242  0.0198 -0.1246  0.4601
 2070SOL    HW117846   1.184   0.378   4.207  0.7215  2.3825  2.5586
 2070SOL    HW217847   1.045   0.354   4.163  1.2183 -1.5244  0.0280
 2071SOL     OW17848   2.266   3.293  17.042 -0.0513 -0.4979  0.0320
 2071SOL    HW117849   2.288   3.294  17.135 -0.8621  0.4572  0.2118
 2071SOL    HW217850   2.200   3.362  17.043  1.4858  1.0282 -1.5392
 2072SOL     OW17851   2.412   1.282   5.205  0.7646 -0.0467 -0.8029
 2072SOL    HW117852   2.330   1.270   5.157  0.1528 -1.1863  0.5449
 2072SOL    HW217853   2.432   1.194   5.237  1.0960  0.6203  0.8086
 2073SOL     OW17854   1.839   1.594  14.565  0.1613 -0.2637 -0.1150
 2073SOL    HW117855   1.775   1.575  14.496  0.5826  1.1931 -0.9025
 2073SOL    HW217856   1.883   1.509  14.573 -1.9595 -1.3576  0.0879
 2074SOL     OW17857   3.888   3.381   8.661  0.2428 -0.2169  0.4473
 2074SOL    HW117858   3.860   3.305   8.610 -2.4559  1.5266 -0.6241
 2074SOL    HW217859   3.915   3.343   8.744  0.9517 -2.4295 -0.7896
 2075SOL     OW17860   0.791   3.115  11.881  0.6337  0.2261  0.1541
 2075SOL    HW117861   0.704   3.143  11.907  0.4188 -1.5214  1.3175
 2075SOL    HW217862   0.845   3.179  11.928 -0.1992 -0.9820  2.7257
 2076SOL     OW17863   2.455   0.852  17.427 -0.2050  0.5998 -0.6473
 2076SOL    HW117864   2.473   0.940  17.460 -1.7289  0.1730  1.3304
 2076SOL    HW217865   2.378   0.863  17.371 -1.6016  1.1337  1.3724
 2077SOL     OW17866   2.696   3.285   7.383  0.0581  0.4355 -0.2908
 2077SOL    HW117867   2.645   3.222   7.435  0.7084 -1.3120 -1.7811
 2077SOL    HW217868   2.757   3.224   7.341 -0.6964 -2.1665  2.3844
 2078SOL     OW17869   3.844   1.947  10.077  0.4119 -0.1582  0.6317
 2078SOL    HW117870   3.787   2.011  10.035 -0.3215  0.6395  2.8030
 2078SOL    HW217871   3.874   1.901   9.999  0.2499 -0.6179  0.8391
 2079SOL     OW17872   1.083   2.378   4.101 -0.1129  0.0136 -0.0089
 2079SOL    HW117873   1.177   2.361   4.112 -0.2300 -0.7703 -0.2968
 2079SOL    HW217874   1.075   2.332   4.018 -1.3937  0.1512  0.0421
 2080SOL     OW17875   4.341   3.442   2.616 -0.7442 -0.0632 -0.9306
 2080SOL    HW117876   4.282   3.491   2.559 -1.4482  2.9844  2.3733
 2080SOL    HW217877   4.314   3.440   2.708  0.4603  0.9754 -0.5440
 2081SOL     OW17878   2.159   3.682  10.235  0.0876  0.0639 -0.2926
 2081SOL    HW117879   2.223   3.742  10.273  0.9658 -1.0763  0.0289
 2081SOL    HW217880   2.100   3.740  10.186 -0.7488 -0.6583 -0.1384
 2082SOL     OW17881   1.559   3.990  15.146  0.3021  0.0638 -0.2624
 2082SOL    HW117882   1.623   4.049  15.186  0.8787  0.7269 -2.1400
 2082SOL    HW217883   1.492   3.993  15.215 -1.0436 -0.3872 -1.5398
 2083SOL     OW17884   2.074   0.982   2.995 -0.0803  0.3658  0.0629
 2083SOL    HW117885   2.042   0.892   3.005  0.1151  0.4354  1.2986
 2083SOL    HW217886   2.168   0.975   3.009 -0.2081  1.7251  1.5609
 2084SOL     OW17887   1.387   3.110  12.181  0.6847 -0.1148 -0.3937
 2084SOL    HW117888   1.301   3.150  12.183  0.9403  0.3563  2.4212
 2084SOL    HW217889   1.402   3.088  12.274  0.0029  2.6550  0.3583
 2085SOL     OW17890   0.039   4.097  13.247 -0.3517  0.3661  0.8008
 2085SOL    HW117891   0.110   4.149  13.209 -0.0330 -0.8131 -0.2636
 2085SOL    HW217892   4.710   4.121  13.180 -1.2093  0.2781  1.5899
 2086SOL     OW17893   0.014   2.025   5.167  0.3542  0.3530  0.5674
 2086SOL    HW117894   0.106   2.039   5.145 -0.0664 -0.1618 -1.5799
 2086SOL    HW217895   0.029   1.930   5.170  2.5818  0.7254  1.1668
 2087SOL     OW17896   1.061   4.258   5.459  0.1430  0.1535 -0.6834
 2087SOL    HW117897   0.995   4.325   5.475  2.1706  2.1212 -0.6915
 2087SOL    HW217898   1.010   4.190   5.414 -3.3481  2.0507  0.4339
 2088SOL     OW17899   2.258   4.210   3.963 -0.7127 -0.0331  0.1633
 2088SOL    HW117900   2.278   4.207   4.056 -1.3904 -0.0207  0.3103
 2088SOL    HW217901   2.204   4.289   3.965  0.2764  0.6675 -0.7774
 2089SOL     OW17902   3.557   2.052   0.123  0.2112  0.2950  0.1713
 2089SOL    HW117903   3.575   1.998   0.046 -1.6244  0.2738 -0.2348
 2089SOL    HW217904   3.617   2.127   0.114 -0.2912  0.9361  2.1097
 2090SOL     OW17905   2.370   2.667   0.611  0.2303  0.2173  0.1598
 2090SOL    HW117906   2.456   2.700   0.640  0.7418 -0.3300 -0.7530
 2090SOL    HW217907   2.378   2.672   0.516  0.7770  1.9754  0.2844
 2091SOL     OW17908   3.525   3.739   6.487 -0.1072  0.3615  0.0487
 2091SOL    HW117909   3.558   3.747   6.398  0.3015 -2.4105 -0.0481
 2091SOL    HW217910   3.580   3.670   6.523  2.3585  1.3542 -1.7988
 2092SOL     OW17911   1.424   4.266   2.090 -0.4938 -0.0574  0.0155
 2092SOL    HW117912   1.366   4.335   2.056 -0.4609 -0.2780 -0.4849
 2092SOL    HW217913   1.496   4.264   2.027 -0.2208 -0.3259  0.3384
 2093SOL     OW17914   4.180   4.587   1.100 -0.0803  0.4227 -0.5019
 2093SOL    HW117915   4.114   4.526   1.134 -2.5057  2.5692 -1.4102
 2093SOL    HW217916   4.262   4.541   1.117 -0.6688 -0.5581 -0.3037
 2094SOL     OW17917   3.908   4.139   5.010 -0.4914 -0.0156  0.0295
 2094SOL    HW117918   3.886   4.219   4.963  0.3057 -0.1077 -0.4981
 2094SOL    HW217919   3.888   4.167   5.100  2.4542  0.8342  0.4352
 2095SOL     OW17920   1.284   0.849   4.273 -0.1280  0.3344 -0.0200
 2095SOL    HW117921   1.203   0.880   4.233  0.6757  1.4083 -0.8224
 2095SOL    HW217922   1.254   0.848   4.364 -0.0103 -2.3563 -0.0138
 2096SOL     OW17923   0.074   2.560   1.778  0.1918  0.5590 -0.8547
 2096SOL    HW117924   0.108   2.505   1.707  1.0655  0.9389 -0.7349
 2096SOL    HW217925   0.035   2.633   1.730  0.3766  0.1939 -1.5731
 2097SOL     OW17926   1.269   1.558   5.411  0.0904 -0.2501  0.0118
 2097SOL    HW117927   1.262   1.531   5.319 -0.7121  2.1667 -0.6343
 2097SOL    HW217928   1.271   1.653   5.404  0.7925 -0.5487 -3.9059
 2098SOL     OW17929   1.870   2.537   4.320 -0.1329 -0.0677  0.3718
 2098SOL    HW117930   1.939   2.603   4.316 -0.8990  0.7613  0.9073
 2098SOL    HW217931   1.909   2.472   4.377  1.5104 -1.5452 -2.4345
 2099SOL     OW17932   2.549   3.177  10.562  0.0870  0.1186 -0.6878
 2099SOL    HW117933   2.554   3.224  10.645 -2.1467 -0.9716  0.0574
 2099SOL    HW217934   2.456   3.200  10.556 -0.1244 -0.8131 -1.0203
 2100SOL     OW17935   2.188   2.502   8.847  0.0835 -0.0358 -0.0686
 2100SOL    HW117936   2.114   2.533   8.899  1.8511  1.9184  1.2955
 2100SOL    HW217937   2.252   2.505   8.918  0.7447 -2.0416 -0.5685
 2101SOL     OW17938   0.907   4.448   3.918 -0.3494 -0.0410  0.4056
 2101SOL    HW117939   0.867   4.363   3.901 -0.1532 -0.7416  3.3831
 2101SOL    HW217940   0.842   4.508   3.882 -0.4540 -1.7357 -2.2684
 2102SOL     OW17941   2.105   0.342  17.515 -1.1473 -0.0309  0.4434
 2102SOL    HW117942   2.124   0.272  17.576 -1.7317 -1.6371 -1.1905
 2102SOL    HW217943   2.054   0.295  17.449 -1.2297 -0.2561  0.6678
 2103SOL     OW17944   4.473   0.702   1.499 -0.2272  0.2244  0.8563
 2103SOL    HW117945   4.391   0.660   1.523  0.1089 -0.0257  1.5667
 2103SOL    HW217946   4.452   0.753   1.421  0.5408  2.7161  2.2747
 2104SOL     OW17947   1.422   3.268   5.397 -0.3670  0.7263  0.3424
 2104SOL    HW117948   1.351   3.269   5.332 -0.9746 -0.8077  0.9918
 2104SOL    HW217949   1.505   3.279   5.351  0.3825  1.9395  1.9840
 2105SOL     OW17950   3.341   1.822   8.357  0.0437  0.2319 -0.5517
 2105SOL    HW117951   3.312   1.901   8.404 -1.2140  0.6912 -2.0780
 2105SOL    HW217952   3.381   1.866   8.282 -2.4218  0.8097 -1.5581
 2106SOL     OW17953   2.902   3.921   3.339 -0.0738  1.0173  0.1385
 2106SOL    HW117954   2.972   3.857   3.326 -1.8452 -0.9611  0.2326
 2106SOL    HW217955   2.827   3.861   3.333  0.5926  0.4179 -2.3124
 2107SOL     OW17956   3.595   2.758  17.568  0.2392 -0.0141 -0.3129
 2107SOL    HW117957   3.631   2.689  17.513  1.4746  0.3385  0.0681
 2107SOL    HW217958   3.640   2.755  17.652 -0.4336 -1.4803 -0.0002
 2108SOL     OW17959   1.714   1.476  12.904  0.1013 -0.3462  0.2201
 2108SOL    HW117960   1.625   1.470  12.869  0.2451  3.3830 -0.7985
 2108SOL    HW217961   1.708   1.558  12.954 -0.1467  0.1279 -0.5843
 2109SOL     OW17962   3.155   0.783   4.870  0.3338 -0.0720 -0.3993
 2109SOL    HW117963   3.154   0.737   4.954 -1.4754  0.3123 -0.2224
 2109SOL    HW217964   3.220   0.726   4.829  1.5814  0.6108  0.6329
 2110SOL     OW17965   2.756   2.479   7.851  0.4011  0.0222  0.8389
 2110SOL    HW117966   2.811   2.554   7.873  0.6396  0.4612 -1.2665
 2110SOL    HW217967   2.676   2.504   7.898 -1.4192  0.9309 -2.7649
 2111SOL     OW17968   4.223   2.862  15.278 -0.0681  0.1194  0.2286
 2111SOL    HW117969   4.176   2.798  15.332  1.5388 -0.5306  0.8371
 2111SOL    HW217970   4.167   2.861  15.200  0.2089 -0.7740  0.0461
 2112SOL     OW17971   2.445   0.771   1.779  0.1830  0.3529 -0.2905
 2112SOL    HW117972   2.433   0.815   1.695 -0.9674  1.0178  0.2208
 2112SOL    HW217973   2.472   0.838   1.842 -0.8032  1.8670 -1.4886
 2113SOL     OW17974   3.470   2.158   8.692 -0.8951 -0.1069 -0.0933
 2113SOL    HW117975   3.545   2.193   8.740 -2.1307  0.1119  1.6773
 2113SOL    HW217976   3.425   2.126   8.770 -2.9090 -1.6313 -1.8852
 2114SOL     OW17977   1.771   4.221   4.819  0.0680  0.2364 -0.0430
 2114SOL    HW117978   1.745   4.152   4.879 -1.4476  0.6089 -0.2697
 2114SOL    HW217979   1.840   4.266   4.868  0.3016  1.3996 -1.4104
 2115SOL     OW17980   1.227   3.975   0.798 -0.6850 -0.4079  0.7507
 2115SOL    HW117981   1.249   3.892   0.841  0.5556 -0.9573 -0.9585
 2115SOL    HW217982   1.285   4.031   0.851  1.4704 -0.5578 -1.4267
 2116SOL     OW17983   1.957   2.944   8.479 -0.1060  0.2633 -0.2342
 2116SOL    HW117984   1.998   2.894   8.409  1.5925  1.8923 -0.3965
 2116SOL    HW217985   1.870   2.960   8.441 -0.0711  0.1169 -0.3755
 2117SOL     OW17986   4.229   2.281   0.761 -0.0229 -0.0144  0.1751
 2117SOL    HW117987   4.268   2.271   0.848 -1.9708 -1.0630  0.9161
 2117SOL    HW217988   4.275   2.217   0.706  0.2823 -2.2205  2.9834
 2118SOL     OW17989   1.285   2.334   6.361  0.1061  0.8866  0.1171
 2118SOL    HW117990   1.254   2.382   6.438 -2.4733 -3.0706  1.5518
 2118SOL    HW217991   1.367   2.374   6.334  0.5017 -1.4677 -2.1841
 2119SOL     OW17992   1.490   0.034  14.796 -0.2295 -0.1207  0.1462
 2119SOL    HW117993   1.478   4.682  14.836  1.0919 -0.4436 -0.1673
 2119SOL    HW217994   1.585   0.037  14.787 -0.3495 -0.9544 -1.2139
 2120SOL     OW17995   1.897   2.988   1.755  0.5593  0.3192 -0.2498
 2120SOL    HW117996   1.854   2.966   1.838 -2.4583 -0.8710 -2.1018
 2120SOL    HW217997   1.974   2.932   1.751  1.1701  1.0438  1.0076
 2121SOL     OW17998   2.779   0.159   5.073  0.0299  0.1107  0.1675
 2121SOL    HW117999   2.833   0.214   5.016 -1.1065  1.3276  0.2718
 2121SOL    HW218000   2.846   0.124   5.132  1.1238 -0.7450 -1.5781
 2122SOL     OW18001   0.855   2.165   0.776  0.7457  0.3076  0.9280
 2122SOL    HW118002   0.951   2.163   0.780  0.8050 -0.3619 -0.8923
 2122SOL    HW218003   0.840   2.099   0.709 -0.7689  1.5361  0.0710
 2123SOL     OW18004   1.268   2.515   9.519  0.3385  0.1313  0.6051
 2123SOL    HW118005   1.260   2.588   9.581 -0.4044  0.0549  0.5966
 2123SOL    HW218006   1.217   2.555   9.449  0.7214  3.1430  2.0600
 2124SOL     OW18007   3.982   3.828  12.543  0.1717 -0.4289  0.4468
 2124SOL    HW118008   4.066   3.844  12.587  0.8701 -1.1958 -0.6206
 2124SOL    HW218009   3.968   3.733  12.551 -0.2197 -0.6940 -3.7969
 2125SOL     OW18010   1.984   1.471   9.942  0.0706 -0.1771  0.0234
 2125SOL    HW118011   1.931   1.551   9.938 -0.3184 -0.3842  0.9729
 2125SOL    HW218012   2.065   1.500   9.985 -1.3824  0.6454  2.2387
 2126SOL     OW18013   0.029   0.591   2.221  0.0915  0.3481  0.2307
 2126SOL    HW118014   0.125   0.593   2.217  0.1453  0.1640  1.2892
 2126SOL    HW218015   0.010   0.644   2.299 -1.1434 -1.8018  1.3805
 2127SOL     OW18016   0.210   2.805   7.533  0.4492 -0.0255 -0.2072
 2127SOL    HW118017   0.119   2.798   7.503  0.3278 -0.0350  0.1642
 2127SOL    HW218018   0.192   2.848   7.617 -0.3812 -0.4626 -0.1633
 2128SOL     OW18019   0.803   4.584   3.660  0.5035 -0.4211  0.7149
 2128SOL    HW118020   0.839   4.512   3.609  1.0066  0.0216  0.4377
 2128SOL    HW218021   0.718   4.599   3.617  0.0527 -0.3670  1.6161
 2129SOL     OW18022   0.477   3.057   8.406 -0.4399  0.0034  0.3238
 2129SOL    HW118023   0.387   3.044   8.437 -0.7082  0.2415 -0.3631
 2129SOL    HW218024   0.523   2.989   8.456  0.1446 -0.9897 -1.5649
 2130SOL     OW18025   0.222   2.533  14.708 -0.2606  0.1967  0.3035
 2130SOL    HW118026   0.188   2.532  14.619  1.4054  0.6967 -0.3405
 2130SOL    HW218027   0.303   2.482  14.705  0.1304  0.8383 -0.2021
 2131SOL     OW18028   2.216   2.224  10.262  0.0312  0.1813  0.2183
 2131SOL    HW118029   2.132   2.269  10.251  1.6063  2.5388 -2.2560
 2131SOL    HW218030   2.267   2.270  10.196  0.6754  1.6553  1.7415
 2132SOL     OW18031   4.338   3.959   3.787  0.1150  0.1329  0.4073
 2132SOL    HW118032   4.295   3.917   3.862 -0.3622  0.3350  0.2482
 2132SOL    HW218033   4.295   4.044   3.788  0.8307  0.4857  0.5489
 2133SOL     OW18034   2.309   0.356   6.240  0.1213  0.1290  0.3099
 2133SOL    HW118035   2.286   0.380   6.150  0.1028 -0.8595  0.0399
 2133SOL    HW218036   2.226   0.325   6.276 -0.3207  1.3039  0.3033
 2134SOL     OW18037   4.277   2.405   5.563 -0.2709 -0.2550  0.5667
 2134SOL    HW118038   4.370   2.394   5.582 -0.3452 -2.7315 -0.4640
 2134SOL    HW218039   4.272   2.401   5.467 -1.8289 -0.6560  0.6541
 2135SOL     OW18040   1.991   3.151  10.647  0.5374 -0.2377 -0.4190
 2135SOL    HW118041   1.959   3.062  10.662 -0.3828 -0.1782 -2.1267
 2135SOL    HW218042   1.986   3.180  10.738  3.1605  0.4165 -0.4811
 2136SOL     OW18043   3.139   4.453   4.655  0.5274  0.4958  0.2005
 2136SOL    HW118044   3.155   4.522   4.592  3.8952  0.7162  1.2974
 2136SOL    HW218045   3.157   4.376   4.601 -0.9120 -0.5721  1.2266
 2137SOL     OW18046   4.472   3.485  11.553  0.4093  0.1475  0.0076
 2137SOL    HW118047   4.431   3.571  11.553 -2.1357 -1.0773  1.7685
 2137SOL    HW218048   4.538   3.494  11.622 -2.2497  0.1586  2.5367
 2138SOL     OW18049   3.831   2.379   6.513  0.2038 -0.4111  0.0906
 2138SOL    HW118050   3.902   2.442   6.496 -1.0636  1.0948  0.4204
 2138SOL    HW218051   3.779   2.407   6.438  0.3562  2.4261  1.0331
 2139SOL     OW18052   3.493   2.951   0.074 -0.7967  0.1325 -1.0360
 2139SOL    HW118053   3.444   2.877   0.039 -1.5346  0.3103 -0.3705
 2139SOL    HW218054   3.500   2.931   0.167 -1.0428  0.2464 -0.9927
 2140SOL     OW18055   3.015   3.425  11.216 -0.3067 -0.5070  0.3593
 2140SOL    HW118056   3.080   3.493  11.232 -0.5699 -0.2801  0.4713
 2140SOL    HW218057   2.992   3.437  11.124  0.5047 -0.0415  0.2242
 2141SOL     OW18058   2.645   3.922   5.402 -0.0425 -0.0795  0.2954
 2141SOL    HW118059   2.653   3.931   5.307  1.6809  0.7921  0.5091
 2141SOL    HW218060   2.681   3.836   5.421  0.1697  0.1147  0.7829
 2142SOL     OW18061   0.787   2.010   6.260  0.0386 -0.2905 -0.4931
 2142SOL    HW118062   0.878   1.981   6.250  0.8427  1.3792  2.0029
 2142SOL    HW218063   0.781   2.038   6.351 -1.6843  1.3921 -1.1434
 2143SOL     OW18064   2.956   2.816  14.477 -0.6598 -0.3415 -0.1969
 2143SOL    HW118065   2.930   2.906  14.495 -0.6523 -0.2121 -0.8479
 2143SOL    HW218066   3.012   2.786  14.549 -1.1162 -2.1814 -0.6030
 2144SOL     OW18067   1.254   3.604   5.577  0.0599  0.1010  0.4070
 2144SOL    HW118068   1.159   3.617   5.585  0.1638  0.9624  0.2375
 2144SOL    HW218069   1.279   3.693   5.552 -0.4301  0.1375  0.0402
 2145SOL     OW18070   4.244   0.995   9.076 -0.3224 -0.3547 -0.1792
 2145SOL    HW118071   4.165   0.984   9.022 -0.4733 -0.2704  0.0247
 2145SOL    HW218072   4.216   0.971   9.164  0.3754  2.3015  0.7820
 2146SOL     OW18073   1.301   1.893   6.683 -0.8820  0.5298  0.2010
 2146SOL    HW118074   1.246   1.878   6.761 -0.6450 -0.1828  0.2262
 2146SOL    HW218075   1.388   1.882   6.721 -1.1338 -0.6798  0.4156
 2147SOL     OW18076   0.282   2.007  12.727  0.7656 -0.0318 -1.0526
 2147SOL    HW118077   0.195   1.968  12.726  0.6631  0.0648  3.8066
 2147SOL    HW218078   0.253   2.071  12.662  1.2314  1.0140 -0.2329
 2148SOL     OW18079   0.471   0.423   2.357  0.0969  0.5692 -0.7319
 2148SOL    HW118080   0.463   0.411   2.451 -1.5409 -1.2210 -1.0979
 2148SOL    HW218081   0.513   0.509   2.351 -1.4125  1.2676 -1.0719
 2149SOL     OW18082   3.718   3.679  14.619 -0.0613  0.4409  0.2976
 2149SOL    HW118083   3.762   3.741  14.678  0.0931  0.2339  0.3975
 2149SOL    HW218084   3.791   3.619  14.602 -0.1442  0.0011  1.5181
 2150SOL     OW18085   3.216   4.625  10.140 -0.1031 -0.0122  0.0163
 2150SOL    HW118086   3.168   4.585  10.211  1.5733 -2.3997 -0.1899
 2150SOL    HW218087   3.289   4.672  10.181  0.6873 -1.0013 -0.2269
 2151SOL     OW18088   3.407   0.261   0.847  0.0520 -0.0467 -0.3692
 2151SOL    HW118089   3.425   0.346   0.807 -0.7419 -0.8424 -2.4692
 2151SOL    HW218090   3.451   0.266   0.931 -0.3063  0.5136 -0.2186
 2152SOL     OW18091   4.505   2.870  17.549  0.1939 -0.5389 -0.3868
 2152SOL    HW118092   4.454   2.864  17.468 -0.8406  0.5917  0.1837
 2152SOL    HW218093   4.483   2.958  17.578 -0.6136 -0.7142 -0.4677
 2153SOL     OW18094   3.815   3.959   5.514 -0.5271 -0.5017 -0.7005
 2153SOL    HW118095   3.724   3.980   5.533 -0.4538 -0.0062 -0.8797
 2153SOL    HW218096   3.820   3.864   5.507 -0.0377 -0.5946  0.9534
 2154SOL     OW18097   1.214   3.276   0.334 -0.0274  0.0500  0.5478
 2154SOL    HW118098   1.268   3.197   0.330 -0.7906 -0.6608  4.1616
 2154SOL    HW218099   1.257   3.334   0.397 -1.8364  1.9091  0.0425
 2155SOL     OW18100   1.747   3.683  16.211 -0.3752  0.5119  0.5598
 2155SOL    HW118101   1.694   3.762  16.195  1.4136  1.8948  1.4701
 2155SOL    HW218102   1.727   3.655  16.301 -0.4452  0.6306  0.5827
 2156SOL     OW18103   1.851   2.471   5.839 -0.1160  0.0007  0.4819
 2156SOL    HW118104   1.937   2.510   5.823  0.9715 -1.3516  2.9777
 2156SOL    HW218105   1.792   2.544   5.858 -0.0456  0.8317 -2.6258
 2157SOL     OW18106   4.641   4.232   9.126 -0.2645 -0.3214 -0.0493
 2157SOL    HW118107   4.626   4.194   9.213 -2.0014 -2.0293 -1.0647
 2157SOL    HW218108   4.562   4.285   9.119 -1.7128 -2.1967  1.7976
 2158SOL     OW18109   0.645   1.639   2.596  0.1570 -0.2816  0.4306
 2158SOL    HW118110   0.610   1.599   2.516 -0.4114 -1.1798  1.1261
 2158SOL    HW218111   0.601   1.579   2.656 -0.9874 -0.2405 -0.3590
 2159SOL     OW18112   3.374   0.504   2.165  0.3160 -1.0386  0.0100
 2159SOL    HW118113   3.453   0.506   2.111 -0.1568  0.9927 -0.6108
 2159SOL    HW218114   3.390   0.456   2.246 -2.4154 -1.4490  0.3014
 2160SOL     OW18115   2.335   1.315   6.547  0.4921  0.2762 -0.1334
 2160SOL    HW118116   2.393   1.254   6.594 -2.0400 -0.9501  1.4135
 2160SOL    HW218117   2.392   1.373   6.497  1.0582 -1.5696 -1.6409
 2161SOL     OW18118   2.702   4.509   4.966 -0.0980  0.6982  0.4817
 2161SOL    HW118119   2.766   4.470   5.026 -0.5885  0.7397  1.0290
 2161SOL    HW218120   2.638   4.533   5.033 -1.3701  0.4855 -0.6728
 2162SOL     OW18121   2.404   4.716   6.006 -0.0025  0.1364 -0.6526
 2162SOL    HW118122   2.340   4.702   6.077 -0.3711  1.6453 -0.7047
 2162SOL    HW218123   2.481   4.726   6.062 -0.9892 -1.8585  1.0860
 2163SOL     OW18124   0.193   3.673  15.140  1.0272 -0.0849  0.0403
 2163SOL    HW118125   0.258   3.670  15.070 -0.2146  0.5170 -1.1522
 2163SOL    HW218126   0.170   3.581  15.153  0.0881  0.3095  1.1774
 2164SOL     OW18127   0.750   2.771   8.770  0.0911 -0.2182 -0.8274
 2164SOL    HW118128   0.724   2.743   8.858  2.0478  0.9942  0.1622
 2164SOL    HW218129   0.685   2.733   8.712 -0.3013  1.1146 -1.2696
 2165SOL     OW18130   3.546   4.473   3.209 -0.2081 -0.5154  0.5077
 2165SOL    HW118131   3.567   4.489   3.117  0.1460  0.9520  0.8312
 2165SOL    HW218132   3.540   4.378   3.206  4.7063 -0.6964 -3.8025
 2166SOL     OW18133   0.083   3.516   3.416 -0.4111 -0.2850 -0.4531
 2166SOL    HW118134   0.083   3.534   3.322 -0.6859 -0.2323 -0.4441
 2166SOL    HW218135   0.170   3.552   3.433  0.5190 -1.7959 -1.9362
 2167SOL     OW18136   1.742   0.711   9.198  0.1640 -1.2730  0.2368
 2167SOL    HW118137   1.812   0.743   9.142  0.1204 -1.4728  0.0690
 2167SOL    HW218138   1.788   0.658   9.264  0.8419 -2.7331 -1.4089
 2168SOL     OW18139   0.349   0.649  12.182 -0.0963 -0.2732  0.2823
 2168SOL    HW118140   0.326   0.556  12.175  1.2440 -0.6879  1.2241
 2168SOL    HW218141   0.357   0.672  12.090  2.2680 -1.9819  0.0492
 2169SOL     OW18142   0.298   2.014   2.175 -0.1464 -0.0438 -0.5573
 2169SOL    HW118143   0.312   2.106   2.156  0.3761 -0.3735 -1.7672
 2169SOL    HW218144   0.384   2.001   2.215 -0.0205  0.7774 -0.5658
 2170SOL     OW18145   2.470   3.556  17.331  0.7854 -0.3522  0.0481
 2170SOL    HW118146   2.490   3.615  17.403 -2.9388 -0.3406  1.0513
 2170SOL    HW218147   2.523   3.602  17.266  1.1460  0.2167  0.7500
 2171SOL     OW18148   0.659   1.834   6.639  0.4750 -0.3883 -0.2937
 2171SOL    HW118149   0.576   1.799   6.608 -0.0926  1.7128 -1.1610
 2171SOL    HW218150   0.681   1.760   6.695 -1.6187 -1.6230 -1.1022
 2172SOL     OW18151   3.370   2.344   1.818 -0.3344 -0.0695  0.4071
 2172SOL    HW118152   3.404   2.432   1.828 -1.1905  0.1196  1.6431
 2172SOL    HW218153   3.391   2.331   1.725  1.8907 -1.2560  1.0772
 2173SOL     OW18154   2.416   0.385   2.565 -0.6392 -0.0000 -0.4610
 2173SOL    HW118155   2.387   0.409   2.652  0.8097  0.5242 -0.1228
 2173SOL    HW218156   2.424   0.474   2.532  1.2077 -0.2244 -0.6178
 2174SOL     OW18157   4.003   2.477   5.094 -0.1120 -0.1751 -0.0140
 2174SOL    HW118158   4.001   2.480   5.190 -0.5036  0.3210 -0.0359
 2174SOL    HW218159   3.910   2.493   5.082  0.0452 -0.0899 -1.0625
 2175SOL     OW18160   0.683   4.099   4.557 -0.0595 -0.0249  0.3052
 2175SOL    HW118161   0.776   4.080   4.541  0.1388  0.7185  0.5815
 2175SOL    HW218162   0.647   4.077   4.471  1.2782 -0.8689 -0.0372
 2176SOL     OW18163   2.438   3.073   1.440 -0.3557  0.3132 -0.7430
 2176SOL    HW118164   2.470   3.001   1.385  1.5707 -2.0103  3.3815
 2176SOL    HW218165   2.520   3.122   1.434  0.4831 -1.0900 -0.8161
 2177SOL     OW18166   1.378   2.153   5.563  0.6225 -0.6135 -0.1873
 2177SOL    HW118167   1.348   2.146   5.654 -1.0792  0.7580 -0.6486
 2177SOL    HW218168   1.304   2.193   5.518 -0.0933 -1.1516  0.5106
 2178SOL     OW18169   2.959   0.288   9.397  0.1688  0.5913  0.3993
 2178SOL    HW118170   3.037   0.242   9.428  0.2997  1.3130  1.1544
 2178SOL    HW218171   2.912   0.217   9.354 -0.6359  0.2332  1.8736
 2179SOL     OW18172   2.223   3.364  11.029 -0.2636 -0.4402 -0.0910
 2179SOL    HW118173   2.238   3.303  11.101  1.8202 -0.4955 -0.5770
 2179SOL    HW218174   2.290   3.431  11.049  0.7384 -1.6853  0.7509
 2180SOL     OW18175   1.254   4.626   7.965 -0.1867 -0.5773 -0.4051
 2180SOL    HW118176   1.314   4.579   7.906 -0.6383 -1.5740 -0.0729
 2180SOL    HW218177   1.215   4.557   8.018 -0.0516 -2.2521 -2.4686
 2181SOL     OW18178   0.402   1.490   8.521  0.0854  0.2836 -0.0825
 2181SOL    HW118179   0.401   1.398   8.547 -0.6661 -0.0437 -1.2273
 2181SOL    HW218180   0.321   1.518   8.565 -0.2738 -0.6526 -0.1591
 2182SOL     OW18181   1.434   2.676  12.961  0.6311 -0.2302 -0.1912
 2182SOL    HW118182   1.514   2.639  12.999  0.5065 -1.3788 -1.0479
 2182SOL    HW218183   1.373   2.603  12.971  0.3287  0.1886  0.9924
 2183SOL     OW18184   1.380   3.056  14.560  0.1270 -0.0140  0.5081
 2183SOL    HW118185   1.368   3.148  14.582 -0.7587 -0.2969  1.2132
 2183SOL    HW218186   1.474   3.045  14.573 -0.2030 -1.6849  1.5004
 2184SOL     OW18187   1.737   3.568   4.193  0.0253 -0.4329  0.4817
 2184SOL    HW118188   1.832   3.566   4.205  0.0204 -0.6263  0.4873
 2184SOL    HW218189   1.714   3.644   4.248  2.1456  1.3675 -1.1291
 2185SOL     OW18190   4.678   3.516  12.217 -0.0985  0.4146  0.4907
 2185SOL    HW118191   4.644   3.600  12.187 -1.9579 -0.1015  1.1862
 2185SOL    HW218192   4.600   3.462  12.212  0.3200 -0.2646  1.2929
 2186SOL     OW18193   0.154   4.127   5.945 -0.0510  0.2880 -0.1428
 2186SOL    HW118194   0.165   4.217   5.976 -0.8216 -0.1884  1.4925
 2186SOL    HW218195   0.221   4.090   6.003 -0.2297  1.0938  0.5723
 2187SOL     OW18196   0.959   1.584   7.291 -0.1682 -0.1929  0.4759
 2187SOL    HW118197   1.047   1.596   7.328  0.1079 -0.3664 -0.1210
 2187SOL    HW218198   0.906   1.568   7.369 -0.8851  2.1004  0.4691
 2188SOL     OW18199   0.731   3.448  13.292 -0.1060 -0.3221 -0.4736
 2188SOL    HW118200   0.707   3.455  13.384 -0.9030 -1.7542 -0.5665
 2188SOL    HW218201   0.760   3.357  13.285  0.8118 -0.0892  0.3430
 2189SOL     OW18202   4.529   0.478   5.750  0.0043 -0.2952  0.7734
 2189SOL    HW118203   4.536   0.450   5.659  0.2516 -1.1018  1.0449
 2189SOL    HW218204   4.517   0.395   5.796  2.6386 -0.1120  1.7901
 2190SOL     OW18205   3.704   2.202   5.331  0.1254 -0.4659  0.6252
 2190SOL    HW118206   3.658   2.184   5.413 -1.0954  1.7082  0.3947
 2190SOL    HW218207   3.632   2.236   5.278  0.7457  0.9879  0.7146
 2191SOL     OW18208   3.849   3.081  11.251 -0.0321 -0.2116  0.0171
 2191SOL    HW118209   3.841   3.037  11.336 -0.1362  0.3516  0.2999
 2191SOL    HW218210   3.841   3.007  11.190  3.5676 -0.1902 -0.5127
 2192SOL     OW18211   0.773   3.793   2.607 -0.3053  0.2218  0.1813
 2192SOL    HW118212   0.827   3.807   2.685  0.8025 -1.1566 -0.3376
 2192SOL    HW218213   0.754   3.700   2.622  0.7498  0.0838  0.6540
 2193SOL     OW18214   4.062   0.725   2.652  0.5092  0.3503  0.6758
 2193SOL    HW118215   4.149   0.703   2.619 -0.0001  2.3389 -2.0066
 2193SOL    HW218216   4.071   0.816   2.681  0.4320  0.9130 -1.1010
 2194SOL     OW18217   0.505   3.288   3.529  0.3048  0.4696 -0.1254
 2194SOL    HW118218   0.567   3.262   3.461 -0.5305 -1.9922  0.0237
 2194SOL    HW218219   0.549   3.353   3.583  2.1511 -0.4530 -0.5113
 2195SOL     OW18220   4.551   4.723  10.114 -0.0778 -0.3677 -0.4375
 2195SOL    HW118221   4.595   0.061  10.160  0.9986  0.0942 -2.1539
 2195SOL    HW218222   4.624   4.662  10.123  0.4801  0.4855  0.7771
 2196SOL     OW18223   2.130   3.472  10.382 -0.2625 -0.1780  0.1054
 2196SOL    HW118224   2.166   3.530  10.315  0.6114 -0.8001  0.0181
 2196SOL    HW218225   2.128   3.534  10.454 -4.1356 -1.1714  0.8361
 2197SOL     OW18226   0.176   1.286   0.746 -0.5628  0.1143 -0.0523
 2197SOL    HW118227   0.240   1.258   0.812  0.1707  1.3855 -0.2165
 2197SOL    HW218228   0.128   1.205   0.728 -1.7900  0.1252  3.1191
 2198SOL     OW18229   4.035   3.418  15.924  0.1808 -0.3977 -0.4018
 2198SOL    HW118230   4.113   3.425  15.979 -0.1921  1.2652 -0.0758
 2198SOL    HW218231   4.035   3.496  15.869 -2.1071 -0.9680 -1.1960
 2199SOL     OW18232   4.297   0.499   3.686  0.2377  0.0588 -0.0875
 2199SOL    HW118233   4.356   0.559   3.639  1.7299  0.2186  1.9819
 2199SOL    HW218234   4.247   0.563   3.737  0.5525 -0.3982  0.7928
 2200SOL     OW18235   3.959   0.176   3.946  0.1539 -0.5283 -0.5664
 2200SOL    HW118236   4.033   0.218   3.990 -1.2734 -0.9529  2.2347
 2200SOL    HW218237   3.915   0.256   3.915 -0.3713 -0.8574 -0.6643
 2201SOL     OW18238   3.580   1.062   9.838 -0.1221 -0.1615  0.7762
 2201SOL    HW118239   3.613   1.149   9.860  0.2994 -0.5755  1.8168
 2201SOL    HW218240   3.644   1.003   9.879 -0.2845  0.0972  1.3931
 2202SOL     OW18241   2.913   2.156   6.848  0.3589 -0.2514 -0.1150
 2202SOL    HW118242   2.929   2.205   6.929  0.6874  0.5763 -0.6769
 2202SOL    HW218243   2.864   2.082   6.885 -1.2890  1.2583  0.7337
 2203SOL     OW18244   2.954   3.975  13.117 -0.0881  0.0704 -0.0351
 2203SOL    HW118245   3.020   4.029  13.074  1.6829  0.1353  2.7940
 2203SOL    HW218246   3.018   3.911  13.149  0.5130  0.8498  0.3075
 2204SOL     OW18247   3.266   3.688   1.855  0.3232 -0.0054 -0.2250
 2204SOL    HW118248   3.299   3.618   1.799  1.5677 -1.5466  2.4778
 2204SOL    HW218249   3.274   3.768   1.802  1.7445 -0.5019 -0.7617
 2205SOL     OW18250   0.284   1.497   3.513  0.3017  0.7202  0.1305
 2205SOL    HW118251   0.344   1.436   3.555 -1.5779 -2.8089 -2.3323
 2205SOL    HW218252   0.305   1.581   3.554  2.6958 -0.2914  0.9795
 2206SOL     OW18253   2.512   2.878   8.826  0.5740 -0.5001 -0.2714
 2206SOL    HW118254   2.601   2.906   8.847 -0.7740  2.8370  1.0623
 2206SOL    HW218255   2.462   2.940   8.879  0.6164 -1.6581  1.1360
 2207SOL     OW18256   4.452   2.696   6.399 -0.7379  0.3038 -0.2438
 2207SOL    HW118257   4.481   2.685   6.308 -1.5634  0.4055 -0.5212
 2207SOL    HW218258   4.361   2.667   6.398 -0.3578 -0.8743 -0.2649
 2208SOL     OW18259   4.182   2.620   6.625  0.2626  0.2232  0.6293
 2208SOL    HW118260   4.184   2.628   6.720 -0.2055  0.6897  0.5980
 2208SOL    HW218261   4.265   2.578   6.602 -0.1466 -0.1207 -0.2082
 2209SOL     OW18262   1.957   0.648  11.993  0.5422  0.5637  0.4932
 2209SOL    HW118263   1.931   0.682  12.079 -0.0647 -0.0280  0.5415
 2209SOL    HW218264   1.878   0.638  11.940  0.1756 -0.8223  1.3095
 2210SOL     OW18265   3.800   0.847   5.427 -0.3710 -0.8761  0.1854
 2210SOL    HW118266   3.714   0.873   5.396 -0.1485  1.4490  1.5142
 2210SOL    HW218267   3.770   0.767   5.471  0.6682  0.7306  3.8481
 2211SOL     OW18268   2.025   1.931   6.384 -0.1701 -0.1225  0.2062
 2211SOL    HW118269   2.050   1.927   6.477  1.8792 -0.4657 -0.3553
 2211SOL    HW218270   1.965   1.857   6.375 -0.4912  0.0104  1.2024
 2212SOL     OW18271   3.180   4.055   2.395  0.8427  0.6213 -0.2900
 2212SOL    HW118272   3.226   4.055   2.311 -0.0696  2.1365 -0.7838
 2212SOL    HW218273   3.165   3.960   2.404  1.0981  0.6099  0.0087
 2213SOL     OW18274   0.429   1.749   6.553 -0.9701 -0.4823 -0.0594
 2213SOL    HW118275   0.350   1.708   6.591 -1.7797  0.7460 -0.4217
 2213SOL    HW218276   0.411   1.842   6.566  0.3424  0.0298 -2.0231
 2214SOL     OW18277   0.031   0.603   8.148 -0.5214 -0.0513 -0.5521
 2214SOL    HW118278   4.687   0.657   8.135  0.5943  1.6070 -0.4473
 2214SOL    HW218279   0.072   0.608   8.061  0.4184 -1.4586 -0.1851
 2215SOL     OW18280   0.490   1.661   8.342 -0.1308 -0.3506 -0.0194
 2215SOL    HW118281   0.545   1.602   8.291  1.5849  0.6576  0.6365
 2215SOL    HW218282   0.454   1.604   8.410  0.9749 -3.2179 -1.8346
 2216SOL     OW18283   1.625   1.465   5.973 -0.3946 -0.1551 -0.1622
 2216SOL    HW118284   1.649   1.456   5.881 -2.4690 -1.1187 -0.6015
 2216SOL    HW218285   1.585   1.552   5.979  2.0438  0.9371  0.1119
 2217SOL     OW18286   0.325   1.141   7.231  0.3185 -0.1567  0.0014
 2217SOL    HW118287   0.365   1.221   7.266 -1.8185  0.6981  0.4920
 2217SOL    HW218288   0.380   1.133   7.154 -0.2548 -0.4920 -0.3686
 2218SOL     OW18289   4.460   0.081  14.803  0.3348  0.4259  0.4985
 2218SOL    HW118290   4.471   0.092  14.709 -0.0690 -1.7322  0.2007
 2218SOL    HW218291   4.474   4.720  14.801 -0.6128  0.2604  1.5524
 2219SOL     OW18292   3.371   3.306   7.242 -0.2219  0.4332 -0.1494
 2219SOL    HW118293   3.352   3.235   7.182  1.7278 -1.6720  1.7453
 2219SOL    HW218294   3.353   3.384   7.190  0.1458  0.2299 -0.5820
 2220SOL     OW18295   3.172   0.920   2.680 -0.2706  0.0528 -0.2677
 2220SOL    HW118296   3.259   0.953   2.656  0.5715 -0.7819  1.6793
 2220SOL    HW218297   3.143   0.986   2.743 -1.3703 -1.1147  0.4556
 2221SOL     OW18298   3.674   0.490   9.584 -0.5422  0.5083 -0.0116
 2221SOL    HW118299   3.602   0.541   9.622 -0.8123 -0.4458  0.7610
 2221SOL    HW218300   3.740   0.558   9.569  0.4358 -0.0681  1.6375
 2222SOL     OW18301   0.834   4.039   3.104 -0.4445  0.0175  0.2935
 2222SOL    HW118302   0.853   4.073   3.017 -0.6932 -0.9535 -0.1429
 2222SOL    HW218303   0.770   4.104   3.133  1.0306  0.6877  2.0196
 2223SOL     OW18304   4.192   0.707   6.161 -0.7896  0.4204 -1.1015
 2223SOL    HW118305   4.255   0.772   6.128  0.2733  0.7075  1.5025
 2223SOL    HW218306   4.154   0.678   6.078 -0.5362 -0.0537 -1.0554
 2224SOL     OW18307   3.602   1.851   2.972  0.0550 -0.1111  0.2864
 2224SOL    HW118308   3.624   1.928   2.921 -1.1578  0.7416  1.0539
 2224SOL    HW218309   3.529   1.818   2.919  1.3531 -2.5750 -0.0067
 2225SOL     OW18310   1.024   0.026   7.842  0.1264  0.1511  0.0196
 2225SOL    HW118311   1.108   0.056   7.878 -1.2100  4.9823 -0.8293
 2225SOL    HW218312   0.963   0.050   7.912 -1.1042 -0.6761 -0.7695
 2226SOL     OW18313   3.736   2.262   4.421  0.1732  0.3115 -0.3961
 2226SOL    HW118314   3.750   2.343   4.373 -0.1485  1.6509  1.7943
 2226SOL    HW218315   3.762   2.272   4.513 -2.4534  0.5246  0.3229
 2227SOL     OW18316   0.430   3.772   7.724 -0.5473 -0.3349 -0.4657
 2227SOL    HW118317   0.378   3.765   7.804 -2.1969  4.8281 -1.0699
 2227SOL    HW218318   0.393   3.709   7.662 -0.9135  0.4667 -1.0642
 2228SOL     OW18319   0.349   3.674   2.832  0.6702 -0.7228  0.5190
 2228SOL    HW118320   0.408   3.679   2.907  1.1149 -0.5212  0.1482
 2228SOL    HW218321   0.407   3.721   2.773 -0.2189  0.6797  0.7470
 2229SOL     OW18322   2.008   3.355  13.186  0.5622 -0.0512  0.1085
 2229SOL    HW118323   2.096   3.319  13.173  0.3690 -0.3081 -0.4849
 2229SOL    HW218324   2.023   3.437  13.233 -2.2949  1.0564 -0.9405
 2230SOL     OW18325   0.208   1.684  11.151 -0.4899  0.4666  0.1115
 2230SOL    HW118326   0.238   1.668  11.240  0.2677  0.8980 -0.0663
 2230SOL    HW218327   0.156   1.610  11.122 -1.1045  0.5496  1.0225
 2231SOL     OW18328   4.293   0.385  10.930 -0.5340 -0.4424 -0.5863
 2231SOL    HW118329   4.295   0.375  10.835  1.5138  0.4509 -0.6506
 2231SOL    HW218330   4.232   0.318  10.960 -0.4344 -0.8736 -1.3737
 2232SOL     OW18331   0.554   0.203   9.005  0.1368 -0.6670 -0.6812
 2232SOL    HW118332   0.463   0.230   9.017  0.6056  0.3491  0.5660
 2232SOL    HW218333   0.599   0.278   9.043  1.2070 -0.2552 -2.7607
 2233SOL     OW18334   1.731   2.055   6.112 -0.0519 -0.0005  0.4442
 2233SOL    HW118335   1.744   1.966   6.145  0.0872 -0.3085 -0.4419
 2233SOL    HW218336   1.754   2.114   6.184 -0.3726  4.5016 -3.0851
 2234SOL     OW18337   3.969   1.028  11.560 -0.5003  0.6331 -0.3076
 2234SOL    HW118338   4.037   0.960  11.554  0.0883  1.2982 -1.2850
 2234SOL    HW218339   3.924   1.004  11.640 -1.4093  1.0688 -0.6939
 2235SOL     OW18340   2.931   3.014   0.570  0.3460  0.1208 -0.0889
 2235SOL    HW118341   2.983   3.087   0.536  1.0113 -0.2728  0.0943
 2235SOL    HW218342   2.978   2.935   0.545  0.6277  0.3690 -0.3368
 2236SOL     OW18343   3.684   2.099   4.075 -0.5275 -0.3219  0.2237
 2236SOL    HW118344   3.616   2.117   4.140 -1.3672  0.9510 -1.0163
 2236SOL    HW218345   3.698   2.183   4.031  0.0392 -1.5264 -1.9199
 2237SOL     OW18346   0.680   3.628   6.201  0.1806 -0.1010  0.0674
 2237SOL    HW118347   0.588   3.602   6.187  0.2606 -0.5725  0.4441
 2237SOL    HW218348   0.679   3.705   6.143  2.2938  1.2205  1.8050
 2238SOL     OW18349   0.040   0.943   3.183  0.0426 -0.3007 -0.0060
 2238SOL    HW118350   0.069   0.969   3.095  2.5489  0.8313  1.1466
 2238SOL    HW218351   4.704   1.007   3.191  0.8598  0.5420  0.4389
 2239SOL     OW18352   2.753   0.880   9.610  0.5884  0.1624  0.3657
 2239SOL    HW118353   2.838   0.879   9.565 -0.0950  0.6392 -0.9328
 2239SOL    HW218354   2.702   0.825   9.551  2.0513  0.0563 -0.8077
 2240SOL     OW18355   0.155   1.290  17.482  0.5712 -0.5678 -0.9732
 2240SOL    HW118356   0.218   1.250  17.422  0.9986 -3.3528  1.3133
 2240SOL    HW218357   0.201   1.374  17.489  0.6918 -0.5562 -1.9976
 2241SOL     OW18358   2.274   3.016   2.183  0.4539 -0.1110 -0.1486
 2241SOL    HW118359   2.183   3.034   2.207  1.4795  1.1208  2.7498
 2241SOL    HW218360   2.263   3.021   2.088 -2.0963 -1.4915  0.0804
 2242SOL     OW18361   0.128   4.413   4.201 -0.8052 -0.4404  0.3426
 2242SOL    HW118362   0.161   4.404   4.291 -2.3047  0.2961  0.9711
 2242SOL    HW218363   0.187   4.480   4.167  0.5131 -2.1658 -0.7336
 2243SOL     OW18364   0.205   0.349   4.236 -0.2810 -0.4514 -0.2491
 2243SOL    HW118365   0.255   0.270   4.258 -0.2384 -0.4766 -0.4441
 2243SOL    HW218366   0.160   0.369   4.318 -0.3373 -0.7103 -0.2144
 2244SOL     OW18367   2.026   1.962   8.268  0.0681  0.1039 -0.1394
 2244SOL    HW118368   2.049   1.914   8.347 -0.4997  1.1196  0.6284
 2244SOL    HW218369   2.019   1.890   8.205 -1.6294 -0.4332  0.6870
 2245SOL     OW18370   2.828   3.253   0.350  0.0986  0.3723  0.4456
 2245SOL    HW118371   2.767   3.310   0.303 -1.1848 -0.4888  1.0935
 2245SOL    HW218372   2.872   3.308   0.415 -0.3198  0.5013  0.6140
 2246SOL     OW18373   0.743   4.293   9.203  0.4159  0.0173 -0.2036
 2246SOL    HW118374   0.752   4.255   9.116 -0.8635 -2.0880  0.5902
 2246SOL    HW218375   0.664   4.251   9.236  0.2101  0.3236 -0.3127
 2247SOL     OW18376   2.855   0.211  16.311  0.0953 -0.1674  0.6665
 2247SOL    HW118377   2.830   0.192  16.402  2.6065 -0.4261  1.3201
 2247SOL    HW218378   2.874   0.305  16.303 -2.1928  0.4198  2.2897
 2248SOL     OW18379   0.497   2.554   8.374 -0.5493 -0.2751  0.0111
 2248SOL    HW118380   0.549   2.536   8.295 -0.8419 -0.2750 -0.1814
 2248SOL    HW218381   0.442   2.626   8.344  2.5552  2.3412  0.6034
 2249SOL     OW18382   0.223   3.041   3.074  1.4440 -0.7715  0.0473
 2249SOL    HW118383   0.167   3.104   3.029  1.2506 -2.1022 -1.5658
 2249SOL    HW218384   0.251   3.101   3.143 -0.7011 -2.5916  2.4909
 2250SOL     OW18385   1.805   3.016   2.815 -0.2860  0.4412 -0.2716
 2250SOL    HW118386   1.864   2.943   2.799 -2.4949 -1.7663  1.6755
 2250SOL    HW218387   1.729   2.980   2.769 -0.3965  0.6172 -0.2300
 2251SOL     OW18388   4.702   0.491   6.971 -0.2137  0.7630  0.3165
 2251SOL    HW118389   4.673   0.400   6.959 -0.0062  1.0431 -2.3489
 2251SOL    HW218390   0.062   0.479   6.979 -0.2592 -0.3978 -0.7632
 2252SOL     OW18391   3.074   0.998   9.529  0.4818  0.3063  0.1109
 2252SOL    HW118392   3.061   0.908   9.500  0.9353  0.6271 -1.0823
 2252SOL    HW218393   3.137   0.985   9.600 -0.6187 -0.3257  0.9607
 2253SOL     OW18394   2.903   2.582   6.201 -0.0646 -0.1625 -0.3972
 2253SOL    HW118395   2.807   2.587   6.201 -0.1692 -1.9888  0.8069
 2253SOL    HW218396   2.924   2.553   6.112 -2.0843  1.8909 -1.5414
 2254SOL     OW18397   1.867   1.025   3.713 -0.1159 -0.2985 -0.1652
 2254SOL    HW118398   1.867   1.066   3.627  1.7214  0.7717  0.3498
 2254SOL    HW218399   1.782   1.043   3.753  0.1986 -2.0614  1.3335
 2255SOL     OW18400   1.395   2.546   6.756 -0.6398  0.1884 -0.8055
 2255SOL    HW118401   1.372   2.639   6.755 -2.6081 -0.2944  0.1729
 2255SOL    HW218402   1.488   2.562   6.774 -1.1088 -0.9975  2.4391
 2256SOL     OW18403   0.855   1.710   2.299 -0.0482  0.5448 -0.9488
 2256SOL    HW118404   0.882   1.787   2.250  0.8955  0.9540  0.2002
 2256SOL    HW218405   0.854   1.741   2.390  0.2849  1.1820 -1.1617
 2257SOL     OW18406   3.320   2.849   2.642  0.3941 -0.3721 -0.2802
 2257SOL    HW118407   3.278   2.775   2.598  1.3081  0.1620 -2.0781
 2257SOL    HW218408   3.248   2.908   2.662  1.8689  0.8350  1.4441
 2258SOL     OW18409   1.865   1.922   5.076  0.1785 -0.3074  0.0530
 2258SOL    HW118410   1.883   1.874   4.995  3.2183 -1.4073  1.3978
 2258SOL    HW218411   1.793   1.876   5.120  0.1004  1.2638  1.5494
 2259SOL     OW18412   2.660   4.319   9.189  0.6522 -0.0708  0.0086
 2259SOL    HW118413   2.698   4.310   9.102 -0.7476  0.8886 -0.6884
 2259SOL    HW218414   2.686   4.240   9.237 -0.6179  0.9126  2.3316
 2260SOL     OW18415   4.073   0.869  12.702  0.9339  0.3564 -0.5195
 2260SOL    HW118416   4.038   0.788  12.738 -0.8702  0.9890 -0.8569
 2260SOL    HW218417   3.995   0.921  12.681  1.4707  0.6572 -1.8025
 2261SOL     OW18418   1.751   3.795   8.950 -0.0668  0.4618 -0.4398
 2261SOL    HW118419   1.705   3.880   8.946  0.6120  0.8502  0.1481
 2261SOL    HW218420   1.799   3.813   9.030  2.7742  0.6046 -2.1932
 2262SOL     OW18421   3.113   1.687   6.994 -0.3823  0.3231  0.2736
 2262SOL    HW118422   3.026   1.682   6.953 -0.7561  0.6508  1.0146
 2262SOL    HW218423   3.166   1.702   6.916  0.6922 -0.8578  0.7697
 2263SOL     OW18424   3.707   3.134   4.703 -0.2298 -0.1445  0.1059
 2263SOL    HW118425   3.774   3.193   4.668 -1.3607  1.3328  0.4614
 2263SOL    HW218426   3.739   3.130   4.793  1.5989 -1.3072 -0.5908
 2264SOL     OW18427   4.471   2.042   7.857 -0.0771  0.2687  0.1645
 2264SOL    HW118428   4.499   1.984   7.928  0.2630  0.2537  0.0157
 2264SOL    HW218429   4.495   1.991   7.780 -0.3542  0.6742 -0.1866
 2265SOL     OW18430   0.688   0.652   0.326 -0.1573 -0.5231 -0.2263
 2265SOL    HW118431   0.619   0.718   0.332 -0.9420 -1.3388 -0.5194
 2265SOL    HW218432   0.691   0.653   0.231  0.1069 -0.1868 -0.2189
 2266SOL     OW18433   2.936   3.347  15.727 -0.8480 -0.4685 -0.2060
 2266SOL    HW118434   2.981   3.431  15.718  1.1217 -1.4959 -0.0115
 2266SOL    HW218435   2.872   3.350  15.656 -0.5515 -0.0326 -0.4510
 2267SOL     OW18436   0.788   4.249   8.957 -0.0815 -0.0191 -0.3559
 2267SOL    HW118437   0.705   4.288   8.930  0.3141  0.8570 -0.2960
 2267SOL    HW218438   0.777   4.159   8.927  1.3560 -0.2570 -0.2061
 2268SOL     OW18439   0.864   4.697  12.934 -0.3430 -0.6273 -0.0469
 2268SOL    HW118440   0.915   4.659  13.005 -0.5725 -0.1307  0.3758
 2268SOL    HW218441   0.904   4.633  12.874  3.3908  1.2741  0.3822
 2269SOL     OW18442   2.507   1.496   9.901  0.2017  0.2421 -0.0397
 2269SOL    HW118443   2.584   1.536   9.941 -0.1077  1.3322 -0.5091
 2269SOL    HW218444   2.545   1.427   9.847 -0.9475  0.0618 -0.6153
 2270SOL     OW18445   2.640   0.057  14.824  0.5379  0.0677  0.4610
 2270SOL    HW118446   2.696   0.059  14.902  0.5426 -1.1474  0.4813
 2270SOL    HW218447   2.568   0.114  14.851 -0.2555 -0.6452 -0.1508
 2271SOL     OW18448   2.821   1.570  17.232 -1.3521  0.2147 -0.3286
 2271SOL    HW118449   2.820   1.482  17.193  2.1270 -0.1308  0.3548
 2271SOL    HW218450   2.798   1.545  17.321 -0.6461 -0.8449 -0.4420
 2272SOL     OW18451   2.578   2.197   1.221 -0.8880 -0.0437 -0.2418
 2272SOL    HW118452   2.609   2.288   1.225  1.1297 -0.7133 -0.3056
 2272SOL    HW218453   2.596   2.156   1.306 -0.5876  1.2193  0.3130
 2273SOL     OW18454   1.608   2.766   2.269  0.3091  0.2661 -0.1517
 2273SOL    HW118455   1.605   2.729   2.181  0.4104  1.1546 -0.5260
 2273SOL    HW218456   1.519   2.797   2.283  0.6273  1.0359  0.1988
 2274SOL     OW18457   1.730   1.789   6.163  0.0057 -0.3111  0.6159
 2274SOL    HW118458   1.653   1.754   6.118  0.0874  0.6361 -0.2554
 2274SOL    HW218459   1.783   1.712   6.182  2.3553  1.0509 -0.4746
 2275SOL     OW18460   2.601   1.084   8.153  0.1594 -0.2265  0.0663
 2275SOL    HW118461   2.579   1.116   8.240  1.1332  1.9638 -0.4751
 2275SOL    HW218462   2.600   1.165   8.101  0.0617 -0.6398 -0.5740
 2276SOL     OW18463   0.850   2.552   4.972 -0.0594  0.1528  0.2511
 2276SOL    HW118464   0.769   2.511   5.001 -1.2065  3.5831  1.8771
 2276SOL    HW218465   0.812   2.617   4.914  1.5483  1.4891  0.6764
 2277SOL     OW18466   0.335   0.869   7.667 -0.2352  0.0709 -0.1801
 2277SOL    HW118467   0.401   0.826   7.613  0.1163 -1.2383  1.2982
 2277SOL    HW218468   0.255   0.820   7.646 -0.2385 -0.4026  0.9250
 2278SOL     OW18469   3.314   2.823   4.243 -0.3398 -0.2946 -0.6007
 2278SOL    HW118470   3.407   2.815   4.220 -0.2092  1.4905 -0.7244
 2278SOL    HW218471   3.277   2.736   4.257  1.2425 -0.8172  0.3418
 2279SOL     OW18472   3.587   1.942   8.094 -0.2538  0.1089 -0.1721
 2279SOL    HW118473   3.550   1.991   8.167 -2.3162  0.9845 -1.8203
 2279SOL    HW218474   3.675   1.980   8.100 -0.1770 -0.1305  0.2790
 2280SOL     OW18475   2.783   2.078   7.212  0.1390  0.0505  0.2717
 2280SOL    HW118476   2.731   2.022   7.269  0.1778 -0.9168 -0.6413
 2280SOL    HW218477   2.797   2.159   7.261 -2.0398 -0.3235  1.5055
 2281SOL     OW18478   2.021   2.784   6.422  0.4423 -0.0224 -0.6204
 2281SOL    HW118479   2.050   2.714   6.364 -1.7340 -1.3598 -0.0746
 2281SOL    HW218480   2.108   2.822   6.431  0.9593 -0.7830 -2.3843
 2282SOL     OW18481   3.195   1.502   7.195  0.3112  0.6591  0.4655
 2282SOL    HW118482   3.277   1.534   7.231  0.2997  1.4697 -0.2424
 2282SOL    HW218483   3.163   1.573   7.140 -0.0163  0.0509 -0.1257
 2283SOL     OW18484   4.243   4.665   2.590 -0.3470  0.6453  0.1078
 2283SOL    HW118485   4.293   4.608   2.533 -0.2911  0.3186  0.4842
 2283SOL    HW218486   4.158   4.639   2.553  0.1431  0.4773 -0.8849
 2284SOL     OW18487   0.715   3.492   3.172  0.3575  0.2272 -0.0751
 2284SOL    HW118488   0.627   3.464   3.197  0.9056 -1.6525 -0.2486
 2284SOL    HW218489   0.718   3.583   3.201  0.0896 -0.7459  3.0077
 2285SOL     OW18490   2.085   1.341   3.231 -0.0262  0.3681 -0.1697
 2285SOL    HW118491   2.102   1.433   3.209  1.5656  0.0503 -0.2019
 2285SOL    HW218492   1.995   1.339   3.264  0.1680  0.3739  0.3643
 2286SOL     OW18493   2.025   2.789  10.940 -0.2221  0.2585 -0.3465
 2286SOL    HW118494   1.988   2.847  11.006 -1.4953 -0.2993 -0.5780
 2286SOL    HW218495   1.968   2.715  10.961  0.3268 -0.7185 -2.3128
 2287SOL     OW18496   4.385   4.380   3.964 -0.3460  0.3552  0.1050
 2287SOL    HW118497   4.353   4.459   4.006 -0.8210  1.2417 -1.9314
 2287SOL    HW218498   4.479   4.392   3.978  0.4103 -2.0710 -2.8216
 2288SOL     OW18499   1.420   0.977  17.692  0.1517 -0.3537 -0.1699
 2288SOL    HW118500   1.377   1.061  17.678  0.8282 -0.3285 -2.0157
 2288SOL    HW218501   1.494   1.011   0.008 -0.3187 -0.3869  0.5229
 2289SOL     OW18502   1.894   1.775   5.790  0.4332 -0.2899 -0.4810
 2289SOL    HW118503   1.850   1.832   5.853  0.3083  0.6065 -1.3887
 2289SOL    HW218504   1.911   1.839   5.721  0.6013 -0.1400 -0.2990
 2290SOL     OW18505   2.049   0.165  10.884 -0.2785  0.6627  0.2075
 2290SOL    HW118506   2.079   0.075  10.872 -3.2339 -0.2694 -0.0191
 2290SOL    HW218507   2.012   0.157  10.972 -0.1912 -4.2219 -0.1953
 2291SOL     OW18508   3.310   3.579   6.399 -0.0340 -0.7420 -0.2285
 2291SOL    HW118509   3.353   3.541   6.322  0.9836 -0.5545  0.2475
 2291SOL    HW218510   3.378   3.644   6.413 -1.9826  1.7605 -2.4703
 2292SOL     OW18511   0.911   3.236   6.090  0.0347 -0.0827 -0.0386
 2292SOL    HW118512   0.955   3.293   6.153  0.1047  0.4285 -0.5471
 2292SOL    HW218513   0.984   3.223   6.030 -1.1008  3.2968 -2.1700
 2293SOL     OW18514   2.726   4.465  13.665  0.0437 -0.1181 -0.0448
 2293SOL    HW118515   2.650   4.434  13.714 -0.9646  1.0045 -0.9111
 2293SOL    HW218516   2.693   4.443  13.578  2.7974 -1.0477 -0.8626
 2294SOL     OW18517   2.565   0.818  10.196  0.8676 -0.1900  0.1411
 2294SOL    HW118518   2.572   0.754  10.126  0.7721  1.7480 -1.6389
 2294SOL    HW218519   2.517   0.767  10.261  0.5366 -1.1411 -0.8578
 2295SOL     OW18520   2.577   3.535   4.575 -0.1141  0.2820 -0.5888
 2295SOL    HW118521   2.626   3.455   4.557  0.5786  0.5845 -0.0163
 2295SOL    HW218522   2.494   3.526   4.528  0.0905  1.1568 -1.1309
 2296SOL     OW18523   3.777   2.826   2.501 -0.0093 -0.6504 -0.1358
 2296SOL    HW118524   3.826   2.812   2.420  0.1146 -1.6033  0.1100
 2296SOL    HW218525   3.688   2.851   2.475 -0.4504 -1.5569  0.5285
 2297SOL     OW18526   2.786   1.295   4.054 -0.3959 -0.4092  0.5717
 2297SOL    HW118527   2.757   1.282   4.144  0.1060  0.8425  0.9208
 2297SOL    HW218528   2.707   1.269   4.008  0.5158 -1.2348 -0.5269
 2298SOL     OW18529   2.082   0.377   4.472  0.2451  0.5431 -0.4405
 2298SOL    HW118530   2.141   0.311   4.508  0.7009  0.9963 -0.3598
 2298SOL    HW218531   2.084   0.436   4.548 -0.6827 -0.0109  0.0144
 2299SOL     OW18532   3.277   0.953   2.430  0.0980  0.0047  0.0116
 2299SOL    HW118533   3.358   0.951   2.481 -0.2322  1.9225  0.6062
 2299SOL    HW218534   3.310   0.957   2.340 -1.3332 -0.1206 -0.5044
 2300SOL     OW18535   1.764   3.921   2.735  0.5090 -0.3255 -0.2432
 2300SOL    HW118536   1.767   3.932   2.830 -0.2537 -1.1832 -0.1256
 2300SOL    HW218537   1.718   3.837   2.734 -1.8479  0.9510  2.3010
 2301SOL     OW18538   0.693   4.389   7.134 -0.8286  0.0734 -0.2196
 2301SOL    HW118539   0.620   4.433   7.090 -0.2237  0.9423 -0.3511
 2301SOL    HW218540   0.693   4.303   7.091 -0.7405  0.6265 -1.3481
 2302SOL     OW18541   3.471   4.208  17.509  0.1302  0.0743  0.1430
 2302SOL    HW118542   3.439   4.148  17.441  1.5752  0.1239 -0.5821
 2302SOL    HW218543   3.397   4.211  17.569  0.7695 -2.5583  1.1046
 2303SOL     OW18544   2.253   4.254  15.124  0.2700 -0.0801 -0.1540
 2303SOL    HW118545   2.328   4.263  15.066  0.6383  1.9327  0.6301
 2303SOL    HW218546   2.221   4.165  15.112  1.2044 -0.4906  0.4071
 2304SOL     OW18547   3.081   0.368  11.966  0.3474 -0.9224  0.8152
 2304SOL    HW118548   2.994   0.389  11.931  0.5870  0.6372  1.1450
 2304SOL    HW218549   3.130   0.446  11.940 -2.0976  0.0493 -0.9387
 2305SOL     OW18550   3.477   3.725   5.582 -0.9886 -0.0717  0.8208
 2305SOL    HW118551   3.391   3.693   5.557 -0.7200 -0.5171  0.4710
 2305SOL    HW218552   3.501   3.671   5.658  0.0765  0.4897  0.8926
 2306SOL     OW18553   1.365   4.507  15.452  0.4309 -0.2395  0.4884
 2306SOL    HW118554   1.303   4.548  15.512 -1.2025 -0.6743 -0.8914
 2306SOL    HW218555   1.443   4.489  15.505  1.1153  0.5036 -0.2607
 2307SOL     OW18556   3.778   1.709   3.129 -0.6444 -0.0653 -0.3519
 2307SOL    HW118557   3.706   1.734   3.071 -0.2815  0.1802 -0.6988
 2307SOL    HW218558   3.832   1.787   3.117 -0.3250  0.0800  2.1797
 2308SOL     OW18559   4.047   2.606   5.487 -0.6409  0.0487 -0.8618
 2308SOL    HW118560   3.986   2.563   5.427 -1.4078 -0.0492 -0.0064
 2308SOL    HW218561   4.133   2.569   5.469 -0.5690 -0.2584  0.1229
 2309SOL     OW18562   3.361   0.900  16.153  0.7768  0.6841  0.5766
 2309SOL    HW118563   3.265   0.898  16.151  0.8440  0.0661 -1.7515
 2309SOL    HW218564   3.383   0.988  16.184 -1.1448  1.2273  0.3834
 2310SOL     OW18565   0.357   0.775  16.713 -0.3524  0.1239 -0.1949
 2310SOL    HW118566   0.277   0.733  16.743  1.0676 -2.1074  0.4416
 2310SOL    HW218567   0.394   0.813  16.793 -0.7904 -1.4854  0.7637
 2311SOL     OW18568   1.768   0.805   9.772 -0.1819  0.1562  0.1660
 2311SOL    HW118569   1.769   0.900   9.762  3.3594  0.3544  2.2774
 2311SOL    HW218570   1.851   0.776   9.811 -0.1857  0.1047  0.1355
 2312SOL     OW18571   0.139   0.705   2.814 -0.2277  0.0910 -0.3967
 2312SOL    HW118572   0.111   0.648   2.885  2.0515 -2.4648 -1.5491
 2312SOL    HW218573   0.055   0.686   2.771 -0.9486 -0.5386  1.3041
 2313SOL     OW18574   3.547   3.161  14.002  0.4126  0.3431 -0.2364
 2313SOL    HW118575   3.549   3.116  13.918 -0.0584  0.4648 -0.3084
 2313SOL    HW218576   3.463   3.204  13.991  0.5181  0.8696  1.0000
 2314SOL     OW18577   1.721   4.503   4.234 -0.6379  0.1624 -0.5949
 2314SOL    HW118578   1.792   4.441   4.216  0.7517  0.7202  2.9637
 2314SOL    HW218579   1.761   4.544   4.311  0.7953 -2.1328 -0.1069
 2315SOL     OW18580   3.953   1.677  12.133  0.3492 -0.5478  0.0560
 2315SOL    HW118581   3.939   1.720  12.217 -1.3289 -1.8973  0.4634
 2315SOL    HW218582   4.024   1.620  12.161 -0.8598 -0.9517  2.3056
 2316SOL     OW18583   0.652   0.546   8.821  0.0181  0.1828 -0.2531
 2316SOL    HW118584   0.677   0.479   8.756  0.0141  0.3629 -0.4401
 2316SOL    HW218585   0.637   0.493   8.899  2.5703 -0.0123  0.1019
 2317SOL     OW18586   0.474   0.776   0.016  0.2587 -0.2578  0.0998
 2317SOL    HW118587   0.469   0.797  17.658 -2.7541 -0.1916  0.2791
 2317SOL    HW218588   0.567   0.782   0.036 -0.1390  4.5040  0.4459
 2318SOL     OW18589   0.270   0.574   9.137 -0.5800 -0.5679  0.2588
 2318SOL    HW118590   0.207   0.642   9.161  1.0126  1.2316 -0.6459
 2318SOL    HW218591   0.212   0.504   9.106 -0.1919 -0.6645 -0.2465
 2319SOL     OW18592   1.288   4.298   4.061  0.2857  0.2605  0.7527
 2319SOL    HW118593   1.202   4.284   4.099  0.4942 -0.5084  0.9323
 2319SOL    HW218594   1.266   4.378   4.012 -1.8331  1.0200  2.9326
 2320SOL     OW18595   2.144   4.503   7.722 -0.7412 -0.1132 -0.3703
 2320SOL    HW118596   2.132   4.568   7.792  0.3408  0.9725 -1.2022
 2320SOL    HW218597   2.204   4.548   7.664 -0.9040  0.7477  0.1202
 2321SOL     OW18598   0.733   0.335  10.796 -0.2766  0.2326  0.5096
 2321SOL    HW118599   0.747   0.389  10.719 -2.7790 -0.0773 -0.1776
 2321SOL    HW218600   0.763   0.391  10.868  1.3688 -1.0217  0.8085
 2322SOL     OW18601   1.219   3.189   1.165  0.0124  0.2724  0.0984
 2322SOL    HW118602   1.273   3.193   1.244 -1.3316 -0.3164  1.0476
 2322SOL    HW218603   1.189   3.280   1.155  0.6173  0.5640  0.9658
 2323SOL     OW18604   2.989   4.094   4.167 -0.3619  0.2928 -0.3772
 2323SOL    HW118605   3.003   3.999   4.173  0.3265  0.6743  3.6391
 2323SOL    HW218606   2.934   4.090   4.088  0.7790 -0.6275 -1.1224
 2324SOL     OW18607   0.116   4.611   5.114 -0.1511 -0.3804  0.0919
 2324SOL    HW118608   0.059   4.632   5.040  4.0561 -0.3803 -3.1819
 2324SOL    HW218609   0.198   4.651   5.083  0.6909 -1.1152  1.4241
 2325SOL     OW18610   0.033   1.236   1.585 -0.0213  0.3585  0.4818
 2325SOL    HW118611   4.710   1.162   1.565  1.5654 -0.6336 -0.3620
 2325SOL    HW218612   0.045   1.283   1.502 -0.7577 -1.0306 -0.4124
 2326SOL     OW18613   3.121   1.088  10.594  0.3230  0.0090 -0.0742
 2326SOL    HW118614   3.126   1.156  10.662 -0.2080  0.1607 -0.1908
 2326SOL    HW218615   3.150   1.134  10.515 -2.9869  3.6273  0.7931
 2327SOL     OW18616   2.731   0.541  15.375  0.3869  0.3193  0.6539
 2327SOL    HW118617   2.670   0.592  15.428  0.4712  1.5879 -0.4460
 2327SOL    HW218618   2.812   0.589  15.394  0.4293  0.6925 -0.4453
 2328SOL     OW18619   1.394   0.823   8.553 -0.5840 -0.1709 -0.3449
 2328SOL    HW118620   1.404   0.850   8.462  0.2849  0.1737 -0.1426
 2328SOL    HW218621   1.303   0.847   8.572 -0.2164 -0.2085  1.3813
 2329SOL     OW18622   1.809   1.196   1.810 -0.2905 -0.3204 -0.9180
 2329SOL    HW118623   1.764   1.271   1.849 -1.0432 -1.0318 -0.4297
 2329SOL    HW218624   1.869   1.183   1.884 -2.3593  0.6890  0.9594
 2330SOL     OW18625   0.858   2.565   0.525 -0.0157 -0.4822 -0.2796
 2330SOL    HW118626   0.853   2.622   0.602 -1.7632 -0.0799 -0.6804
 2330SOL    HW218627   0.781   2.515   0.551  0.8237 -1.5807  0.0683
 2331SOL     OW18628   2.323   1.894   7.920  0.5810  0.0308  0.4244
 2331SOL    HW118629   2.349   1.871   8.009 -2.3434  1.4228  1.6411
 2331SOL    HW218630   2.266   1.969   7.940 -0.7391 -0.9420  0.3459
 2332SOL     OW18631   4.134   0.280   7.648 -0.2290 -0.7135  0.4087
 2332SOL    HW118632   4.116   0.372   7.629 -0.9548 -0.8036  0.6673
 2332SOL    HW218633   4.054   0.233   7.626 -1.7464  1.5897  1.0965
 2333SOL     OW18634   4.322   2.837   2.435 -0.5771  0.3296  0.5349
 2333SOL    HW118635   4.257   2.812   2.370  0.5978 -1.5684  0.0877
 2333SOL    HW218636   4.357   2.917   2.395  0.4202 -1.2208 -1.6822
 2334SOL     OW18637   3.561   4.329   5.965 -0.4426 -0.0036  0.0047
 2334SOL    HW118638   3.596   4.321   6.054 -1.0516  0.8189  0.3112
 2334SOL    HW218639   3.473   4.295   5.982 -0.8083  1.3729  0.8863
 2335SOL     OW18640   4.484   1.130   7.177  0.2458  0.0250  0.1558
 2335SOL    HW118641   4.578   1.147   7.184  0.3079 -0.6634  0.9052
 2335SOL    HW218642   4.479   1.043   7.138  0.1605  0.6499 -1.2603
 2336SOL     OW18643   4.447   4.542   3.091 -0.0017 -0.5236 -0.4145
 2336SOL    HW118644   4.494   4.499   3.020  2.4222  1.1296  0.1570
 2336SOL    HW218645   4.379   4.587   3.042  0.8531 -0.0193 -1.1498
 2337SOL     OW18646   2.199   2.667  11.139  0.0392  0.4072 -0.2813
 2337SOL    HW118647   2.116   2.643  11.182  0.6634 -1.2326 -0.0133
 2337SOL    HW218648   2.154   2.702  11.062 -0.9040 -0.3624 -0.0803
 2338SOL     OW18649   2.179   2.201  14.466  0.0921  0.1369  0.9190
 2338SOL    HW118650   2.112   2.267  14.449 -1.0896 -1.4096 -0.4599
 2338SOL    HW218651   2.133   2.155  14.537 -0.8133 -0.5684 -0.1129
 2339SOL     OW18652   0.536   1.417   3.222 -0.3432 -0.5595  0.0448
 2339SOL    HW118653   0.546   1.410   3.317 -4.1788  0.8483  0.5234
 2339SOL    HW218654   0.627   1.401   3.197 -0.4789 -0.1996 -0.6659
 2340SOL     OW18655   4.244   1.504  10.126  0.4787 -0.6275 -0.1629
 2340SOL    HW118656   4.317   1.496  10.187  1.0008 -1.6234 -0.9125
 2340SOL    HW218657   4.186   1.564  10.173  1.3650 -2.2233  2.9818
 2341SOL     OW18658   3.267   2.532   7.075  0.7723  0.4072 -0.2141
 2341SOL    HW118659   3.362   2.536   7.080  0.7922  1.5457 -1.4841
 2341SOL    HW218660   3.263   2.452   7.022 -0.2193  0.0912  0.3373
 2342SOL     OW18661   4.503   3.233  14.259  0.1160 -0.1914  0.6702
 2342SOL    HW118662   4.435   3.256  14.322  0.1471  0.3984  0.4870
 2342SOL    HW218663   4.464   3.160  14.211  2.5260 -0.6851 -0.5571
 2343SOL     OW18664   2.728   1.663   3.129 -0.0630  0.1187  0.5000
 2343SOL    HW118665   2.785   1.691   3.057 -1.7563  2.4622  0.0506
 2343SOL    HW218666   2.713   1.751   3.164 -2.6902 -1.1539  2.5983
 2344SOL     OW18667   4.362   1.454  13.932 -0.2896 -0.0112  0.3215
 2344SOL    HW118668   4.360   1.500  13.848 -2.0422 -3.3571 -1.4584
 2344SOL    HW218669   4.386   1.371  13.891 -0.1480  0.8872 -1.4451
 2345SOL     OW18670   3.463   4.330   4.179  0.5000 -0.0470 -0.3064
 2345SOL    HW118671   3.428   4.419   4.191  1.4562  0.3228 -0.2767
 2345SOL    HW218672   3.482   4.315   4.272  3.6912  2.5398 -0.5395
 2346SOL     OW18673   0.513   0.924   7.279 -0.0204 -0.0608 -0.1988
 2346SOL    HW118674   0.578   0.949   7.213 -0.3732 -0.5512 -0.7283
 2346SOL    HW218675   0.445   0.991   7.277  0.3284  0.2079 -3.0905
 2347SOL     OW18676   1.943   2.621  11.305 -0.1314 -0.2107 -0.1970
 2347SOL    HW118677   1.911   2.593  11.220  0.1147 -1.2423  0.0578
 2347SOL    HW218678   1.863   2.631  11.356 -0.0394 -1.0785  0.1089
 2348SOL     OW18679   3.384   4.643  14.263  0.1971  0.1700 -0.5349
 2348SOL    HW118680   3.371   4.641  14.168  1.7380  0.1763 -0.7497
 2348SOL    HW218681   3.452   4.577  14.279  0.2217  0.2976 -0.1162
 2349SOL     OW18682   0.117   0.956  15.122 -0.4214 -0.4059 -0.1778
 2349SOL    HW118683   0.207   0.930  15.102 -0.6666 -1.6166  0.2928
 2349SOL    HW218684   0.073   0.882  15.081 -1.7075 -0.5695  1.5381
 2350SOL     OW18685   4.498   4.378   5.389 -0.9075  0.0537  1.0331
 2350SOL    HW118686   4.432   4.355   5.324  1.0014  1.0090 -1.2128
 2350SOL    HW218687   4.545   4.295   5.382  0.8692  1.2593 -1.2735
 2351SOL     OW18688   1.531   0.730  16.669  0.1617  0.0981  0.0044
 2351SOL    HW118689   1.447   0.752  16.628  0.4443 -1.5358 -1.4749
 2351SOL    HW218690   1.506   0.742  16.760 -0.9302 -0.9917 -0.1445
 2352SOL     OW18691   2.244   0.256  16.846 -0.3070  0.1939  0.8109
 2352SOL    HW118692   2.288   0.341  16.852 -0.7628  0.4559  0.4174
 2352SOL    HW218693   2.325   0.205  16.841  0.0630  1.0313 -1.3347
 2353SOL     OW18694   4.336   2.923  16.275 -0.4385  0.2322 -0.0469
 2353SOL    HW118695   4.420   2.892  16.309 -0.2333  0.8564  0.0253
 2353SOL    HW218696   4.290   2.841  16.258 -0.8330  0.3832  0.2939
 2354SOL     OW18697   2.513   0.735   3.633 -0.0279 -0.2083 -0.1488
 2354SOL    HW118698   2.431   0.778   3.608 -0.6804 -0.7168  1.1397
 2354SOL    HW218699   2.492   0.642   3.637 -0.1268 -0.2354 -1.4680
 2355SOL     OW18700   4.085   2.748   1.719  0.2771  0.0362  0.0423
 2355SOL    HW118701   4.081   2.652   1.720 -2.0191  0.1214 -0.4443
 2355SOL    HW218702   4.177   2.759   1.695  0.4978  1.7706  1.6847
 2356SOL     OW18703   2.734   1.577   7.083  0.3554  0.3828 -0.3775
 2356SOL    HW118704   2.794   1.504   7.097 -0.5561 -0.3586 -0.3644
 2356SOL    HW218705   2.746   1.578   6.988 -2.9687 -0.3739 -0.8163
 2357SOL     OW18706   3.210   4.148   7.811 -0.0524 -0.3177 -0.4255
 2357SOL    HW118707   3.234   4.145   7.904 -0.8850  0.4975 -0.1769
 2357SOL    HW218708   3.295   4.174   7.775  0.0445  0.2966  0.2391
 2358SOL     OW18709   4.109   3.775   8.043  0.0685 -0.5133  0.6347
 2358SOL    HW118710   4.169   3.848   8.023  0.5780 -1.2036 -0.3362
 2358SOL    HW218711   4.174   3.714   8.079  1.7934  1.6716  1.2189
 2359SOL     OW18712   4.486   4.277   4.287  0.1143 -0.3906 -0.4560
 2359SOL    HW118713   4.514   4.342   4.351  0.3747  0.4865 -1.4605
 2359SOL    HW218714   4.393   4.298   4.295  0.3374 -0.1021  1.3553
 2360SOL     OW18715   4.609   3.177  12.273  0.6652  0.6344  0.1181
 2360SOL    HW118716   4.604   3.173  12.369 -3.9709 -0.0378 -0.1581
 2360SOL    HW218717   4.530   3.229  12.257 -0.0725 -0.1952  1.0340
 2361SOL     OW18718   0.820   0.878  17.191 -0.4056  0.1408 -0.2975
 2361SOL    HW118719   0.758   0.875  17.117  0.8117  1.5567 -1.3610
 2361SOL    HW218720   0.775   0.920  17.264  2.0790  0.8617  0.8152
 2362SOL     OW18721   0.358   1.754   2.431  0.8939  0.1193 -0.2213
 2362SOL    HW118722   0.308   1.699   2.492  1.4979 -0.2232 -0.0379
 2362SOL    HW218723   0.285   1.804   2.395 -2.3638 -2.6274  2.5601
 2363SOL     OW18724   1.379   0.139   7.573  0.2448 -0.3294 -0.0370
 2363SOL    HW118725   1.326   0.198   7.627 -0.1726 -0.3660 -0.4092
 2363SOL    HW218726   1.428   0.085   7.635 -1.5414  0.1710  1.8323
 2364SOL     OW18727   3.055   3.605  16.033  0.5615  0.2980  0.2080
 2364SOL    HW118728   3.013   3.683  15.996  0.2749 -0.4591 -1.0721
 2364SOL    HW218729   3.095   3.573  15.952  0.7628  0.8443  0.0929
 2365SOL     OW18730   0.293   2.608  17.282  0.3695 -0.1788 -0.3338
 2365SOL    HW118731   0.365   2.548  17.264  0.9721  1.2432 -2.6346
 2365SOL    HW218732   0.308   2.666  17.207 -2.2302  1.0283  0.0866
 2366SOL     OW18733   3.025   4.564   1.986 -0.0674  0.1892  0.1381
 2366SOL    HW118734   2.994   4.585   2.074  0.1836 -0.5461  0.4030
 2366SOL    HW218735   2.949   4.552   1.929  0.1182 -0.0752 -0.0568
 2367SOL     OW18736   0.561   2.283   7.904 -0.4835 -0.2212 -0.2506
 2367SOL    HW118737   0.572   2.290   7.809  1.5982  0.2458  0.0061
 2367SOL    HW218738   0.535   2.191   7.912 -0.3060 -0.3345 -0.9589
 2368SOL     OW18739   3.903   1.216   3.851  0.2495 -0.2431  0.1761
 2368SOL    HW118740   3.866   1.153   3.789 -1.2574  1.9532 -1.1751
 2368SOL    HW218741   3.928   1.161   3.925  0.1977 -0.2084  0.2199
 2369SOL     OW18742   2.435   1.814   5.537  0.3941 -0.2405  0.3188
 2369SOL    HW118743   2.442   1.879   5.467 -1.3673 -1.4510 -0.9587
 2369SOL    HW218744   2.506   1.756   5.509 -0.8049 -1.8164  0.5633
 2370SOL     OW18745   4.183   2.409   4.641  0.4870 -0.3460 -0.3855
 2370SOL    HW118746   4.276   2.425   4.661 -0.0677  1.6858  0.5582
 2370SOL    HW218747   4.184   2.419   4.546  0.6194 -1.0312 -0.4608
 2371SOL     OW18748   4.441   4.058  17.193 -0.2397 -0.0980 -0.2164
 2371SOL    HW118749   4.513   4.036  17.134 -0.2900 -0.5821 -0.0939
 2371SOL    HW218750   4.426   3.980  17.245 -2.4833 -0.4230 -1.3459
 2372SOL     OW18751   0.632   0.895   6.627  0.5026  0.0176  0.0809
 2372SOL    HW118752   0.668   0.889   6.716 -0.0232 -0.9035  0.2381
 2372SOL    HW218753   0.538   0.904   6.645  0.6937  0.8140  0.6830
 2373SOL     OW18754   1.488   3.656   6.015 -0.0586  0.1851 -0.5698
 2373SOL    HW118755   1.504   3.648   5.920 -1.6740 -1.5965 -0.7032
 2373SOL    HW218756   1.515   3.568   6.041 -2.1268 -0.6159 -1.1539
 2374SOL     OW18757   0.706   3.157   8.766  0.0897 -0.2667  0.7376
 2374SOL    HW118758   0.752   3.128   8.845  1.3562  1.3737  0.6194
 2374SOL    HW218759   0.769   3.130   8.699 -0.9969  0.2959 -0.5080
 2375SOL     OW18760   0.967   0.059  11.930 -0.0921 -0.0410 -0.2673
 2375SOL    HW118761   0.916   0.123  11.979 -0.9011 -1.5052  0.7852
 2375SOL    HW218762   0.977   4.718  11.989  1.8843 -0.1424 -0.7130
 2376SOL     OW18763   4.488   4.045   4.154  0.4690 -0.0953  0.1807
 2376SOL    HW118764   4.484   4.138   4.174  0.6076 -0.1514  0.4728
 2376SOL    HW218765   4.397   4.027   4.129  0.8324 -0.5269 -0.8229
 2377SOL     OW18766   4.122   1.273   4.267  0.0732  0.2380  0.1294
 2377SOL    HW118767   4.106   1.208   4.199  0.0689 -0.8260  1.1495
 2377SOL    HW218768   4.154   1.348   4.219 -0.7380 -0.7734 -1.9762
 2378SOL     OW18769   2.672   2.775   2.083 -0.1794  0.3880 -0.1779
 2378SOL    HW118770   2.593   2.746   2.128 -1.2611  0.3203 -2.1619
 2378SOL    HW218771   2.640   2.817   2.003  1.5937  0.8497 -0.6597
 2379SOL     OW18772   2.012   0.371   1.287 -0.2993 -0.3984 -0.0014
 2379SOL    HW118773   1.924   0.332   1.290 -0.4046 -0.0615  1.6490
 2379SOL    HW218774   2.019   0.426   1.365 -0.6156  1.6822 -1.4337
 2380SOL     OW18775   2.257   0.404   8.834 -0.1649  0.3444 -0.2389
 2380SOL    HW118776   2.273   0.438   8.746 -0.1473 -0.5687 -0.5875
 2380SOL    HW218777   2.165   0.379   8.826 -0.1643  0.1623  0.3459
 2381SOL     OW18778   3.485   1.434   4.298  0.2673  0.1977 -0.3784
 2381SOL    HW118779   3.534   1.498   4.246  1.1425  0.3144  0.5855
 2381SOL    HW218780   3.404   1.481   4.316  0.0832 -0.0492 -0.5691
 2382SOL     OW18781   3.153   3.591   3.728  0.6771 -0.0483  0.1832
 2382SOL    HW118782   3.169   3.684   3.710  2.9966 -0.5287 -0.2444
 2382SOL    HW218783   3.157   3.552   3.641  0.6421  0.9747 -0.2774
 2383SOL     OW18784   2.820   3.492   9.948 -0.7109 -0.1363 -0.4029
 2383SOL    HW118785   2.755   3.549   9.907 -0.2204 -0.3902 -1.5316
 2383SOL    HW218786   2.763   3.423   9.981 -1.1995 -1.0852 -3.2351
 2384SOL     OW18787   4.137   2.784   5.277  0.4888  0.0625  0.3969
 2384SOL    HW118788   4.167   2.707   5.327 -1.2139 -0.1669  1.0663
 2384SOL    HW218789   4.213   2.838   5.300  0.7888  0.0567 -0.5784
 2385SOL     OW18790   0.336   2.840   2.265  0.6655 -0.3931 -0.3832
 2385SOL    HW118791   0.290   2.756   2.270  0.6892 -0.3328  0.7647
 2385SOL    HW218792   0.267   2.905   2.275  0.9787  0.2175 -2.1811
 2386SOL     OW18793   1.212   2.898   9.794  0.3042 -0.0659  0.1927
 2386SOL    HW118794   1.293   2.860   9.759 -1.0201 -0.8463 -2.0274
 2386SOL    HW218795   1.178   2.925   9.709 -0.2402 -3.4893 -0.6684
 2387SOL     OW18796   1.104   1.273  14.050  0.2074 -0.5825 -0.3097
 2387SOL    HW118797   1.111   1.369  14.058 -1.1458 -0.3124 -2.2839
 2387SOL    HW218798   1.011   1.257  14.064 -0.6249  3.4400 -0.9554
 2388SOL     OW18799   2.360   1.988   2.322 -0.0233 -0.2324 -0.9068
 2388SOL    HW118800   2.365   1.901   2.361 -3.0993 -0.0847 -0.2244
 2388SOL    HW218801   2.388   2.043   2.395  0.5381 -0.5264 -0.8997
 2389SOL     OW18802   1.721   3.488  14.180 -0.0200 -0.0694  0.2911
 2389SOL    HW118803   1.718   3.491  14.084  1.9770 -0.3960  0.2082
 2389SOL    HW218804   1.815   3.501  14.195 -0.1822 -2.2636  3.2661
 2390SOL     OW18805   3.750   1.719   4.996 -0.1506 -0.5197  0.3052
 2390SOL    HW118806   3.788   1.779   5.060  1.4579  1.2125 -2.2752
 2390SOL    HW218807   3.755   1.780   4.923 -0.0223 -0.1279  0.6400
 2391SOL     OW18808   1.937   4.054   8.410  0.0673 -0.2160 -0.3578
 2391SOL    HW118809   2.016   4.100   8.438  1.1726 -2.6650  0.6128
 2391SOL    HW218810   1.976   3.982   8.360  0.6892 -0.3996  0.3839
 2392SOL     OW18811   1.110   2.372   2.170 -0.4916  0.0114 -0.1065
 2392SOL    HW118812   1.071   2.363   2.083 -0.5161  0.1677 -0.1120
 2392SOL    HW218813   1.052   2.313   2.218  0.6282 -1.7757 -0.9294
 2393SOL     OW18814   3.869   3.883   3.390 -0.2523 -0.3068 -0.0349
 2393SOL    HW118815   3.906   3.961   3.351 -1.8373  0.0468 -0.8221
 2393SOL    HW218816   3.785   3.875   3.346 -0.0296 -0.4443 -0.4351
 2394SOL     OW18817   2.317   0.623   7.603  0.5089  0.3922 -0.0474
 2394SOL    HW118818   2.263   0.545   7.616 -0.3951  1.0233 -0.0724
 2394SOL    HW218819   2.258   0.677   7.551  0.3672  0.7242  0.4587
 2395SOL     OW18820   3.758   3.982   6.915 -0.2270  0.3200  0.0089
 2395SOL    HW118821   3.677   4.016   6.878 -0.3025 -1.0816 -1.0936
 2395SOL    HW218822   3.786   3.919   6.849  0.0626  1.2120 -0.7202
 2396SOL     OW18823   1.182   1.494   1.924  0.2196  0.1958 -0.2557
 2396SOL    HW118824   1.242   1.438   1.973  2.7067  1.5562 -1.7400
 2396SOL    HW218825   1.141   1.548   1.992  1.2664 -1.4202  1.6532
 2397SOL     OW18826   1.585   3.217  11.167  0.7115  1.0319 -0.2996
 2397SOL    HW118827   1.578   3.157  11.241 -0.4779  0.1702 -1.1216
 2397SOL    HW218828   1.680   3.228  11.170  0.9808 -1.6459  0.4565
 2398SOL     OW18829   1.193   4.710   6.640 -0.3005  0.1253  0.3423
 2398SOL    HW118830   1.267   0.026   6.604 -0.2504 -1.1512 -1.2989
 2398SOL    HW218831   1.116   0.013   6.597 -1.3602 -0.7023  1.5684
 2399SOL     OW18832   1.451   2.054   4.283  0.3548 -0.7239  0.2878
 2399SOL    HW118833   1.532   2.083   4.241  0.8642 -1.3793  0.8282
 2399SOL    HW218834   1.476   1.991   4.350  0.4399 -1.3170 -0.3051
 2400SOL     OW18835   1.560   1.081  16.968  0.1188  0.4259  0.1592
 2400SOL    HW118836   1.613   1.149  16.927 -1.8896  1.9852  0.1504
 2400SOL    HW218837   1.470   1.108  16.947  0.0861  2.9630  3.5285
 2401SOL     OW18838   3.618   1.562   2.921  0.1693 -0.3034 -0.2280
 2401SOL    HW118839   3.540   1.609   2.893 -0.3115 -1.2694 -0.4972
 2401SOL    HW218840   3.685   1.575   2.854  1.2775 -0.3083  0.8741
 2402SOL     OW18841   3.118   4.342  10.854 -0.3823 -0.2109  0.0395
 2402SOL    HW118842   3.059   4.277  10.893  0.3410 -0.9493 -0.0754
 2402SOL    HW218843   3.048   4.404  10.835  1.3261  1.6717 -0.0560
 2403SOL     OW18844   3.724   3.079  16.533  0.0825  0.0860 -0.6670
 2403SOL    HW118845   3.645   3.121  16.566 -1.0258 -2.4711 -0.0909
 2403SOL    HW218846   3.744   3.150  16.471 -1.2479 -0.6205 -1.9072
 2404SOL     OW18847   2.483   3.615  15.139  0.6842 -0.2112 -0.1747
 2404SOL    HW118848   2.500   3.564  15.059  0.1265  0.3121 -0.6319
 2404SOL    HW218849   2.390   3.635  15.146 -0.0283 -2.9259 -1.8903
 2405SOL     OW18850   3.896   3.299   4.612 -0.1586 -0.0593  0.0252
 2405SOL    HW118851   3.883   3.339   4.526 -0.5685 -2.4449 -1.0234
 2405SOL    HW218852   3.991   3.299   4.611 -0.1805 -0.4392 -2.2385
 2406SOL     OW18853   3.151   1.006   4.418  0.4547  0.1963  0.0363
 2406SOL    HW118854   3.227   0.983   4.471  0.2385 -1.4820 -0.3913
 2406SOL    HW218855   3.187   1.080   4.369  1.8344  0.0524  0.8289
 2407SOL     OW18856   0.512   4.649   8.233  0.6263  0.0397  0.3128
 2407SOL    HW118857   0.504   4.559   8.265 -1.0036 -0.0807 -0.4238
 2407SOL    HW218858   0.446   4.699   8.281  0.3742  1.6389 -1.6835
 2408SOL     OW18859   1.692   1.484   5.707 -0.4544 -0.0290 -0.3380
 2408SOL    HW118860   1.698   1.565   5.656 -2.2249  0.8987  0.9155
 2408SOL    HW218861   1.779   1.452   5.686 -1.1825 -0.9052 -1.9829
 2409SOL     OW18862   0.893   2.889   5.513 -0.1639  0.7221  0.0945
 2409SOL    HW118863   0.877   2.852   5.600 -2.8872  1.0460 -0.2711
 2409SOL    HW218864   0.860   2.976   5.537  0.1703  0.7826  0.3313
 2410SOL     OW18865   2.652   3.076   7.833  0.2312  0.0525  0.1285
 2410SOL    HW118866   2.621   2.988   7.812 -0.7520  0.9098 -2.1037
 2410SOL    HW218867   2.687   3.070   7.921 -1.7824  0.1455  0.9325
 2411SOL     OW18868   2.374   0.482   7.012  0.7174 -0.0614 -0.0590
 2411SOL    HW118869   2.425   0.404   7.036 -1.9747 -1.7954 -0.0119
 2411SOL    HW218870   2.291   0.442   7.036  1.7304 -0.7695  2.3081
 2412SOL     OW18871   2.084   2.949   8.732  0.9204  0.2179  0.0077
 2412SOL    HW118872   2.003   2.910   8.766 -0.2351  2.0974 -0.5664
 2412SOL    HW218873   2.060   2.980   8.645 -1.1554 -0.7553  0.2184
 2413SOL     OW18874   2.153   2.279   3.602 -0.6832  0.3078  0.3762
 2413SOL    HW118875   2.169   2.368   3.572  0.6894 -1.0209 -2.8944
 2413SOL    HW218876   2.244   2.249   3.607 -1.7144 -2.7795  0.8849
 2414SOL     OW18877   2.358   4.634   5.557  0.0431  0.2440  0.0277
 2414SOL    HW118878   2.424   4.609   5.621 -2.7296 -1.4962  2.1736
 2414SOL    HW218879   2.318   4.549   5.538  2.9448 -0.9226 -0.8999
 2415SOL     OW18880   1.848   1.671   6.435  0.2878  0.1221 -0.1783
 2415SOL    HW118881   1.858   1.664   6.530  1.5271  2.3357 -0.1520
 2415SOL    HW218882   1.843   1.582   6.399 -3.5780 -0.5055  1.9462
 2416SOL     OW18883   0.436   0.514  12.401  0.4863  0.0610 -0.7775
 2416SOL    HW118884   0.514   0.555  12.365  0.8675  0.2691  0.2659
 2416SOL    HW218885   0.377   0.515  12.326  0.9432  0.5654 -1.1325
 2417SOL     OW18886   4.181   1.594   7.902 -0.5302 -0.2088 -0.4293
 2417SOL    HW118887   4.135   1.519   7.864  0.0504 -0.8462  0.1325
 2417SOL    HW218888   4.158   1.601   7.994  0.0034 -0.7033 -0.2580
 2418SOL     OW18889   3.878   2.737  15.620 -0.4895 -0.6742  0.1776
 2418SOL    HW118890   3.810   2.702  15.677 -0.6357 -0.6936 -0.0051
 2418SOL    HW218891   3.891   2.823  15.661  1.9656 -0.5511 -0.8253
 2419SOL     OW18892   0.605   2.369   7.633 -0.6758 -0.0333 -0.2203
 2419SOL    HW118893   0.542   2.358   7.561 -0.1465  2.3697 -1.0503
 2419SOL    HW218894   0.588   2.463   7.645 -0.9366 -0.2125  0.8329
 2420SOL     OW18895   3.362   1.233   6.890  0.1503 -0.0617  0.4087
 2420SOL    HW118896   3.450   1.266   6.907  0.4364 -1.6043  1.8881
 2420SOL    HW218897   3.314   1.301   6.843  1.9797  0.8730 -0.1280
 2421SOL     OW18898   2.794   2.503   5.339  0.0422 -0.2653  0.1019
 2421SOL    HW118899   2.704   2.528   5.360 -0.1151 -0.0607 -0.8245
 2421SOL    HW218900   2.834   2.585   5.313 -0.8808  0.5509  1.2333
 2422SOL     OW18901   0.931   0.201   8.839 -0.3941  0.5455 -0.2407
 2422SOL    HW118902   0.881   0.229   8.762 -1.7025 -1.8370 -0.2366
 2422SOL    HW218903   1.017   0.217   8.801 -0.3608  0.3102 -0.2628
 2423SOL     OW18904   1.423   4.172  12.957  0.2119 -0.3034  0.4897
 2423SOL    HW118905   1.368   4.157  12.880 -1.4209  1.3497  1.3382
 2423SOL    HW218906   1.498   4.209  12.911 -0.5172 -1.2741 -1.4868
 2424SOL     OW18907   1.491   1.441  17.449 -0.5780  0.6017  0.3855
 2424SOL    HW118908   1.582   1.413  17.440 -0.5882 -0.1505  2.6685
 2424SOL    HW218909   1.481   1.475  17.538  1.3141  1.0893  0.4183
 2425SOL     OW18910   3.624   1.659   1.210 -0.6940  0.1532 -0.4214
 2425SOL    HW118911   3.591   1.588   1.264 -1.2365  1.6330  1.1958
 2425SOL    HW218912   3.548   1.710   1.180 -0.3253  1.3173  0.6158
 2426SOL     OW18913   3.763   0.260   4.560 -0.3759  0.2899 -0.1955
 2426SOL    HW118914   3.753   0.283   4.653  1.5050  1.2696 -0.2375
 2426SOL    HW218915   3.693   0.198   4.542  1.5579 -1.5109 -1.4895
 2427SOL     OW18916   2.307   1.048   4.138 -0.4265  0.2976 -0.4623
 2427SOL    HW118917   2.251   1.055   4.215 -1.2447 -0.3440 -0.9905
 2427SOL    HW218918   2.327   1.140   4.121  1.4403 -0.0247 -0.0064
 2428SOL     OW18919   0.364   3.955   7.177  0.9877  0.2960 -0.6318
 2428SOL    HW118920   0.399   4.044   7.169 -0.7134  0.8915 -1.6736
 2428SOL    HW218921   0.359   3.954   7.272  0.3081 -0.6702 -0.6800
 2429SOL     OW18922   4.129   3.582   9.180  0.3580  0.3929  0.3951
 2429SOL    HW118923   4.145   3.632   9.100  0.0149  1.1091  0.7659
 2429SOL    HW218924   4.035   3.566   9.175 -0.1964  2.5893  3.6765
 2430SOL     OW18925   4.093   2.758   4.413  0.6607 -0.3036 -0.1026
 2430SOL    HW118926   4.071   2.772   4.505  1.9931  1.3166 -0.0245
 2430SOL    HW218927   4.170   2.814   4.399  1.5331 -1.7819 -1.3347
 2431SOL     OW18928   3.316   0.091   8.217 -0.4052 -0.0566  0.4029
 2431SOL    HW118929   3.279   0.075   8.304  1.5350 -0.2231  1.2158
 2431SOL    HW218930   3.252   0.100   8.147  0.5603 -0.9823 -0.5922
 2432SOL     OW18931   0.786   1.151   7.841  0.3025  0.5793 -0.5049
 2432SOL    HW118932   0.869   1.109   7.820  1.4231  1.7080  1.7112
 2432SOL    HW218933   0.805   1.215   7.910 -0.2315  0.8455 -0.6080
 2433SOL     OW18934   1.634   2.784   3.480  0.4883 -0.1574 -0.0619
 2433SOL    HW118935   1.568   2.843   3.517  1.8086  1.1020  0.3179
 2433SOL    HW218936   1.677   2.851   3.426  1.4759 -1.6250 -1.0880
 2434SOL     OW18937   1.570   0.929   5.053  0.4103  0.2242 -0.2425
 2434SOL    HW118938   1.553   0.847   5.100  3.0347  0.2409  0.7583
 2434SOL    HW218939   1.486   0.973   5.066  1.4611  1.6649  1.6294
 2435SOL     OW18940   4.498   3.194   2.744 -0.4578  0.1246  0.4191
 2435SOL    HW118941   4.403   3.205   2.749 -0.2139  1.3648  2.5675
 2435SOL    HW218942   4.525   3.285   2.759 -0.8288  0.2065  0.6080
 2436SOL     OW18943   3.860   4.555   9.152 -0.0661  0.0705 -0.2133
 2436SOL    HW118944   3.948   4.589   9.168 -0.9679  0.6785  3.5244
 2436SOL    HW218945   3.853   4.572   9.058 -1.8093  0.7953  0.0422
 2437SOL     OW18946   1.638   1.624   3.557  0.4211  0.5015  0.2698
 2437SOL    HW118947   1.563   1.680   3.535  0.7558  0.8799  0.0952
 2437SOL    HW218948   1.589   1.545   3.580 -0.0588  0.2001 -1.8104
 2438SOL     OW18949   0.068   2.007   6.757 -0.8532  0.4234 -0.2894
 2438SOL    HW118950   4.716   1.967   6.750 -0.7648  0.0253  0.7679
 2438SOL    HW218951   0.065   2.035   6.849  1.8931  2.0382 -0.6979
 2439SOL     OW18952   3.321   0.940  14.731 -0.2665 -0.0777 -0.3642
 2439SOL    HW118953   3.370   0.885  14.791  0.4931 -1.2073 -2.0378
 2439SOL    HW218954   3.394   0.965  14.675 -0.5503 -0.2849 -0.8185
 2440SOL     OW18955   1.012   4.226   2.887  0.2858 -0.2448  0.6645
 2440SOL    HW118956   1.069   4.300   2.869  0.6215 -0.9153 -1.1116
 2440SOL    HW218957   0.928   4.270   2.901  0.5635  0.1260  1.1784
 2441SOL     OW18958   0.738   3.877   6.677  0.4853  1.0570  0.7982
 2441SOL    HW118959   0.698   3.838   6.599  0.5969  0.4464  1.0433
 2441SOL    HW218960   0.830   3.890   6.655  0.8142 -0.0576  1.4903
 2442SOL     OW18961   4.301   2.964   4.293 -0.2307  0.6547  0.0101
 2442SOL    HW118962   4.389   2.930   4.307 -2.2888 -4.4379  0.3912
 2442SOL    HW218963   4.306   3.008   4.208  0.3950  1.6777  0.5665
 2443SOL     OW18964   0.669   3.348   6.083 -0.7958  0.0652  0.3172
 2443SOL    HW118965   0.686   3.440   6.107  2.4016 -0.2855 -0.6346
 2443SOL    HW218966   0.755   3.306   6.082 -0.0683  1.5760 -0.6345
 2444SOL     OW18967   3.134   0.296   7.424  0.3555 -0.4307  1.1511
 2444SOL    HW118968   3.219   0.307   7.381 -0.0815  0.4435  0.5239
 2444SOL    HW218969   3.086   0.294   7.341 -0.6164  0.8324  1.6920
 2445SOL     OW18970   4.539   1.529   5.237  0.3358  0.2277  0.2166
 2445SOL    HW118971   4.634   1.520   5.230  0.1816 -0.7375 -0.5573
 2445SOL    HW218972   4.518   1.609   5.189  0.3235  1.5595  2.4395
 2446SOL     OW18973   4.676   1.572   8.450 -0.0314  0.1004  0.4354
 2446SOL    HW118974   4.717   1.574   8.364 -2.3662 -0.0354 -0.6567
 2446SOL    HW218975   4.589   1.554   8.416 -0.3395 -1.0786  1.8894
 2447SOL     OW18976   1.506   3.563   7.059 -0.0470  0.2803  0.2850
 2447SOL    HW118977   1.456   3.576   7.139 -0.7245  3.2946 -0.6416
 2447SOL    HW218978   1.542   3.480   7.089 -0.0603  0.4212  0.6892
 2448SOL     OW18979   3.661   3.589   4.505  0.1916  0.5096 -0.3217
 2448SOL    HW118980   3.732   3.647   4.533  0.0173  0.7034 -0.2893
 2448SOL    HW218981   3.710   3.543   4.436 -0.8398 -2.6924  1.0889
 2449SOL     OW18982   3.742   4.727   7.723 -0.5001  0.2912  0.3296
 2449SOL    HW118983   3.820   0.021   7.676 -0.3169 -0.4300  0.2078
 2449SOL    HW218984   3.699   4.676   7.655 -0.5407 -0.5723  0.9993
 2450SOL     OW18985   1.939   1.223   7.897  0.1346 -0.1386  0.0153
 2450SOL    HW118986   1.946   1.207   7.991  0.4285  0.8282  0.1502
 2450SOL    HW218987   2.030   1.240   7.875 -0.2312 -1.5859 -2.6165
 2451SOL     OW18988   2.779   0.279  10.701  0.1865  0.5350 -0.1650
 2451SOL    HW118989   2.747   0.319  10.620 -1.5278 -0.1934  0.1581
 2451SOL    HW218990   2.701   0.293  10.755 -0.0741  0.1695 -0.4479
 2452SOL     OW18991   0.071   3.864   4.492  0.6277  0.3656  0.2772
 2452SOL    HW118992   4.732   3.803   4.486  1.6750 -0.8013 -0.5533
 2452SOL    HW218993   0.031   3.945   4.526 -1.0452 -0.0880 -0.6342
 2453SOL     OW18994   2.932   4.287  13.692  0.0085 -0.4056 -0.9372
 2453SOL    HW118995   2.875   4.364  13.687 -0.0752 -0.2659  2.6383
 2453SOL    HW218996   2.952   4.289  13.785 -3.4339 -1.0839 -0.1787
 2454SOL     OW18997   1.512   1.534   2.396 -0.2644 -0.6282 -0.0509
 2454SOL    HW118998   1.530   1.449   2.434 -0.1630 -0.8169 -0.5127
 2454SOL    HW218999   1.593   1.585   2.396 -1.0703  0.6566  0.9555
 2455SOL     OW19000   1.291   2.265   5.932  0.5543  0.3318 -0.1656
 2455SOL    HW119001   1.281   2.210   6.010  0.1751  1.3835  0.5256
 2455SOL    HW219002   1.259   2.200   5.869  4.0099 -1.1384 -0.4126
 2456SOL     OW19003   4.331   4.194  17.406 -0.1541 -0.5016  0.0883
 2456SOL    HW119004   4.382   4.171  17.328 -2.5342 -1.4042 -1.2131
 2456SOL    HW219005   4.288   4.115  17.440 -0.6445 -1.0011 -1.6865
 2457SOL     OW19006   3.827   0.968  12.610 -0.7383 -0.2080  0.5318
 2457SOL    HW119007   3.796   1.055  12.584  1.9618  0.7803  0.5761
 2457SOL    HW219008   3.747   0.919  12.630 -0.6869  0.0408  1.3437
 2458SOL     OW19009   3.348   1.174  10.401  0.2335  0.2583  0.2489
 2458SOL    HW119010   3.356   1.079  10.393 -1.3615  0.3487 -1.9941
 2458SOL    HW219011   3.399   1.179  10.483  2.7794  0.4898 -1.3527
 2459SOL     OW19012   1.908   0.102   1.377 -0.2023 -0.0681  0.3795
 2459SOL    HW119013   1.958   0.023   1.359  0.6818  0.4336  0.6374
 2459SOL    HW219014   1.818   0.072   1.364 -0.7599  0.9565  1.8247
 2460SOL     OW19015   1.304   3.727   0.959  0.1250  0.8267  0.2827
 2460SOL    HW119016   1.361   3.651   0.964 -1.2856 -0.2479 -0.0898
 2460SOL    HW219017   1.221   3.699   0.921  0.1240  1.1478  0.0456
 2461SOL     OW19018   0.778   1.252   2.105 -1.0854 -0.4082  0.2504
 2461SOL    HW119019   0.692   1.293   2.094 -0.7917  0.0935 -0.1694
 2461SOL    HW219020   0.815   1.330   2.146 -1.4321  0.3326 -0.8240
 2462SOL     OW19021   4.435   0.550   4.360 -0.4573 -0.5415 -0.1143
 2462SOL    HW119022   4.531   0.548   4.365 -0.4158 -0.6433 -1.0126
 2462SOL    HW219023   4.418   0.644   4.354  0.0186 -0.5234 -1.1301
 2463SOL     OW19024   4.642   2.047   1.624  0.0260  0.2981  0.3553
 2463SOL    HW119025   4.548   2.054   1.607  0.1301 -1.5852 -1.0122
 2463SOL    HW219026   4.636   1.972   1.684  0.0474  0.8069  0.9848
 2464SOL     OW19027   4.714   2.861   5.055  0.1116  0.0802 -0.1163
 2464SOL    HW119028   4.645   2.898   5.110  0.7692  0.9869  0.1180
 2464SOL    HW219029   4.692   2.769   5.066  0.6755 -0.3282 -2.4522
 2465SOL     OW19030   1.374   4.069   7.554  0.1931 -0.3775 -0.1307
 2465SOL    HW119031   1.353   4.149   7.603  1.1711 -1.0487  1.3756
 2465SOL    HW219032   1.288   4.037   7.526 -1.9001  2.9245  2.5314
 2466SOL     OW19033   0.040   3.913  10.632 -0.2957  0.2256 -0.4578
 2466SOL    HW119034   0.079   3.840  10.584  1.0551 -0.9310  2.4492
 2466SOL    HW219035   0.064   3.991  10.583  0.1745 -0.3728 -1.1762
 2467SOL     OW19036   4.381   1.676  13.273  0.3466 -0.5772 -0.2295
 2467SOL    HW119037   4.343   1.682  13.361  0.7706 -0.5456 -0.0510
 2467SOL    HW219038   4.299   1.670  13.223  0.8681  0.7048 -1.2258
 2468SOL     OW19039   4.436   0.960  12.490 -0.0655 -0.1093  0.3704
 2468SOL    HW119040   4.492   0.921  12.558 -0.0290 -0.5069  0.1106
 2468SOL    HW219041   4.454   1.054  12.493  0.9364 -0.3218  0.9563
 2469SOL     OW19042   2.463   4.214   3.781  0.2757 -0.0167 -0.3167
 2469SOL    HW119043   2.513   4.135   3.764  1.3978  0.8896 -1.1815
 2469SOL    HW219044   2.407   4.173   3.848  0.9734  0.4266  0.5403
 2470SOL     OW19045   3.797   4.331   2.114  0.4136  0.2475  0.4943
 2470SOL    HW119046   3.810   4.240   2.141  0.7878 -0.1886 -1.1902
 2470SOL    HW219047   3.733   4.355   2.181 -0.0883 -0.2844  0.2027
 2471SOL     OW19048   0.171   2.472   0.643 -0.4936 -0.5174 -0.3417
 2471SOL    HW119049   0.107   2.537   0.614 -0.9129 -0.4886  0.6466
 2471SOL    HW219050   0.113   2.399   0.664 -2.3667  1.8072  2.4942
 2472SOL     OW19051   4.733   3.908   8.805 -0.6366 -0.1056 -0.4078
 2472SOL    HW119052   4.686   3.951   8.876 -1.9696 -0.0667 -1.3061
 2472SOL    HW219053   0.091   3.924   8.823 -0.2378 -4.2158  1.3253
 2473SOL     OW19054   2.615   0.440   2.002 -0.6734 -0.4332  0.4400
 2473SOL    HW119055   2.710   0.440   1.998 -0.6173  3.0168  1.5448
 2473SOL    HW219056   2.595   0.452   2.095 -1.7712  2.5457 -0.1746
 2474SOL     OW19057   4.341   4.256   5.206 -0.0086  0.1761  0.3830
 2474SOL    HW119058   4.273   4.291   5.150 -0.2849 -1.5878 -0.4039
 2474SOL    HW219059   4.366   4.176   5.159 -2.3445  0.2530 -0.9738
 2475SOL     OW19060   1.710   3.248   8.546  0.0692 -0.0804  0.1011
 2475SOL    HW119061   1.636   3.308   8.545  1.3395  1.5143  1.0854
 2475SOL    HW219062   1.669   3.162   8.541  0.0888 -0.1477  1.0243
 2476SOL     OW19063   3.079   1.929   1.163 -0.1647 -0.3389  0.3203
 2476SOL    HW119064   3.132   1.929   1.083 -1.1309  0.4987 -0.3250
 2476SOL    HW219065   2.995   1.969   1.140 -0.3647  0.5458  2.5553
 2477SOL     OW19066   1.429   0.888   9.117  0.1778  0.3027 -0.2737
 2477SOL    HW119067   1.446   0.875   9.024  2.8932 -0.3416  0.3100
 2477SOL    HW219068   1.385   0.973   9.122  0.1336  0.2776 -0.2362
 2478SOL     OW19069   3.673   4.084   0.484 -0.9106 -0.2507  0.3291
 2478SOL    HW119070   3.657   4.093   0.578 -0.2212 -2.0390  0.6178
 2478SOL    HW219071   3.661   4.171   0.445 -0.4529 -0.1709  0.3633
 2479SOL     OW19072   0.502   2.753   2.034  0.3880 -0.5672 -0.0744
 2479SOL    HW119073   0.423   2.745   1.980 -2.0783  0.5746  3.3593
 2479SOL    HW219074   0.463   2.750   2.121 -1.9438 -0.3810 -1.1140
 2480SOL     OW19075   0.229   3.853   9.926 -0.2530  0.7949 -0.0140
 2480SOL    HW119076   0.318   3.829   9.898 -0.9741 -1.9941  0.1732
 2480SOL    HW219077   0.221   3.848  10.021  1.7640  1.7669  0.2119
 2481SOL     OW19078   0.398   1.227   8.635  0.0431  0.1982  0.1687
 2481SOL    HW119079   0.464   1.190   8.693 -0.6557 -1.4392 -0.0939
 2481SOL    HW219080   0.320   1.195   8.680  0.2141 -1.2267 -0.5534
 2482SOL     OW19081   2.161   2.581   8.577  0.3953  0.0722 -1.0032
 2482SOL    HW119082   2.216   2.656   8.599 -1.4415  1.3674 -0.8578
 2482SOL    HW219083   2.173   2.530   8.657 -1.5199 -1.9520 -2.0030
 2483SOL     OW19084   3.497   3.982   3.516  0.0815  0.0052  0.2493
 2483SOL    HW119085   3.520   3.983   3.423 -0.8109 -1.9006  0.0050
 2483SOL    HW219086   3.528   4.065   3.551 -0.1272  0.5053 -0.7672
 2484SOL     OW19087   2.978   4.546   5.799  0.3977 -0.1850 -0.5572
 2484SOL    HW119088   2.968   4.621   5.858 -3.3521 -0.8152 -0.3642
 2484SOL    HW219089   2.885   4.525   5.791  0.8248 -2.7494  1.5037
 2485SOL     OW19090   2.257   2.500  15.437 -0.3555 -0.3728  0.5424
 2485SOL    HW119091   2.206   2.421  15.420  1.0365 -1.0425 -0.5823
 2485SOL    HW219092   2.320   2.467  15.501  1.5043  0.9666 -0.6003
 2486SOL     OW19093   3.900   0.406  10.072  0.4464  0.1387  0.3366
 2486SOL    HW119094   3.888   0.465   9.998  2.4826 -1.6704 -1.4272
 2486SOL    HW219095   3.943   0.331  10.031  0.5228 -0.2223  1.0869
 2487SOL     OW19096   2.649   1.402   6.855 -0.0546 -0.2388  0.2207
 2487SOL    HW119097   2.650   1.492   6.825  2.4955 -0.4898 -0.4320
 2487SOL    HW219098   2.557   1.396   6.882 -0.3175 -1.2575 -0.8967
 2488SOL     OW19099   4.027   1.561  14.454 -0.1978 -0.4082  0.2025
 2488SOL    HW119100   4.062   1.472  14.450 -1.1529 -0.7289 -1.0345
 2488SOL    HW219101   4.012   1.590  14.364 -0.0306 -0.1939  0.2437
 2489SOL     OW19102   1.231   3.282   2.448 -0.2234 -0.7260 -0.2499
 2489SOL    HW119103   1.227   3.257   2.540 -0.3036  0.1074 -0.0276
 2489SOL    HW219104   1.162   3.225   2.413 -1.1873  0.7999 -0.8500
 2490SOL     OW19105   0.761   4.175   8.167  0.0092 -0.3535 -0.7320
 2490SOL    HW119106   0.856   4.165   8.170 -0.0399 -0.6798 -0.2451
 2490SOL    HW219107   0.749   4.254   8.219 -0.6670 -1.4793  0.8285
 2491SOL     OW19108   2.065   1.287   0.920  0.3449 -0.2627  0.0999
 2491SOL    HW119109   2.031   1.322   0.837  0.6243 -0.7208 -0.2121
 2491SOL    HW219110   2.014   1.334   0.985 -1.8190 -1.1319 -0.9873
 2492SOL     OW19111   4.292   2.102   2.956  0.7376  0.2902  0.1583
 2492SOL    HW119112   4.304   2.126   3.048 -0.3530  1.4218  0.0166
 2492SOL    HW219113   4.251   2.185   2.931 -2.5328 -1.6966 -1.1201
 2493SOL     OW19114   4.428   2.788   3.667  0.0782  0.7675 -0.1018
 2493SOL    HW119115   4.446   2.832   3.583 -3.0829 -0.4005 -1.3795
 2493SOL    HW219116   4.501   2.726   3.667  0.6067  1.3810  0.0958
 2494SOL     OW19117   4.637   1.782  16.214  0.3460  0.3807 -0.0418
 2494SOL    HW119118   4.665   1.691  16.227 -0.9463  0.1201  0.9012
 2494SOL    HW219119   4.546   1.772  16.241  0.6257  0.0342  0.7685
 2495SOL     OW19120   0.165   4.197   5.465  0.4688  0.3746 -0.4813
 2495SOL    HW119121   0.083   4.209   5.417 -0.2994  0.1383  0.7701
 2495SOL    HW219122   0.222   4.146   5.406 -0.7551  0.5622 -1.8199
 2496SOL     OW19123   1.080   2.275  14.542 -0.1639  0.5232 -0.0675
 2496SOL    HW119124   1.120   2.308  14.623  0.3006  1.6332 -0.7428
 2496SOL    HW219125   0.989   2.264  14.571 -0.3535 -1.4556 -1.4771
 2497SOL     OW19126   2.337   1.286   2.271 -0.0133  0.6616 -0.0808
 2497SOL    HW119127   2.248   1.251   2.269 -0.8413  2.7158  1.2979
 2497SOL    HW219128   2.350   1.323   2.358 -1.7840  1.0155  0.0297
 2498SOL     OW19129   3.380   3.764   7.913 -0.3740 -0.5564 -0.2152
 2498SOL    HW119130   3.440   3.707   7.864  0.8335  0.4796  0.0759
 2498SOL    HW219131   3.368   3.713   7.993 -0.7137 -1.3836 -0.7896
 2499SOL     OW19132   0.021   0.913  13.742 -0.0125 -0.1926  0.0191
 2499SOL    HW119133   4.713   0.970  13.807  0.7130  1.5417 -1.0249
 2499SOL    HW219134   4.700   0.922  13.664 -0.2811 -1.8309  0.0103
 2500SOL     OW19135   0.857   2.190   5.800 -0.0677 -0.6291 -0.0163
 2500SOL    HW119136   0.921   2.237   5.854  0.1046  0.0959 -0.8424
 2500SOL    HW219137   0.921   2.176   5.731  1.4396  2.6705  0.6900
 2501SOL     OW19138   1.696   4.098   0.980 -0.3165 -0.3937  0.2265
 2501SOL    HW119139   1.710   4.100   1.074  1.6501  2.2158 -0.1037
 2501SOL    HW219140   1.748   4.024   0.949 -0.4205 -0.4926  0.2916
 2502SOL     OW19141   4.636   4.399   5.905 -0.4417 -0.0954 -0.7135
 2502SOL    HW119142   4.602   4.317   5.869 -2.0221  0.6733 -0.9449
 2502SOL    HW219143   4.678   4.356   5.980  1.4087  3.0590  0.0340
 2503SOL     OW19144   4.212   1.747   5.912 -0.0556 -0.4011 -0.4206
 2503SOL    HW119145   4.264   1.785   5.983 -1.2057  0.2796  0.0632
 2503SOL    HW219146   4.144   1.709   5.967  0.1199 -1.7867 -1.1706
 2504SOL     OW19147   0.506   0.009   5.540 -0.4599  0.0016  0.4848
 2504SOL    HW119148   0.549   0.057   5.469  2.2669 -1.9768  0.8038
 2504SOL    HW219149   0.496   4.653   5.508 -1.5320  0.3448 -0.1663
 2505SOL     OW19150   3.633   2.530  10.685  0.1315  0.6484  0.2620
 2505SOL    HW119151   3.591   2.606  10.725  1.4287  0.5820  1.7393
 2505SOL    HW219152   3.712   2.533  10.738  0.4043  1.3616 -0.1836
 2506SOL     OW19153   4.069   2.647   8.522 -0.6035 -0.1729 -0.3294
 2506SOL    HW119154   3.988   2.640   8.471  0.3125  3.4138 -2.2565
 2506SOL    HW219155   4.121   2.584   8.471 -0.8954 -1.0869  0.4911
 2507SOL     OW19156   3.162   3.387   8.370  0.5772  0.1521 -0.0991
 2507SOL    HW119157   3.123   3.462   8.415  0.6097 -0.2243  0.5596
 2507SOL    HW219158   3.252   3.386   8.403  0.6614  0.5960 -0.3151
 2508SOL     OW19159   2.552   2.337   6.912 -0.2099  0.1215  0.1571
 2508SOL    HW119160   2.566   2.427   6.882  0.2904 -0.5544 -1.6865
 2508SOL    HW219161   2.470   2.329   6.960 -0.5425  1.4789 -0.1643
 2509SOL     OW19162   3.000   0.698   5.601  0.0978 -0.0607 -0.0404
 2509SOL    HW119163   3.027   0.696   5.509 -1.0048 -0.8696 -0.3532
 2509SOL    HW219164   3.046   0.620   5.633 -2.0243 -1.8686 -1.4183
 2510SOL     OW19165   1.735   4.315   0.830 -0.1960  0.1432 -0.5835
 2510SOL    HW119166   1.700   4.249   0.890  1.3343 -0.1137  0.0317
 2510SOL    HW219167   1.790   4.256   0.779 -2.6727 -0.3055 -2.6990
 2511SOL     OW19168   2.459   2.695   8.245  0.2684 -0.1842 -0.3043
 2511SOL    HW119169   2.478   2.675   8.337 -1.0041  0.8917  0.1877
 2511SOL    HW219170   2.483   2.787   8.242 -0.4147 -0.0182 -0.4498
 2512SOL     OW19171   1.269   4.522   5.734 -0.8053 -0.1417  0.3943
 2512SOL    HW119172   1.297   4.505   5.644  0.6425 -1.6744  1.1252
 2512SOL    HW219173   1.204   4.452   5.737 -2.7929  1.7605  0.7339
 2513SOL     OW19174   0.703   3.323   4.314  0.2334 -0.2277 -0.6043
 2513SOL    HW119175   0.696   3.275   4.232 -4.0510 -0.7556  0.0805
 2513SOL    HW219176   0.653   3.265   4.370  0.6500 -0.5569 -0.5719
 2514SOL     OW19177   0.926   3.547   8.773 -0.0493  0.4713  0.0201
 2514SOL    HW119178   1.009   3.503   8.753  0.4584 -0.0111  3.1019
 2514SOL    HW219179   0.969   3.594   8.845 -2.6005 -1.4620  2.8103
 2515SOL     OW19180   2.785   0.736   6.911 -0.0715  0.5882 -0.2268
 2515SOL    HW119181   2.755   0.824   6.934 -0.0931 -0.7216  4.7341
 2515SOL    HW219182   2.702   0.694   6.887 -0.3969  1.4814 -0.6631
 2516SOL     OW19183   0.236   4.700   6.633 -0.2928 -0.6412 -0.2423
 2516SOL    HW119184   0.267   0.025   6.564  2.2301 -0.8383  0.7092
 2516SOL    HW219185   0.167   0.019   6.673  0.3447  0.0135 -0.0002
 2517SOL     OW19186   2.765   1.686  10.747 -0.3084 -0.5196  0.0444
 2517SOL    HW119187   2.845   1.738  10.739  0.9678 -2.2960  1.2810
 2517SOL    HW219188   2.762   1.673  10.841 -2.5822  1.4196  0.2348
 2518SOL     OW19189   2.929   3.978   6.958  0.0719  0.2754 -0.1008
 2518SOL    HW119190   2.873   3.911   6.919 -1.1133  0.7339  0.8289
 2518SOL    HW219191   2.883   3.990   7.041  0.5874  0.4274  0.1624
 2519SOL     OW19192   3.337   0.509  12.534 -0.1990  0.1817  0.3048
 2519SOL    HW119193   3.381   0.436  12.492 -2.6464 -1.0979 -0.0470
 2519SOL    HW219194   3.370   0.581  12.481 -0.7262  1.0187  1.0889
 2520SOL     OW19195   2.611   3.918   2.007  0.0005  0.2623  0.7144
 2520SOL    HW119196   2.678   3.860   1.972 -1.0366  0.1783 -1.1079
 2520SOL    HW219197   2.602   3.978   1.933 -0.6646 -0.8394 -0.0952
 2521SOL     OW19198   1.438   0.845  13.485 -0.4681 -0.7611 -0.4177
 2521SOL    HW119199   1.406   0.861  13.574  1.6710  0.4672  0.1180
 2521SOL    HW219200   1.533   0.843  13.489 -0.5301 -2.0104  0.3515
 2522SOL     OW19201   1.983   1.955   5.602  0.4639  0.0249 -0.3114
 2522SOL    HW119202   2.018   2.041   5.578 -1.3295  1.0087  0.5882
 2522SOL    HW219203   1.890   1.966   5.582  0.1280 -1.4763  0.4407
 2523SOL     OW19204   2.734   1.248   7.731 -0.7768 -0.6525  0.2914
 2523SOL    HW119205   2.733   1.335   7.771  1.1863 -0.5568  0.1539
 2523SOL    HW219206   2.808   1.212   7.779 -1.7347 -1.0750  1.4310
 2524SOL     OW19207   3.647   1.544  16.546 -0.7507  0.0027 -0.1209
 2524SOL    HW119208   3.695   1.464  16.564 -0.0031  0.3241 -0.6892
 2524SOL    HW219209   3.656   1.592  16.629  0.0732 -1.1527  0.4560
 2525SOL     OW19210   1.956   4.498  10.093  0.3882 -0.2507  0.1236
 2525SOL    HW119211   1.886   4.514  10.030  0.5276  1.0931  0.3279
 2525SOL    HW219212   1.936   4.549  10.171  1.3464 -0.0251  0.2203
 2526SOL     OW19213   1.613   0.414   7.845 -0.1026  0.0096  0.7244
 2526SOL    HW119214   1.587   0.358   7.918 -1.6370 -0.8165 -0.4547
 2526SOL    HW219215   1.708   0.414   7.849 -0.1682  1.4085  2.2404
 2527SOL     OW19216   0.828   4.101   5.299  0.4226 -0.3717 -0.1093
 2527SOL    HW119217   0.818   4.184   5.252 -0.0266 -1.3730 -1.7676
 2527SOL    HW219218   0.747   4.096   5.350  0.1466 -0.3739 -0.5403
 2528SOL     OW19219   3.053   3.586  10.928  0.3016 -0.2451 -0.1490
 2528SOL    HW119220   3.011   3.505  10.903  0.2317 -0.1944 -0.1959
 2528SOL    HW219221   3.083   3.616  10.842  1.4243  0.7989  0.6008
 2529SOL     OW19222   0.648   2.241   4.399 -0.1324  0.3583  0.4588
 2529SOL    HW119223   0.688   2.154   4.405  0.7104  0.6596 -0.8045
 2529SOL    HW219224   0.624   2.246   4.306 -1.0947  1.0861  0.7469
 2530SOL     OW19225   2.267   0.260   3.580 -0.1946  0.2067 -0.4544
 2530SOL    HW119226   2.328   0.234   3.511 -1.3151 -2.2032 -0.5135
 2530SOL    HW219227   2.192   0.206   3.557 -0.1211  0.7681 -2.0322
 2531SOL     OW19228   0.097   3.540   5.215 -0.3096  0.1869 -0.2221
 2531SOL    HW119229   0.136   3.503   5.294 -3.5898 -1.7433  0.4842
 2531SOL    HW219230   0.132   3.629   5.211  0.2789 -0.0371 -0.0394
 2532SOL     OW19231   1.981   0.202   1.942  0.5207 -0.0960 -0.2240
 2532SOL    HW119232   2.067   0.195   1.900  1.3677  2.5100  1.0715
 2532SOL    HW219233   2.005   0.256   2.018 -2.2889 -0.5674  0.9942
 2533SOL     OW19234   3.618   4.602  12.850  0.1991 -0.2162 -0.5653
 2533SOL    HW119235   3.556   4.533  12.872  1.2909 -0.5412  1.4383
 2533SOL    HW219236   3.697   4.577  12.898  0.6154 -0.9339 -1.6294
 2534SOL     OW19237   0.814   0.007   1.347 -0.2448  0.1586 -0.0028
 2534SOL    HW119238   0.876   0.068   1.386  0.0533  1.2500 -2.2144
 2534SOL    HW219239   0.810   4.667   1.408  2.7920  0.1485  0.1621
 2535SOL     OW19240   1.445   2.541   6.140  0.5808  0.0042 -0.0524
 2535SOL    HW119241   1.500   2.484   6.086  0.0620  0.2188 -0.8146
 2535SOL    HW219242   1.481   2.530   6.228  2.2777  1.0389 -0.6122
 2536SOL     OW19243   0.638   4.226   2.513 -0.7020  0.6839  0.3271
 2536SOL    HW119244   0.729   4.201   2.524 -0.0170  2.8108 -0.4525
 2536SOL    HW219245   0.602   4.164   2.449 -1.3769  3.1692 -1.7262
 2537SOL     OW19246   1.575   0.632   1.225 -0.1451 -0.3159 -0.3572
 2537SOL    HW119247   1.593   0.679   1.307  2.3982  1.2145 -1.7993
 2537SOL    HW219248   1.665   0.625   1.194  0.5109 -1.0666  1.6733
 2538SOL     OW19249   2.629   1.820   4.464 -0.6620  0.0022  0.0833
 2538SOL    HW119250   2.693   1.755   4.491  1.1112  0.7745 -2.3065
 2538SOL    HW219251   2.634   1.812   4.369  0.6130 -0.5703  0.2064
 2539SOL     OW19252   2.675   3.897   4.384 -0.0190 -0.0147 -0.3186
 2539SOL    HW119253   2.754   3.949   4.397 -0.1813  0.2056 -0.2046
 2539SOL    HW219254   2.616   3.970   4.363  0.3151  0.4924  0.5020
 2540SOL     OW19255   0.112   4.530   6.173  0.1997 -0.5836  0.8684
 2540SOL    HW119256   0.138   4.535   6.081 -2.4779  2.6515  0.2874
 2540SOL    HW219257   0.199   4.521   6.212  0.2785 -0.0844  0.8117
 2541SOL     OW19258   3.590   4.060   5.248 -0.5152 -0.2815 -0.0295
 2541SOL    HW119259   3.679   4.097   5.244 -0.4621 -0.5202 -0.9932
 2541SOL    HW219260   3.568   4.089   5.337  0.7163  1.6079 -0.3329
 2542SOL     OW19261   2.767   4.045  13.659  0.2139 -0.0510 -0.1275
 2542SOL    HW119262   2.821   4.013  13.731  1.1001  0.5136 -0.5412
 2542SOL    HW219263   2.736   4.128  13.695  1.1061 -0.0677  0.6601
 2543SOL     OW19264   4.033   0.024   8.302  0.1770  0.5743  0.8661
 2543SOL    HW119265   4.082   0.104   8.321  0.7494  0.5642 -0.5513
 2543SOL    HW219266   4.035   0.023   8.206  0.6012 -0.9586  0.8937
 2544SOL     OW19267   2.198   3.612   2.075 -0.0170 -0.1961  0.1952
 2544SOL    HW119268   2.288   3.628   2.046  0.1473 -0.8031  0.3709
 2544SOL    HW219269   2.217   3.539   2.135 -2.1704 -0.9934 -0.1113
 2545SOL     OW19270   2.041   2.662   7.985 -0.0352 -0.0622 -0.1779
 2545SOL    HW119271   1.976   2.644   7.917 -0.3218  1.4797 -0.3134
 2545SOL    HW219272   2.039   2.577   8.030  2.0412 -0.4555 -0.8661
 2546SOL     OW19273   2.964   2.279   1.371  0.1518  0.0703  0.1161
 2546SOL    HW119274   2.947   2.325   1.289  0.1637 -1.3181 -0.6718
 2546SOL    HW219275   3.052   2.246   1.353 -0.2592 -2.4412  2.7573
 2547SOL     OW19276   1.004   3.093  15.785  0.3481 -0.5820  0.2512
 2547SOL    HW119277   1.075   3.092  15.721  0.8679 -0.8348  0.8326
 2547SOL    HW219278   1.008   3.188  15.802  0.7079 -0.2664 -1.5638
 2548SOL     OW19279   3.137   2.192   5.764 -0.5347  0.2528  0.3170
 2548SOL    HW119280   3.203   2.257   5.787 -0.3950 -0.7729  2.7983
 2548SOL    HW219281   3.147   2.121   5.828 -0.1605 -0.7298 -0.8415
 2549SOL     OW19282   2.737   0.118   1.920 -0.9614  0.3837 -0.1853
 2549SOL    HW119283   2.791   0.116   1.998 -0.1253  0.4248 -0.7697
 2549SOL    HW219284   2.787   0.174   1.861  1.3115  0.3798  1.7489
 2550SOL     OW19285   3.827   4.059   2.218 -0.1764 -0.3091  0.3432
 2550SOL    HW119286   3.890   3.989   2.233 -0.1459 -0.4917 -0.6692
 2550SOL    HW219287   3.763   4.042   2.287  1.1589  1.7963  2.1021
 2551SOL     OW19288   3.196   4.653   5.209 -0.2384 -0.5284 -0.4231
 2551SOL    HW119289   3.209   4.599   5.130 -0.2886  2.0431 -2.1925
 2551SOL    HW219290   3.276   4.705   5.215 -1.5790  1.6840 -1.5313
 2552SOL     OW19291   4.600   3.323   7.331 -0.1281 -0.0434 -0.4972
 2552SOL    HW119292   4.550   3.249   7.366 -1.4644  1.1315  0.0456
 2552SOL    HW219293   4.666   3.340   7.400  1.7587 -2.6765 -1.6631
 2553SOL     OW19294   4.317   3.722   1.431  0.4737  0.3196  0.1654
 2553SOL    HW119295   4.367   3.642   1.450  1.9917  0.9294 -1.2168
 2553SOL    HW219296   4.244   3.710   1.491  2.4587 -2.5470  2.0345
 2554SOL     OW19297   2.213   1.973  14.975  0.0234  1.0989 -0.3573
 2554SOL    HW119298   2.167   2.015  15.048  2.1514  1.7857  0.5842
 2554SOL    HW219299   2.166   1.984  14.892 -1.3484 -2.8579 -0.1215
 2555SOL     OW19300   1.862   2.022   3.322 -0.6836 -0.0876  0.4439
 2555SOL    HW119301   1.842   2.075   3.399  0.2804  0.0300  0.6200
 2555SOL    HW219302   1.858   2.090   3.255  3.8955  1.8891  2.2046
 2556SOL     OW19303   0.870   4.274   0.579  0.0362  0.6325  0.0641
 2556SOL    HW119304   0.862   4.285   0.484 -1.8838 -0.3415  0.0922
 2556SOL    HW219305   0.932   4.202   0.590 -1.8905 -1.1929 -0.7522
 2557SOL     OW19306   4.506   0.632   3.529 -0.3941 -0.5604  0.0254
 2557SOL    HW119307   4.522   0.557   3.472  1.9625 -1.0119  1.3038
 2557SOL    HW219308   4.547   0.685   3.460  1.6019 -1.1220  0.7980
 2558SOL     OW19309   1.882   4.095   6.168 -0.7450 -0.2430  0.4612
 2558SOL    HW119310   1.832   4.175   6.181 -1.0553 -0.0355 -2.0413
 2558SOL    HW219311   1.817   4.026   6.152 -0.0999 -0.5411 -0.8512
 2559SOL     OW19312   0.376   0.341   7.211 -0.0229  0.0238  0.0806
 2559SOL    HW119313   0.352   0.397   7.285 -3.0313 -2.0293  0.6648
 2559SOL    HW219314   0.372   0.254   7.251 -0.9322  0.0723  0.0981
 2560SOL     OW19315   1.940   2.963   9.188 -0.3044  0.5076 -0.6640
 2560SOL    HW119316   2.025   2.926   9.210 -0.7599  0.1310  0.4332
 2560SOL    HW219317   1.960   3.039   9.133 -0.6632  1.9129  1.1408
 2561SOL     OW19318   0.824   4.351  16.987 -0.2688  0.2792 -0.1156
 2561SOL    HW119319   0.863   4.435  16.960 -0.8203  0.8772  0.9569
 2561SOL    HW219320   0.863   4.294  16.920  0.8558  0.9807 -0.0538
 2562SOL     OW19321   4.195   3.767   0.259  0.5360 -0.6134  0.1954
 2562SOL    HW119322   4.269   3.821   0.285  0.7594 -1.1769  0.7177
 2562SOL    HW219323   4.128   3.834   0.272  3.1208  1.7451  1.1782
 2563SOL     OW19324   1.075   0.751   3.178  0.3946 -0.2179  1.4518
 2563SOL    HW119325   1.031   0.772   3.095  2.0934  0.5190  0.7475
 2563SOL    HW219326   1.104   0.660   3.174 -2.1571 -1.0533  1.9824
 2564SOL     OW19327   4.683   1.584  10.759 -0.6688  0.5272 -0.1820
 2564SOL    HW119328   4.661   1.653  10.821  2.4949  0.5467  0.9019
 2564SOL    HW219329   0.044   1.586  10.771 -0.6980 -2.5621  0.4770
 2565SOL     OW19330   0.987   3.234   4.710  0.1600 -0.0524 -0.1657
 2565SOL    HW119331   0.914   3.215   4.770 -1.1462  2.6799 -0.8640
 2565SOL    HW219332   0.945   3.289   4.644 -1.8868 -0.0002  1.1726
 2566SOL     OW19333   3.933   1.356   5.806  0.1385  0.1551 -0.1245
 2566SOL    HW119334   3.845   1.362   5.844  0.2692 -1.3022  0.4108
 2566SOL    HW219335   3.922   1.407   5.725  1.1675  0.7834  0.1447
 2567SOL     OW19336   1.975   0.819   1.632  0.0260 -0.3042  0.5084
 2567SOL    HW119337   1.904   0.851   1.576  2.0703 -0.0830 -1.9809
 2567SOL    HW219338   1.932   0.760   1.694 -1.1272  0.0808  0.0867
 2568SOL     OW19339   3.262   1.648  16.720 -0.6202  0.3216  0.1194
 2568SOL    HW119340   3.310   1.660  16.802 -0.9747  0.8101  0.2563
 2568SOL    HW219341   3.188   1.598  16.754 -1.0078  0.2343 -0.8526
 2569SOL     OW19342   3.311   2.970   4.476 -0.2291  0.2196  0.2808
 2569SOL    HW119343   3.306   2.921   4.394 -0.7071  1.0065 -0.1635
 2569SOL    HW219344   3.401   2.958   4.505  0.0196 -0.9987 -1.0293
 2570SOL     OW19345   2.232   3.679   4.713  0.0451 -0.1723 -0.1196
 2570SOL    HW119346   2.223   3.734   4.790 -1.5550 -2.8972  1.6098
 2570SOL    HW219347   2.272   3.597   4.743 -1.4641 -0.8855 -0.0965
 2571SOL     OW19348   1.241   2.473  16.464  0.1728  0.3706 -0.0129
 2571SOL    HW119349   1.213   2.490  16.374 -0.4898  0.9225  0.2952
 2571SOL    HW219350   1.333   2.465  16.441 -0.2629  0.6430 -1.9242
 2572SOL     OW19351   4.330   1.801   8.916 -0.2497  0.3499  0.1388
 2572SOL    HW119352   4.355   1.719   8.960 -0.0742  1.2967  1.7936
 2572SOL    HW219353   4.263   1.776   8.852 -0.0080 -0.7838  0.3153
 2573SOL     OW19354   3.506   3.696  13.769 -0.1040 -0.5192 -0.2745
 2573SOL    HW119355   3.493   3.614  13.722 -2.0883 -0.8532  0.8241
 2573SOL    HW219356   3.599   3.715  13.765 -0.1598 -0.3580 -0.7728
 2574SOL     OW19357   2.359   2.646   5.685  0.3322  0.0170 -0.2135
 2574SOL    HW119358   2.426   2.712   5.667  0.0460  0.7725  1.4889
 2574SOL    HW219359   2.302   2.662   5.609  1.5572 -0.3275 -1.2208
 2575SOL     OW19360   0.732   2.498  15.875 -0.4903  0.0548 -0.2168
 2575SOL    HW119361   0.753   2.462  15.962 -1.5044  0.9937  0.4203
 2575SOL    HW219362   0.768   2.587  15.883  0.9994 -0.3351 -2.5002
 2576SOL     OW19363   3.762   3.319   9.922 -0.1455 -0.1720 -0.0310
 2576SOL    HW119364   3.715   3.266   9.858 -2.1966  1.6232 -0.0281
 2576SOL    HW219365   3.717   3.303  10.005  2.8809 -1.0462  1.4259
 2577SOL     OW19366   3.185   2.810   7.116  0.0906  0.2016  0.6845
 2577SOL    HW119367   3.125   2.811   7.191 -1.9035  1.3808 -0.9210
 2577SOL    HW219368   3.268   2.786   7.157  0.2449 -0.1476  0.1713
 2578SOL     OW19369   2.062   1.914   8.814  0.3159  0.3852  0.3646
 2578SOL    HW119370   2.101   1.943   8.897 -0.0185 -0.8979  0.9797
 2578SOL    HW219371   2.055   1.998   8.768  1.0566 -0.5069 -1.3692
 2579SOL     OW19372   3.191   0.601   8.167  0.1063 -0.2189  0.1459
 2579SOL    HW119373   3.122   0.629   8.108 -0.8868 -0.0260  1.4108
 2579SOL    HW219374   3.156   0.636   8.248 -1.1962  0.9084 -0.9133
 2580SOL     OW19375   1.248   1.520   6.667  0.3541  0.2609  0.7857
 2580SOL    HW119376   1.213   1.547   6.582  0.0649 -1.5663  0.3259
 2580SOL    HW219377   1.341   1.543   6.660  0.8277 -2.1388 -0.9529
 2581SOL     OW19378   0.951   4.451   0.793  0.1142 -0.2825  0.1869
 2581SOL    HW119379   0.940   4.420   0.703 -2.6673  0.6240  0.2291
 2581SOL    HW219380   1.024   4.397   0.825 -0.8935 -1.2897  0.7710
 2582SOL     OW19381   2.472   4.464   6.268 -0.4708 -0.2013 -0.3680
 2582SOL    HW119382   2.518   4.457   6.185 -0.2098  0.1422 -0.2541
 2582SOL    HW219383   2.546   4.482   6.327 -1.2835 -2.1174  1.2390
 2583SOL     OW19384   1.426   0.169   2.559 -0.0869  0.4193 -0.1665
 2583SOL    HW119385   1.384   0.083   2.570 -0.0145  0.6523  1.9493
 2583SOL    HW219386   1.516   0.157   2.530 -0.5761 -0.6044 -1.2950
 2584SOL     OW19387   1.574   4.425   2.274  0.0562 -0.4386  0.2076
 2584SOL    HW119388   1.623   4.410   2.355 -1.6715 -2.5311  0.8633
 2584SOL    HW219389   1.579   4.338   2.236  0.8449 -1.3139  2.3242
 2585SOL     OW19390   1.204   2.604  10.872 -0.9112 -0.0090  0.1478
 2585SOL    HW119391   1.265   2.596  10.799  0.4327  0.1017  1.2497
 2585SOL    HW219392   1.266   2.638  10.937 -1.3362  2.2870 -0.6804
 2586SOL     OW19393   1.406   0.589   1.778  0.2410  0.2883  0.3907
 2586SOL    HW119394   1.479   0.583   1.840  0.6028 -1.1927 -0.1756
 2586SOL    HW219395   1.431   0.523   1.713 -0.0434 -1.4987  2.1168
 2587SOL     OW19396   0.672   1.632  10.988 -0.3869  0.1634  1.0181
 2587SOL    HW119397   0.753   1.602  10.946 -0.0090 -0.9791  2.5653
 2587SOL    HW219398   0.692   1.614  11.080 -1.0561 -1.4593  0.8402
 2588SOL     OW19399   1.907   0.509   9.666 -0.6394 -0.5334 -0.6648
 2588SOL    HW119400   1.902   0.419   9.697 -1.2877 -0.2123  0.1319
 2588SOL    HW219401   1.995   0.540   9.690  0.3265 -3.6517 -0.1642
 2589SOL     OW19402   2.016   2.504  16.128 -0.1432 -0.3312 -0.0391
 2589SOL    HW119403   2.041   2.436  16.066 -1.8649 -0.4664 -0.5791
 2589SOL    HW219404   2.043   2.576  16.071 -0.6207 -2.4519 -2.9381
 2590SOL     OW19405   0.361   3.928  15.851  0.1843  0.1229 -0.5062
 2590SOL    HW119406   0.287   3.921  15.792 -0.1903 -0.9366  0.0814
 2590SOL    HW219407   0.352   4.017  15.887 -0.3512  0.9160 -2.6434
 2591SOL     OW19408   3.951   4.674   3.129  0.1972 -0.1325  0.1803
 2591SOL    HW119409   3.948   4.615   3.053  1.4516 -0.1217  0.1180
 2591SOL    HW219410   4.025   4.635   3.176  0.2154 -1.0983 -0.6439
 2592SOL     OW19411   0.695   1.602   8.670  0.0669 -0.0497  0.2197
 2592SOL    HW119412   0.677   1.552   8.590 -1.4042  0.2833  0.3421
 2592SOL    HW219413   0.639   1.677   8.648  2.6167  1.9831  0.6380
 2593SOL     OW19414   0.828   0.486   5.504  0.4631  0.4878 -0.5004
 2593SOL    HW119415   0.868   0.476   5.417  0.4575 -2.0552 -0.2108
 2593SOL    HW219416   0.829   0.400   5.544  3.7295  0.5525 -0.4201
 2594SOL     OW19417   2.704   3.229   4.852 -0.3675 -0.0316 -0.2688
 2594SOL    HW119418   2.637   3.189   4.908  2.8748 -1.8829  2.2823
 2594SOL    HW219419   2.751   3.154   4.817 -2.9211 -1.7301 -0.0517
 2595SOL     OW19420   1.090   1.469   1.682 -0.0274  0.8544  0.0916
 2595SOL    HW119421   1.138   1.481   1.764  1.1624  0.5202 -0.5533
 2595SOL    HW219422   1.072   1.376   1.694 -1.1556  0.8271 -1.7119
 2596SOL     OW19423   3.877   3.225  17.732 -0.3495  0.2020  0.6013
 2596SOL    HW119424   3.860   3.320  17.735  1.9945  0.6313 -0.2565
 2596SOL    HW219425   3.789   3.193  17.711 -1.9447  3.8942  1.6694
 2597SOL     OW19426   0.551   2.388   6.775 -0.4272  0.4794 -0.0928
 2597SOL    HW119427   0.570   2.317   6.714  1.3693 -0.3197  1.3966
 2597SOL    HW219428   0.586   2.465   6.730 -1.6337  0.9670 -0.2075
 2598SOL     OW19429   4.404   2.386   3.223  0.0909  0.0191 -0.5186
 2598SOL    HW119430   4.402   2.476   3.254  0.1623 -0.7501  1.6925
 2598SOL    HW219431   4.497   2.367   3.211  0.5748  0.6082  2.2755
 2599SOL     OW19432   4.285   4.613  16.967  0.0942  0.2115 -0.5272
 2599SOL    HW119433   4.359   4.674  16.967 -0.8011  1.3054  0.5567
 2599SOL    HW219434   4.268   4.602  17.060  1.0802  0.8001 -0.2770
 2600SOL     OW19435   1.595   2.964   5.515 -0.0577 -0.2151 -0.0431
 2600SOL    HW119436   1.520   3.019   5.536  0.4047  0.0898  0.8055
 2600SOL    HW219437   1.665   3.016   5.475 -1.9051  1.8553 -0.5622
 2601SOL     OW19438   4.024   2.317   1.442  0.4206  0.6827  0.1224
 2601SOL    HW119439   4.115   2.330   1.467  1.0807  0.0519 -1.9276
 2601SOL    HW219440   4.004   2.227   1.467  0.8954  0.2750 -0.9409
 2602SOL     OW19441   1.447   1.301   6.789 -0.5788  0.2208 -0.0261
 2602SOL    HW119442   1.398   1.383   6.794  0.7238  1.0085  0.0104
 2602SOL    HW219443   1.444   1.266   6.700  1.2325  2.0566 -0.8111
 2603SOL     OW19444   1.813   0.391   7.359  0.1158  0.6090 -0.1578
 2603SOL    HW119445   1.776   0.433   7.282 -0.8023  1.5319  0.7909
 2603SOL    HW219446   1.744   0.401   7.425  0.6646  1.6398  0.2511
 2604SOL     OW19447   2.575   4.206   5.263 -0.2181  0.0956 -0.3298
 2604SOL    HW119448   2.585   4.217   5.168  0.5205 -0.4376 -0.3167
 2604SOL    HW219449   2.651   4.253   5.298 -0.4856 -1.3531  2.1069
 2605SOL     OW19450   2.730   3.695   2.432 -0.1383  0.1450  0.5665
 2605SOL    HW119451   2.796   3.631   2.460 -1.2909 -0.8762  0.9077
 2605SOL    HW219452   2.786   3.729   2.362 -0.9260 -0.3629 -0.2968
 2606SOL     OW19453   1.565   4.623   6.565 -0.0797 -0.7070  0.2091
 2606SOL    HW119454   1.595   4.578   6.644  1.4379 -1.0814 -0.5695
 2606SOL    HW219455   1.652   4.656   6.541 -0.2904 -1.7857 -2.0266
 2607SOL     OW19456   4.194   2.800  15.649 -0.5201  0.2528 -0.0158
 2607SOL    HW119457   4.204   2.712  15.684  1.0162  0.7942  0.9148
 2607SOL    HW219458   4.143   2.789  15.569  0.8417 -0.0066 -0.8443
 2608SOL     OW19459   4.292   0.817   0.257 -0.3139  0.2612  0.1561
 2608SOL    HW119460   4.221   0.763   0.291  0.2470 -1.2668 -1.0930
 2608SOL    HW219461   4.368   0.766   0.284 -1.8220 -2.1574 -0.1204
 2609SOL     OW19462   4.021   0.885   5.821  0.3133  0.5720 -0.2841
 2609SOL    HW119463   3.953   0.906   5.757  0.3500  0.3276 -0.4039
 2609SOL    HW219464   4.103   0.913   5.778  0.7230 -0.0161  0.1262
 2610SOL     OW19465   0.943   2.719  12.565  0.1013  0.1173  0.2663
 2610SOL    HW119466   1.005   2.755  12.502 -0.2772 -0.3589 -0.3768
 2610SOL    HW219467   1.001   2.718  12.641  0.8059 -0.1473 -0.2741
 2611SOL     OW19468   0.348   1.113   3.619  0.6027  0.4915 -0.5038
 2611SOL    HW119469   0.308   1.058   3.552  0.3737 -0.4136  0.3764
 2611SOL    HW219470   0.270   1.159   3.648  1.1604  0.9956  0.1871
 2612SOL     OW19471   1.826   2.394   6.386  0.9295  0.4075 -0.2263
 2612SOL    HW119472   1.864   2.330   6.326 -1.8447 -0.3760 -1.1447
 2612SOL    HW219473   1.877   2.383   6.466 -0.5347  0.9480  0.7677
 2613SOL     OW19474   0.305   2.795   5.330  0.1286  0.7992  0.3733
 2613SOL    HW119475   0.217   2.797   5.367 -0.0828 -1.2232 -0.0251
 2613SOL    HW219476   0.351   2.853   5.391  1.9634 -0.2005 -0.0657
 2614SOL     OW19477   2.519   0.393  16.982 -0.1373 -0.5476 -0.1595
 2614SOL    HW119478   2.494   0.473  16.934 -1.7037 -1.0187 -0.1169
 2614SOL    HW219479   2.441   0.383  17.036  0.6113  0.6022  1.1357
 2615SOL     OW19480   1.899   2.928   8.021 -0.1624 -0.0833 -0.2150
 2615SOL    HW119481   1.936   2.845   8.050  1.8620  0.4654 -1.2690
 2615SOL    HW219482   1.938   2.930   7.934  0.5832  0.5969  0.1418
 2616SOL     OW19483   4.265   0.953   7.860 -1.0225  0.1456 -0.3381
 2616SOL    HW119484   4.213   0.962   7.780 -0.2193 -1.4911 -1.0307
 2616SOL    HW219485   4.317   0.876   7.838 -0.7118  0.6874 -1.4633
 2617SOL     OW19486   2.363   3.147  12.408 -0.3726 -0.2882  0.3213
 2617SOL    HW119487   2.370   3.237  12.378  4.0494 -0.3685  1.1011
 2617SOL    HW219488   2.290   3.120  12.352 -1.2085  1.2589  0.6623
 2618SOL     OW19489   1.423   4.551  13.004  0.5154  1.2495 -0.1153
 2618SOL    HW119490   1.394   4.642  13.003  1.4913  1.5628  0.9723
 2618SOL    HW219491   1.517   4.558  12.991  0.7523 -1.3610  0.1866
 2619SOL     OW19492   2.965   1.951   2.549 -0.0692  0.0607  0.0489
 2619SOL    HW119493   2.916   2.021   2.506 -0.0941  0.2506  0.3860
 2619SOL    HW219494   2.903   1.878   2.550  1.4021 -1.1649  1.1969
 2620SOL     OW19495   3.330   4.103   2.152 -0.1052  0.4730  0.1799
 2620SOL    HW119496   3.291   4.188   2.131 -0.1695 -0.0181 -1.7524
 2620SOL    HW219497   3.323   4.058   2.067 -1.9658  1.6051 -0.2654
 2621SOL     OW19498   1.178   3.482   5.826  0.1575 -0.0310 -0.3175
 2621SOL    HW119499   1.198   3.391   5.849  1.1979  0.6154  1.3879
 2621SOL    HW219500   1.240   3.491   5.754 -2.1727 -0.5648 -2.3643
 2622SOL     OW19501   1.115   0.464   5.652 -0.5354 -0.3617  0.2546
 2622SOL    HW119502   1.033   0.416   5.651  0.4522 -2.0805  1.6054
 2622SOL    HW219503   1.177   0.395   5.629 -0.5063 -0.0695 -0.5771
 2623SOL     OW19504   1.337   4.048  15.291 -0.1613  0.1210 -0.2383
 2623SOL    HW119505   1.282   4.010  15.359 -2.0476  1.6163 -0.9291
 2623SOL    HW219506   1.307   3.997  15.215 -5.1465  1.1002  1.0562
 2624SOL     OW19507   1.101   0.812   7.241 -0.1698 -0.7178  0.0328
 2624SOL    HW119508   1.165   0.883   7.240  0.7140 -1.5308 -1.1309
 2624SOL    HW219509   1.019   0.859   7.253 -0.1639 -0.7184  0.0748
 2625SOL     OW19510   1.799   1.495   4.986  0.2758  0.0841 -0.3827
 2625SOL    HW119511   1.716   1.475   5.028  0.3635 -0.7844 -0.6172
 2625SOL    HW219512   1.851   1.545   5.049  1.2302 -0.3665 -0.8099
 2626SOL     OW19513   4.150   3.475   9.791  0.3238 -0.0873 -0.3417
 2626SOL    HW119514   4.171   3.501   9.702  0.5131  0.5011 -0.1224
 2626SOL    HW219515   4.140   3.558   9.837  0.7093 -0.9425  1.2925
 2627SOL     OW19516   4.554   4.065  10.997 -0.0541 -0.7095  0.2293
 2627SOL    HW119517   4.590   4.121  10.928 -1.8052 -0.2206 -0.2999
 2627SOL    HW219518   4.564   3.985  10.946 -0.4216  0.5270 -1.8054
 2628SOL     OW19519   0.327   2.098   5.840  0.3141 -0.0415  0.2402
 2628SOL    HW119520   0.341   2.054   5.924 -0.2616  0.9954  0.8822
 2628SOL    HW219521   0.412   2.142   5.834 -0.2425  1.3173  2.4439
 2629SOL     OW19522   0.489   0.696   4.447 -0.1587 -0.2530 -0.7170
 2629SOL    HW119523   0.543   0.769   4.417 -2.5419  1.1873 -1.5957
 2629SOL    HW219524   0.501   0.703   4.542  1.4341 -2.0130 -0.7896
 2630SOL     OW19525   0.120   3.063   4.959 -0.8021  0.2100  0.2939
 2630SOL    HW119526   0.178   3.095   5.029  0.1549 -0.0243 -0.3988
 2630SOL    HW219527   0.082   2.986   5.001 -1.2478  0.5152  0.4497
 2631SOL     OW19528   2.724   1.856   3.872  0.7254  0.1565 -0.1509
 2631SOL    HW119529   2.810   1.869   3.834  0.4569 -1.2301 -1.2267
 2631SOL    HW219530   2.695   1.778   3.824  0.9579 -1.1791  1.8852
 2632SOL     OW19531   4.530   1.788   6.105 -0.4181 -0.1895 -0.0620
 2632SOL    HW119532   4.574   1.872   6.100 -2.3550  0.8667  0.5106
 2632SOL    HW219533   4.544   1.753   6.193  0.0911 -0.6224 -0.3152
 2633SOL     OW19534   1.194   3.650   6.063 -0.6188 -0.5835 -0.0323
 2633SOL    HW119535   1.213   3.581   5.999  0.0284 -0.5789  0.1521
 2633SOL    HW219536   1.277   3.697   6.068 -1.1934  0.5327 -1.1302
 2634SOL     OW19537   2.519   0.904   4.083 -0.7875  0.0420  0.2241
 2634SOL    HW119538   2.448   0.962   4.111  0.3578  2.9437 -2.8525
 2634SOL    HW219539   2.552   0.885   4.171 -2.2385 -0.1256  0.7291
 2635SOL     OW19540   1.694   2.229   9.060  0.0639 -0.0901 -0.5592
 2635SOL    HW119541   1.682   2.297   9.126  0.7899 -0.4522 -0.0468
 2635SOL    HW219542   1.611   2.183   9.061  0.2215 -0.4177 -2.3862
 2636SOL     OW19543   3.481   4.566   2.385  0.4296 -0.5767 -0.4714
 2636SOL    HW119544   3.528   4.644   2.357 -1.3014  0.8073  0.5139
 2636SOL    HW219545   3.389   4.584   2.366  0.6301 -1.8389 -2.5608
 2637SOL     OW19546   3.258   2.086   5.328  0.0278 -0.3136 -0.4152
 2637SOL    HW119547   3.221   2.043   5.250  1.2479 -0.8146 -0.7059
 2637SOL    HW219548   3.351   2.067   5.317 -0.2943 -2.2185  0.1387
 2638SOL     OW19549   0.244   1.738   4.860 -0.0012  0.0039 -0.1147
 2638SOL    HW119550   0.189   1.660   4.868  0.6732 -0.3607  0.9892
 2638SOL    HW219551   0.326   1.715   4.902 -1.0827 -0.1114  1.9622
 2639SOL     OW19552   1.211   1.029  15.143 -0.2779  0.1597 -0.3852
 2639SOL    HW119553   1.300   1.037  15.108 -0.6216  2.9772 -0.5746
 2639SOL    HW219554   1.193   1.123  15.138  2.1006  0.6267 -0.2611
 2640SOL     OW19555   3.448   4.362   6.830 -0.1250  0.5684 -0.4107
 2640SOL    HW119556   3.409   4.303   6.766  0.0645  2.2431 -2.0718
 2640SOL    HW219557   3.523   4.394   6.779  1.7551  2.4638  3.5208
 2641SOL     OW19558   2.981   0.369  15.248  0.0574 -0.2922 -0.8147
 2641SOL    HW119559   2.911   0.400  15.306  1.4869  0.5953  0.4608
 2641SOL    HW219560   2.972   0.442  15.187 -1.7546  0.2853  0.1434
 2642SOL     OW19561   4.188   0.329   8.113 -0.2287 -0.5033 -0.3206
 2642SOL    HW119562   4.254   0.267   8.143  0.1757  0.6339  1.1267
 2642SOL    HW219563   4.183   0.326   8.017 -0.6578  0.0685 -0.3189
 2643SOL     OW19564   2.552   3.964  16.768  0.3893  0.0491 -0.2563
 2643SOL    HW119565   2.557   3.921  16.683 -1.4056 -0.4377 -0.1099
 2643SOL    HW219566   2.588   4.053  16.761  1.0310 -0.1835  0.0055
 2644SOL     OW19567   0.794   3.937   6.314 -0.0379 -0.5284  0.6971
 2644SOL    HW119568   0.739   3.895   6.380 -0.6723  0.4463  0.7957
 2644SOL    HW219569   0.754   3.905   6.233  0.5493  0.7469 -0.0980
 2645SOL     OW19570   1.094   3.809   8.906 -0.2543 -0.3777 -0.0529
 2645SOL    HW119571   1.092   3.804   8.811  1.3175 -0.5249 -0.0769
 2645SOL    HW219572   1.189   3.821   8.914 -0.0152 -0.8644 -2.1153
 2646SOL     OW19573   3.008   1.686  11.611 -0.8366  0.0854  0.1211
 2646SOL    HW119574   2.976   1.726  11.530 -0.0797  0.5264  0.0384
 2646SOL    HW219575   3.102   1.676  11.597 -0.6231  0.9266  0.9844
 2647SOL     OW19576   2.446   0.392   4.868 -0.3034  0.5162  0.9571
 2647SOL    HW119577   2.414   0.466   4.816 -0.2367  0.3423  0.6728
 2647SOL    HW219578   2.507   0.345   4.811 -0.1253 -0.6991  2.1740
 2648SOL     OW19579   1.576   1.691   7.265  0.3603  0.0562  0.0187
 2648SOL    HW119580   1.529   1.756   7.317 -0.3608  0.2787 -0.9152
 2648SOL    HW219581   1.536   1.614   7.307  0.6407 -0.3703 -0.5036
 2649SOL     OW19582   4.336   2.089  14.756 -0.2687 -0.0170 -0.2407
 2649SOL    HW119583   4.393   2.166  14.761  0.0304 -0.2701  0.2928
 2649SOL    HW219584   4.377   2.043  14.682  2.2017  0.0443  1.0823
 2650SOL     OW19585   3.534   3.131   0.664 -0.3467 -0.1957 -0.1114
 2650SOL    HW119586   3.597   3.133   0.737 -1.1946  2.2224  0.5459
 2650SOL    HW219587   3.462   3.072   0.686 -0.4301 -0.3160 -0.7051
 2651SOL     OW19588   1.685   2.896   5.187 -0.1980 -0.2461  0.1147
 2651SOL    HW119589   1.607   2.854   5.222 -0.1528 -0.2339  0.2285
 2651SOL    HW219590   1.715   2.954   5.257 -0.3792 -1.3086  1.0615
 2652SOL     OW19591   4.117   2.473   9.083 -0.1906  1.0988 -1.0613
 2652SOL    HW119592   4.170   2.401   9.047  1.1054  1.1993  0.6517
 2652SOL    HW219593   4.182   2.528   9.126 -2.2067  1.6953  1.1878
 2653SOL     OW19594   3.242   1.603   9.402  0.1435  0.9663  0.2806
 2653SOL    HW119595   3.205   1.649   9.477  0.9018  0.0062  1.2411
 2653SOL    HW219596   3.233   1.509   9.411 -1.9263  1.0984 -0.5506
 2654SOL     OW19597   3.144   3.393  13.150  0.3064 -0.2184 -0.9638
 2654SOL    HW119598   3.232   3.374  13.184 -0.3419  0.2545  0.9517
 2654SOL    HW219599   3.145   3.489  13.150 -1.5468 -0.2117  0.8082
 2655SOL     OW19600   3.471   2.937   1.965 -0.1329  0.2751 -0.5086
 2655SOL    HW119601   3.386   2.982   1.970  0.2819  1.0942 -0.8288
 2655SOL    HW219602   3.444   2.858   2.012  0.3461  0.7557  0.5732
 2656SOL     OW19603   4.706   3.946   9.901  0.2663 -0.3986  0.0564
 2656SOL    HW119604   4.706   3.991   9.985  0.2636 -0.8288  0.2852
 2656SOL    HW219605   0.064   3.921   9.897  1.0335  2.3079  0.5896
 2657SOL     OW19606   0.130   3.132   3.931  0.1357  0.6186  0.0986
 2657SOL    HW119607   0.148   3.187   3.855  0.0833  0.1043 -0.2811
 2657SOL    HW219608   0.211   3.085   3.949 -0.0394  0.7337  1.2140
 2658SOL     OW19609   4.115   2.952  10.856 -0.0131  0.1403  0.8732
 2658SOL    HW119610   4.175   3.000  10.913  0.1535  1.7528 -0.6707
 2658SOL    HW219611   4.068   3.026  10.818  0.0789 -0.2351  0.0069
 2659SOL     OW19612   4.272   2.781   7.105 -0.2467  0.0385 -0.7231
 2659SOL    HW119613   4.236   2.869   7.098 -2.4525 -0.9284 -1.4713
 2659SOL    HW219614   4.229   2.748   7.184 -0.3790  4.2795  0.9725
 2660SOL     OW19615   1.104   1.644   8.799  0.6244  0.3644  0.1498
 2660SOL    HW119616   1.060   1.562   8.822  1.2406  0.0070  0.0484
 2660SOL    HW219617   1.175   1.644   8.863 -0.4002 -0.4992  1.2741
 2661SOL     OW19618   2.501   1.755  12.441  0.2008 -0.7085 -0.5357
 2661SOL    HW119619   2.550   1.698  12.382  0.5168  0.8344 -1.7453
 2661SOL    HW219620   2.544   1.728  12.522  1.4678  1.2751 -0.5536
 2662SOL     OW19621   1.813   0.123   6.097  0.0630  0.1788 -0.0228
 2662SOL    HW119622   1.778   0.087   6.015  0.4281  0.8378 -0.4727
 2662SOL    HW219623   1.792   0.053   6.159 -0.6284  1.4135  1.1396
 2663SOL     OW19624   2.920   2.543  17.404 -0.3503 -0.1864  0.5183
 2663SOL    HW119625   2.863   2.470  17.428 -2.3834  1.5515  0.9944
 2663SOL    HW219626   2.860   2.617  17.411 -1.0504 -0.8277  1.3839
 2664SOL     OW19627   3.080   1.374   7.576  0.0559  0.1576  0.0534
 2664SOL    HW119628   3.154   1.403   7.524  0.2368 -1.1217 -0.3781
 2664SOL    HW219629   3.016   1.364   7.505  0.9806  2.2851 -1.0859
 2665SOL     OW19630   4.074   1.592  12.414 -0.1324 -0.3052 -0.4845
 2665SOL    HW119631   4.132   1.565  12.486  0.1564 -0.4711 -0.7775
 2665SOL    HW219632   4.140   1.583  12.346 -0.5870 -0.4508 -0.8982
 2666SOL     OW19633   3.465   0.657   8.298 -0.1863 -0.1906  0.3993
 2666SOL    HW119634   3.533   0.608   8.252  0.7286 -1.7473  3.4556
 2666SOL    HW219635   3.383   0.607   8.291 -1.4817  2.1033 -0.7435
 2667SOL     OW19636   2.945   3.856  11.760  0.3792 -0.8293  0.1455
 2667SOL    HW119637   2.857   3.849  11.723  1.8591  2.0512 -3.9123
 2667SOL    HW219638   2.991   3.904  11.691  0.0081 -0.8827 -0.1409
 2668SOL     OW19639   3.511   0.675  14.187  0.6585 -0.2924  0.4659
 2668SOL    HW119640   3.565   0.642  14.258  0.3129 -0.5532  0.6115
 2668SOL    HW219641   3.566   0.751  14.169  0.8024 -0.4296  0.3287
 2669SOL     OW19642   4.232   4.694   7.028 -0.2562 -0.3290  0.0180
 2669SOL    HW119643   4.299   4.715   7.094 -2.3257 -1.7111  2.5643
 2669SOL    HW219644   4.275   4.621   6.983 -1.0542  0.2904 -1.7253
 2670SOL     OW19645   0.947   2.601   2.864 -0.1109  0.0218  0.0719
 2670SOL    HW119646   0.951   2.695   2.882 -0.1246 -0.2288  1.3998
 2670SOL    HW219647   1.030   2.567   2.897 -0.0566  1.1210  1.0637
 2671SOL     OW19648   4.280   4.336   7.576 -0.1766 -0.3909 -0.2186
 2671SOL    HW119649   4.331   4.352   7.655 -1.0754  0.8534  0.1042
 2671SOL    HW219650   4.290   4.241   7.577 -1.6512 -0.5487 -0.1361
 2672SOL     OW19651   3.823   2.356  16.874  0.5444 -0.3610 -0.4757
 2672SOL    HW119652   3.758   2.423  16.896  2.0023  0.9375 -0.0661
 2672SOL    HW219653   3.829   2.384  16.783  1.9375  2.2691  0.4046
 2673SOL     OW19654   1.397   0.713   2.935 -0.4313  0.0356  1.3457
 2673SOL    HW119655   1.423   0.641   2.878 -0.0861  1.2044  0.0369
 2673SOL    HW219656   1.327   0.670   2.984 -2.1056  0.4786 -0.6677
 2674SOL     OW19657   4.182   4.196   3.094 -0.0117 -0.4779  0.4625
 2674SOL    HW119658   4.177   4.181   2.999 -0.8931 -0.0622  0.4409
 2674SOL    HW219659   4.255   4.257   3.100 -0.7694  0.7585 -2.8612
 2675SOL     OW19660   2.906   4.706   6.398 -0.1565 -0.4168  0.0744
 2675SOL    HW119661   2.986   4.694   6.450  0.0029  1.8916  0.3866
 2675SOL    HW219662   2.886   0.058   6.434 -1.1956  0.1845 -1.9881
 2676SOL     OW19663   2.529   3.819   7.804  0.0704 -0.8591  0.0481
 2676SOL    HW119664   2.606   3.774   7.838  1.3100  2.1514  1.2821
 2676SOL    HW219665   2.481   3.743   7.772 -1.0678 -0.9548  1.9869
 2677SOL     OW19666   2.047   2.768  12.050 -0.1360  0.1672 -0.3237
 2677SOL    HW119667   2.075   2.848  12.095  0.7216 -1.4953  2.0866
 2677SOL    HW219668   2.005   2.800  11.970 -3.7007 -3.8051 -0.0027
 2678SOL     OW19669   1.763   1.617   3.224  0.2824 -0.0467 -0.2771
 2678SOL    HW119670   1.681   1.666   3.232  0.1950  0.1009 -2.2009
 2678SOL    HW219671   1.768   1.552   3.294  0.1638  0.0486 -0.1802
 2679SOL     OW19672   3.430   2.505  12.807  0.2035  0.0656 -0.2553
 2679SOL    HW119673   3.510   2.453  12.800  0.1655 -0.0231 -0.0345
 2679SOL    HW219674   3.400   2.499  12.716 -1.3019  1.7089  0.1397
 2680SOL     OW19675   0.990   1.902   4.402  0.8163 -0.3459 -0.1238
 2680SOL    HW119676   1.066   1.910   4.343  1.0335 -0.5352  0.1301
 2680SOL    HW219677   0.950   1.829   4.356  0.0773 -1.2953  2.0412
 2681SOL     OW19678   3.665   0.257   2.786  0.3202  0.1687 -0.1567
 2681SOL    HW119679   3.596   0.195   2.763  1.5881 -1.3161 -0.0337
 2681SOL    HW219680   3.620   0.327   2.832 -1.0435 -1.7631  1.4587
 2682SOL     OW19681   3.078   0.314  13.084  0.5067  0.3205 -0.0215
 2682SOL    HW119682   3.131   0.392  13.100  1.3555 -0.0501 -1.1264
 2682SOL    HW219683   2.997   0.323  13.135  0.3914 -0.6603 -0.0462
 2683SOL     OW19684   0.762   2.963   7.413  0.2205  0.1549  0.0511
 2683SOL    HW119685   0.677   2.924   7.396 -0.8344  1.7980  1.5511
 2683SOL    HW219686   0.788   2.926   7.498 -0.0286  1.1037  0.5386
 2684SOL     OW19687   0.255   0.197   6.216  0.1337 -0.2867  0.5062
 2684SOL    HW119688   0.319   0.263   6.189  1.3284 -2.3099 -1.5978
 2684SOL    HW219689   0.221   0.166   6.133  2.7349 -0.8475 -0.3453
 2685SOL     OW19690   4.073   0.963   2.330  0.0103 -0.2901 -0.1271
 2685SOL    HW119691   4.044   0.892   2.272 -0.7792  1.0448 -1.3811
 2685SOL    HW219692   4.016   0.954   2.406 -0.6111  2.0785 -0.3094
 2686SOL     OW19693   0.173   3.025  10.875 -0.0261 -0.1083  0.3150
 2686SOL    HW119694   0.183   3.120  10.882 -2.2982  0.2359 -0.9459
 2686SOL    HW219695   0.102   3.016  10.939 -0.8020  1.9207 -0.2736
 2687SOL     OW19696   3.812   4.671   2.242  0.1686 -0.4160 -0.5872
 2687SOL    HW119697   3.768   0.015   2.277 -1.5943 -1.9046  0.4761
 2687SOL    HW219698   3.740   4.639   2.188 -0.5703  2.1593 -1.1612
 2688SOL     OW19699   3.101   4.466   9.944 -0.8942 -0.0001 -0.1230
 2688SOL    HW119700   3.170   4.473   9.878 -0.8927  0.6718 -0.0538
 2688SOL    HW219701   3.144   4.526  10.005  0.7877 -1.3357 -0.0031
 2689SOL     OW19702   4.014   0.492   6.786 -0.1568 -0.4493  0.4262
 2689SOL    HW119703   3.948   0.477   6.853  0.3440  0.0485  1.0294
 2689SOL    HW219704   4.057   0.570   6.824  1.5687 -1.9810  1.6221
 2690SOL     OW19705   1.333   0.006  14.545 -0.1995  0.5811 -0.0323
 2690SOL    HW119706   1.352   0.035  14.634 -0.7095  0.0673  0.2399
 2690SOL    HW219707   1.403   4.678  14.529 -1.0909 -0.7553  1.3220
 2691SOL     OW19708   2.327   0.932  10.672  0.3605  0.4586 -0.3513
 2691SOL    HW119709   2.278   0.943  10.754 -3.5371 -0.1361 -2.6079
 2691SOL    HW219710   2.324   1.020  10.633 -2.5949  0.1823 -0.7484
 2692SOL     OW19711   2.072   3.651   4.504 -0.1968 -0.3590  0.1207
 2692SOL    HW119712   1.983   3.641   4.538  0.2180 -1.7088  0.8236
 2692SOL    HW219713   2.117   3.667   4.587  1.3030  1.3985 -1.0412
 2693SOL     OW19714   3.518   4.670   0.991 -0.3428 -0.7682 -0.9404
 2693SOL    HW119715   3.557   0.012   0.946 -1.1483  0.6816  0.8019
 2693SOL    HW219716   3.454   4.640   0.927 -0.0983 -0.9542 -1.0983
 2694SOL     OW19717   0.965   4.570   6.389 -0.8183  0.2127  0.1802
 2694SOL    HW119718   0.960   4.640   6.455 -1.5617 -1.6909  2.1527
 2694SOL    HW219719   1.060   4.569   6.378 -1.2177  1.6418 -3.1725
 2695SOL     OW19720   1.929   1.081   6.046  0.3199 -0.4071 -0.1101
 2695SOL    HW119721   1.837   1.070   6.023  0.3772 -0.0648 -0.4959
 2695SOL    HW219722   1.929   1.131   6.128  1.8153  0.1736 -0.4758
 2696SOL     OW19723   0.800   3.509   4.923  0.5377  0.5162  0.1463
 2696SOL    HW119724   0.765   3.428   4.960  0.2662  1.5596  2.1883
 2696SOL    HW219725   0.764   3.515   4.835  0.6332  1.0177  0.1446
 2697SOL     OW19726   2.730   0.085   9.345 -0.1336  0.3658 -0.2517
 2697SOL    HW119727   2.656   0.085   9.285 -0.7624 -0.4660  0.5277
 2697SOL    HW219728   2.695   0.131   9.421 -1.7133 -1.6518  0.2382
 2698SOL     OW19729   4.230   0.910   6.834  0.3525  0.2790 -0.0736
 2698SOL    HW119730   4.292   0.903   6.761  0.4530 -0.9544  0.1165
 2698SOL    HW219731   4.187   0.991   6.809  0.1223  0.3470  0.5591
 2699SOL     OW19732   0.701   2.723  10.956 -0.1479  0.2301  0.2303
 2699SOL    HW119733   0.608   2.742  10.947  0.0029  1.6405  1.7131
 2699SOL    HW219734   0.697   2.637  10.998  0.2283 -0.4020 -1.0208
 2700SOL     OW19735   0.502   2.533  17.681  0.4074 -0.1296  0.6756
 2700SOL    HW119736   0.520   2.560   0.035  0.0834  1.1047  0.3608
 2700SOL    HW219737   0.498   2.620  17.641 -1.4565 -0.4031  0.2879
 2701SOL     OW19738   1.073   2.538   4.805 -0.9480  0.2980  0.1302
 2701SOL    HW119739   1.002   2.547   4.870 -0.1024 -2.4424  1.4313
 2701SOL    HW219740   1.069   2.626   4.769  2.7772  0.3967 -0.0375
 2702SOL     OW19741   0.928   0.244   7.000  0.1198  0.5541  0.2403
 2702SOL    HW119742   0.999   0.264   6.940  1.5388  0.8741  2.0378
 2702SOL    HW219743   0.918   0.335   7.028 -0.4703  0.9901 -1.3752
 2703SOL     OW19744   2.252   4.151  11.660  0.5448  0.0123  0.1913
 2703SOL    HW119745   2.237   4.160  11.566 -0.2186 -2.4798  0.0827
 2703SOL    HW219746   2.263   4.243  11.683  0.6608  0.1557 -0.4589
 2704SOL     OW19747   0.779   3.932   0.478  0.9364  0.5505 -0.4696
 2704SOL    HW119748   0.785   3.849   0.430 -1.0266 -1.5988  3.0149
 2704SOL    HW219749   0.704   3.976   0.441  0.6721  2.1762  1.9857
 2705SOL     OW19750   1.818   3.425   5.495 -0.0701  0.0973 -0.8201
 2705SOL    HW119751   1.808   3.413   5.401 -1.0277 -1.6834 -0.4845
 2705SOL    HW219752   1.808   3.517   5.519 -0.1930 -0.2688  0.5654
 2706SOL     OW19753   3.106   3.584   8.528 -0.5477 -0.4641 -0.1040
 2706SOL    HW119754   3.161   3.662   8.535  1.6883 -1.8495 -1.9771
 2706SOL    HW219755   3.041   3.596   8.596  2.1063  0.2735  2.3134
 2707SOL     OW19756   2.369   2.090   1.603  0.0576  0.3560  0.1225
 2707SOL    HW119757   2.457   2.056   1.588 -0.3189 -1.0093  0.9482
 2707SOL    HW219758   2.337   2.016   1.655 -0.3211  0.6409  0.2957
 2708SOL     OW19759   0.574   1.731  10.745 -0.5241  0.6318  0.4314
 2708SOL    HW119760   0.561   1.671  10.818 -2.1755 -2.2824 -2.2322
 2708SOL    HW219761   0.641   1.790  10.779  0.0064  1.2601 -1.6872
 2709SOL     OW19762   2.277   2.815   3.450 -0.4615 -0.5681 -0.3061
 2709SOL    HW119763   2.369   2.788   3.443  0.0134  0.5476  1.5500
 2709SOL    HW219764   2.260   2.798   3.543  0.6491  0.3182  0.0679
 2710SOL     OW19765   0.165   1.605   8.596  0.1455 -0.3683  0.0327
 2710SOL    HW119766   0.089   1.602   8.538  1.5221  0.0662 -1.7652
 2710SOL    HW219767   0.136   1.546   8.666 -2.6932  0.4032 -0.5088
 2711SOL     OW19768   1.675   4.699   9.660  0.1863  0.1102 -0.1785
 2711SOL    HW119769   1.580   4.688   9.671  0.0075  0.8866 -0.9907
 2711SOL    HW219770   1.686   0.006   9.745  0.1010 -1.7024  0.7185
 2712SOL     OW19771   2.230   1.832   5.980 -0.0372  0.7285  0.3020
 2712SOL    HW119772   2.230   1.824   5.885 -1.6306  0.8450  0.2915
 2712SOL    HW219773   2.168   1.765   6.010 -1.1945  1.0704 -1.3169
 2713SOL     OW19774   1.107   3.927   1.124  0.6838 -0.2905 -0.9570
 2713SOL    HW119775   1.123   3.835   1.146 -2.1482 -0.3165  1.0370
 2713SOL    HW219776   1.187   3.963   1.161  0.5116  1.0509 -1.9222
 2714SOL     OW19777   0.342   1.176   3.135 -0.3490  0.1472 -0.6851
 2714SOL    HW119778   0.380   1.133   3.059  0.3711  0.3812 -0.4530
 2714SOL    HW219779   0.418   1.221   3.171 -2.5874  1.5181  2.3305
 2715SOL     OW19780   0.330   0.511   7.413 -0.5177 -0.0729  0.1621
 2715SOL    HW119781   0.386   0.587   7.432 -0.0748  0.0584 -1.6855
 2715SOL    HW219782   0.352   0.453   7.486  0.9775  0.2212 -0.0546
 2716SOL     OW19783   3.169   0.947   4.019 -0.0071 -0.4876  0.4228
 2716SOL    HW119784   3.171   0.878   3.953 -0.2908 -2.0479  2.0456
 2716SOL    HW219785   3.130   0.897   4.092  0.7168  0.3773  1.3998
 2717SOL     OW19786   4.239   0.516  16.260  0.1713  0.3781 -0.0833
 2717SOL    HW119787   4.317   0.571  16.252 -0.0507  0.5264 -1.2911
 2717SOL    HW219788   4.165   0.571  16.233  0.0158  0.8975  1.3859
 2718SOL     OW19789   3.637   3.590   7.663  0.6841  0.0029  0.0911
 2718SOL    HW119790   3.727   3.576   7.690  0.8729  1.1594  0.0485
 2718SOL    HW219791   3.644   3.586   7.567 -0.8809 -1.4808  0.0342
 2719SOL     OW19792   0.326   1.528  17.506 -0.1669 -1.2267 -0.2597
 2719SOL    HW119793   0.410   1.570  17.483 -1.7081  1.5281 -0.9304
 2719SOL    HW219794   0.301   1.588  17.577 -1.5061  0.1736 -1.9012
 2720SOL     OW19795   4.211   1.751  14.559 -0.1020 -0.0918  0.4315
 2720SOL    HW119796   4.140   1.694  14.531 -1.3599  1.8320 -0.3153
 2720SOL    HW219797   4.234   1.788  14.473 -0.7127 -0.2579  0.1935
 2721SOL     OW19798   3.664   4.169  10.734 -0.0361  1.3458  0.4679
 2721SOL    HW119799   3.601   4.154  10.805 -0.7435  0.0118 -0.4415
 2721SOL    HW219800   3.609   4.162  10.656 -0.4255 -0.1627  0.8778
 2722SOL     OW19801   1.192   2.085  17.475 -0.5508  0.0442 -0.2320
 2722SOL    HW119802   1.234   2.057  17.557 -1.3981 -0.4463  0.0315
 2722SOL    HW219803   1.249   2.057  17.403 -0.8493  0.4831 -0.6397
 2723SOL     OW19804   1.966   2.054  12.116  0.1222 -0.2375 -0.4493
 2723SOL    HW119805   1.987   2.000  12.040  0.7868 -0.8199  0.1558
 2723SOL    HW219806   2.005   2.141  12.101 -2.4528  1.1164  0.7423
 2724SOL     OW19807   3.206   3.288   8.124  0.5636  0.8539  0.3442
 2724SOL    HW119808   3.191   3.339   8.204  0.4437 -0.3872  1.1034
 2724SOL    HW219809   3.294   3.312   8.093  0.9724  1.6405  2.0934
 2725SOL     OW19810   2.334   3.513  10.585  0.3827  0.0832 -0.1861
 2725SOL    HW119811   2.377   3.482  10.664 -2.6386 -1.3398  0.9170
 2725SOL    HW219812   2.354   3.443  10.522  0.0331 -0.4096  0.2553
 2726SOL     OW19813   3.320   1.877   9.676  0.5344 -0.2723  0.4860
 2726SOL    HW119814   3.411   1.850   9.666  1.2134  1.2080  2.7152
 2726SOL    HW219815   3.277   1.794   9.698  2.2439 -1.1932  0.3392
 2727SOL     OW19816   4.236   3.784   9.001  0.0502 -0.1839 -0.6036
 2727SOL    HW119817   4.162   3.774   8.942 -0.4207  1.5597 -0.2990
 2727SOL    HW219818   4.307   3.727   8.969 -0.0182  0.3839 -1.7740
 2728SOL     OW19819   1.796   0.520   1.108  0.4036  0.3446  0.7682
 2728SOL    HW119820   1.840   0.449   1.060 -0.6267 -0.1627  0.5694
 2728SOL    HW219821   1.870   0.576   1.132  0.9227  0.2560 -0.5887
 2729SOL     OW19822   3.525   2.922   2.457 -0.3946 -0.4678 -0.1459
 2729SOL    HW119823   3.465   2.896   2.527 -0.2987 -2.2788 -0.7565
 2729SOL    HW219824   3.478   2.995   2.417 -1.9599 -0.1311  2.2872
 2730SOL     OW19825   3.221   1.219   7.191  0.2314 -0.0458  0.1087
 2730SOL    HW119826   3.201   1.312   7.199 -0.2397  0.0408 -2.1972
 2730SOL    HW219827   3.309   1.215   7.155  0.6563 -0.4887  1.1920
 2731SOL     OW19828   1.047   0.817   9.164 -0.3425  0.2353  0.1706
 2731SOL    HW119829   1.050   0.742   9.223 -2.4260  1.8612  2.3766
 2731SOL    HW219830   1.008   0.879   9.226 -1.8553 -1.9118  1.3574
 2732SOL     OW19831   0.161   4.015   3.799  0.2481 -0.0147 -0.3901
 2732SOL    HW119832   0.203   4.093   3.835 -0.9588  0.1711  0.6036
 2732SOL    HW219833   0.087   3.999   3.857  0.4592  1.5266  0.3013
 2733SOL     OW19834   2.022   4.648   1.062 -0.2120 -0.1324  0.1101
 2733SOL    HW119835   2.100   4.692   1.029 -0.5012 -0.4948 -1.0350
 2733SOL    HW219836   1.991   4.607   0.982  1.4787 -0.1471 -0.5340
 2734SOL     OW19837   2.338   0.305   1.386  0.0758  0.2088  0.0842
 2734SOL    HW119838   2.403   0.295   1.456 -0.7480 -0.3076  0.7875
 2734SOL    HW219839   2.251   0.303   1.426  0.5111 -2.5235  0.9447
 2735SOL     OW19840   0.097   1.335   8.741  0.0710  0.0145 -0.0954
 2735SOL    HW119841   0.184   1.346   8.781 -0.1299  1.7315 -0.1109
 2735SOL    HW219842   0.050   1.307   8.819  1.0749  0.4622  0.6771
 2736SOL     OW19843   2.698   2.693   1.112  0.4945 -0.0934 -0.3711
 2736SOL    HW119844   2.760   2.759   1.083  2.0151 -1.0733  0.6442
 2736SOL    HW219845   2.627   2.697   1.048  1.0643 -0.6085 -1.0375
 2737SOL     OW19846   1.104   1.498   1.235 -0.3489  0.5144 -0.3704
 2737SOL    HW119847   1.127   1.415   1.278  0.7383  0.4236 -1.1230
 2737SOL    HW219848   1.022   1.517   1.280 -0.2334 -0.2994  0.1909
 2738SOL     OW19849   2.897   3.926   8.193  0.3616  0.2518  0.4106
 2738SOL    HW119850   2.824   3.971   8.236  0.6150  1.5165 -0.5137
 2738SOL    HW219851   2.859   3.869   8.126  0.4472  1.6577 -0.8198
 2739SOL     OW19852   4.123   2.449   3.533  0.3406  0.3040 -0.4938
 2739SOL    HW119853   4.191   2.456   3.600 -0.1901 -2.4802  0.3408
 2739SOL    HW219854   4.111   2.540   3.507  2.7123  1.1898  1.5166
 2740SOL     OW19855   1.129   0.179   4.889 -0.4943  0.5646 -0.7725
 2740SOL    HW119856   1.181   0.255   4.916 -1.8295  1.3282 -0.3830
 2740SOL    HW219857   1.042   0.198   4.925  0.3223  2.5229  0.1915
 2741SOL     OW19858   4.179   2.706   3.533 -0.4183 -0.2248 -0.3034
 2741SOL    HW119859   4.239   2.707   3.608 -2.4704 -1.3200  1.3233
 2741SOL    HW219860   4.140   2.793   3.536 -2.0697 -1.0031  0.8936
 2742SOL     OW19861   1.373   3.287   6.808  0.0351  0.0872 -0.6102
 2742SOL    HW119862   1.397   3.378   6.792  0.4090  0.0240 -0.4248
 2742SOL    HW219863   1.408   3.277   6.897  0.5912  2.2097 -0.6026
 2743SOL     OW19864   2.340   1.103   1.282 -0.1942 -0.2360  0.1512
 2743SOL    HW119865   2.424   1.140   1.257 -1.8226  3.5160  0.2305
 2743SOL    HW219866   2.292   1.179   1.315 -0.7022 -0.3189 -0.3831
 2744SOL     OW19867   0.518   4.010   5.020 -0.5613 -0.2376 -0.0656
 2744SOL    HW119868   0.529   3.969   4.934 -1.4395 -0.9737  0.1698
 2744SOL    HW219869   0.511   3.936   5.080  0.1690 -1.6141 -1.7119
 2745SOL     OW19870   1.619   0.812  16.953  0.1612 -0.8656  0.6135
 2745SOL    HW119871   1.579   0.780  17.034 -0.4759  0.7037  0.9357
 2745SOL    HW219872   1.614   0.904  16.982  1.3411  0.0044 -1.9458
 2746SOL     OW19873   2.917   2.753   0.072  0.1698  0.1557  0.9789
 2746SOL    HW119874   2.871   2.795  17.735 -2.2927 -1.2072  1.7518
 2746SOL    HW219875   2.884   2.802   0.148  1.0001  1.1132  0.7273
 2747SOL     OW19876   2.861   1.710   6.857 -0.6307 -0.3026 -0.3890
 2747SOL    HW119877   2.826   1.795   6.882  1.7804  0.6426 -0.1636
 2747SOL    HW219878   2.819   1.688   6.773 -0.0916 -0.7533 -0.5418
 2748SOL     OW19879   0.289   1.828  11.641  0.3040 -0.2036  0.4303
 2748SOL    HW119880   0.382   1.826  11.666  0.7203 -1.3084 -1.2421
 2748SOL    HW219881   0.281   1.923  11.653 -3.7830 -0.2904 -1.6505
 2749SOL     OW19882   1.164   3.677  14.850  0.1796  0.5547  0.4789
 2749SOL    HW119883   1.134   3.700  14.938  0.6953  0.4968  0.6678
 2749SOL    HW219884   1.140   3.584  14.842  1.0569  0.4668 -1.0335
 2750SOL     OW19885   3.624   2.734   1.879  0.5116  0.0465 -0.3964
 2750SOL    HW119886   3.574   2.681   1.940  2.1456  0.8344  1.6180
 2750SOL    HW219887   3.573   2.815   1.887 -1.5840 -1.3854  0.6396
 2751SOL     OW19888   1.252   0.017   3.715 -0.6024 -0.4287  0.0323
 2751SOL    HW119889   1.170   0.049   3.678  0.3169 -0.0788 -1.6667
 2751SOL    HW219890   1.225   4.665   3.748 -0.6449 -0.0915  0.8779
 2752SOL     OW19891   3.878   0.503   2.021  0.0730 -0.2998  0.0973
 2752SOL    HW119892   3.957   0.505   2.077  0.1567  1.5766 -0.0911
 2752SOL    HW219893   3.926   0.456   1.953 -0.1555  2.3176 -1.8389
 2753SOL     OW19894   4.241   2.144   7.803 -0.2673  0.6525 -0.1956
 2753SOL    HW119895   4.272   2.118   7.717  0.9864  0.2430  0.3823
 2753SOL    HW219896   4.314   2.111   7.857  0.1316 -0.1287 -1.2169
 2754SOL     OW19897   2.952   1.617   1.679  0.3755 -0.4429 -0.0417
 2754SOL    HW119898   2.905   1.560   1.741  0.6426 -0.0534  0.5122
 2754SOL    HW219899   2.924   1.576   1.596 -2.2835  0.0770  0.6119
 2755SOL     OW19900   2.858   4.595   6.713  0.2594 -0.1774  0.2226
 2755SOL    HW119901   2.835   4.663   6.777 -1.8668 -0.6333 -0.0591
 2755SOL    HW219902   2.954   4.596   6.718  0.2482  1.4576  0.2540
 2756SOL     OW19903   1.274   2.191   2.479 -0.0961  0.0620  0.2791
 2756SOL    HW119904   1.220   2.153   2.410  0.1940  0.7326 -0.3187
 2756SOL    HW219905   1.228   2.274   2.482 -1.3834 -0.6479  0.1643
 2757SOL     OW19906   4.680   3.614   0.266  0.0812 -0.0613  0.5333
 2757SOL    HW119907   4.688   3.519   0.253 -1.9589  0.0853 -1.7980
 2757SOL    HW219908   4.731   3.649   0.193  1.0485  0.7406  1.5933
 2758SOL     OW19909   0.173   1.117  14.338 -0.3517  0.1675 -0.7053
 2758SOL    HW119910   0.194   1.114  14.431  0.8489  1.7240 -0.9118
 2758SOL    HW219911   0.238   1.053  14.308 -0.1219 -1.3472  3.0418
 2759SOL     OW19912   2.478   2.186   2.511  0.1024 -0.4016 -0.2413
 2759SOL    HW119913   2.435   2.216   2.591  0.0145  0.3625 -0.5678
 2759SOL    HW219914   2.525   2.265   2.482 -1.9763  1.4659  1.4897
 2760SOL     OW19915   1.087   2.371   1.596  0.0811 -0.7399 -0.2016
 2760SOL    HW119916   1.123   2.300   1.544 -1.0525 -1.2232 -0.3341
 2760SOL    HW219917   0.994   2.353   1.611  0.3636 -3.6257 -1.8895
 2761SOL     OW19918   0.532   3.141  12.075 -0.1172 -1.0051 -0.1199
 2761SOL    HW119919   0.537   3.141  12.171 -1.2162  1.3267 -0.0598
 2761SOL    HW219920   0.438   3.155  12.060 -0.5902 -2.8462  1.0593
 2762SOL     OW19921   1.200   2.221   3.156  0.0540 -0.0387  0.5429
 2762SOL    HW119922   1.272   2.280   3.132 -0.8106 -0.2857 -2.7167
 2762SOL    HW219923   1.245   2.177   3.228  1.1741  0.1995 -0.0130
 2763SOL     OW19924   0.983   0.374   8.051 -0.1784 -0.1469  0.1089
 2763SOL    HW119925   0.913   0.366   8.115 -1.8782 -1.0575 -1.8902
 2763SOL    HW219926   1.055   0.381   8.114  0.7894 -2.5778 -0.7432
 2764SOL     OW19927   3.135   3.506   7.807 -0.1596  0.6414 -0.8193
 2764SOL    HW119928   3.097   3.593   7.822 -1.6320 -0.3724  1.3282
 2764SOL    HW219929   3.228   3.520   7.789 -0.0481 -0.4527 -1.0926
 2765SOL     OW19930   3.455   1.174  14.653 -0.5426  0.0144 -0.1743
 2765SOL    HW119931   3.401   1.174  14.574 -1.8837  0.5090  0.7583
 2765SOL    HW219932   3.518   1.234  14.614 -0.0235 -1.1376 -1.1341
 2766SOL     OW19933   3.801   1.616   8.131  0.3072 -0.2612  0.1039
 2766SOL    HW119934   3.836   1.675   8.197  2.4318 -3.3050  1.7191
 2766SOL    HW219935   3.822   1.534   8.176  0.0456 -0.2902  0.1793
 2767SOL     OW19936   3.834   4.245   8.751  0.2677  0.3313 -0.1164
 2767SOL    HW119937   3.808   4.253   8.659  0.1694 -0.3980 -0.1481
 2767SOL    HW219938   3.785   4.321   8.782 -1.0088  0.0558 -1.4408
 2768SOL     OW19939   2.398   4.339  11.852  0.2655 -0.3925  0.0602
 2768SOL    HW119940   2.416   4.386  11.934  0.7650 -1.0306  0.3140
 2768SOL    HW219941   2.337   4.405  11.818  0.4728 -1.3808 -2.2583
 2769SOL     OW19942   0.996   2.259   0.168 -0.3524  0.2238  0.0832
 2769SOL    HW119943   0.968   2.280   0.257  1.0300 -0.4712  0.6810
 2769SOL    HW219944   0.961   2.173   0.143 -0.0295  0.0701  0.1640
 2770SOL     OW19945   1.403   0.300  12.840 -0.4545 -0.3741 -0.1002
 2770SOL    HW119946   1.399   0.393  12.816 -0.1692 -0.3162  0.0697
 2770SOL    HW219947   1.486   0.288  12.793 -0.7187  0.4242 -0.7623
 2771SOL     OW19948   1.310   4.018   3.027  0.4953  0.0075 -0.3441
 2771SOL    HW119949   1.334   3.928   3.050 -2.4607 -0.2160  1.8502
 2771SOL    HW219950   1.349   4.030   2.941  0.0543  1.2065 -0.3777
 2772SOL     OW19951   2.428   2.690   4.998  0.2334 -0.0082 -0.3511
 2772SOL    HW119952   2.466   2.776   5.017  1.9095 -0.9338  0.5876
 2772SOL    HW219953   2.338   2.710   5.022  0.1427  0.6374 -1.2548
 2773SOL     OW19954   3.127   2.133  14.222  0.5827 -0.3011 -0.5768
 2773SOL    HW119955   3.052   2.075  14.211  1.3560 -1.0955 -1.7020
 2773SOL    HW219956   3.194   2.069  14.246 -1.5465 -1.6427  1.7150
 2774SOL     OW19957   4.230   4.676  14.899  0.3337  0.2604  0.4664
 2774SOL    HW119958   4.324   4.689  14.888  0.3296 -0.6590 -0.6092
 2774SOL    HW219959   4.215   4.615  14.827 -0.5552 -1.3255  1.9713
 2775SOL     OW19960   2.956   3.849  15.832  0.4796  0.2281  0.2695
 2775SOL    HW119961   2.947   3.912  15.761  2.9287 -0.3082 -0.5111
 2775SOL    HW219962   2.949   3.909  15.906  0.4455  1.0090 -0.3596
 2776SOL     OW19963   4.152   1.736   3.033  0.0868 -0.2111  0.0832
 2776SOL    HW119964   4.138   1.774   2.946 -1.1858 -0.5140  0.1562
 2776SOL    HW219965   4.140   1.813   3.089  0.1054 -0.0068 -0.1969
 2777SOL     OW19966   0.127   0.777  11.443  0.2453 -0.4073  0.4046
 2777SOL    HW119967   0.183   0.704  11.470 -1.0631 -2.0362 -1.2999
 2777SOL    HW219968   0.119   0.764  11.349  1.1919 -0.4383  0.3289
 2778SOL     OW19969   3.703   1.401  14.931 -0.5557  0.7335  0.2502
 2778SOL    HW119970   3.766   1.459  14.974 -1.4499  1.7248  0.2247
 2778SOL    HW219971   3.675   1.453  14.856  2.2712  0.4507 -1.0077
 2779SOL     OW19972   1.927   3.122   4.163  0.0568  0.1552 -0.0535
 2779SOL    HW119973   1.922   3.217   4.169  1.8887  0.3547 -1.7345
 2779SOL    HW219974   1.838   3.087   4.173  0.6890 -1.4786 -0.0764
 2780SOL     OW19975   3.014   1.928   1.443  0.0407 -0.0766  0.4631
 2780SOL    HW119976   2.945   1.887   1.494 -0.7619  0.0139 -0.5480
 2780SOL    HW219977   2.991   1.903   1.354  0.3585 -0.0709  0.3776
 2781SOL     OW19978   3.981   2.413   0.246  0.8016  0.6692  0.1722
 2781SOL    HW119979   4.023   2.386   0.165 -1.4702  1.1464 -1.1620
 2781SOL    HW219980   3.920   2.340   0.259 -0.4541  1.5793 -0.6389
 2782SOL     OW19981   3.034   3.755  17.507  0.1522  0.1034  0.5575
 2782SOL    HW119982   2.966   3.704  17.551  2.0725 -0.0440  3.3553
 2782SOL    HW219983   2.982   3.828  17.474 -2.2420 -0.4228  3.1266
 2783SOL     OW19984   0.997   4.497  12.814 -0.6757  0.8773  0.6269
 2783SOL    HW119985   1.001   4.470  12.722 -4.7068  0.4703  0.5907
 2783SOL    HW219986   1.086   4.469  12.836 -1.2293 -1.0611  0.4553
 2784SOL     OW19987   0.845   3.164   3.609  0.0355 -0.1190  0.2033
 2784SOL    HW119988   0.811   3.076   3.623 -0.0040  0.0258  1.0138
 2784SOL    HW219989   0.816   3.202   3.692  0.1323 -2.0414  1.1042
 2785SOL     OW19990   1.183   0.044   5.401 -0.1127 -0.6118  0.1263
 2785SOL    HW119991   1.137   4.729   5.469  0.3136 -1.1371  0.0396
 2785SOL    HW219992   1.272   0.020   5.429  0.9318  0.5207 -2.2434
 2786SOL     OW19993   4.397   3.809   0.520 -0.0902 -0.2396  0.1286
 2786SOL    HW119994   4.386   3.731   0.465 -0.4053 -0.3497  0.3450
 2786SOL    HW219995   4.489   3.831   0.528 -0.8438  3.2845 -0.4877
 2787SOL     OW19996   2.608   1.112   6.891  0.0559 -0.2723  0.8823
 2787SOL    HW119997   2.692   1.103   6.847  0.0616 -0.5734  0.9547
 2787SOL    HW219998   2.625   1.201   6.923  2.1557  0.2919 -1.8863
 2788SOL     OW19999   3.980   1.652  14.201  0.7201  0.0151  0.5830
 2788SOL    HW120000   3.985   1.574  14.147 -3.4872 -0.6509  1.1396
 2788SOL    HW220001   3.903   1.694  14.164 -0.6731 -1.9405  1.2856
 2789SOL     OW20002   4.362   0.870   6.605 -0.2127  0.0917  0.2495
 2789SOL    HW120003   4.408   0.799   6.561  0.6596  0.7751  0.0705
 2789SOL    HW220004   4.298   0.892   6.537 -0.5245 -0.9502  0.1965
 2790SOL     OW20005   2.362   4.291   9.118  0.2702  0.3391 -0.2974
 2790SOL    HW120006   2.305   4.338   9.178 -0.5998  1.6713 -2.1773
 2790SOL    HW220007   2.443   4.341   9.127  0.9327 -0.4114 -1.9276
 2791SOL     OW20008   0.172   1.790   6.938 -0.7328  0.1635  0.4958
 2791SOL    HW120009   0.178   1.880   6.971  2.8617  0.6807 -1.5698
 2791SOL    HW220010   0.093   1.757   6.980 -1.2609 -0.6091 -1.1091
 2792SOL     OW20011   2.618   2.404   3.342  0.1858  0.5428 -0.0472
 2792SOL    HW120012   2.564   2.340   3.389  0.9799 -1.0055 -1.2510
 2792SOL    HW220013   2.549   2.425   3.278 -0.8773  1.8214  1.5195
 2793SOL     OW20014   4.616   0.921   3.870  0.0525 -0.2977 -0.2089
 2793SOL    HW120015   4.702   0.925   3.830  0.2859  3.6537  0.7168
 2793SOL    HW220016   4.600   1.014   3.887  0.2769 -0.3306  0.1832
 2794SOL     OW20017   2.332   3.518  16.286  0.2603 -0.1651  0.0994
 2794SOL    HW120018   2.294   3.437  16.321  0.8965 -0.7836 -0.6317
 2794SOL    HW220019   2.343   3.493  16.194  0.6458  1.1057 -0.1930
 2795SOL     OW20020   4.307   2.656   9.160  0.3789 -0.1665 -0.2820
 2795SOL    HW120021   4.335   2.721   9.095  2.6181 -0.7897  0.0593
 2795SOL    HW220022   4.390   2.620   9.189  0.1214 -1.3864 -1.0507
 2796SOL     OW20023   3.547   3.372   4.082 -0.0007  0.2080  0.1701
 2796SOL    HW120024   3.530   3.430   4.007  0.8473  1.1799  0.7360
 2796SOL    HW220025   3.641   3.378   4.099  0.3969  1.6577 -2.4670
 2797SOL     OW20026   2.535   3.576   5.536  0.0222  0.1316  0.0213
 2797SOL    HW120027   2.620   3.619   5.521  1.6860 -3.1084  0.1980
 2797SOL    HW220028   2.528   3.606   5.626 -3.9084  0.2941 -0.3556
 2798SOL     OW20029   0.574   3.527   5.599 -0.1704 -0.3752  0.5692
 2798SOL    HW120030   0.497   3.502   5.650 -0.3102  0.4256  0.7507
 2798SOL    HW220031   0.636   3.459   5.624  1.7752  1.5007  0.8362
 2799SOL     OW20032   3.291   2.663  17.708 -0.3608  0.0617 -0.5369
 2799SOL    HW120033   3.359   2.596  17.715  0.7444  1.4870  2.3494
 2799SOL    HW220034   3.224   2.612  17.662 -0.3640 -0.4259  0.0160
 2800SOL     OW20035   0.672   0.837   6.149 -0.5063  0.1341  0.3314
 2800SOL    HW120036   0.720   0.857   6.230  1.2270 -0.9216 -0.4505
 2800SOL    HW220037   0.716   0.898   6.090 -1.6449  0.2290 -0.4117
 2801SOL     OW20038   1.653   1.895   0.251  0.8370  0.5284  0.2102
 2801SOL    HW120039   1.558   1.890   0.262  0.7801  1.9314  0.4111
 2801SOL    HW220040   1.675   1.987   0.267 -0.2219  0.8101  0.0165
 2802SOL     OW20041   3.690   0.306   4.184  0.3432 -0.0669 -0.1799
 2802SOL    HW120042   3.747   0.375   4.217 -2.8234  1.2648  2.5224
 2802SOL    HW220043   3.648   0.348   4.110  1.2982  0.8612 -0.2008
 2803SOL     OW20044   0.427   0.810   5.171 -0.0885  0.4179 -0.0097
 2803SOL    HW120045   0.487   0.830   5.243  1.3733  0.9629 -1.3668
 2803SOL    HW220046   0.359   0.756   5.211  0.2496 -1.4816 -2.0192
 2804SOL     OW20047   0.753   1.034   9.177 -0.1315 -1.0768 -0.0962
 2804SOL    HW120048   0.695   0.971   9.219 -0.8299  1.0460  2.0900
 2804SOL    HW220049   0.825   1.045   9.239 -1.3698  1.0575  0.9170
 2805SOL     OW20050   1.953   4.532  11.050  0.4875 -0.7191 -0.0403
 2805SOL    HW120051   1.879   4.591  11.033  0.0629 -1.0291  0.7342
 2805SOL    HW220052   2.002   4.584  11.114 -0.3348 -0.2274  0.1889
 2806SOL     OW20053   3.168   4.506   5.632 -0.7490 -0.2963 -0.2163
 2806SOL    HW120054   3.090   4.501   5.688  1.8433 -0.0346  3.3969
 2806SOL    HW220055   3.199   4.416   5.639 -0.3733 -0.0540  1.0815
 2807SOL     OW20056   0.941   1.351   9.612 -0.4755 -0.2988 -0.3097
 2807SOL    HW120057   0.872   1.415   9.595  2.1837  2.6362 -0.2183
 2807SOL    HW220058   0.904   1.296   9.680 -0.9371 -0.4306 -0.6707
 2808SOL     OW20059   4.612   3.529  11.785 -0.2964 -0.0161  0.0871
 2808SOL    HW120060   4.570   3.568  11.861 -0.0327  0.8846 -0.2249
 2808SOL    HW220061   4.582   3.441  11.808  0.0800 -0.5160 -1.3248
 2809SOL     OW20062   3.473   1.478  11.042  1.0486 -0.0846  0.0693
 2809SOL    HW120063   3.542   1.434  11.091  0.3649 -0.0941  1.0181
 2809SOL    HW220064   3.526   1.500  10.965 -0.3134  1.3748 -0.4589
 2810SOL     OW20065   4.143   2.591   0.686 -0.2825 -0.1099 -0.2067
 2810SOL    HW120066   4.153   2.503   0.723  0.3332  0.6932  1.5672
 2810SOL    HW220067   4.073   2.632   0.736 -1.6529 -0.6189 -1.6938
 2811SOL     OW20068   2.827   3.232   9.727 -0.0392 -0.2358 -0.3201
 2811SOL    HW120069   2.892   3.215   9.659  2.5192 -0.1068  2.1045
 2811SOL    HW220070   2.845   3.324   9.746 -0.4871  0.1337 -1.7410
 2812SOL     OW20071   0.673   4.486   6.251  0.6351  0.2481 -0.2366
 2812SOL    HW120072   0.769   4.482   6.253  0.6210  0.6471  1.2723
 2812SOL    HW220073   0.658   4.565   6.303  0.3356 -0.2075  0.3757
 2813SOL     OW20074   0.259   1.133   5.871  0.1071  0.3105 -0.2206
 2813SOL    HW120075   0.282   1.225   5.887 -0.7009  0.6062 -0.7755
 2813SOL    HW220076   0.293   1.097   5.953  0.7541 -1.5233 -1.2814
 2814SOL     OW20077   0.989   4.238  17.177  0.1249  0.2112  0.3778
 2814SOL    HW120078   0.930   4.274  17.111  0.7254  1.1660  0.3522
 2814SOL    HW220079   0.975   4.146  17.154 -1.4754  0.5375  0.0376
 2815SOL     OW20080   4.009   1.398   8.608  0.1181 -0.8985 -0.0485
 2815SOL    HW120081   4.068   1.453   8.658 -0.7027  1.1333 -1.2809
 2815SOL    HW220082   4.061   1.360   8.537 -2.0750 -4.7393  0.3562
 2816SOL     OW20083   0.012   0.390   9.084 -0.2555  0.4129  0.4183
 2816SOL    HW120084   4.717   0.359   8.998 -0.1036 -0.8357  0.8176
 2816SOL    HW220085   4.667   0.394   9.137  0.4890 -0.4245  1.5875
 2817SOL     OW20086   2.981   3.445   6.864  0.0392  0.2253 -0.3139
 2817SOL    HW120087   2.945   3.513   6.808  0.6773  0.5716 -0.3014
 2817SOL    HW220088   3.055   3.486   6.909  1.5480 -0.7813 -1.8932
 2818SOL     OW20089   4.437   1.469   9.710 -0.0488 -0.5965  0.4886
 2818SOL    HW120090   4.383   1.546   9.695  0.3934 -0.3233  0.3095
 2818SOL    HW220091   4.470   1.485   9.798 -0.7324 -2.0338  1.0141
 2819SOL     OW20092   3.760   2.979   5.923 -0.3917 -0.2948 -0.0235
 2819SOL    HW120093   3.728   2.960   6.011  2.5322  0.3935  1.1822
 2819SOL    HW220094   3.848   2.944   5.932  0.6578  1.9771 -1.4831
 2820SOL     OW20095   3.411   4.717   5.546  0.1777 -0.1599  0.5511
 2820SOL    HW120096   3.458   4.655   5.491 -0.0276  0.6923 -0.5973
 2820SOL    HW220097   3.477   4.732   5.614 -1.2428  2.8994  1.2477
 2821SOL     OW20098   3.285   2.020   2.382  0.0222 -0.0095 -0.5849
 2821SOL    HW120099   3.234   2.099   2.367 -0.2684  0.3342  2.2682
 2821SOL    HW220100   3.375   2.053   2.386 -0.0343  0.2661 -1.4392
 2822SOL     OW20101   0.966   0.749   1.652 -0.2975 -0.5058  0.3001
 2822SOL    HW120102   0.879   0.712   1.639 -0.1891 -1.0600  1.1203
 2822SOL    HW220103   1.016   0.677   1.691  0.9739  0.5949  0.6941
 2823SOL     OW20104   0.971   3.224  14.482 -0.6414 -0.1630 -0.3360
 2823SOL    HW120105   0.998   3.249  14.394  0.3282 -0.0398 -0.0064
 2823SOL    HW220106   0.879   3.241  14.463 -0.1332  1.5787 -1.3094
 2824SOL     OW20107   0.452   4.543   6.686 -0.4985  0.1401 -0.5390
 2824SOL    HW120108   0.377   4.600   6.672 -2.0111 -1.5386  0.8774
 2824SOL    HW220109   0.443   4.495   6.603  2.3869 -2.0343  0.4098
 2825SOL     OW20110   3.342   2.306  17.488 -0.0822  0.2392  0.6381
 2825SOL    HW120111   3.313   2.397  17.478 -1.5526 -0.0747  1.8784
 2825SOL    HW220112   3.426   2.315  17.444  0.4296  0.1508  1.6032
 2826SOL     OW20113   1.104   2.946   0.556 -0.0256 -0.0439 -0.2702
 2826SOL    HW120114   1.065   2.928   0.470 -1.3898  1.1642  0.1044
 2826SOL    HW220115   1.028   2.927   0.611 -1.1732  1.7543 -1.2536
 2827SOL     OW20116   3.326   4.163   7.200 -0.0419 -0.5529 -0.9043
 2827SOL    HW120117   3.252   4.206   7.242  1.6630  1.8097 -0.3027
 2827SOL    HW220118   3.284   4.097   7.146  0.4544 -2.3106  0.8563
 2828SOL     OW20119   1.800   4.059   3.759  0.0961 -0.3624  0.2468
 2828SOL    HW120120   1.812   4.124   3.691  1.3038 -0.5213  0.3166
 2828SOL    HW220121   1.890   4.052   3.790  0.1737  0.7753  0.2537
 2829SOL     OW20122   4.734   0.387  17.325  0.1368  0.2740 -0.9349
 2829SOL    HW120123   0.022   0.456  17.387 -0.8443 -0.2485  0.0021
 2829SOL    HW220124   4.675   0.338  17.383 -0.4285  0.9927 -0.9076
 2830SOL     OW20125   0.458   2.397   7.412 -0.2792 -0.5074 -0.5718
 2830SOL    HW120126   0.404   2.475   7.400 -0.9303 -0.9622 -0.5874
 2830SOL    HW220127   0.392   2.329   7.424 -0.1021 -0.2383  1.8138
 2831SOL     OW20128   2.139   4.485  13.926 -0.5248  0.1544 -0.0869
 2831SOL    HW120129   2.228   4.452  13.924 -0.2424  0.9762 -1.5242
 2831SOL    HW220130   2.147   4.556  13.861  1.4905  0.5975  0.6471
 2832SOL     OW20131   0.215   1.045   8.105 -0.4831  0.0179 -0.0952
 2832SOL    HW120132   0.217   0.981   8.176 -1.4058  0.1675  0.0667
 2832SOL    HW220133   0.237   1.130   8.143 -0.2160  0.3525 -0.9828
 2833SOL     OW20134   1.130   1.859  12.897  0.4170 -0.4474  0.2973
 2833SOL    HW120135   1.128   1.945  12.854  0.5379  1.8246  4.8614
 2833SOL    HW220136   1.044   1.826  12.872  0.1026  2.1269 -2.0520
 2834SOL     OW20137   0.879   0.726   8.792  0.3977 -0.2719 -0.3565
 2834SOL    HW120138   0.880   0.666   8.717  0.7197  0.4858 -0.9501
 2834SOL    HW220139   0.795   0.694   8.826  0.3180  0.7091  0.3617
 2835SOL     OW20140   0.629   2.615   5.478 -0.6702  0.5664 -0.0985
 2835SOL    HW120141   0.619   2.603   5.573 -0.1654  0.5110 -0.0503
 2835SOL    HW220142   0.712   2.567   5.470  0.1053  1.8556  0.1572
 2836SOL     OW20143   1.945   4.036   5.852  0.4403  0.7440  0.2771
 2836SOL    HW120144   1.870   4.089   5.878 -1.7406 -2.0974 -0.1900
 2836SOL    HW220145   2.012   4.091   5.892 -0.0336  2.3480 -1.1423
 2837SOL     OW20146   1.893   4.569   4.634 -0.2048  0.7131 -0.1149
 2837SOL    HW120147   1.851   4.629   4.572 -1.8280 -2.0008 -1.6410
 2837SOL    HW220148   1.914   4.636   4.700 -0.2412  0.9156 -0.3092
 2838SOL     OW20149   2.640   1.052   1.697 -0.6102 -0.5088  0.4187
 2838SOL    HW120150   2.570   1.047   1.762 -2.9995  0.3545 -2.0746
 2838SOL    HW220151   2.714   1.025   1.751  0.0571  3.3069  1.4068
 2839SOL     OW20152   0.897   2.081  13.942  0.1267 -0.0213  0.1125
 2839SOL    HW120153   0.981   2.121  13.965  0.8516 -0.3184 -2.0774
 2839SOL    HW220154   0.917   2.031  13.863  0.4768  0.7086 -0.2602
 2840SOL     OW20155   4.070   1.053   7.161  0.7825 -0.0507  0.1802
 2840SOL    HW120156   4.151   1.099   7.141 -0.3235  2.5691  1.8252
 2840SOL    HW220157   4.019   1.122   7.203  1.9332  1.9253 -1.6365
 2841SOL     OW20158   1.383   3.320   6.353 -0.2857 -0.2800  0.5803
 2841SOL    HW120159   1.332   3.247   6.318 -1.0618 -0.5890  2.3304
 2841SOL    HW220160   1.328   3.351   6.425 -0.5490 -0.0725  0.2848
 2842SOL     OW20161   0.226   4.582  17.246 -0.1486 -0.3024  0.0439
 2842SOL    HW120162   0.151   4.612  17.297 -0.1368 -2.7047  1.4553
 2842SOL    HW220163   0.222   4.645  17.174  1.6092  0.4996  0.6505
 2843SOL     OW20164   1.399   3.621   8.758  0.5571 -0.4025  0.0718
 2843SOL    HW120165   1.397   3.545   8.816  1.3240 -1.9110 -1.8630
 2843SOL    HW220166   1.415   3.691   8.821  1.1626 -0.4000 -0.0792
 2844SOL     OW20167   1.643   2.134   1.863  0.4205  0.4246 -0.6136
 2844SOL    HW120168   1.665   2.192   1.790 -3.1307  1.0501 -1.2151
 2844SOL    HW220169   1.636   2.200   1.931 -0.7009  1.5522 -1.8261
 2845SOL     OW20170   4.272   1.045   8.360 -0.2674  0.7221  0.3197
 2845SOL    HW120171   4.237   1.005   8.280  0.2509 -0.6080  0.7651
 2845SOL    HW220172   4.366   1.046   8.340 -0.1553 -0.5100  0.7661
 2846SOL     OW20173   4.631   3.803   7.854 -0.2589  0.6801 -0.0713
 2846SOL    HW120174   4.698   3.780   7.790 -0.1366 -0.9162  0.6445
 2846SOL    HW220175   4.687   3.839   7.923  0.2594 -1.5338  0.6717
 2847SOL     OW20176   1.957   0.743  10.378  0.1950 -0.4506 -0.1675
 2847SOL    HW120177   1.981   0.833  10.401 -0.9233 -0.3453  0.6192
 2847SOL    HW220178   1.968   0.699  10.462 -0.4688  1.2897  0.8387
 2848SOL     OW20179   1.118   3.417  14.905  0.4483  0.1068 -0.0397
 2848SOL    HW120180   1.141   3.393  14.816  1.3291 -1.5024  0.6097
 2848SOL    HW220181   1.028   3.388  14.917  0.4809 -0.7896 -2.0204
 2849SOL     OW20182   0.755   1.262   4.962 -0.1771  0.0434 -0.2765
 2849SOL    HW120183   0.745   1.287   4.870 -2.4606  0.7217  0.1644
 2849SOL    HW220184   0.735   1.169   4.955  0.9733 -0.1153 -1.4862
 2850SOL     OW20185   4.022   4.222   2.448  0.6216  0.3101 -0.5672
 2850SOL    HW120186   3.992   4.178   2.528  1.5706 -0.5124 -0.6583
 2850SOL    HW220187   4.109   4.183   2.456 -0.2241 -0.9711  2.3455
 2851SOL     OW20188   2.159   1.239  14.375 -0.1154 -0.1150  0.7794
 2851SOL    HW120189   2.119   1.226  14.289 -0.4728  0.7690  0.8045
 2851SOL    HW220190   2.121   1.172  14.432  0.6678 -0.9041  0.3829
 2852SOL     OW20191   4.262   3.102   2.868  0.0207  0.2760  0.5174
 2852SOL    HW120192   4.357   3.109   2.861  0.0156  1.0809  1.3498
 2852SOL    HW220193   4.249   3.104   2.963  0.1787 -0.3560  0.5544
 2853SOL     OW20194   3.214   0.988   0.967  0.4668  0.4028  0.4184
 2853SOL    HW120195   3.308   0.995   0.985  0.5540  0.6777 -0.1442
 2853SOL    HW220196   3.169   0.994   1.051  1.3400  0.8602  0.8561
 2854SOL     OW20197   4.420   4.345   7.841 -0.0092 -0.3620  0.4653
 2854SOL    HW120198   4.419   4.435   7.872  3.7692 -0.0567 -0.2864
 2854SOL    HW220199   4.424   4.306   7.928  0.7922 -3.3538 -0.8881
 2855SOL     OW20200   4.454   0.384   3.383  0.0553  0.0536  0.1720
 2855SOL    HW120201   4.429   0.319   3.317 -2.5050 -0.3783  1.6055
 2855SOL    HW220202   4.418   0.346   3.462  0.2681 -1.5700 -0.5047
 2856SOL     OW20203   3.992   1.699   7.592 -0.3292  0.0209  0.1591
 2856SOL    HW120204   3.907   1.742   7.601 -0.4356 -0.1253 -0.1581
 2856SOL    HW220205   4.043   1.754   7.652 -0.4213 -0.0999  0.3473
 2857SOL     OW20206   1.085   1.911   7.558 -0.6769  0.6733 -0.2065
 2857SOL    HW120207   1.122   1.850   7.494  0.6893  0.6132  0.6512
 2857SOL    HW220208   1.052   1.977   7.497  1.1179  0.7043 -1.1370
 2858SOL     OW20209   1.038   2.550   0.142 -0.3886 -0.0128 -0.5941
 2858SOL    HW120210   1.107   2.511   0.088 -1.1121 -2.3674  0.1729
 2858SOL    HW220211   0.982   2.474   0.158  2.1934 -1.9886 -0.7890
 2859SOL     OW20212   4.379   0.613   4.016 -0.4794 -0.1393  0.0441
 2859SOL    HW120213   4.443   0.602   4.086  0.8464 -0.2300 -1.1908
 2859SOL    HW220214   4.428   0.599   3.936 -1.4341  2.8161 -1.0362
 2860SOL     OW20215   1.626   2.331   9.314  0.0257  0.0233  0.8855
 2860SOL    HW120216   1.538   2.342   9.351 -0.6446 -1.5465 -0.2321
 2860SOL    HW220217   1.681   2.376   9.378 -0.7782  0.4139  1.3079
 2861SOL     OW20218   2.223   2.020   4.714 -0.4214 -0.0996 -0.1416
 2861SOL    HW120219   2.206   1.941   4.664  0.8454  0.5093 -1.5352
 2861SOL    HW220220   2.302   2.042   4.666 -0.2504  1.7706  0.9839
 2862SOL     OW20221   2.067   3.630   3.249  0.0114 -1.0595 -0.1159
 2862SOL    HW120222   2.094   3.580   3.326  1.4044  2.2124  1.5400
 2862SOL    HW220223   2.108   3.716   3.263 -1.0563 -0.3568 -1.3064
 2863SOL     OW20224   2.371   0.443   5.126  0.0556  0.1492  0.7087
 2863SOL    HW120225   2.445   0.390   5.155 -0.9349 -1.7889 -0.3154
 2863SOL    HW220226   2.395   0.444   5.034 -1.2986 -0.7667  0.3477
 2864SOL     OW20227   1.946   2.913   7.758  0.4887 -0.0115 -0.0096
 2864SOL    HW120228   1.935   3.008   7.749 -4.4591 -0.2373  3.8172
 2864SOL    HW220229   1.858   2.881   7.740 -0.3981  0.7500  2.9797
 2865SOL     OW20230   3.790   0.232   8.473 -0.0262  0.5797  0.4594
 2865SOL    HW120231   3.703   0.270   8.481 -0.3927 -0.3623  0.9644
 2865SOL    HW220232   3.820   0.263   8.388  0.7366  1.6121  1.1024
 2866SOL     OW20233   4.350   2.247   6.612 -0.2224 -0.4012 -0.0269
 2866SOL    HW120234   4.375   2.183   6.545  1.6248 -0.1611  0.4225
 2866SOL    HW220235   4.411   2.314   6.582 -1.8735  0.2069 -1.9893
 2867SOL     OW20236   4.620   0.332   3.000 -0.1348 -0.3246 -0.1314
 2867SOL    HW120237   4.640   0.270   2.930  0.9194  2.4907 -2.2791
 2867SOL    HW220238   4.627   0.282   3.082  1.2356 -2.1093 -1.3416
 2868SOL     OW20239   0.592   3.669   9.741 -0.7203  0.1120 -0.2465
 2868SOL    HW120240   0.510   3.646   9.698 -1.0466  2.5007 -0.9004
 2868SOL    HW220241   0.552   3.733   9.799  1.9127  0.6171  1.0255
 2869SOL     OW20242   3.045   4.214   7.276 -0.3449 -0.7557 -0.1131
 2869SOL    HW120243   3.021   4.254   7.359 -0.0764  0.3886 -0.5813
 2869SOL    HW220244   2.981   4.246   7.212 -0.6564 -0.3155  0.4184
 2870SOL     OW20245   4.556   2.703   5.443 -0.0640 -0.3346  0.1972
 2870SOL    HW120246   4.602   2.787   5.443 -0.1124 -0.3080  0.1588
 2870SOL    HW220247   4.594   2.661   5.521  1.5223 -0.3987 -0.6170
 2871SOL     OW20248   0.144   3.264   6.654 -0.1230 -0.3980  0.1178
 2871SOL    HW120249   0.154   3.274   6.749 -0.6121 -0.9326  0.2331
 2871SOL    HW220250   0.098   3.180   6.649 -2.1111  0.7490 -0.5246
 2872SOL     OW20251   2.753   4.260   6.366 -0.7388  0.2173 -0.0390
 2872SOL    HW120252   2.706   4.257   6.449  1.6199  1.7864  1.3273
 2872SOL    HW220253   2.838   4.225   6.392  0.3048  0.5242 -3.0181
 2873SOL     OW20254   3.171   1.992   3.262  0.2831  0.5049 -0.6040
 2873SOL    HW120255   3.226   1.915   3.244  0.1639  0.7604 -2.0951
 2873SOL    HW220256   3.146   2.021   3.174 -0.6492  2.4341  0.3268
 2874SOL     OW20257   0.424   4.290   0.487  0.2354 -0.3005 -0.4784
 2874SOL    HW120258   0.496   4.243   0.528  0.0603  0.4967  0.7470
 2874SOL    HW220259   0.449   4.383   0.489  0.0298 -0.2726  1.0195
 2875SOL     OW20260   0.008   2.850  13.168 -0.1136 -0.0244  0.0759
 2875SOL    HW120261   4.715   2.777  13.223 -0.2895  1.2318  1.6261
 2875SOL    HW220262   0.103   2.853  13.183  0.0272 -0.3997 -0.7182
 2876SOL     OW20263   1.045   2.599   7.580 -0.5275  0.7157 -0.0815
 2876SOL    HW120264   1.102   2.539   7.628 -1.1439 -1.3403 -1.9291
 2876SOL    HW220265   1.034   2.563   7.492  2.5672  0.3576 -0.3298
 2877SOL     OW20266   1.578   2.939   6.286 -0.4359 -0.4663 -0.2338
 2877SOL    HW120267   1.660   2.923   6.333  0.2127  0.6389 -0.9945
 2877SOL    HW220268   1.575   2.849   6.253 -1.1612 -0.0345 -1.3379
 2878SOL     OW20269   2.522   1.110   3.356  0.6429 -0.0150  0.8731
 2878SOL    HW120270   2.606   1.121   3.312  1.3883  1.1066  2.5870
 2878SOL    HW220271   2.531   1.026   3.401 -1.5750 -0.3090  0.8024
 2879SOL     OW20272   1.861   3.656   8.742  0.0390 -0.7342 -0.4880
 2879SOL    HW120273   1.789   3.595   8.723 -0.7633 -0.7456  2.6773
 2879SOL    HW220274   1.836   3.695   8.825  0.7375 -0.7248 -0.2796
 2880SOL     OW20275   1.038   3.498   0.843 -0.0459 -0.0843 -0.0981
 2880SOL    HW120276   0.961   3.458   0.801 -0.4109 -1.0305  1.4860
 2880SOL    HW220277   1.018   3.591   0.852  1.1416  0.2241 -0.6622
 2881SOL     OW20278   1.703   2.064   9.331  0.1046 -0.2058  0.1935
 2881SOL    HW120279   1.706   2.156   9.308 -1.5138 -0.7401 -2.1047
 2881SOL    HW220280   1.612   2.051   9.356  0.0178  0.1383  0.0546
 2882SOL     OW20281   2.064   1.869   8.517  0.3048  0.3843  0.4437
 2882SOL    HW120282   2.140   1.861   8.575  0.9875  2.6644 -0.1690
 2882SOL    HW220283   1.994   1.828   8.568 -1.1869  0.4419 -1.5491
 2883SOL     OW20284   0.192   1.110   1.744  0.1553 -0.0159  0.4177
 2883SOL    HW120285   0.131   1.168   1.699 -0.1665 -0.4654  0.2736
 2883SOL    HW220286   0.132   1.050   1.788 -0.9914  1.7705  1.2322
 2884SOL     OW20287   4.506   4.629   8.234  0.1433 -0.2863 -0.7324
 2884SOL    HW120288   4.596   4.620   8.205  0.8228 -0.5570  1.5010
 2884SOL    HW220289   4.502   4.573   8.311 -0.0913 -0.1892 -0.6748
 2885SOL     OW20290   1.609   0.415   3.392  0.6471 -0.7293 -0.1429
 2885SOL    HW120291   1.535   0.470   3.416  1.1757 -0.7617  1.5710
 2885SOL    HW220292   1.678   0.474   3.422  2.7774 -1.2301 -4.1018
 2886SOL     OW20293   2.138   0.079   6.731 -0.1689  0.7194  0.5274
 2886SOL    HW120294   2.089   0.161   6.721  0.6294  1.1220 -0.0875
 2886SOL    HW220295   2.223   0.117   6.753  0.0599  1.5665 -1.8578
 2887SOL     OW20296   3.265   1.258   4.310  0.3032  0.2949  0.0228
 2887SOL    HW120297   3.346   1.303   4.333 -0.9563  1.3632  2.3380
 2887SOL    HW220298   3.270   1.253   4.215  0.2298  2.4173 -0.0782
 2888SOL     OW20299   2.839   4.343   4.464  0.0124 -0.0199 -0.1571
 2888SOL    HW120300   2.881   4.374   4.544  0.0093  0.2805 -0.2709
 2888SOL    HW220301   2.847   4.418   4.405  0.2039 -0.9378 -1.2975
 2889SOL     OW20302   1.477   0.234  13.123 -0.3876  0.1684 -0.1595
 2889SOL    HW120303   1.569   0.231  13.098 -0.7733 -0.6826 -1.4987
 2889SOL    HW220304   1.446   0.309  13.071 -0.2727 -0.0108 -0.4881
 2890SOL     OW20305   4.668   1.772  15.416  0.6569  0.0313 -0.2910
 2890SOL    HW120306   4.602   1.762  15.347  0.5431 -0.5068 -0.1097
 2890SOL    HW220307   4.616   1.807  15.489  1.9490  0.7409  0.2773
 2891SOL     OW20308   1.559   0.226   4.348  0.3584 -0.2864 -0.1085
 2891SOL    HW120309   1.606   0.209   4.267 -0.5175  0.7973 -0.8565
 2891SOL    HW220310   1.599   0.311   4.366 -0.3982  0.1854 -0.6054
 2892SOL     OW20311   3.826   1.132   3.157  0.1991  0.6311  0.3003
 2892SOL    HW120312   3.789   1.114   3.243 -0.1230 -0.4943 -0.0755
 2892SOL    HW220313   3.771   1.204   3.128 -1.1510 -0.0381  1.2239
 2893SOL     OW20314   3.436   1.822   0.766 -0.4423 -0.0147  0.0559
 2893SOL    HW120315   3.530   1.818   0.746 -0.2861  1.4045  0.4448
 2893SOL    HW220316   3.415   1.825   0.673 -0.3203 -0.9910  0.0012
 2894SOL     OW20317   0.066   1.624   7.927  0.6533 -0.0957 -0.3646
 2894SOL    HW120318   0.066   1.530   7.911 -2.3546 -0.2652  0.6302
 2894SOL    HW220319   4.706   1.620   7.947  1.1214  2.2731  2.4246
 2895SOL     OW20320   2.874   1.570   7.698 -0.4020 -0.3299  0.0599
 2895SOL    HW120321   2.951   1.536   7.652 -0.9259 -0.8385 -0.4501
 2895SOL    HW220322   2.908   1.612   7.776 -1.1139  3.9948 -1.9703
 2896SOL     OW20323   4.116   3.499   4.521  0.9723  0.4386  0.2951
 2896SOL    HW120324   4.089   3.520   4.610  1.1726 -1.5903  0.8483
 2896SOL    HW220325   4.070   3.565   4.470 -3.2774 -2.7805  0.0183
 2897SOL     OW20326   2.209   3.613   5.259 -0.0982  0.0217  0.2115
 2897SOL    HW120327   2.304   3.611   5.274  0.1238  2.4313 -0.9062
 2897SOL    HW220328   2.195   3.533   5.208 -1.1630  1.1213 -1.2165
 2898SOL     OW20329   1.437   1.031   2.531  0.0970  0.4934  0.3059
 2898SOL    HW120330   1.431   1.074   2.617  1.3584 -0.4675  0.8812
 2898SOL    HW220331   1.345   1.045   2.508  0.0465 -1.5634 -0.7104
 2899SOL     OW20332   2.581   1.080   2.976 -0.5129  0.2867  0.1933
 2899SOL    HW120333   2.546   1.093   2.888  1.3149 -1.0858 -0.7453
 2899SOL    HW220334   2.503   1.097   3.029 -0.0830  1.6994  0.3847
 2900SOL     OW20335   3.345   1.266   4.615  0.1346 -0.1872 -0.0851
 2900SOL    HW120336   3.280   1.204   4.649 -1.2848  0.6240 -1.3068
 2900SOL    HW220337   3.397   1.202   4.567 -1.1246  0.7874 -2.7641
 2901SOL     OW20338   1.771   1.225   4.519 -0.2024 -0.0463 -0.3692
 2901SOL    HW120339   1.779   1.182   4.604 -0.1325 -1.3882 -1.0583
 2901SOL    HW220340   1.836   1.294   4.527  0.1610 -0.7137  2.2670
 2902SOL     OW20341   3.337   1.220  12.017  0.5766  0.4835 -0.7215
 2902SOL    HW120342   3.412   1.268  11.980  1.4746 -0.5439 -0.2324
 2902SOL    HW220343   3.266   1.249  11.959 -0.9820 -1.3477  0.2916
 2903SOL     OW20344   3.132   0.292   4.240 -0.9481  0.7051 -0.4110
 2903SOL    HW120345   3.055   0.245   4.208 -0.3858  0.4420 -1.3691
 2903SOL    HW220346   3.156   0.339   4.161 -0.3808  1.9866  0.5310
 2904SOL     OW20347   2.076   4.341   2.348  0.1246 -0.4182  0.0473
 2904SOL    HW120348   2.137   4.373   2.282  3.0795  2.0582  4.0121
 2904SOL    HW220349   2.033   4.421   2.377 -0.3468 -0.3293 -0.8713
 2905SOL     OW20350   3.467   2.235   0.738 -0.7679 -0.0812  0.7100
 2905SOL    HW120351   3.551   2.238   0.694 -0.9406  3.4790  0.6506
 2905SOL    HW220352   3.401   2.245   0.669 -0.5431 -1.4106  0.3085
 2906SOL     OW20353   2.742   3.589   0.366 -0.5061 -0.2856 -0.0712
 2906SOL    HW120354   2.807   3.618   0.429 -0.0371  2.7188 -1.9572
 2906SOL    HW220355   2.750   3.649   0.292  1.7266 -0.3964  0.1022
 2907SOL     OW20356   1.992   3.422   7.047 -0.0618 -0.0579  0.8413
 2907SOL    HW120357   1.927   3.357   7.019  1.6469 -1.6229  0.5493
 2907SOL    HW220358   2.064   3.362   7.066  0.1206 -0.5532 -1.4262
 2908SOL     OW20359   0.860   0.665   4.122  0.6476 -0.3850 -0.2006
 2908SOL    HW120360   0.765   0.664   4.126  0.5982  2.6181 -0.7861
 2908SOL    HW220361   0.880   0.636   4.211 -0.5217 -0.8832 -0.0997
 2909SOL     OW20362   1.418   4.158   9.676 -0.3627  0.2205  0.2166
 2909SOL    HW120363   1.479   4.119   9.738  0.1151 -0.3703 -0.6301
 2909SOL    HW220364   1.327   4.151   9.706 -0.5179 -1.5991 -0.6812
 2910SOL     OW20365   3.155   0.100   1.899  0.2101 -0.2446  0.4692
 2910SOL    HW120366   3.181   0.009   1.909 -0.6278 -0.5763 -0.2839
 2910SOL    HW220367   3.062   0.090   1.880  0.6715  0.2127 -2.1075
 2911SOL     OW20368   3.521   3.458   2.949 -0.1197 -0.0948 -0.8203
 2911SOL    HW120369   3.535   3.363   2.942 -1.9648 -0.5062  1.3118
 2911SOL    HW220370   3.515   3.457   3.044 -1.7639  0.8668 -0.9296
 2912SOL     OW20371   2.649   3.082  11.238 -0.3374  0.0720  0.6629
 2912SOL    HW120372   2.744   3.087  11.247 -0.3053  0.9515 -0.1377
 2912SOL    HW220373   2.620   3.051  11.324 -1.6012  0.6172  0.4228
 2913SOL     OW20374   0.838   2.308   2.553 -0.2812  0.3052  0.0872
 2913SOL    HW120375   0.768   2.373   2.558  1.6186  2.4895 -1.6555
 2913SOL    HW220376   0.781   2.243   2.595  0.4514  0.4476  1.2944
 2914SOL     OW20377   3.109   3.930   5.874 -0.0425  0.1124 -0.0901
 2914SOL    HW120378   3.041   3.886   5.925 -1.3816  0.0774 -1.8819
 2914SOL    HW220379   3.185   3.910   5.927  0.5440  3.1813  0.2332
 2915SOL     OW20380   2.060   1.869  13.626  0.0830  0.4391  0.5023
 2915SOL    HW120381   2.074   1.775  13.623 -0.6018  0.3745 -0.7610
 2915SOL    HW220382   2.133   1.892  13.568  0.2312  1.0160  0.9124
 2916SOL     OW20383   3.976   2.971   6.072 -0.5818  0.0982  0.2065
 2916SOL    HW120384   4.048   3.009   6.123  2.4161 -1.6428 -2.7216
 2916SOL    HW220385   4.034   2.945   6.000 -0.7625 -0.1617  0.1540
 2917SOL     OW20386   3.429   4.231   4.449 -0.0532 -0.0759  0.4881
 2917SOL    HW120387   3.491   4.162   4.472 -0.0493 -0.7589 -1.5638
 2917SOL    HW220388   3.444   4.306   4.507 -0.3552 -1.3104  2.1669
 2918SOL     OW20389   0.177   1.514   3.239  0.3147 -0.0421  0.4069
 2918SOL    HW120390   0.192   1.514   3.334 -0.5709 -1.6423  0.5370
 2918SOL    HW220391   0.140   1.428   3.222 -1.6838  0.9614 -0.3151
 2919SOL     OW20392   1.113   2.671   6.851 -0.1291 -0.3408 -0.3898
 2919SOL    HW120393   1.145   2.742   6.907  2.2548 -1.3920 -0.4423
 2919SOL    HW220394   1.076   2.728   6.784  0.4623 -0.1561 -0.5587
 2920SOL     OW20395   4.070   4.092   3.937  0.0761  0.2784  0.1381
 2920SOL    HW120396   4.027   4.044   4.007  0.9397 -1.8656 -0.8225
 2920SOL    HW220397   4.011   4.155   3.894  2.8890  2.2118 -0.9126
 2921SOL     OW20398   0.170   0.632  10.416  0.0449  0.2091  0.1910
 2921SOL    HW120399   0.198   0.699  10.353 -2.2799  0.1570 -0.9202
 2921SOL    HW220400   0.257   0.595  10.427 -0.3266 -0.9079 -0.5740
 2922SOL     OW20401   2.442   1.890   4.031  0.1255  0.4431  0.6148
 2922SOL    HW120402   2.524   1.938   4.016  0.7106 -0.0907  2.1177
 2922SOL    HW220403   2.423   1.934   4.114 -0.5821  0.6066  0.3643
 2923SOL     OW20404   2.575   0.935   5.692 -0.2323 -0.6100 -0.0906
 2923SOL    HW120405   2.508   0.991   5.730 -0.4469 -1.4392  0.7598
 2923SOL    HW220406   2.563   0.941   5.597  1.2831  0.1195 -0.2390
 2924SOL     OW20407   0.058   2.413   2.115  0.6154  0.7889 -0.3105
 2924SOL    HW120408   4.713   2.383   2.069  0.9311  1.0862 -1.0517
 2924SOL    HW220409   0.065   2.351   2.187 -0.1155  1.0502 -0.0154
 2925SOL     OW20410   1.181   3.930   7.797  0.0068  0.1232  0.2530
 2925SOL    HW120411   1.203   3.887   7.713  1.4332 -1.3180  1.3470
 2925SOL    HW220412   1.100   3.974   7.773 -0.0428 -0.2209 -0.2129
 2926SOL     OW20413   2.407   0.591   5.486 -0.4215  0.5626 -0.0878
 2926SOL    HW120414   2.376   0.641   5.411 -2.6577 -0.6135  0.0381
 2926SOL    HW220415   2.502   0.600   5.472 -0.1688 -1.3096  0.3037
 2927SOL     OW20416   1.198   1.681   7.401 -0.0634  0.0983  0.0730
 2927SOL    HW120417   1.235   1.593   7.390 -3.3526 -1.0606 -1.7530
 2927SOL    HW220418   1.278   1.732   7.414  0.2949 -0.4133 -0.1197
 2928SOL     OW20419   1.084   2.288  17.314 -0.4532  0.8693 -0.5073
 2928SOL    HW120420   1.070   2.371  17.359  0.6827 -0.3736  2.1186
 2928SOL    HW220421   1.138   2.234  17.372  0.0542 -1.0729 -2.7891
 2929SOL     OW20422   0.992   0.743   8.042 -0.0694 -0.2086 -0.6768
 2929SOL    HW120423   0.969   0.834   8.061 -0.1805  0.0464 -2.0405
 2929SOL    HW220424   0.901   0.714   8.035 -0.0146 -0.0865 -1.8791
 2930SOL     OW20425   2.592   4.179   4.479 -0.2515 -0.7015 -0.1775
 2930SOL    HW120426   2.531   4.253   4.479 -0.1667 -0.6323  0.0251
 2930SOL    HW220427   2.664   4.220   4.432 -0.9994 -1.1409 -1.7344
 2931SOL     OW20428   0.944   3.821   7.079  0.5310 -0.4768  0.0494
 2931SOL    HW120429   1.011   3.755   7.100 -0.5904 -1.2700  1.1351
 2931SOL    HW220430   0.866   3.766   7.067 -0.1968  0.8066 -1.1294
 2932SOL     OW20431   0.940   1.968   1.024  0.2056 -0.2906 -0.4398
 2932SOL    HW120432   0.906   2.053   0.995 -0.9643 -0.4848  0.3246
 2932SOL    HW220433   1.028   2.006   1.028  0.7636 -1.7566  0.9739
 2933SOL     OW20434   4.439   0.922   5.055 -0.2843  0.5668 -0.4625
 2933SOL    HW120435   4.409   0.834   5.035  1.3310 -0.1079  0.0723
 2933SOL    HW220436   4.358   0.953   5.096 -0.8843 -0.2700 -1.0400
 2934SOL     OW20437   2.239   2.515   7.237 -0.1287  0.2198  0.1427
 2934SOL    HW120438   2.288   2.530   7.318  2.9182 -0.8044 -1.5336
 2934SOL    HW220439   2.148   2.531   7.262 -0.0057  0.5796  0.3647
 2935SOL     OW20440   2.697   2.827   3.765 -0.0756 -0.3051 -0.1888
 2935SOL    HW120441   2.717   2.883   3.840 -0.3581  0.1893 -0.4861
 2935SOL    HW220442   2.763   2.759   3.777  1.2423  0.6966 -1.7500
 2936SOL     OW20443   2.844   1.876   0.238  0.1614  0.0659  0.0394
 2936SOL    HW120444   2.812   1.961   0.269 -1.0195  0.6451 -2.7482
 2936SOL    HW220445   2.919   1.902   0.185 -0.7683  1.1839 -0.7285
 2937SOL     OW20446   4.255   3.088  16.502 -0.3762  0.0455  0.5017
 2937SOL    HW120447   4.253   2.999  16.536 -1.3498  0.4462  1.5013
 2937SOL    HW220448   4.282   3.065  16.413 -1.6446  0.1582  0.0919
 2938SOL     OW20449   2.330   4.595   5.201  0.4314 -0.3537 -0.0433
 2938SOL    HW120450   2.383   4.636   5.270 -2.8367  1.8491  1.1034
 2938SOL    HW220451   2.357   4.641   5.122 -2.0408  0.9295 -0.1221
 2939SOL     OW20452   1.624   0.750   1.468 -0.0045  0.0195 -0.3207
 2939SOL    HW120453   1.698   0.810   1.475 -1.3732  1.3083  3.1923
 2939SOL    HW220454   1.551   0.812   1.464 -0.5135 -0.4008  2.2000
 2940SOL     OW20455   4.291   3.269  14.414  0.2174  0.2016  0.1054
 2940SOL    HW120456   4.301   3.355  14.456 -3.7948  0.5777  0.3031
 2940SOL    HW220457   4.293   3.212  14.491  1.3931  1.4802  1.0273
 2941SOL     OW20458   4.357   2.632   3.279  0.5060  0.1999 -0.4979
 2941SOL    HW120459   4.425   2.666   3.338 -0.3486  0.3278  0.4189
 2941SOL    HW220460   4.280   2.688   3.292  0.4814  0.1923 -0.6105
 2942SOL     OW20461   4.048   3.821   6.516 -0.1837  0.7369  0.1768
 2942SOL    HW120462   4.112   3.751   6.507 -1.3643 -0.1440 -1.3496
 2942SOL    HW220463   4.008   3.816   6.429  1.4075 -1.9156 -0.3787
 2943SOL     OW20464   4.445   4.411  11.660  0.0626  0.5738  0.1452
 2943SOL    HW120465   4.433   4.378  11.571 -0.3376 -0.7378  0.6765
 2943SOL    HW220466   4.540   4.398  11.670  0.0258  0.9021  0.9046
 2944SOL     OW20467   0.904   0.904   2.483 -0.1079 -0.1579 -0.1903
 2944SOL    HW120468   0.881   0.973   2.421 -0.8442 -0.2477 -0.0130
 2944SOL    HW220469   0.955   0.842   2.430  2.6448  1.6351  0.3715
 2945SOL     OW20470   0.211   0.750   6.108  0.1311  0.3189  0.3899
 2945SOL    HW120471   0.217   0.708   6.023 -0.1423  0.4020  0.3285
 2945SOL    HW220472   0.176   0.678   6.161 -2.4196  1.3017  0.0876
 2946SOL     OW20473   1.135   2.917   6.643 -0.0388  0.7138 -0.2918
 2946SOL    HW120474   1.166   2.879   6.561  0.1978  2.5817 -1.0642
 2946SOL    HW220475   1.071   2.978   6.607 -0.4977  0.0323 -0.6355
 2947SOL     OW20476   0.322   3.423   3.800 -0.2108 -0.6463 -0.2197
 2947SOL    HW120477   0.323   3.334   3.764 -0.1845 -0.9229  0.4556
 2947SOL    HW220478   0.229   3.442   3.810 -0.4310 -1.8991  0.1918
 2948SOL     OW20479   0.692   1.704  12.346  0.0700  0.2389  0.6174
 2948SOL    HW120480   0.704   1.777  12.286 -1.3069  0.3117  0.4184
 2948SOL    HW220481   0.599   1.688  12.328 -0.3929  2.3579  1.1467
 2949SOL     OW20482   0.218   3.107  17.590 -0.0957  0.2546 -0.0687
 2949SOL    HW120483   0.221   3.141  17.680  0.8770 -0.2731  0.1019
 2949SOL    HW220484   0.174   3.024  17.608  2.4796 -1.1251 -0.0043
 2950SOL     OW20485   3.344   3.214   3.293 -0.0258  0.3193  0.5610
 2950SOL    HW120486   3.258   3.232   3.254 -0.0731 -0.1642  0.4448
 2950SOL    HW220487   3.330   3.225   3.387  0.3173  0.5618  0.5800
 2951SOL     OW20488   2.579   1.493   0.575  0.0845  0.3369 -0.0750
 2951SOL    HW120489   2.590   1.400   0.592  1.6072  0.4425 -0.5275
 2951SOL    HW220490   2.571   1.491   0.480  1.7717  0.0462 -0.2031
 2952SOL     OW20491   2.938   3.949  15.370  0.9132  0.1380  0.7419
 2952SOL    HW120492   2.902   3.864  15.346  0.3589  0.6035 -0.0780
 2952SOL    HW220493   3.032   3.929  15.364  0.6391 -0.3593 -2.0104
 2953SOL     OW20494   0.553   4.312   3.937  0.3517 -0.0761 -0.4407
 2953SOL    HW120495   0.584   4.254   4.007 -0.4878  0.7636  0.6172
 2953SOL    HW220496   0.623   4.302   3.873  0.9053  0.6602  0.0430
 2954SOL     OW20497   1.198   3.412   0.095 -0.7189  0.1090 -0.3217
 2954SOL    HW120498   1.119   3.467   0.103 -1.1709 -0.3696 -1.5082
 2954SOL    HW220499   1.207   3.381   0.185  2.6441  0.4355 -0.5475
 2955SOL     OW20500   3.322   1.579  15.855  0.1062 -0.0499  0.0847
 2955SOL    HW120501   3.284   1.492  15.843  2.9179 -0.9032 -2.6759
 2955SOL    HW220502   3.340   1.613  15.767  1.8064 -2.4150 -0.5062
 2956SOL     OW20503   3.064   0.552   3.320 -0.0342 -0.0860  0.3141
 2956SOL    HW120504   3.014   0.625   3.283  0.0554 -0.5089 -0.6502
 2956SOL    HW220505   3.036   0.547   3.411  0.1531  1.6390  0.4675
 2957SOL     OW20506   1.479   2.726   8.186 -0.3359 -0.2112 -0.3784
 2957SOL    HW120507   1.461   2.720   8.092 -0.5869 -2.3462 -0.1893
 2957SOL    HW220508   1.485   2.821   8.196  3.0659 -0.5905  1.3506
 2958SOL     OW20509   1.924   2.647  14.418  0.0514  0.4301 -0.6636
 2958SOL    HW120510   1.851   2.706  14.435 -0.1208  0.1849 -0.5519
 2958SOL    HW220511   1.984   2.694  14.359  0.0974 -0.9433 -1.6965
 2959SOL     OW20512   4.439   2.750  14.760  0.3719  0.1897 -0.3756
 2959SOL    HW120513   4.404   2.694  14.830  1.4962 -1.6768 -1.3013
 2959SOL    HW220514   4.365   2.764  14.702  0.5424  1.2566 -0.3211
 2960SOL     OW20515   1.668   4.640   8.664  0.0456  0.7022 -0.1111
 2960SOL    HW120516   1.572   4.637   8.659  0.1003  0.4378 -1.0215
 2960SOL    HW220517   1.692   4.578   8.733  1.0865  0.2813 -0.8563
 2961SOL     OW20518   2.919   0.351   7.719 -0.1618  0.4213  0.3366
 2961SOL    HW120519   2.930   0.314   7.806  1.1604 -0.2773 -0.1271
 2961SOL    HW220520   2.940   0.282   7.656  0.8457  1.8494 -0.8865
 2962SOL     OW20521   3.503   3.937   4.392 -0.3093  0.3642 -0.1050
 2962SOL    HW120522   3.477   3.849   4.422  0.9342  0.6551  1.8757
 2962SOL    HW220523   3.441   3.947   4.320 -0.9123  0.7197  0.4592
 2963SOL     OW20524   2.702   2.140   3.939  0.0952  0.3151 -0.1283
 2963SOL    HW120525   2.769   2.200   3.908 -0.1581  1.9574  2.4365
 2963SOL    HW220526   2.713   2.060   3.888 -0.9242 -0.7738  1.3390
 2964SOL     OW20527   0.430   2.569   0.730  0.2250 -0.6107 -0.7533
 2964SOL    HW120528   0.462   2.503   0.791  0.3115 -0.1132 -0.2608
 2964SOL    HW220529   0.357   2.518   0.695  0.2671 -1.1628 -0.0286
 2965SOL     OW20530   4.198   4.021   7.839 -0.1713  0.3566  0.0085
 2965SOL    HW120531   4.267   3.988   7.897  1.5550 -0.2740 -2.4038
 2965SOL    HW220532   4.234   3.989   7.756  1.7773  2.1556  0.1682
 2966SOL     OW20533   3.047   0.004  16.471 -0.4413  0.2999  0.1137
 2966SOL    HW120534   3.102   0.082  16.473  0.5832 -0.4311  0.0263
 2966SOL    HW220535   2.995   0.015  16.391 -0.0643  2.5560  0.1795
 2967SOL     OW20536   0.605   1.165   5.468  0.3984 -0.8784 -0.0684
 2967SOL    HW120537   0.681   1.107   5.455  1.1894 -0.4788  2.6258
 2967SOL    HW220538   0.602   1.193   5.377  1.3876 -1.7150 -0.3633
 2968SOL     OW20539   3.694   4.453   8.257 -0.2692  0.5410 -0.3642
 2968SOL    HW120540   3.735   4.526   8.304  2.7486 -0.9308 -0.7468
 2968SOL    HW220541   3.606   4.458   8.295  0.5117 -2.3543  1.8047
 2969SOL     OW20542   4.123   1.465   5.933 -0.9154 -0.5492  0.2563
 2969SOL    HW120543   4.051   1.412   5.898  1.0527 -1.7545 -1.8827
 2969SOL    HW220544   4.072   1.521   5.993 -1.2322 -0.7931  0.2181
 2970SOL     OW20545   3.241   3.840   1.649  0.4969 -0.1083 -0.0796
 2970SOL    HW120546   3.240   3.769   1.585  1.0728 -2.0139  2.0651
 2970SOL    HW220547   3.201   3.915   1.604 -0.2048 -2.5396 -3.4899
 2971SOL     OW20548   2.099   4.024  10.803 -0.3048  0.1361 -0.3187
 2971SOL    HW120549   2.080   3.983  10.887 -3.1429 -0.2890 -1.1545
 2971SOL    HW220550   2.043   4.101  10.806  0.0040  0.3443  0.0020
 2972SOL     OW20551   1.799   4.030   2.487  0.1286 -0.0599 -0.6427
 2972SOL    HW120552   1.893   4.046   2.476  0.0187 -0.0280 -1.6034
 2972SOL    HW220553   1.803   4.006   2.579  1.7609  2.0163 -0.1612
 2973SOL     OW20554   3.331   0.979  15.339 -0.5125 -0.4937  0.5715
 2973SOL    HW120555   3.269   0.906  15.327 -2.2783  1.1410 -0.1847
 2973SOL    HW220556   3.348   0.981  15.245  0.8910  0.8978  0.8636
 2974SOL     OW20557   2.675   4.630  13.038 -0.2372  0.3671  0.0788
 2974SOL    HW120558   2.708   4.634  12.948  1.1399  0.7253  0.6158
 2974SOL    HW220559   2.734   4.694  13.075 -0.5561 -0.7668  2.5520
 2975SOL     OW20560   1.898   0.879  10.039  0.0715  0.0099  0.2895
 2975SOL    HW120561   1.867   0.818  10.106  0.8939  0.2168  0.8631
 2975SOL    HW220562   1.993   0.865  10.049  0.5770  2.4023 -1.1474
 2976SOL     OW20563   3.995   4.120  16.117  0.3150 -0.1005  0.1082
 2976SOL    HW120564   4.011   4.151  16.206 -2.7379 -2.0509  1.3565
 2976SOL    HW220565   4.082   4.133  16.081  1.0181 -0.4218  1.7027
 2977SOL     OW20566   3.043   0.590   7.638 -0.1515  0.0460  0.2833
 2977SOL    HW120567   2.966   0.624   7.593 -0.6312 -1.3052  0.0667
 2977SOL    HW220568   3.012   0.500   7.648 -2.4316  0.7854 -0.1621
 2978SOL     OW20569   2.091   2.388  10.884 -0.9020  0.3262 -0.0001
 2978SOL    HW120570   2.171   2.419  10.927 -0.5451  0.8911 -1.0794
 2978SOL    HW220571   2.080   2.454  10.816 -1.2473  0.4394  0.1652
 2979SOL     OW20572   3.924   2.957   3.817  0.2014 -0.2889  0.1618
 2979SOL    HW120573   3.942   2.948   3.723 -0.8382 -1.0837  0.0368
 2979SOL    HW220574   3.828   2.960   3.816  0.2586  0.3185 -2.4622
 2980SOL     OW20575   2.544   2.455   3.649 -0.1618  0.2853  0.0214
 2980SOL    HW120576   2.546   2.443   3.744  0.9705 -1.4115 -0.2315
 2980SOL    HW220577   2.524   2.369   3.614 -1.7689 -0.5125  2.9334
 2981SOL     OW20578   3.675   0.301  14.839 -0.4473 -0.3401 -0.5349
 2981SOL    HW120579   3.657   0.207  14.841  2.3495 -0.8425  0.2503
 2981SOL    HW220580   3.718   0.305  14.754 -0.8073 -1.9984 -0.7939
 2982SOL     OW20581   0.789   4.368   8.570 -0.3324 -0.8183  0.4545
 2982SOL    HW120582   0.790   4.426   8.646  1.9184 -0.8772  0.4617
 2982SOL    HW220583   0.735   4.291   8.585 -1.8151 -0.2858 -2.0584
 2983SOL     OW20584   2.594   4.051   1.526  0.1722 -0.2412 -0.2549
 2983SOL    HW120585   2.641   4.122   1.482  0.0499  0.2519  0.4103
 2983SOL    HW220586   2.617   3.978   1.469  0.0468 -2.0586  2.0296
 2984SOL     OW20587   4.602   3.782  12.161 -0.0191  0.5797 -0.3440
 2984SOL    HW120588   4.606   3.852  12.226 -0.0714  0.7908 -0.5695
 2984SOL    HW220589   4.639   3.824  12.084  1.7786  3.2956  1.9980
 2985SOL     OW20590   3.649   1.283   0.552 -0.2039  0.5854  0.0951
 2985SOL    HW120591   3.621   1.351   0.490  0.8057  1.0174  0.1116
 2985SOL    HW220592   3.690   1.227   0.486 -0.6632  1.0559 -0.5958
 2986SOL     OW20593   2.863   1.059   7.293 -0.5920 -0.6677 -0.2229
 2986SOL    HW120594   2.893   1.055   7.384 -2.3686 -1.2208  0.3269
 2986SOL    HW220595   2.772   1.076   7.317 -0.4305 -0.0500 -0.0400
 2987SOL     OW20596   4.634   4.634   6.622  0.3579  0.3389 -0.0129
 2987SOL    HW120597   4.596   4.654   6.707 -0.1726 -0.3703 -0.0820
 2987SOL    HW220598   4.601   4.708   6.572  2.7284 -0.7963 -3.3218
 2988SOL     OW20599   3.151   1.697   4.306 -0.5824 -0.1998  0.6522
 2988SOL    HW120600   3.220   1.682   4.242 -0.6017 -1.8836  1.0298
 2988SOL    HW220601   3.154   1.617   4.359  1.4849 -1.2768 -1.0810
 2989SOL     OW20602   3.023   1.362   2.092 -0.0028 -0.1213 -0.2240
 2989SOL    HW120603   3.059   1.314   2.017 -1.0567 -0.9817 -0.1807
 2989SOL    HW220604   2.930   1.368   2.070 -0.5370 -1.0592  1.7962
 2990SOL     OW20605   3.930   4.602  11.855 -0.2719  0.4890  0.0508
 2990SOL    HW120606   3.976   4.636  11.932 -0.1593  1.6999 -0.5588
 2990SOL    HW220607   3.840   4.615  11.885 -0.6020  0.7119 -1.0492
 2991SOL     OW20608   1.037   0.436   3.237 -0.5390  0.2247  0.1668
 2991SOL    HW120609   0.984   0.408   3.162  0.3337 -0.3091 -0.2460
 2991SOL    HW220610   0.979   0.434   3.313  0.0178 -0.0154  0.5808
 2992SOL     OW20611   1.517   3.899   1.252 -0.1065 -0.5989 -0.6372
 2992SOL    HW120612   1.448   3.872   1.313  0.7246 -0.1286  0.5078
 2992SOL    HW220613   1.560   3.814   1.236 -1.7061 -1.7336  1.1089
 2993SOL     OW20614   2.314   1.187   0.973 -0.1673  0.9016  0.2163
 2993SOL    HW120615   2.226   1.222   0.959 -0.6065  0.7270  2.5566
 2993SOL    HW220616   2.343   1.249   1.040 -0.1611  1.2948 -0.1523
 2994SOL     OW20617   1.022   4.055   4.291  0.4581 -0.1846 -0.1085
 2994SOL    HW120618   1.080   4.021   4.223 -0.8678  0.2137 -1.4359
 2994SOL    HW220619   0.987   3.968   4.313 -1.8977  0.3024 -2.0689
 2995SOL     OW20620   2.259   0.732   6.917  0.1960 -0.0766 -0.3673
 2995SOL    HW120621   2.271   0.641   6.944 -0.0157  0.3378  1.1498
 2995SOL    HW220622   2.245   0.765   7.006 -0.3700 -0.4127 -0.3296
 2996SOL     OW20623   2.998   1.727   9.241 -0.6633 -0.1675  0.1376
 2996SOL    HW120624   2.989   1.659   9.308  2.2091  0.9328  1.6283
 2996SOL    HW220625   3.063   1.680   9.189 -0.7808  0.0600 -0.2213
 2997SOL     OW20626   3.030   1.839  13.704  0.0291  0.5884  0.1189
 2997SOL    HW120627   3.008   1.762  13.652 -1.5066  0.1331  1.4037
 2997SOL    HW220628   3.003   1.809  13.791 -0.9814 -2.3669 -1.2337
 2998SOL     OW20629   4.475   1.247   0.525  0.0608 -0.5819 -0.0442
 2998SOL    HW120630   4.453   1.340   0.520 -1.5585 -0.9980 -0.8771
 2998SOL    HW220631   4.405   1.214   0.581  0.1208  0.9406  0.9308
 2999SOL     OW20632   3.377   1.549   8.914  0.0983 -0.6643  0.9239
 2999SOL    HW120633   3.335   1.465   8.896  1.8257 -1.7237  1.8492
 2999SOL    HW220634   3.435   1.529   8.987  1.8198  0.1594 -0.2111
 3000SOL     OW20635   0.052   0.107   6.810 -0.0445  0.3870 -0.6943
 3000SOL    HW120636   4.727   0.180   6.794 -0.2921  0.4976  0.7332
 3000SOL    HW220637   4.719   0.043   6.836  1.0804 -0.2552  0.6343
 3001SOL     OW20638   0.325   1.436   4.002  0.5238  0.0469 -0.0225
 3001SOL    HW120639   0.311   1.528   4.023  0.0168  0.7165 -3.2926
 3001SOL    HW220640   0.353   1.436   3.911 -3.8610  1.5536 -1.3865
 3002SOL     OW20641   4.424   0.431   6.591  0.3065  0.2266  0.0172
 3002SOL    HW120642   4.362   0.378   6.641  0.4822 -1.7679 -1.8581
 3002SOL    HW220643   4.367   0.475   6.527 -0.7375 -0.9964  0.0902
 3003SOL     OW20644   4.304   3.246   7.201  0.3421  0.4217 -0.2927
 3003SOL    HW120645   4.319   3.318   7.262  3.0869 -1.5506  1.3757
 3003SOL    HW220646   4.219   3.283   7.176  0.9423  0.0881 -2.8397
 3004SOL     OW20647   1.480   3.276   7.086 -0.5048 -0.5025  0.5158
 3004SOL    HW120648   1.409   3.308   7.142 -0.4933  1.8021 -0.7886
 3004SOL    HW220649   1.545   3.235   7.143 -1.7352 -2.2940  0.6290
 3005SOL     OW20650   3.580   0.563   2.540  0.2168 -0.1770 -0.6327
 3005SOL    HW120651   3.601   0.605   2.457  1.4400  2.3169  0.9656
 3005SOL    HW220652   3.665   0.564   2.582 -0.6965 -1.6515  1.2579
 3006SOL     OW20653   0.446   1.953   4.050  0.0514  0.0271  0.5412
 3006SOL    HW120654   0.389   1.988   4.119  0.2233  0.8606  0.2586
 3006SOL    HW220655   0.410   1.867   4.031  1.1673  0.1172 -1.9794
 3007SOL     OW20656   3.275   0.234  11.669 -0.0471 -0.3213 -0.0608
 3007SOL    HW120657   3.346   0.203  11.726  1.2846  2.7090 -0.0777
 3007SOL    HW220658   3.246   0.304  11.728 -1.3097 -1.7668  1.0393
 3008SOL     OW20659   1.555   2.089   3.263  0.0923 -0.3890 -0.3505
 3008SOL    HW120660   1.528   2.068   3.352 -2.2821  0.6096 -0.8191
 3008SOL    HW220661   1.649   2.088   3.277  0.2968  1.6430 -1.5855
 3009SOL     OW20662   1.548   2.334   2.308  0.4034 -0.0213  0.1418
 3009SOL    HW120663   1.605   2.399   2.349 -1.4586  1.8971 -0.2630
 3009SOL    HW220664   1.468   2.384   2.292  0.1872 -0.0419  1.2073
 3010SOL     OW20665   3.596   1.376   7.745 -0.0316 -0.2369  0.0057
 3010SOL    HW120666   3.545   1.454   7.725 -2.2586 -1.6240  0.2104
 3010SOL    HW220667   3.576   1.310   7.679 -3.1515  0.7629 -0.0708
 3011SOL     OW20668   2.056   1.793   4.674  0.9076 -0.1276 -0.1708
 3011SOL    HW120669   1.981   1.848   4.696  0.1081 -1.0276 -0.6336
 3011SOL    HW220670   2.024   1.750   4.595 -0.8962  0.7467  0.0942
 3012SOL     OW20671   4.038   3.864  15.047 -0.6867  0.1736  0.0706
 3012SOL    HW120672   3.967   3.828  15.100 -0.1808 -1.5307 -0.4242
 3012SOL    HW220673   4.107   3.867  15.113  1.3253 -3.8144 -1.8736
 3013SOL     OW20674   1.255   4.580  13.246 -0.2510 -0.1943 -0.5527
 3013SOL    HW120675   1.290   4.657  13.292 -1.4116  0.1703 -0.2715
 3013SOL    HW220676   1.316   4.571  13.172  0.2690  4.2392 -0.6927
 3014SOL     OW20677   0.228   0.679  14.093  0.1969  0.5562  0.0667
 3014SOL    HW120678   0.286   0.606  14.115  2.3280  1.0248 -4.1828
 3014SOL    HW220679   0.241   0.680  13.999  2.2826  0.9776  0.3744
 3015SOL     OW20680   0.688   1.335  17.518  0.3789  0.0355 -0.7009
 3015SOL    HW120681   0.779   1.314  17.539  1.0081  3.5154  0.0001
 3015SOL    HW220682   0.689   1.430  17.523  0.5075  0.0408 -0.8178
 3016SOL     OW20683   3.164   1.586   9.089  0.4182 -0.6226  0.8910
 3016SOL    HW120684   3.244   1.549   9.051  1.4667  2.8197 -0.2411
 3016SOL    HW220685   3.139   1.643   9.016  0.3214 -2.8702 -0.8391
 3017SOL     OW20686   3.217   0.033   2.384  0.4573  0.8625 -0.2045
 3017SOL    HW120687   3.198   0.109   2.329  1.5485 -0.9462 -3.0542
 3017SOL    HW220688   3.164   0.065   2.457 -0.9730 -0.5466 -0.6370
 3018SOL     OW20689   2.929   4.517  12.596 -0.1195 -0.0351 -0.4939
 3018SOL    HW120690   2.913   4.438  12.543 -0.3915  0.1346 -0.6656
 3018SOL    HW220691   2.949   4.582  12.529  2.0421  1.5382  1.7049
 3019SOL     OW20692   4.585   1.517   9.503 -0.4390 -0.1682 -0.3436
 3019SOL    HW120693   4.613   1.426   9.492  1.2855  0.6592 -2.5456
 3019SOL    HW220694   4.528   1.511   9.580 -1.5217  1.7023 -0.9989
 3020SOL     OW20695   2.605   3.794   8.175  0.5461  0.2936  0.1454
 3020SOL    HW120696   2.570   3.738   8.105 -0.2960 -0.1346  0.9086
 3020SOL    HW220697   2.623   3.729   8.242  0.1310 -1.9728 -1.9217
 3021SOL     OW20698   1.823   0.952   3.268 -0.4545  0.3373 -0.5762
 3021SOL    HW120699   1.747   0.905   3.235  0.0264  0.5252 -1.9468
 3021SOL    HW220700   1.873   0.974   3.189 -1.2726  1.9204 -0.6455
 3022SOL     OW20701   4.434   1.752  14.715  0.0624 -0.4206 -0.5477
 3022SOL    HW120702   4.458   1.811  14.644  0.3785 -0.6970 -0.6741
 3022SOL    HW220703   4.342   1.748  14.691 -0.1313 -1.9765  0.4560
 3023SOL     OW20704   0.730   1.316   3.000 -0.5915  0.2485  0.6549
 3023SOL    HW120705   0.800   1.271   3.047  1.3220  1.3285 -1.1649
 3023SOL    HW220706   0.658   1.253   3.000 -0.5216  0.1698  0.8790
 3024SOL     OW20707   1.126   3.228   3.565  0.3280 -0.0324 -0.1434
 3024SOL    HW120708   1.149   3.260   3.652  3.9556  2.2244 -1.9656
 3024SOL    HW220709   1.049   3.174   3.583  0.6489 -1.2285 -2.3431
 3025SOL     OW20710   3.590   0.941   5.277 -0.9146  0.6467 -0.0345
 3025SOL    HW120711   3.605   0.993   5.197  0.0793 -0.0663 -0.3129
 3025SOL    HW220712   3.515   0.892   5.243 -0.2275 -0.4161 -0.0131
 3026SOL     OW20713   4.150   1.511  12.156 -0.3145  0.6802  0.5809
 3026SOL    HW120714   4.166   1.417  12.171 -0.7823  0.4380 -0.4172
 3026SOL    HW220715   4.236   1.539  12.126 -0.3667 -0.3230 -0.5173
 3027SOL     OW20716   0.918   3.345   7.266 -0.6559  0.0466 -0.1577
 3027SOL    HW120717   0.854   3.389   7.209  0.5945  0.7061 -1.0711
 3027SOL    HW220718   0.911   3.253   7.243 -2.2062 -0.0465  0.7475
 3028SOL     OW20719   3.348   0.460   8.875 -0.5036  1.0668  0.3068
 3028SOL    HW120720   3.401   0.536   8.897  2.3218 -0.0565 -2.6353
 3028SOL    HW220721   3.268   0.507   8.849  0.0800  0.7021 -2.2304
 3029SOL     OW20722   0.383   1.515  10.447  0.3760 -0.2046  0.0434
 3029SOL    HW120723   0.361   1.591  10.501  1.0705  0.4291 -0.5611
 3029SOL    HW220724   0.307   1.509  10.389  0.6009  1.1885 -0.4049
 3030SOL     OW20725   0.559   3.741   0.683 -0.7550  0.6328 -0.0724
 3030SOL    HW120726   0.489   3.798   0.650 -0.0032  1.2317 -0.6331
 3030SOL    HW220727   0.617   3.807   0.722  0.3750  0.5391 -1.5762
 3031SOL     OW20728   3.492   0.791  10.066  0.1732 -0.5539  0.0043
 3031SOL    HW120729   3.518   0.813  10.155  2.7858  1.0031 -1.1472
 3031SOL    HW220730   3.434   0.864  10.043  0.2087  0.0577  1.8176
 3032SOL     OW20731   1.935   4.534   5.504  0.4967 -0.8641 -0.4563
 3032SOL    HW120732   2.000   4.513   5.571 -0.1913  0.3569  0.5869
 3032SOL    HW220733   1.853   4.501   5.542 -0.4870  1.5076 -0.5394
 3033SOL     OW20734   4.595   2.722   8.691 -0.0705  0.1243  0.1029
 3033SOL    HW120735   4.532   2.790   8.714  0.6913  1.2496 -1.1007
 3033SOL    HW220736   4.669   2.774   8.722 -0.4569  2.4531 -2.9607
 3034SOL     OW20737   0.413   3.452  11.894 -0.6405  0.5153  0.5430
 3034SOL    HW120738   0.385   3.399  11.819  0.8692 -1.6476  1.5483
 3034SOL    HW220739   0.444   3.388  11.956 -0.5973 -1.4197 -1.4734
 3035SOL     OW20740   1.567   0.550  11.702 -0.1825  0.0474  0.8526
 3035SOL    HW120741   1.578   0.555  11.607  1.2853 -0.7095  0.9810
 3035SOL    HW220742   1.643   0.588  11.747  0.9024 -1.9583  0.7189
 3036SOL     OW20743   0.321   4.722   3.399 -0.0664 -0.4639 -0.0299
 3036SOL    HW120744   0.230   4.704   3.377  0.0554 -2.0628  0.7855
 3036SOL    HW220745   0.332   0.083   3.403  0.8008 -0.5494 -0.2630
 3037SOL     OW20746   1.076   3.581   4.673 -0.4718 -0.1895  0.1413
 3037SOL    HW120747   1.046   3.533   4.596  0.8125 -2.3257  0.9547
 3037SOL    HW220748   1.092   3.668   4.634  0.0129 -0.3323  0.0116
 3038SOL     OW20749   1.199   4.413  12.980  0.7639  0.7351  0.4694
 3038SOL    HW120750   1.290   4.443  12.984  1.0297 -0.1138  0.8458
 3038SOL    HW220751   1.209   4.322  13.007  1.8901  1.4157  2.3631
 3039SOL     OW20752   0.413   0.355   5.213  0.1669 -0.3786  0.0932
 3039SOL    HW120753   0.320   0.353   5.239  0.8206 -0.3406  2.4297
 3039SOL    HW220754   0.393   0.368   5.121  1.4568 -2.0957 -0.4269
 3040SOL     OW20755   3.689   4.638   7.458  0.3903 -0.1395 -0.0168
 3040SOL    HW120756   3.615   4.596   7.415  1.3601 -1.7694 -0.1183
 3040SOL    HW220757   3.760   4.614   7.398  1.4469 -0.8416  1.4960
 3041SOL     OW20758   2.613   3.481   4.843 -0.4489 -0.5590  0.5792
 3041SOL    HW120759   2.623   3.386   4.849 -1.2355 -0.6117  1.1893
 3041SOL    HW220760   2.568   3.500   4.761  0.9702  4.1944  0.8990
 3042SOL     OW20761   3.309   3.506   2.773  0.3702  0.7399  0.1817
 3042SOL    HW120762   3.380   3.538   2.828  1.0724  3.9547 -2.6207
 3042SOL    HW220763   3.292   3.421   2.815  0.5815  1.4016  1.6130
 3043SOL     OW20764   1.422   2.072  16.744 -0.2823  0.4670 -0.4609
 3043SOL    HW120765   1.490   2.005  16.755 -1.3682  0.0220  3.4202
 3043SOL    HW220766   1.437   2.085  16.650  0.1616  1.9528 -0.1839
 3044SOL     OW20767   0.715   4.358   3.140 -0.0082  0.4361 -0.3831
 3044SOL    HW120768   0.782   4.377   3.075 -0.1759  2.1265 -0.0840
 3044SOL    HW220769   0.731   4.440   3.187  1.0819  0.8239 -1.4539
 3045SOL     OW20770   4.669   1.845   3.612  0.2069 -0.2092 -0.0778
 3045SOL    HW120771   4.672   1.753   3.637 -3.5191  0.1073  1.4846
 3045SOL    HW220772   4.581   1.865   3.644 -0.3046  0.7836 -2.1324
 3046SOL     OW20773   1.623   2.337   4.948 -0.3351 -0.5013  0.2973
 3046SOL    HW120774   1.638   2.242   4.952 -0.4125 -0.5471 -0.4463
 3046SOL    HW220775   1.540   2.332   4.901  0.6291  1.4384 -1.6263
 3047SOL     OW20776   1.986   3.864  11.720 -0.3093 -0.0022  0.2509
 3047SOL    HW120777   1.894   3.846  11.698  1.0563 -0.8879 -4.7237
 3047SOL    HW220778   2.010   3.902  11.636  1.4580 -1.1906  0.2165
 3048SOL     OW20779   2.721   3.734   7.227  0.2859 -0.1870  0.1186
 3048SOL    HW120780   2.784   3.663   7.231 -0.6490 -1.0004  0.4634
 3048SOL    HW220781   2.773   3.814   7.221  0.1227 -0.1549 -0.8283
 3049SOL     OW20782   0.480   1.855   2.985  0.5743  0.1995 -0.0305
 3049SOL    HW120783   0.468   1.938   3.032  1.7889  1.9584 -2.8625
 3049SOL    HW220784   0.472   1.784   3.049 -1.8138  0.0668 -0.4768
 3050SOL     OW20785   4.240   3.007   7.927 -0.1069  0.2515 -0.0992
 3050SOL    HW120786   4.289   3.014   7.845  0.1548 -0.1647  0.0186
 3050SOL    HW220787   4.194   2.923   7.914  4.0267 -2.0434  0.2044
 3051SOL     OW20788   0.896   0.713   4.393  0.2517 -0.1319 -0.1408
 3051SOL    HW120789   0.839   0.724   4.470  1.2613  0.5541  0.5159
 3051SOL    HW220790   0.953   0.790   4.401 -0.5938  0.3369  1.3872
 3052SOL     OW20791   2.054   3.948   0.584  0.5888 -0.5687  0.2123
 3052SOL    HW120792   2.085   4.030   0.621 -1.2397  0.2365 -0.0536
 3052SOL    HW220793   2.064   3.964   0.490  0.2309  1.1112  0.4710
 3053SOL     OW20794   2.098   3.366   2.907 -0.0974 -0.2697  0.0298
 3053SOL    HW120795   2.039   3.418   2.852 -0.5280 -0.7005  0.0889
 3053SOL    HW220796   2.118   3.443   2.961 -1.4756 -0.2823  0.5651
 3054SOL     OW20797   1.366   0.754   0.738 -0.2612  0.0533  0.3821
 3054SOL    HW120798   1.385   0.713   0.822  1.4772  0.0925  0.0245
 3054SOL    HW220799   1.369   0.685   0.671 -0.1742 -0.0762  0.5191
 3055SOL     OW20800   2.705   0.699   9.338 -0.1505 -0.5266  0.5677
 3055SOL    HW120801   2.776   0.651   9.294 -1.6881  0.0848 -2.5515
 3055SOL    HW220802   2.654   0.622   9.364 -0.9042 -0.6089 -1.2042
 3056SOL     OW20803   4.222   2.252   2.614  0.1713  0.2202 -0.3485
 3056SOL    HW120804   4.169   2.283   2.541 -1.1266  0.1783  0.5681
 3056SOL    HW220805   4.282   2.194   2.566  2.1031  2.1717 -0.2486
 3057SOL     OW20806   3.148   1.345  11.854  0.1596  0.2470  0.1086
 3057SOL    HW120807   3.172   1.367  11.764 -0.5320 -1.0865 -0.4107
 3057SOL    HW220808   3.057   1.318  11.841  0.1689  0.5070 -0.4721
 3058SOL     OW20809   1.746   0.984   7.975 -0.5631 -0.3786  0.6494
 3058SOL    HW120810   1.650   0.980   7.968 -0.5190 -2.3029  0.8960
 3058SOL    HW220811   1.765   1.045   7.904 -0.4165 -0.4013  0.6704
 3059SOL     OW20812   3.817   2.871   1.080  0.4201  0.7991 -0.1754
 3059SOL    HW120813   3.866   2.953   1.091 -0.3759  1.4329 -1.2910
 3059SOL    HW220814   3.875   2.825   1.019  0.3648 -1.2863  1.3849
 3060SOL     OW20815   2.172   4.299   2.623 -0.2949 -0.3555  0.2735
 3060SOL    HW120816   2.144   4.309   2.532  0.1629 -0.3253  0.1366
 3060SOL    HW220817   2.267   4.311   2.618 -0.4708 -0.0959 -2.8396
 3061SOL     OW20818   2.419   3.047  10.129  0.1151 -0.5846  0.1268
 3061SOL    HW120819   2.478   3.106  10.175 -0.2957  1.0361 -1.4126
 3061SOL    HW220820   2.354   3.027  10.196 -0.5888  0.9376 -0.1016
 3062SOL     OW20821   2.902   2.026   4.806  0.4073  1.0462  0.0681
 3062SOL    HW120822   2.991   2.050   4.830  1.5603 -3.6860  0.5870
 3062SOL    HW220823   2.851   2.060   4.880  0.2029  1.1777 -0.1334
 3063SOL     OW20824   2.940   1.817   3.727  0.1452 -0.2381  0.3354
 3063SOL    HW120825   2.992   1.862   3.660  0.4625 -0.4217  0.4568
 3063SOL    HW220826   2.945   1.730   3.688  0.0648  0.1969 -0.6585
 3064SOL     OW20827   1.960   3.233   8.591 -0.1208  0.0843  0.3667
 3064SOL    HW120828   1.944   3.166   8.524  0.5892  2.1938 -1.8872
 3064SOL    HW220829   1.882   3.289   8.585  0.1363  0.6424  2.4106
 3065SOL     OW20830   1.446   0.151   4.586  0.5596  0.5271 -0.1530
 3065SOL    HW120831   1.468   0.166   4.495 -1.1573 -0.8980 -0.7967
 3065SOL    HW220832   1.381   0.081   4.591  0.5412  0.4231 -2.1779
 3066SOL     OW20833   1.210   1.439   0.466 -0.0336 -0.0126 -0.5819
 3066SOL    HW120834   1.296   1.476   0.451  0.2146  0.2576  1.4923
 3066SOL    HW220835   1.230   1.373   0.533 -2.1896 -0.7190 -0.6256
 3067SOL     OW20836   4.394   1.731   1.983  0.1036  0.0257  0.0804
 3067SOL    HW120837   4.392   1.668   2.055  0.8185 -0.7758 -0.5918
 3067SOL    HW220838   4.303   1.724   1.953 -0.2788  1.2710  0.9732
 3068SOL     OW20839   2.134   2.298  15.990  0.1683 -0.0066 -0.2506
 3068SOL    HW120840   2.222   2.274  16.020  0.0851  1.1109  0.9080
 3068SOL    HW220841   2.144   2.294  15.895  0.5303  0.9266 -0.2549
 3069SOL     OW20842   4.566   2.036   0.758 -0.0877  0.4126  0.2529
 3069SOL    HW120843   4.472   2.046   0.745 -0.2176 -0.3660  0.6445
 3069SOL    HW220844   4.576   1.979   0.682 -0.1000 -3.8041  3.4419
 3070SOL     OW20845   4.667   2.223   6.323 -0.3447  0.6597 -0.1137
 3070SOL    HW120846   4.573   2.242   6.321 -0.3653  0.6114  0.2861
 3070SOL    HW220847   4.689   2.230   6.416  1.4671  0.1211 -0.5174
 3071SOL     OW20848   1.133   4.439   2.566 -0.1386 -0.0459  0.3433
 3071SOL    HW120849   1.224   4.415   2.548 -0.6344 -3.2242  2.0956
 3071SOL    HW220850   1.122   4.508   2.501  1.2638  0.1196  0.2830
 3072SOL     OW20851   0.866   1.394   8.751 -0.5996 -0.3229 -0.0242
 3072SOL    HW120852   0.808   1.457   8.709 -2.7263 -1.7957  0.6694
 3072SOL    HW220853   0.930   1.379   8.681 -1.0015 -0.2689 -0.4066
 3073SOL     OW20854   1.896   1.132  10.177  0.4552 -0.4476 -0.0271
 3073SOL    HW120855   1.853   1.116  10.261 -0.6149 -0.0837 -0.4970
 3073SOL    HW220856   1.900   1.048  10.131 -1.8290  0.1540 -1.3493
 3074SOL     OW20857   2.356   4.127  15.491 -0.6562 -0.4649 -0.0864
 3074SOL    HW120858   2.370   4.212  15.449 -1.9364 -0.2638 -0.0988
 3074SOL    HW220859   2.445   4.092  15.495 -0.6960 -0.6813 -1.1568
 3075SOL     OW20860   4.697   0.946  16.900  0.5999 -0.5191 -0.4319
 3075SOL    HW120861   4.719   0.876  16.838  1.2831  0.7764 -1.6744
 3075SOL    HW220862   4.711   0.903  16.984  0.5046 -0.3363 -0.3237
 3076SOL     OW20863   3.607   1.872   0.341 -0.1367 -0.5397 -0.2364
 3076SOL    HW120864   3.526   1.824   0.323 -0.2602 -0.4370  0.0323
 3076SOL    HW220865   3.601   1.940   0.274 -0.2742  2.0618  2.4166
 3077SOL     OW20866   2.495   4.508   7.596 -0.2034 -0.3803 -1.0226
 3077SOL    HW120867   2.555   4.545   7.531 -1.4860  0.9773 -1.4625
 3077SOL    HW220868   2.413   4.549   7.568 -0.9230 -0.1539  1.4549
 3078SOL     OW20869   0.493   0.995  13.707 -0.0487  0.0535  0.7457
 3078SOL    HW120870   0.438   1.024  13.635  0.0304  0.1144  0.7092
 3078SOL    HW220871   0.423   0.961  13.762  0.9841  1.3683  2.8688
 3079SOL     OW20872   0.675   3.738   5.724  0.6808  0.0628 -0.0577
 3079SOL    HW120873   0.615   3.697   5.662 -0.5473 -0.2214  1.3028
 3079SOL    HW220874   0.735   3.668   5.753  0.2365  0.6654  2.3309
 3080SOL     OW20875   4.461   4.208   8.100 -0.1059 -0.2890  0.2989
 3080SOL    HW120876   4.399   4.266   8.144  0.1136 -0.7076  1.1672
 3080SOL    HW220877   4.444   4.122   8.140  0.0436  0.8501  2.8368
 3081SOL     OW20878   1.696   4.263  15.644 -0.4373  0.3791 -0.4451
 3081SOL    HW120879   1.604   4.239  15.643 -0.5372  0.7252  0.1400
 3081SOL    HW220880   1.696   4.293  15.553  3.2663 -2.0087 -1.2548
 3082SOL     OW20881   0.520   0.807   8.801  0.0800  0.2771 -0.0411
 3082SOL    HW120882   0.460   0.812   8.875 -0.9699  1.7682 -0.9836
 3082SOL    HW220883   0.558   0.719   8.807  0.5099  0.5273  0.9234
 3083SOL     OW20884   0.629   3.493   3.662  0.0318  0.8351  0.1172
 3083SOL    HW120885   0.607   3.521   3.751 -2.3770  0.3566 -0.3386
 3083SOL    HW220886   0.689   3.566   3.644  1.5372  0.1261  2.2561
 3084SOL     OW20887   3.071   3.780   7.840 -0.1915 -0.1446 -0.3881
 3084SOL    HW120888   3.053   3.847   7.774 -1.8090 -1.8548 -1.6815
 3084SOL    HW220889   3.167   3.774   7.841 -0.0184  2.7210  0.5600
 3085SOL     OW20890   1.281   1.126  11.862  0.1011  0.0648  0.6231
 3085SOL    HW120891   1.222   1.088  11.797  0.4837  0.8314 -0.1761
 3085SOL    HW220892   1.268   1.220  11.853  1.4440  0.1087 -0.8116
 3086SOL     OW20893   3.985   1.766   0.881  0.3761  0.5998  0.1235
 3086SOL    HW120894   3.988   1.690   0.822  2.6280  3.1866 -3.0817
 3086SOL    HW220895   3.959   1.736   0.968 -0.8924  0.4500 -0.2958
 3087SOL     OW20896   1.017   1.763  12.497  0.3312  0.0784  0.4470
 3087SOL    HW120897   1.004   1.736  12.406  0.0995 -3.4732  1.5313
 3087SOL    HW220898   1.100   1.716  12.504  0.7775  0.1988 -3.8712
 3088SOL     OW20899   1.406   2.168  16.463  0.2982  0.2691 -0.1996
 3088SOL    HW120900   1.420   2.245  16.409 -1.0066  0.5781 -0.0955
 3088SOL    HW220901   1.488   2.122  16.445  1.3686  1.5381  1.4083
 3089SOL     OW20902   3.965   1.280   1.832  0.0485  0.0702  0.3276
 3089SOL    HW120903   3.966   1.230   1.913  0.0486 -0.3749  0.0529
 3089SOL    HW220904   3.914   1.358   1.858 -0.0492  0.1355 -0.0575
 3090SOL     OW20905   0.774   2.960  14.434 -0.5551 -0.1260 -0.4015
 3090SOL    HW120906   0.858   2.934  14.397 -0.7568 -0.3352 -0.7117
 3090SOL    HW220907   0.773   3.055  14.422 -0.7252  0.2919  2.7233
 3091SOL     OW20908   0.598   1.036   2.135  0.0266 -0.4307  0.5253
 3091SOL    HW120909   0.683   1.078   2.119  1.1236 -2.7154  0.3322
 3091SOL    HW220910   0.543   1.040   2.057 -1.5074  1.8729  1.7218
 3092SOL     OW20911   0.358   1.732   7.953 -0.2410 -0.1951 -0.3784
 3092SOL    HW120912   0.336   1.791   8.026  2.6410  2.1701 -1.3899
 3092SOL    HW220913   0.282   1.675   7.958  1.1562 -2.1561 -1.5959
 3093SOL     OW20914   0.903   0.015  11.637  0.1449 -0.6551 -0.4372
 3093SOL    HW120915   0.962   4.676  11.619  0.4547 -0.2686 -0.9732
 3093SOL    HW220916   0.912   0.033  11.731  2.7710 -1.0563 -0.5889
 3094SOL     OW20917   0.937   3.740   2.814 -0.9381 -0.3788  0.3806
 3094SOL    HW120918   0.882   3.728   2.892 -0.2282 -3.1868  0.4270
 3094SOL    HW220919   0.980   3.823   2.837 -1.1495 -0.7918  2.2827
 3095SOL     OW20920   1.260   2.632   4.138 -0.4643  0.3098  0.5548
 3095SOL    HW120921   1.320   2.574   4.092 -0.1061 -0.5520  2.1175
 3095SOL    HW220922   1.259   2.590   4.224 -2.9576  0.8450  0.8024
 3096SOL     OW20923   3.185   1.898  15.204 -0.3277 -0.2132 -0.2893
 3096SOL    HW120924   3.114   1.959  15.220 -0.5162 -0.5625  0.1907
 3096SOL    HW220925   3.142   1.826  15.158  0.5651 -0.5607 -0.6004
 3097SOL     OW20926   0.101   4.525   5.672 -0.0253  0.6198  0.2550
 3097SOL    HW120927   0.088   4.515   5.577  0.6577 -0.4847  0.2801
 3097SOL    HW220928   0.033   4.469   5.708 -0.0445 -0.7037 -1.8518
 3098SOL     OW20929   3.101   4.647   2.724  0.7362  0.2979  0.1045
 3098SOL    HW120930   3.138   4.706   2.789  1.4976  0.0994 -0.1512
 3098SOL    HW220931   3.155   4.569   2.736 -0.8306 -0.8123 -0.0052
 3099SOL     OW20932   3.262   3.271  16.957 -0.2667  0.2302 -0.1843
 3099SOL    HW120933   3.247   3.257  16.864  1.9535 -2.3991 -0.1484
 3099SOL    HW220934   3.295   3.185  16.983  1.5772  0.5234 -1.5411
 3100SOL     OW20935   1.431   4.672  16.178 -0.1605 -0.0413 -0.9532
 3100SOL    HW120936   1.435   4.597  16.119  0.0656 -0.3813 -0.5030
 3100SOL    HW220937   1.449   0.005  16.113 -0.4805  1.4128  0.4745
 3101SOL     OW20938   1.562   3.793   4.010 -0.2833 -0.1488 -1.0862
 3101SOL    HW120939   1.561   3.834   3.924 -2.5852 -1.3545 -1.6561
 3101SOL    HW220940   1.652   3.763   4.020 -0.3064 -0.0294 -0.5322
 3102SOL     OW20941   0.615   2.819   2.350 -0.5929 -0.2167 -0.5992
 3102SOL    HW120942   0.617   2.747   2.287 -1.3434 -0.6776 -0.1002
 3102SOL    HW220943   0.528   2.859   2.344  0.0589  1.4108  0.7820
 3103SOL     OW20944   3.189   3.872  15.480 -0.5495  0.7458  0.1726
 3103SOL    HW120945   3.167   3.785  15.446 -0.8441  0.2395  1.6675
 3103SOL    HW220946   3.281   3.865  15.505 -0.9369  0.3225  1.4784
 3104SOL     OW20947   2.991   0.059   3.697 -0.3143 -0.5001  0.1104
 3104SOL    HW120948   2.992   0.064   3.601  0.6785 -1.0412  0.0975
 3104SOL    HW220949   2.974   0.146   3.732 -0.0215 -0.6650  0.6532
 3105SOL     OW20950   1.615   2.622   2.034  0.2327  0.2951 -0.2269
 3105SOL    HW120951   1.599   2.530   2.015 -1.4721  0.3917  0.7562
 3105SOL    HW220952   1.606   2.659   1.946  0.6442  0.9053 -0.0127
 3106SOL     OW20953   0.498   2.325  15.836 -0.0610 -0.1169  0.2882
 3106SOL    HW120954   0.569   2.389  15.842 -0.7420  0.6728 -0.0738
 3106SOL    HW220955   0.462   2.341  15.923 -2.8900  0.0556 -0.8996
 3107SOL     OW20956   2.537   1.879   0.411 -0.1475 -0.1676 -0.0088
 3107SOL    HW120957   2.559   1.845   0.325 -0.2390 -2.3966  0.8466
 3107SOL    HW220958   2.515   1.968   0.382  1.4403 -0.5101 -2.1916
 3108SOL     OW20959   4.487   4.098   6.117 -0.2427 -0.3409  0.6168
 3108SOL    HW120960   4.534   4.179   6.097 -1.0678  0.5488  2.2067
 3108SOL    HW220961   4.543   4.044   6.061  0.0913 -1.9776  2.5378
 3109SOL     OW20962   0.131   1.488   5.831 -0.4473  0.3264  0.5905
 3109SOL    HW120963   0.225   1.474   5.830 -0.4150  0.5777  0.3066
 3109SOL    HW220964   0.113   1.555   5.765 -0.6528  1.3090  1.6385
 3110SOL     OW20965   2.025   0.550   1.505  0.2571  0.2842 -0.6862
 3110SOL    HW120966   2.102   0.540   1.561  0.1102 -0.5881 -0.6393
 3110SOL    HW220967   1.957   0.601   1.549  1.4873  1.5839 -0.2697
 3111SOL     OW20968   0.867   2.305   7.665  0.0848  0.0980  0.3024
 3111SOL    HW120969   0.776   2.312   7.637  0.1563 -1.1896 -0.2364
 3111SOL    HW220970   0.859   2.299   7.760  0.3373 -0.2233  0.3036
 3112SOL     OW20971   0.425   4.375   3.074 -0.6106  0.0953 -0.0796
 3112SOL    HW120972   0.520   4.361   3.084 -0.7093 -1.0411 -0.7008
 3112SOL    HW220973   0.398   4.385   2.983 -1.8217  1.8007  0.4704
 3113SOL     OW20974   1.164   4.172   9.309 -0.2680 -0.1708 -0.4306
 3113SOL    HW120975   1.094   4.238   9.306 -1.0926 -1.2242 -5.0046
 3113SOL    HW220976   1.133   4.124   9.385  0.4195 -0.8629 -0.5883
 3114SOL     OW20977   3.038   2.161   9.524 -0.2252 -0.4218 -0.3143
 3114SOL    HW120978   3.086   2.105   9.463 -3.2421 -0.9886 -2.1790
 3114SOL    HW220979   2.947   2.139   9.506 -0.4725 -0.2857  0.7785
 3115SOL     OW20980   2.745   0.664   2.258 -0.1057 -0.1498 -0.5038
 3115SOL    HW120981   2.823   0.672   2.203  0.2934 -0.5016  0.0054
 3115SOL    HW220982   2.746   0.570   2.277  0.6607 -0.3020 -1.3024
 3116SOL     OW20983   1.314   3.710   2.796 -0.1525  0.3317  0.1594
 3116SOL    HW120984   1.378   3.656   2.842 -0.8929  0.3746  1.2414
 3116SOL    HW220985   1.236   3.660   2.820 -1.0982  1.8613  0.2856
 3117SOL     OW20986   2.684   0.463   5.632 -0.3635 -0.4382 -0.4305
 3117SOL    HW120987   2.770   0.427   5.611  0.8844  2.2850  0.0617
 3117SOL    HW220988   2.696   0.542   5.581  0.0281  0.0315  0.3906
 3118SOL     OW20989   3.170   4.301   6.901 -0.2072 -0.1230  0.9939
 3118SOL    HW120990   3.208   4.222   6.939  0.3940  0.4990  1.6893
 3118SOL    HW220991   3.137   4.272   6.816  2.9554 -2.0258  0.4086
 3119SOL     OW20992   1.040   2.099   7.228  0.5402  0.0278 -0.1164
 3119SOL    HW120993   1.064   2.188   7.204  0.6620  0.7603  2.8148
 3119SOL    HW220994   0.946   2.090   7.207  0.7690 -1.7897 -0.4288
 3120SOL     OW20995   1.370   0.553   7.828 -0.3266 -0.0373 -0.6803
 3120SOL    HW120996   1.452   0.524   7.868 -0.0859 -0.1883 -1.2805
 3120SOL    HW220997   1.403   0.598   7.750 -0.4525  1.2339  0.0020
 3121SOL     OW20998   1.834   4.269   3.570  0.4945 -0.3503  0.3927
 3121SOL    HW120999   1.913   4.299   3.524  0.1487 -1.5961 -1.0017
 3121SOL    HW221000   1.768   4.278   3.502  0.2318 -2.3396  0.3725
 3122SOL     OW21001   3.103   2.308   0.108 -0.2243  0.3420  0.0906
 3122SOL    HW121002   3.017   2.276   0.136 -2.2437  4.1387 -1.8015
 3122SOL    HW221003   3.108   2.243   0.038 -0.6182 -1.3657  1.6608
 3123SOL     OW21004   2.922   2.741   5.025  0.6941  0.3942  0.4216
 3123SOL    HW121005   2.991   2.803   5.004  2.0282 -0.5825  1.9665
 3123SOL    HW221006   2.859   2.758   4.954  0.9318  1.4027  0.4512
 3124SOL     OW21007   2.327   1.336   1.856  0.2969  0.4091  0.0792
 3124SOL    HW121008   2.359   1.415   1.899  0.0702 -0.3607  1.6751
 3124SOL    HW221009   2.388   1.329   1.783 -0.1880  1.8723 -0.4714
 3125SOL     OW21010   0.524   4.404   4.951  0.4802  0.5891  0.3344
 3125SOL    HW121011   0.480   4.455   4.883  0.9279  0.7260  0.1517
 3125SOL    HW221012   0.591   4.363   4.897 -0.2449  0.8201 -0.7374
 3126SOL     OW21013   4.198   0.536   3.149  0.6864 -0.0238  0.3205
 3126SOL    HW121014   4.265   0.476   3.114  0.7555  0.0977  0.2470
 3126SOL    HW221015   4.142   0.535   3.072  0.9216 -1.2341  0.1525
 3127SOL     OW21016   3.915   4.362   6.710  0.5146 -0.0622  0.5030
 3127SOL    HW121017   3.909   4.287   6.651  0.1515  0.5358 -0.2198
 3127SOL    HW221018   3.829   4.401   6.690  0.0256 -1.0835  0.6453
 3128SOL     OW21019   0.482   4.522  16.186 -0.0515 -0.2749 -0.4890
 3128SOL    HW121020   0.507   4.511  16.094  0.8014 -1.9405 -0.0591
 3128SOL    HW221021   0.392   4.551  16.179  0.2815  0.7258 -0.6807
 3129SOL     OW21022   4.481   4.543  10.351  0.8783 -0.3529 -0.7312
 3129SOL    HW121023   4.443   4.603  10.287 -0.0537 -1.0807 -0.8616
 3129SOL    HW221024   4.436   4.467  10.314 -1.2925  1.0685 -0.9770
 3130SOL     OW21025   3.384   0.780  13.187 -0.0478 -0.3066 -0.6525
 3130SOL    HW121026   3.460   0.730  13.157 -1.2612 -2.2758 -0.3877
 3130SOL    HW221027   3.420   0.868  13.199  0.9266 -0.9123  0.7310
 3131SOL     OW21028   4.664   4.032  17.016  0.2111 -1.0227  0.1081
 3131SOL    HW121029   4.642   4.006  16.927  0.6992 -0.2570 -0.2303
 3131SOL    HW221030   0.024   4.048  17.008 -0.4302  2.4537 -0.4226
 3132SOL     OW21031   3.239   2.404   7.519 -0.1707 -0.4813  0.0902
 3132SOL    HW121032   3.239   2.363   7.433  2.8119  0.7149 -0.5069
 3132SOL    HW221033   3.263   2.491   7.487 -1.2118  0.2199  1.2320
 3133SOL     OW21034   0.722   4.627   7.777 -0.2241 -0.1325  0.0197
 3133SOL    HW121035   0.717   4.539   7.816 -3.0088 -0.0382 -0.1438
 3133SOL    HW221036   0.669   4.672   7.843  0.1147 -1.0686  0.9357
 3134SOL     OW21037   0.197   2.401  16.431 -0.2623 -0.5131 -0.0835
 3134SOL    HW121038   0.286   2.367  16.439  0.6445  1.5885 -1.1503
 3134SOL    HW221039   0.217   2.490  16.401  4.2726 -1.3382  0.4652
 3135SOL     OW21040   3.003   0.928   5.196 -0.2568 -0.3935 -0.8881
 3135SOL    HW121041   2.964   1.002   5.151 -0.9935  0.4282  1.0882
 3135SOL    HW221042   2.997   0.859   5.130 -0.9770 -1.1259 -0.0658
 3136SOL     OW21043   1.755   4.415   6.626  0.6920  0.2558 -0.0205
 3136SOL    HW121044   1.824   4.382   6.683  0.7734 -0.1133 -0.3353
 3136SOL    HW221045   1.675   4.380   6.667  0.1871 -2.0458 -2.9318
 3137SOL     OW21046   4.473   4.656   3.353  0.1285 -0.1368 -0.1053
 3137SOL    HW121047   4.520   4.627   3.275  1.4265 -0.5247  0.8331
 3137SOL    HW221048   4.542   4.701   3.401  1.9958 -1.1878 -1.7897
 3138SOL     OW21049   1.893   0.565   6.894  0.9139 -0.3673 -0.1957
 3138SOL    HW121050   1.940   0.576   6.811  1.8530  1.6082  0.6107
 3138SOL    HW221051   1.888   0.654   6.928 -1.3923 -0.5086 -0.1139
 3139SOL     OW21052   0.756   2.738   2.568  0.3164  0.0154 -0.4094
 3139SOL    HW121053   0.707   2.691   2.635  0.6637 -0.4512 -0.4766
 3139SOL    HW221054   0.691   2.752   2.500 -0.8936 -0.2003  0.7122
 3140SOL     OW21055   2.427   3.195   4.768  0.4605  0.0091 -0.4575
 3140SOL    HW121056   2.487   3.123   4.786  0.8522  0.8318  1.4574
 3140SOL    HW221057   2.408   3.205   4.674  1.5555  2.5502 -0.4310
 3141SOL     OW21058   1.043   0.732   2.346 -0.3868  0.6337  0.2143
 3141SOL    HW121059   1.125   0.766   2.309  0.0584  0.2115  0.8050
 3141SOL    HW221060   0.982   0.735   2.273 -0.0043 -0.3415 -0.1490
 3142SOL     OW21061   1.848   3.753   0.460 -0.5345  0.1475  0.2831
 3142SOL    HW121062   1.825   3.832   0.508 -0.4074  0.3731 -0.0260
 3142SOL    HW221063   1.873   3.695   0.532  1.6985  0.1592 -0.4611
 3143SOL     OW21064   2.268   0.407   2.793  0.0929  0.3463 -0.4602
 3143SOL    HW121065   2.269   0.439   2.883  0.9595  1.4025 -0.8377
 3143SOL    HW221066   2.179   0.381   2.768 -0.5935  3.2981 -0.9968
 3144SOL     OW21067   3.383   4.646   9.253 -0.2091 -0.3762  0.2423
 3144SOL    HW121068   3.394   4.658   9.348  1.4186 -0.3584  0.0520
 3144SOL    HW221069   3.473   4.673   9.233  0.1953 -2.3874 -0.6849
 3145SOL     OW21070   2.711   4.125  15.725  0.3058  0.2110 -0.4742
 3145SOL    HW121071   2.655   4.048  15.715  0.8738 -0.4472  1.4142
 3145SOL    HW221072   2.783   4.088  15.674 -0.5668 -1.9135 -0.1637
 3146SOL     OW21073   3.949   0.350  12.242  0.2227 -0.9202 -0.5690
 3146SOL    HW121074   3.987   0.282  12.298  1.0565 -0.5740 -0.7158
 3146SOL    HW221075   4.017   0.371  12.178 -0.0754  0.2501 -0.4870
 3147SOL     OW21076   3.932   4.384   4.877  0.1653 -0.3851 -0.0021
 3147SOL    HW121077   3.861   4.401   4.815  0.5345  1.3697  0.0398
 3147SOL    HW221078   3.992   4.454   4.850 -0.0849  0.3980  1.4188
 3148SOL     OW21079   4.582   0.994   9.305  0.1464 -0.1915 -0.3433
 3148SOL    HW121080   4.644   1.043   9.251 -1.3769  1.2757 -0.7544
 3148SOL    HW221081   4.609   0.903   9.293  0.5446 -0.0110 -0.8020
 3149SOL     OW21082   1.479   1.413   3.605  0.0086 -0.3251  0.1220
 3149SOL    HW121083   1.477   1.339   3.666 -0.5829 -1.4751 -1.2689
 3149SOL    HW221084   1.397   1.453   3.631  0.8470  1.1426  0.4925
 3150SOL     OW21085   4.081   0.630   4.975  0.3806 -0.3635  0.4910
 3150SOL    HW121086   4.045   0.613   4.889  0.6329 -0.5832  0.4277
 3150SOL    HW221087   4.000   0.631   5.025  0.8973 -0.3384  1.3288
 3151SOL     OW21088   0.604   4.234   6.142 -0.1819  0.3399  0.0718
 3151SOL    HW121089   0.616   4.315   6.192  2.9585 -0.5864  0.7907
 3151SOL    HW221090   0.672   4.179   6.181 -0.2744  2.0465  2.6645
 3152SOL     OW21091   2.015   0.048   3.910 -0.0937 -0.1504 -0.1297
 3152SOL    HW121092   2.070   0.125   3.925 -0.4197 -0.3089  1.8340
 3152SOL    HW221093   2.072   4.727   3.855 -1.0232 -0.2192 -1.0209
 3153SOL     OW21094   3.449   1.800  15.989 -0.4382 -0.3418 -0.1506
 3153SOL    HW121095   3.384   1.859  16.028  0.7115 -0.1399  1.4569
 3153SOL    HW221096   3.389   1.741  15.943 -1.4211 -0.1202  0.8552
 3154SOL     OW21097   2.030   3.451   4.059 -0.0387 -0.6013 -0.5936
 3154SOL    HW121098   2.012   3.534   4.104  0.9804 -0.6043 -0.1705
 3154SOL    HW221099   1.941   3.418   4.049 -1.3791  1.8872  3.2744
 3155SOL     OW21100   4.351   0.127   7.591  0.2232 -0.2860 -0.3682
 3155SOL    HW121101   4.311   0.138   7.504  0.5978  0.6708 -0.4235
 3155SOL    HW221102   4.307   0.204   7.628 -0.9755 -2.5602  2.9089
 3156SOL     OW21103   3.840   4.569   1.460 -0.5010  0.1365 -0.1461
 3156SOL    HW121104   3.895   4.577   1.382 -0.1768 -0.2696  0.0371
 3156SOL    HW221105   3.761   4.530   1.423 -2.2266  0.9205  2.6583
 3157SOL     OW21106   2.385   1.014   5.497  0.1496  0.3386  0.2946
 3157SOL    HW121107   2.305   0.962   5.508  2.0569 -2.3213  1.6404
 3157SOL    HW221108   2.351   1.091   5.543  0.9413  1.9395 -1.7865
 3158SOL     OW21109   4.677   1.040   3.471  0.3863  0.4448  0.4885
 3158SOL    HW121110   4.649   0.952   3.448 -0.1219  0.9135 -0.6881
 3158SOL    HW221111   0.033   1.020   3.497  0.4911 -2.4498 -2.1300
 3159SOL     OW21112   2.362   3.415   2.733 -0.4591  0.3553 -0.3579
 3159SOL    HW121113   2.410   3.492   2.704  1.1084 -0.2798  0.5707
 3159SOL    HW221114   2.305   3.454   2.799 -0.0152  1.9042 -0.8894
 3160SOL     OW21115   3.288   1.920   6.458 -0.4516  0.2181  0.2585
 3160SOL    HW121116   3.239   1.948   6.535  0.4376 -0.5511  1.1195
 3160SOL    HW221117   3.228   1.864   6.409 -2.5881  0.9951  2.0243
 3161SOL     OW21118   3.710   4.188   4.526  0.2335  0.2676 -0.4801
 3161SOL    HW121119   3.757   4.108   4.502 -2.0734 -1.2943  0.2655
 3161SOL    HW221120   3.741   4.195   4.616  0.1523  0.6596 -0.4843
 3162SOL     OW21121   3.392   2.145  12.623  0.2343 -0.6271  0.6018
 3162SOL    HW121122   3.413   2.136  12.716 -2.1404 -2.4060  0.9658
 3162SOL    HW221123   3.303   2.180  12.625  0.3655 -0.1828 -2.2079
 3163SOL     OW21124   4.543   2.466   2.988  0.3920  0.8345  0.6640
 3163SOL    HW121125   4.619   2.422   3.026 -0.2713  0.4033  1.4902
 3163SOL    HW221126   4.559   2.461   2.894  1.6314  1.7467  0.8177
 3164SOL     OW21127   3.522   1.304   7.182 -0.1863 -0.1455  0.6314
 3164SOL    HW121128   3.585   1.332   7.248  2.4031  0.0194 -1.8939
 3164SOL    HW221129   3.549   1.213   7.171 -2.2332 -0.5782 -0.6723
 3165SOL     OW21130   1.458   3.079   2.616  0.0094  0.2942 -0.3158
 3165SOL    HW121131   1.464   3.064   2.521  2.6910 -1.0507  0.0624
 3165SOL    HW221132   1.528   3.022   2.650  0.1488 -1.5171 -3.6387
 3166SOL     OW21133   2.906   2.807   4.528  0.3963  0.2371 -0.4316
 3166SOL    HW121134   2.872   2.728   4.485  0.2210 -0.1272  0.3747
 3166SOL    HW221135   2.847   2.878   4.505  0.7732  1.1631  1.4848
 3167SOL     OW21136   4.273   2.276  10.940 -0.5164  0.0550 -0.6016
 3167SOL    HW121137   4.352   2.304  10.893 -0.5509  0.3102 -0.5045
 3167SOL    HW221138   4.206   2.263  10.872 -1.8418  0.1789  0.6955
 3168SOL     OW21139   2.457   4.416   7.301 -0.0377 -0.1428  0.0582
 3168SOL    HW121140   2.406   4.476   7.354 -1.1904 -1.3387  0.2969
 3168SOL    HW221141   2.481   4.353   7.368  0.5859 -1.1677 -1.1152
 3169SOL     OW21142   3.636   3.120   8.365 -0.1613 -0.1043  0.2713
 3169SOL    HW121143   3.625   3.121   8.270 -1.2337 -2.4495  0.3749
 3169SOL    HW221144   3.562   3.160   8.410  0.5314  1.0170  0.4023
 3170SOL     OW21145   3.556   0.455  13.527 -0.1700 -0.2529  0.0513
 3170SOL    HW121146   3.549   0.538  13.479  1.4312  1.1775  2.2694
 3170SOL    HW221147   3.594   0.489  13.608  0.5588 -1.4009  0.1944
 3171SOL     OW21148   2.797   3.675   5.536 -0.3610  0.2343 -0.2797
 3171SOL    HW121149   2.878   3.716   5.503 -0.3692  0.4354 -0.0533
 3171SOL    HW221150   2.833   3.640   5.617 -2.1565  2.5730  1.5148
 3172SOL     OW21151   1.162   0.677  15.365 -0.1474  0.2256 -0.1180
 3172SOL    HW121152   1.242   0.653  15.318 -0.8506 -2.3452 -0.0499
 3172SOL    HW221153   1.124   0.754  15.323 -0.4771 -0.5746 -1.2913
 3173SOL     OW21154   3.333   3.750   2.122  0.3137  0.5153  0.4608
 3173SOL    HW121155   3.315   3.745   2.028  1.6206  0.6875  0.1932
 3173SOL    HW221156   3.246   3.762   2.160  0.0890 -0.9932  0.4192
 3174SOL     OW21157   4.449   3.158   5.118  0.0860  0.3285 -0.5080
 3174SOL    HW121158   4.533   3.190   5.086 -0.5116  2.8910  0.5159
 3174SOL    HW221159   4.389   3.216   5.072 -1.3832 -0.5384  0.2981
 3175SOL     OW21160   2.300   0.243   9.198 -0.2786 -0.2485  0.6294
 3175SOL    HW121161   2.385   0.200   9.184  0.0337  1.2573 -2.1755
 3175SOL    HW221162   2.240   0.178   9.160 -0.8445  1.8961 -2.1206
 3176SOL     OW21163   0.168   2.600   6.563 -0.3771  0.1006  0.5287
 3176SOL    HW121164   0.080   2.603   6.601 -0.4975  0.8082  0.1903
 3176SOL    HW221165   0.189   2.507   6.575  0.6058  0.4584  1.6205
 3177SOL     OW21166   4.242   0.317  11.269  0.6507 -0.1494  0.2212
 3177SOL    HW121167   4.265   0.404  11.234 -1.8795  0.3999 -0.0584
 3177SOL    HW221168   4.218   0.279  11.185  1.8815 -3.2636  1.3006
 3178SOL     OW21169   3.312   0.689   5.925 -0.1513  0.0230  0.6094
 3178SOL    HW121170   3.277   0.776   5.904 -0.3560  0.2483  1.8604
 3178SOL    HW221171   3.324   0.701   6.019  0.3244  0.1920  0.5252
 3179SOL     OW21172   1.200   1.183   7.538  0.0162 -0.3143  0.4121
 3179SOL    HW121173   1.227   1.100   7.578 -2.0407 -0.1224  2.2020
 3179SOL    HW221174   1.209   1.149   7.449  2.2811  1.7699 -0.1351
 3180SOL     OW21175   2.619   4.058   5.618  0.6177  0.2096 -0.1433
 3180SOL    HW121176   2.714   4.072   5.621  0.6958 -0.4692  0.4140
 3180SOL    HW221177   2.613   4.000   5.542  0.5184  0.3488 -0.2405
 3181SOL     OW21178   1.227   2.842   7.062 -0.1994  0.0662  0.1852
 3181SOL    HW121179   1.321   2.829   7.054 -0.3000 -0.8394  0.4202
 3181SOL    HW221180   1.232   2.930   7.099  0.0926 -0.0128  0.3317
 3182SOL     OW21181   2.330   2.554   6.751  0.6136 -0.4921 -0.0187
 3182SOL    HW121182   2.291   2.547   6.664  0.5996  0.0129 -0.0485
 3182SOL    HW221183   2.423   2.573   6.740  0.3972  1.0342  0.8851
 3183SOL     OW21184   2.720   1.344  17.102  0.7024  0.2462  0.0880
 3183SOL    HW121185   2.791   1.281  17.087  0.1846 -0.6929  1.5338
 3183SOL    HW221186   2.651   1.290  17.141 -0.0389  1.2710  0.1887
 3184SOL     OW21187   4.090   0.503   8.296  0.3004 -0.7243  0.3957
 3184SOL    HW121188   4.128   0.446   8.229  2.9418  0.7392  0.6151
 3184SOL    HW221189   4.156   0.504   8.365  1.4532  2.0959 -0.7316
 3185SOL     OW21190   1.408   1.665  10.604  0.2451 -0.1218 -0.0212
 3185SOL    HW121191   1.350   1.609  10.553  0.0640 -1.2059  1.3778
 3185SOL    HW221192   1.381   1.628  10.688  1.5446  1.7076  1.1998
 3186SOL     OW21193   0.190   4.158   4.189 -0.3320 -0.3171 -0.5716
 3186SOL    HW121194   0.106   4.136   4.229  0.8235 -2.3817  0.6847
 3186SOL    HW221195   0.182   4.254   4.183 -0.4058 -0.4039 -1.8663
 3187SOL     OW21196   1.910   2.127  13.689 -0.1063 -0.1748 -0.3940
 3187SOL    HW121197   1.994   2.097  13.724 -0.8622 -1.5699  0.1989
 3187SOL    HW221198   1.952   2.183  13.624  1.8765 -0.7491  0.3557
 3188SOL     OW21199   3.275   1.655  13.525 -0.2285 -0.6297  0.1590
 3188SOL    HW121200   3.336   1.588  13.555  1.0499  1.0199  1.1519
 3188SOL    HW221201   3.195   1.632  13.572  0.0711  3.1218  2.4904
 3189SOL     OW21202   3.345   0.823   5.209 -0.0684  0.3080 -0.3246
 3189SOL    HW121203   3.281   0.752   5.202 -1.3825  1.3076  1.7076
 3189SOL    HW221204   3.315   0.880   5.138 -1.8138  1.4965  1.4136
 3190SOL     OW21205   4.346   0.098   6.543  0.0185  0.1425 -0.2815
 3190SOL    HW121206   4.302   0.170   6.589 -0.6402  0.4903 -1.4815
 3190SOL    HW221207   4.352   0.023   6.602 -2.0999  1.0938  1.1840
 3191SOL     OW21208   3.736   2.920   0.447 -0.0517 -0.3465 -0.1091
 3191SOL    HW121209   3.763   2.991   0.388 -0.3377  0.0733  0.2588
 3191SOL    HW221210   3.670   2.965   0.500  0.9148 -0.1363  0.9171
 3192SOL     OW21211   2.548   1.267   9.736  0.3383 -0.2999 -0.5735
 3192SOL    HW121212   2.571   1.182   9.773  0.4720  0.0936  0.2500
 3192SOL    HW221213   2.491   1.240   9.664  1.4394 -1.6614 -0.9163
 3193SOL     OW21214   1.148   1.688   7.990  0.1102  0.5945  0.6722
 3193SOL    HW121215   1.164   1.764   8.045 -0.7853  0.4209  1.1825
 3193SOL    HW221216   1.134   1.738   7.909 -2.1624  0.2307  0.8237
 3194SOL     OW21217   1.202   2.595   5.433  0.8276  0.0290  0.3763
 3194SOL    HW121218   1.141   2.540   5.384  1.2840  1.3863 -1.7135
 3194SOL    HW221219   1.146   2.672   5.425 -0.1065 -0.3634  3.3393
 3195SOL     OW21220   0.231   3.917   5.034 -0.1904 -0.0837 -0.0748
 3195SOL    HW121221   0.170   3.934   4.962  0.1862 -0.2665 -0.4398
 3195SOL    HW221222   0.307   3.875   4.993 -0.6891  0.7852 -1.9030
 3196SOL     OW21223   1.499   2.773   7.097 -0.4882 -0.1278  0.3508
 3196SOL    HW121224   1.582   2.732   7.071 -0.5305  2.0920 -3.2322
 3196SOL    HW221225   1.448   2.699   7.130  0.9408 -1.3616 -0.1801
 3197SOL     OW21226   2.486   1.019   1.908  0.1636  0.1423 -0.5965
 3197SOL    HW121227   2.393   1.021   1.928 -0.2576  0.5605 -2.5943
 3197SOL    HW221228   2.522   1.013   1.997  2.1370  1.7590 -1.2995
 3198SOL     OW21229   3.298   2.291   0.519 -0.2167  0.0449 -0.0791
 3198SOL    HW121230   3.334   2.310   0.433 -2.1268 -0.3486 -0.9464
 3198SOL    HW221231   3.212   2.260   0.491 -0.3852 -0.1123  0.6106
 3199SOL     OW21232   1.085   0.114  14.457 -0.3270  0.0201 -0.0534
 3199SOL    HW121233   1.102   0.209  14.459 -0.0454 -0.0785  2.0258
 3199SOL    HW221234   1.175   0.080  14.459 -0.4694 -0.3406  0.2514
 3200SOL     OW21235   2.979   0.092   5.241  0.3839  0.5503  0.4337
 3200SOL    HW121236   2.986   0.082   5.336  0.7852 -0.1198  0.3331
 3200SOL    HW221237   3.039   0.018   5.237 -0.1129 -0.0204  3.0668
 3201SOL     OW21238   2.444   2.009   0.680  0.3327  0.3824  0.1041
 3201SOL    HW121239   2.356   2.034   0.654 -0.0223  0.0294  0.9604
 3201SOL    HW221240   2.449   1.922   0.641  3.5651 -0.0758  1.4921
 3202SOL     OW21241   0.471   2.557   4.841  0.1564 -0.3711 -0.4030
 3202SOL    HW121242   0.561   2.560   4.810 -0.4850 -2.8033 -2.5193
 3202SOL    HW221243   0.476   2.484   4.902  0.6541  1.6831  2.0037
 3203SOL     OW21244   3.284   0.623  16.320  0.1100  0.2829  0.4628
 3203SOL    HW121245   3.212   0.624  16.257  1.7210  0.7596 -1.3596
 3203SOL    HW221246   3.337   0.699  16.296 -2.1725  1.3544 -1.2653
 3204SOL     OW21247   2.709   3.767  10.776 -0.3590  0.6174  0.9396
 3204SOL    HW121248   2.713   3.718  10.858  2.3537 -1.2720 -0.3172
 3204SOL    HW221249   2.750   3.703  10.718  3.2649  0.7221  3.3344
 3205SOL     OW21250   0.788   4.561   8.764  0.0294  0.3012  0.5462
 3205SOL    HW121251   0.839   4.613   8.702 -0.4404 -1.8228 -1.5862
 3205SOL    HW221252   0.756   4.632   8.820 -0.7528  1.0783 -0.8832
 3206SOL     OW21253   0.979   1.930   2.174  0.1159 -0.4047 -0.2607
 3206SOL    HW121254   0.990   2.020   2.206 -1.4973 -0.7773  1.3273
 3206SOL    HW221255   0.948   1.940   2.084 -1.5058 -1.7865  0.1590
 3207SOL     OW21256   1.041   4.060   0.604 -0.0958  0.1856  0.3843
 3207SOL    HW121257   1.096   4.035   0.678  0.0554 -1.4714 -0.3048
 3207SOL    HW221258   0.963   4.007   0.618  0.3639 -0.2595  1.2687
 3208SOL     OW21259   4.036   1.375  11.248  0.4126  0.9693 -0.3405
 3208SOL    HW121260   4.089   1.356  11.325  0.7438  0.6276 -0.6491
 3208SOL    HW221261   3.967   1.423  11.292 -1.1854 -2.4179  0.8003
 3209SOL     OW21262   2.254   1.889   7.219 -0.5605 -0.2318 -0.0125
 3209SOL    HW121263   2.270   1.974   7.178 -0.6029 -0.5841 -0.7650
 3209SOL    HW221264   2.244   1.911   7.311  3.7059 -0.5554  0.5233
 3210SOL     OW21265   1.664   3.314  10.483 -0.0083  0.3848 -0.0281
 3210SOL    HW121266   1.755   3.292  10.461 -0.5651 -1.0289 -0.9161
 3210SOL    HW221267   1.664   3.297  10.577 -1.6476  0.9417  0.0662
 3211SOL     OW21268   2.352   4.528   8.035  0.6873 -0.4413  0.3202
 3211SOL    HW121269   2.271   4.579   8.026  0.0688 -1.6431 -0.9809
 3211SOL    HW221270   2.421   4.594   8.027 -1.3207  1.6725  0.1702
 3212SOL     OW21271   3.657   2.345  11.839 -0.1111  0.3958  0.1267
 3212SOL    HW121272   3.723   2.277  11.846  0.9019  1.4207  0.6114
 3212SOL    HW221273   3.572   2.305  11.821 -0.1820  0.6612 -0.1398
 3213SOL     OW21274   2.558   3.475   7.674 -0.6122  0.4772  0.2395
 3213SOL    HW121275   2.622   3.545   7.660 -2.0633  2.3560  2.9974
 3213SOL    HW221276   2.538   3.447   7.584 -0.4744 -0.9306  0.6412
 3214SOL     OW21277   4.426   0.580   4.643  0.2787  0.1135  0.3320
 3214SOL    HW121278   4.362   0.600   4.575 -0.5889 -0.9056  0.8431
 3214SOL    HW221279   4.388   0.616   4.724 -1.3833  1.2088 -0.9483
 3215SOL     OW21280   2.906   0.396   3.019 -0.6763  0.0154  0.5194
 3215SOL    HW121281   2.918   0.479   3.066 -2.6084  0.3496  0.4007
 3215SOL    HW221282   2.989   0.386   2.972 -1.2513 -2.4808  0.0283
 3216SOL     OW21283   1.993   1.892  10.901  0.0539 -0.2594  0.3287
 3216SOL    HW121284   1.941   1.832  10.955 -1.0968  0.9219  0.5295
 3216SOL    HW221285   2.068   1.835  10.884  0.3579 -0.0543  0.9824
 3217SOL     OW21286   3.079   1.773   6.384 -0.6152  0.4139  0.1760
 3217SOL    HW121287   3.010   1.716   6.349  1.7961 -3.5936  1.8352
 3217SOL    HW221288   3.024   1.839   6.425 -0.0048  0.4472  0.9486
 3218SOL     OW21289   2.939   0.916   8.944 -0.1717  0.9428  0.9536
 3218SOL    HW121290   3.005   0.860   8.983 -0.5482  1.2916  2.1054
 3218SOL    HW221291   2.870   0.909   9.010 -0.7211  1.4534  0.4361
 3219SOL     OW21292   2.351   4.689  10.266  1.0346 -0.4222 -0.0524
 3219SOL    HW121293   2.280   4.729  10.217 -0.0992 -3.0333 -0.5366
 3219SOL    HW221294   2.425   0.013  10.248  0.7016  0.6286  1.9369
 3220SOL     OW21295   0.496   3.033   8.136  0.4884  0.4493 -0.0891
 3220SOL    HW121296   0.416   3.002   8.092 -0.0136  1.2985  0.2181
 3220SOL    HW221297   0.454   3.018   8.221  0.9985  0.3084  0.1337
 3221SOL     OW21298   0.553   2.151   6.138  0.0466  0.0150 -0.1928
 3221SOL    HW121299   0.506   2.082   6.090 -0.4807  0.0746  0.2359
 3221SOL    HW221300   0.623   2.099   6.178  0.4614 -0.8811 -2.0720
 3222SOL     OW21301   1.780   4.699   7.933 -0.1693  0.6260 -0.0506
 3222SOL    HW121302   1.836   4.720   7.858 -0.8243  1.2247 -0.3714
 3222SOL    HW221303   1.782   0.046   7.984  1.8748  0.3871  0.2716
 3223SOL     OW21304   4.101   4.599   7.502 -0.4830 -0.3468  0.3024
 3223SOL    HW121305   4.165   4.564   7.439 -1.0840 -0.4903 -0.2282
 3223SOL    HW221306   4.130   4.545   7.575  3.5479  1.3640 -0.0483
 3224SOL     OW21307   1.038   0.367   9.320  0.5058 -0.0117 -0.5817
 3224SOL    HW121308   1.004   0.347   9.233  2.0351 -0.9137 -0.9519
 3224SOL    HW221309   1.045   0.276   9.345 -0.3191  0.4193  1.2002
 3225SOL     OW21310   1.890   1.959   6.658  0.0234 -0.9204  0.2000
 3225SOL    HW121311   1.965   1.908   6.689 -0.3015 -1.5169 -0.0046
 3225SOL    HW221312   1.897   1.978   6.564  3.0442  0.2648  0.6545
 3226SOL     OW21313   4.690   3.458   8.331  0.2345 -0.1745 -0.1892
 3226SOL    HW121314   4.608   3.427   8.293 -0.6678  2.2159 -0.2096
 3226SOL    HW221315   4.676   3.451   8.425 -0.5557 -1.5404 -0.4096
 3227SOL     OW21316   2.876   4.444   3.194  0.4624 -0.3713  0.0512
 3227SOL    HW121317   2.904   4.418   3.106 -0.7236 -0.1758 -0.3763
 3227SOL    HW221318   2.837   4.362   3.224 -1.3728  0.3206 -0.5071
 3228SOL     OW21319   1.365   2.559   3.212 -0.3707  0.2263 -0.0788
 3228SOL    HW121320   1.409   2.478   3.186 -2.4734 -0.3864 -1.6915
 3228SOL    HW221321   1.399   2.615   3.143 -0.5077 -0.0640 -0.3780
 3229SOL     OW21322   1.829   2.052   4.238  0.6110 -0.5801  0.2543
 3229SOL    HW121323   1.820   1.957   4.240 -0.8970 -0.4395 -0.1817
 3229SOL    HW221324   1.803   2.070   4.148 -0.5155 -1.1248  0.4757
 3230SOL     OW21325   1.220   0.441   4.903 -0.2197  0.9173  0.1241
 3230SOL    HW121326   1.154   0.480   4.847 -0.6040 -0.2612 -0.2477
 3230SOL    HW221327   1.291   0.503   4.884 -0.7385  1.3383 -0.4010
 3231SOL     OW21328   2.143   0.673   4.422  0.4572  0.6323  0.6089
 3231SOL    HW121329   2.088   0.618   4.368  0.7152  0.7109  0.2674
 3231SOL    HW221330   2.083   0.671   4.497  0.6220 -0.4582  0.7122
 3232SOL     OW21331   2.054   4.530   0.584  0.2972 -0.2921 -0.5349
 3232SOL    HW121332   1.973   4.504   0.540  0.9470 -1.5923 -0.9313
 3232SOL    HW221333   2.054   4.625   0.571  0.2160 -0.0550  1.2230
 3233SOL     OW21334   1.013   2.640   2.477  0.6215  0.4502  0.4060
 3233SOL    HW121335   1.003   2.610   2.386  1.1528  1.8110 -0.0924
 3233SOL    HW221336   0.927   2.679   2.491 -0.2718 -1.0983 -0.7306
 3234SOL     OW21337   2.456   3.747  16.877  0.5232 -0.2500 -0.2144
 3234SOL    HW121338   2.465   3.731  16.971 -0.1393  2.2179  0.2773
 3234SOL    HW221339   2.508   3.826  16.859  0.0594  0.3076  0.9054
 3235SOL     OW21340   1.666   3.016   1.585  0.5247  0.2397  0.4753
 3235SOL    HW121341   1.590   3.002   1.642 -0.3610  3.1907  0.0430
 3235SOL    HW221342   1.735   2.988   1.646  1.0240 -0.9933 -0.6665
 3236SOL     OW21343   0.636   3.741   4.497  0.1027  0.0013  0.0322
 3236SOL    HW121344   0.645   3.679   4.426 -1.2533  0.5579 -0.6295
 3236SOL    HW221345   0.624   3.826   4.455 -1.1784  2.0430  4.4644
 3237SOL     OW21346   4.542   0.763  11.215  0.2004 -0.3632 -0.2685
 3237SOL    HW121347   4.636   0.761  11.232  0.1421  2.2227  0.2754
 3237SOL    HW221348   4.544   0.725  11.127  0.5842 -1.4372  0.1986
 3238SOL     OW21349   3.372   4.319  11.548 -0.2454  0.1198 -0.0522
 3238SOL    HW121350   3.402   4.392  11.493 -0.9440 -0.2917 -0.9801
 3238SOL    HW221351   3.428   4.319  11.625 -1.5503  0.0024  0.8960
 3239SOL     OW21352   1.555   3.308   9.331  0.0025 -0.1411  0.1884
 3239SOL    HW121353   1.563   3.384   9.388 -1.0590  0.8254 -0.9560
 3239SOL    HW221354   1.567   3.352   9.247  0.0283 -0.2661  0.1269
 3240SOL     OW21355   3.025   0.777  14.925 -0.1285 -0.4393  0.0020
 3240SOL    HW121356   3.019   0.834  15.001 -1.0053  3.4234 -2.9891
 3240SOL    HW221357   2.946   0.797  14.876  0.1412  2.0651  0.6105
 3241SOL     OW21358   3.661   0.937   4.715 -0.2456 -0.2416  0.3507
 3241SOL    HW121359   3.727   0.999   4.746  0.1296  0.1701 -1.2933
 3241SOL    HW221360   3.702   0.893   4.641  0.3829 -0.4206  0.8037
 3242SOL     OW21361   3.239   2.033   8.476 -0.3475 -0.5378  0.4030
 3242SOL    HW121362   3.219   2.121   8.509 -1.0519 -0.2826 -0.6952
 3242SOL    HW221363   3.155   1.989   8.491 -0.6161  0.5129  1.9940
 3243SOL     OW21364   0.027   0.567   3.012 -0.0269  0.1733  0.2127
 3243SOL    HW121365   4.730   0.477   3.003  0.6566 -0.1718  1.3397
 3243SOL    HW221366   4.682   0.604   3.051 -0.6914 -0.3246 -0.6816
 3244SOL     OW21367   0.284   3.239   8.241 -0.7053 -0.1740 -0.2155
 3244SOL    HW121368   0.353   3.225   8.306 -0.3693 -0.9452 -0.7316
 3244SOL    HW221369   0.328   3.233   8.156 -1.0834  0.9289 -0.4876
 3245SOL     OW21370   4.255   3.455  11.723 -0.0715  0.2372  0.3241
 3245SOL    HW121371   4.310   3.420  11.792 -0.5245 -2.1946 -0.5682
 3245SOL    HW221372   4.315   3.459  11.648 -1.1599 -0.1093 -0.5738
 3246SOL     OW21373   3.959   0.426   7.967 -0.2945 -0.1179 -0.0429
 3246SOL    HW121374   3.928   0.366   7.899 -0.2384 -1.7381  1.3597
 3246SOL    HW221375   3.934   0.382   8.048 -1.1211 -2.1539 -1.4035
 3247SOL     OW21376   2.930   4.321   7.555 -0.3747 -0.7551  0.5123
 3247SOL    HW121377   2.959   4.412   7.560 -1.4419 -0.3784 -0.1545
 3247SOL    HW221378   2.893   4.308   7.643  0.0972 -0.2576  0.7838
 3248SOL     OW21379   3.241   3.002   8.050 -0.7064 -0.3928 -0.5085
 3248SOL    HW121380   3.221   3.095   8.063  0.3208 -0.5928  2.4087
 3248SOL    HW221381   3.309   3.013   7.983  0.7304  0.6000  1.1054
 3249SOL     OW21382   3.366   1.810   9.254 -0.5332  0.2839 -0.0353
 3249SOL    HW121383   3.295   1.862   9.292  0.6897  0.3169  2.1985
 3249SOL    HW221384   3.349   1.722   9.287  0.4566 -0.0957 -0.5510
 3250SOL     OW21385   1.031   1.356   5.838  0.0543  0.3382 -0.4744
 3250SOL    HW121386   1.061   1.375   5.926 -0.7265  1.3971 -0.4441
 3250SOL    HW221387   1.030   1.444   5.802 -1.2943  0.5238  0.0356
 3251SOL     OW21388   4.528   0.914  13.568  0.3864 -0.2157  0.0872
 3251SOL    HW121389   4.604   0.876  13.524 -1.5197 -1.8679 -1.7437
 3251SOL    HW221390   4.504   0.988  13.512 -1.8857 -1.4812 -0.6042
 3252SOL     OW21391   0.992   2.818   3.829 -0.2527 -0.1170  0.1015
 3252SOL    HW121392   1.062   2.798   3.767  0.2939  1.6331  0.1622
 3252SOL    HW221393   1.046   2.836   3.906  0.4303  0.0850 -0.4257
 3253SOL     OW21394   4.459   3.523   7.191 -0.1111 -0.1942 -0.0070
 3253SOL    HW121395   4.529   3.494   7.250  1.5590 -1.1203 -2.4368
 3253SOL    HW221396   4.499   3.521   7.104  0.5861  0.1108  0.3098
 3254SOL     OW21397   0.787   2.384   2.901  0.1527 -0.3139 -0.0402
 3254SOL    HW121398   0.834   2.461   2.867 -0.1451  0.1589  0.6256
 3254SOL    HW221399   0.859   2.321   2.910  0.2621 -0.3806 -1.3055
 3255SOL     OW21400   1.144   0.883   8.657 -1.0004  0.3985 -0.6194
 3255SOL    HW121401   1.147   0.817   8.726 -2.5055  1.2005  0.2160
 3255SOL    HW221402   1.052   0.895   8.637 -1.3602 -0.7054  0.3900
 3256SOL     OW21403   3.331   2.817   8.994 -0.3316  0.0516 -0.2025
 3256SOL    HW121404   3.301   2.729   9.016  1.4992 -0.5094  0.0606
 3256SOL    HW221405   3.256   2.839   8.938 -0.6457  1.1737  0.6665
 3257SOL     OW21406   3.615   0.505   6.050  0.0248 -0.2050 -0.0911
 3257SOL    HW121407   3.682   0.507   6.119 -1.7662 -0.6045  1.6525
 3257SOL    HW221408   3.629   0.590   6.009  3.0508 -1.5732 -1.8664
 3258SOL     OW21409   2.420   3.836   5.995  0.0555 -1.0591  0.4487
 3258SOL    HW121410   2.331   3.872   5.990 -0.0694 -1.3791  0.3354
 3258SOL    HW221411   2.457   3.881   6.070  0.5443 -0.6171 -0.0528
 3259SOL     OW21412   1.047   2.294   1.913 -0.5522  0.3396 -0.5987
 3259SOL    HW121413   1.113   2.226   1.914 -0.7757  0.1738  1.9269
 3259SOL    HW221414   0.984   2.255   1.852 -1.1760 -0.4629  0.5515
 3260SOL     OW21415   3.183   1.006   9.192 -0.3050 -0.3529 -0.9369
 3260SOL    HW121416   3.245   1.071   9.159 -0.1576  0.2513  0.5550
 3260SOL    HW221417   3.114   1.064   9.221 -0.8205 -1.4049 -0.0504
 3261SOL     OW21418   2.991   2.591   7.279 -0.2838 -0.3927 -0.4764
 3261SOL    HW121419   3.076   2.565   7.242  0.7678  1.1670  0.8300
 3261SOL    HW221420   3.021   2.666   7.330 -1.1931 -1.5440  1.7155
 3262SOL     OW21421   1.930   3.194   0.265  0.3517 -0.2053  0.1524
 3262SOL    HW121422   1.947   3.284   0.292 -1.2796  0.2922 -0.4590
 3262SOL    HW221423   1.994   3.144   0.316 -0.1363 -0.8136  0.1653
 3263SOL     OW21424   2.642   1.705   0.170  0.0619 -0.3231 -0.7116
 3263SOL    HW121425   2.723   1.753   0.190  0.3800 -1.5207  0.9304
 3263SOL    HW221426   2.642   1.699   0.075  0.7435 -2.6159 -0.5584
 3264SOL     OW21427   2.373   3.201   6.070  0.2981 -0.9632  0.1360
 3264SOL    HW121428   2.361   3.187   6.164  0.5197  0.4235  0.3619
 3264SOL    HW221429   2.422   3.120   6.051  0.6106 -0.9305  0.7694
 3265SOL     OW21430   3.762   0.221   3.408  0.0875  0.3714 -0.3799
 3265SOL    HW121431   3.808   0.227   3.325  3.8140 -1.1768  1.5840
 3265SOL    HW221432   3.813   0.152   3.450  1.6700  0.1921 -2.6305
 3266SOL     OW21433   0.514   0.507   7.862 -0.3809  0.4561  0.1140
 3266SOL    HW121434   0.596   0.545   7.831 -0.0411 -0.3134  0.0678
 3266SOL    HW221435   0.465   0.589   7.850  0.7953  0.9964 -0.9661
 3267SOL     OW21436   0.333   4.315  13.393 -0.0558  0.0023 -0.1339
 3267SOL    HW121437   0.303   4.307  13.303  1.8321  1.2123 -0.8806
 3267SOL    HW221438   0.291   4.236  13.426  0.6911  0.9789  3.1703
 3268SOL     OW21439   1.050   1.617   5.715  0.2440 -0.7867 -0.1676
 3268SOL    HW121440   1.115   1.687   5.715 -0.8321  0.2017  0.3643
 3268SOL    HW221441   0.990   1.642   5.786 -3.4295  0.7720 -3.8340
 3269SOL     OW21442   1.426   3.428   0.478  0.5479 -0.1343 -0.3645
 3269SOL    HW121443   1.466   3.508   0.510  0.5163  0.9104 -2.9359
 3269SOL    HW221444   1.439   3.366   0.551 -0.1249  1.0128  0.7249
 3270SOL     OW21445   0.986   1.919  13.748 -0.3900  0.7327 -0.3696
 3270SOL    HW121446   0.968   1.839  13.799  1.7946 -0.3872 -1.3770
 3270SOL    HW221447   1.080   1.904  13.737 -0.2405 -0.5605  2.4607
 3271SOL     OW21448   0.952   3.636   0.571 -0.0592  0.6691 -0.4881
 3271SOL    HW121449   0.982   3.681   0.493  2.9965  1.1393  0.9444
 3271SOL    HW221450   1.032   3.629   0.623 -0.3200  0.3017 -0.1301
 3272SOL     OW21451   1.282   2.981   9.155  0.0785  0.3489 -0.3148
 3272SOL    HW121452   1.243   2.904   9.112  1.0552 -0.6665  0.6083
 3272SOL    HW221453   1.293   2.969   9.250 -0.5580 -0.2438 -0.3113
 3273SOL     OW21454   1.267   1.542  16.976  0.0295  0.1948 -0.2817
 3273SOL    HW121455   1.192   1.486  16.995  0.7385  0.2167  2.5336
 3273SOL    HW221456   1.325   1.514  17.047  0.0331  1.2436  0.1168
 3274SOL     OW21457   2.546   2.461   4.412  0.1399 -0.0520  0.3591
 3274SOL    HW121458   2.475   2.523   4.427 -0.5231 -0.8967  0.6564
 3274SOL    HW221459   2.537   2.432   4.321 -1.8636 -1.7811  1.1277
 3275SOL     OW21460   1.176   1.379   0.202 -0.4336 -0.7136  0.5640
 3275SOL    HW121461   1.082   1.379   0.220 -0.4385  2.1054  0.5446
 3275SOL    HW221462   1.201   1.390   0.294  1.2398  0.2405 -0.0111
 3276SOL     OW21463   3.301   4.135  14.588 -0.4623 -0.1983 -0.0757
 3276SOL    HW121464   3.376   4.077  14.604 -0.9635 -1.2384 -1.5459
 3276SOL    HW221465   3.350   4.217  14.596  2.4572 -1.7205 -2.1046
 3277SOL     OW21466   0.935   4.078  13.382 -0.1589  0.3422  0.8422
 3277SOL    HW121467   0.964   4.144  13.320  2.1776 -1.6904 -0.2005
 3277SOL    HW221468   0.879   4.130  13.440 -0.6283 -0.5678  1.2063
 3278SOL     OW21469   2.692   3.891  14.474 -0.3599  0.4586 -0.3495
 3278SOL    HW121470   2.678   3.898  14.380  0.9802  0.9143 -0.5193
 3278SOL    HW221471   2.613   3.935  14.506 -0.3245 -0.8905  1.5756
 3279SOL     OW21472   3.309   3.511   7.483 -0.2695  0.2580 -0.0485
 3279SOL    HW121473   3.325   3.459   7.405  1.4879  0.5038  0.1544
 3279SOL    HW221474   3.309   3.598   7.442 -0.0238 -0.6864 -2.0643
 3280SOL     OW21475   4.650   3.684   8.689  0.6248  0.2702  0.1158
 3280SOL    HW121476   4.676   3.771   8.722 -1.2752  0.4181  1.2437
 3280SOL    HW221477   4.696   3.623   8.746  0.0109 -0.2836  0.0104
 3281SOL     OW21478   0.520   1.124  13.243  0.3049  0.7910 -0.0722
 3281SOL    HW121479   0.595   1.168  13.205  0.8180  0.3343  0.4067
 3281SOL    HW221480   0.473   1.202  13.272  2.8562  3.1086 -2.1617
 3282SOL     OW21481   0.383   4.103   6.402  0.0560  0.4904  0.2703
 3282SOL    HW121482   0.464   4.142   6.435  1.0307  0.2656 -1.8389
 3282SOL    HW221483   0.351   4.062   6.482 -0.2637  2.1117  0.9703
 3283SOL     OW21484   3.221   2.497  16.717 -0.3897  0.1145 -0.1027
 3283SOL    HW121485   3.239   2.501  16.623 -0.1599 -0.1251 -0.0699
 3283SOL    HW221486   3.142   2.549  16.730  0.1586  0.6420  1.0427
 3284SOL     OW21487   4.172   0.687   7.739 -0.0908 -0.0237 -0.3907
 3284SOL    HW121488   4.191   0.755   7.674 -0.0397 -0.6950 -1.0764
 3284SOL    HW221489   4.260   0.682   7.778 -0.1518 -0.5168 -0.3149
 3285SOL     OW21490   2.441   2.220   1.866  0.5857  0.0622 -0.0736
 3285SOL    HW121491   2.478   2.140   1.904 -3.5115 -0.3264  3.0822
 3285SOL    HW221492   2.417   2.196   1.777 -3.6316  2.8446  0.3344
 3286SOL     OW21493   3.860   0.951   9.438 -0.1915  0.0178  0.1341
 3286SOL    HW121494   3.907   0.937   9.356 -0.2714  1.2962 -0.1299
 3286SOL    HW221495   3.933   0.934   9.497  0.6135 -1.0382 -1.1653
 3287SOL     OW21496   0.908   0.511   8.584  0.1648  0.2371  0.3527
 3287SOL    HW121497   0.879   0.422   8.564  0.6228  0.0162  0.6785
 3287SOL    HW221498   0.924   0.542   8.495 -1.0468  0.9328  0.3741
 3288SOL     OW21499   0.258   2.410   7.949  0.3085 -0.4357 -0.0567
 3288SOL    HW121500   0.343   2.446   7.973 -0.5197 -0.3136  2.6434
 3288SOL    HW221501   0.252   2.436   7.857 -0.2703  1.5619  0.5618
 3289SOL     OW21502   2.316   4.470  11.421  0.2335 -0.2762  0.0489
 3289SOL    HW121503   2.406   4.447  11.442  0.5757  1.0270 -0.0452
 3289SOL    HW221504   2.271   4.388  11.442 -3.0288  2.2244  2.7352
 3290SOL     OW21505   1.752   2.215   6.632  0.2878 -0.2115 -0.1006
 3290SOL    HW121506   1.760   2.270   6.710 -0.6260 -1.1793  0.6816
 3290SOL    HW221507   1.808   2.140   6.650  0.3252 -0.1467  0.0569
 3291SOL     OW21508   4.715   0.249   8.857 -0.0936  0.4015 -0.2196
 3291SOL    HW121509   4.712   0.259   8.762  0.1532 -0.7865 -0.3563
 3291SOL    HW221510   0.004   0.156   8.860  0.5729  0.6313  2.3980
 3292SOL     OW21511   4.513   0.183   5.929  0.6755  0.0772  0.1818
 3292SOL    HW121512   4.520   0.088   5.938  0.0504 -0.1143 -1.3234
 3292SOL    HW221513   4.425   0.194   5.964 -0.8095  0.1129 -3.5781
 3293SOL     OW21514   4.392   1.361   1.614  0.7183  0.2070  0.2725
 3293SOL    HW121515   4.316   1.416   1.595  0.9772  0.2641 -0.5910
 3293SOL    HW221516   4.421   1.418   1.685 -2.2445  0.9877  0.8399
 3294SOL     OW21517   4.570   0.016   3.761 -0.2653 -0.0872 -0.2144
 3294SOL    HW121518   4.611   0.000   3.846 -0.3033  1.9499  0.1710
 3294SOL    HW221519   4.513   0.090   3.780 -0.6439 -0.3135 -0.4639
 3295SOL     OW21520   1.447   1.875   3.050  0.0558 -0.3923  0.0725
 3295SOL    HW121521   1.450   1.954   3.105  3.1275  0.3173 -1.0849
 3295SOL    HW221522   1.357   1.872   3.018 -0.9802 -0.8150  3.0871
 3296SOL     OW21523   3.157   1.534   6.703 -0.1761  0.3585 -0.0871
 3296SOL    HW121524   3.119   1.496   6.783 -1.0907  0.7674 -0.3264
 3296SOL    HW221525   3.122   1.473   6.638  0.8407 -0.8010  0.4543
 3297SOL     OW21526   4.142   3.097   0.842 -0.8099  0.1256  0.7454
 3297SOL    HW121527   4.207   3.030   0.864 -0.5034  0.3499  0.5317
 3297SOL    HW221528   4.141   3.101   0.747  1.1582 -0.2044  0.6970
 3298SOL     OW21529   1.170   1.156   3.584  0.5673  0.2498  0.4263
 3298SOL    HW121530   1.078   1.147   3.558  0.8669 -1.6647  0.0385
 3298SOL    HW221531   1.169   1.122   3.674  0.7331  0.2808  0.4393
 3299SOL     OW21532   1.535   4.255   3.129 -0.2694  0.1566  0.1137
 3299SOL    HW121533   1.511   4.166   3.104 -2.9515  0.5241  1.4398
 3299SOL    HW221534   1.550   4.295   3.043  2.2199  0.5254  0.7033
 3300SOL     OW21535   3.208   4.556   4.917 -0.0927  0.3279  0.0531
 3300SOL    HW121536   3.200   4.510   4.834  1.1617 -1.3396  0.8579
 3300SOL    HW221537   3.188   4.645   4.887  3.9393  1.2475  0.0643
 3301SOL     OW21538   0.312   4.274   3.811 -0.2338  0.1766  0.3925
 3301SOL    HW121539   0.382   4.281   3.876  0.3357 -2.7156  0.0683
 3301SOL    HW221540   0.366   4.278   3.732 -1.3145 -2.1978 -0.4703
 3302SOL     OW21541   0.068   2.410   7.453  0.5111 -0.2567 -0.1578
 3302SOL    HW121542   0.128   2.484   7.444  0.6676 -0.2263  1.1027
 3302SOL    HW221543   0.121   2.336   7.484 -0.8771 -0.7195  1.1060
 3303SOL     OW21544   2.348   2.664   7.001  0.1380  0.0985  0.6141
 3303SOL    HW121545   2.296   2.610   7.061  1.2244 -0.4342  1.0811
 3303SOL    HW221546   2.334   2.622   6.917 -0.4450  1.8162 -0.1512
 3304SOL     OW21547   0.588   4.460  16.689  0.5791  0.3157  0.5658
 3304SOL    HW121548   0.657   4.510  16.733  0.3689  0.3711  0.8293
 3304SOL    HW221549   0.564   4.530  16.628 -1.7937 -0.9284  0.1147
 3305SOL     OW21550   4.456   4.526   4.939 -0.2415  0.5048  0.3166
 3305SOL    HW121551   4.409   4.520   5.022  0.6125 -0.8119  0.6908
 3305SOL    HW221552   4.509   4.606   4.947  0.1844  0.7281 -4.6809
 3306SOL     OW21553   1.755   2.100  14.171  0.3240 -0.2143 -0.1805
 3306SOL    HW121554   1.725   2.012  14.192 -0.2279 -0.0050 -0.0873
 3306SOL    HW221555   1.782   2.125  14.260  0.6990  3.3743 -1.2982
 3307SOL     OW21556   2.901   2.240   4.352 -0.2516 -0.8529 -0.8181
 3307SOL    HW121557   2.833   2.284   4.300 -1.2153 -1.5440 -0.1423
 3307SOL    HW221558   2.863   2.247   4.440  1.5095 -0.8760 -0.0704
 3308SOL     OW21559   3.133   3.711   3.355 -0.3894  0.5980 -0.0998
 3308SOL    HW121560   3.156   3.624   3.389  0.6923  1.7868  2.1956
 3308SOL    HW221561   3.150   3.757   3.437  2.9845  2.2548 -1.7293
 3309SOL     OW21562   2.044   1.154   7.625  0.1763 -0.3434 -0.0650
 3309SOL    HW121563   2.027   1.154   7.720  1.0486 -0.6349  0.0894
 3309SOL    HW221564   2.060   1.248   7.615 -0.4635 -0.0636  1.4662
 3310SOL     OW21565   2.783   0.460   4.098  0.1558 -0.1843 -0.8159
 3310SOL    HW121566   2.772   0.420   4.184 -2.4561  2.0820 -0.0945
 3310SOL    HW221567   2.727   0.405   4.043 -1.1019  0.0421  0.2348
 3311SOL     OW21568   3.631   4.352   2.341 -0.1960 -0.3593 -1.4725
 3311SOL    HW121569   3.579   4.432   2.352 -0.4702 -1.0672  2.1690
 3311SOL    HW221570   3.564   4.295   2.381  0.5012 -1.2166 -1.5279
 3312SOL     OW21571   2.429   3.386   8.587 -0.1050  0.4575 -0.8207
 3312SOL    HW121572   2.363   3.342   8.640 -0.3997  1.3080 -0.4821
 3312SOL    HW221573   2.394   3.355   8.504  1.7210  1.8385 -2.1072
 3313SOL     OW21574   3.623   2.868   5.712  0.1932 -0.3883  0.6669
 3313SOL    HW121575   3.676   2.895   5.787  1.4340  2.1615 -1.1317
 3313SOL    HW221576   3.685   2.876   5.640 -1.7207  1.9999 -0.7047
 3314SOL     OW21577   2.659   3.990   7.082 -0.2004  0.0027  0.8959
 3314SOL    HW121578   2.564   3.986   7.090 -0.4661  1.5040 -1.4075
 3314SOL    HW221579   2.665   4.049   7.006  0.7387  0.3390  1.2215
 3315SOL     OW21580   4.506   0.948  16.143  0.2666  0.0691  0.0621
 3315SOL    HW121581   4.486   0.917  16.055  0.7449  0.6746 -0.2616
 3315SOL    HW221582   4.433   0.905  16.189  0.3740 -0.0550  0.1146
 3316SOL     OW21583   4.429   4.052   9.978 -0.1533  0.0540 -0.2745
 3316SOL    HW121584   4.493   4.098  10.034  0.3853 -1.9425  0.7516
 3316SOL    HW221585   4.480   4.028   9.901 -2.0423  0.8382 -1.7667
 3317SOL     OW21586   0.629   4.559   5.938  0.2479 -0.2076 -0.5442
 3317SOL    HW121587   0.579   4.499   5.883 -2.3117  0.4107  1.0506
 3317SOL    HW221588   0.713   4.524   5.967  0.4576 -0.1189 -1.0470
 3318SOL     OW21589   4.521   2.712  12.987 -0.3535 -0.6700  0.0345
 3318SOL    HW121590   4.537   2.624  13.019  1.0756 -0.6772 -0.7123
 3318SOL    HW221591   4.567   2.756  13.059 -0.5746 -2.6153  1.3499
 3319SOL     OW21592   3.399   2.645   8.477 -0.0535  0.5473 -0.0590
 3319SOL    HW121593   3.386   2.550   8.476  1.0361  0.4136 -0.3515
 3319SOL    HW221594   3.389   2.662   8.571 -0.2907 -0.8333  0.1764
 3320SOL     OW21595   2.051   3.076  14.412 -0.3573 -0.0945  0.0773
 3320SOL    HW121596   1.986   3.106  14.475  1.7609  1.7072  1.4143
 3320SOL    HW221597   2.115   3.025  14.462 -1.0966 -0.7681  0.3281
 3321SOL     OW21598   1.945   1.697   4.456  0.2944 -0.0027 -0.6009
 3321SOL    HW121599   1.964   1.743   4.374 -1.4978 -0.9732 -1.5698
 3321SOL    HW221600   1.860   1.655   4.441 -0.2900  0.5786  0.9898
 3322SOL     OW21601   2.760   0.011  17.446 -0.3592  0.3496 -0.3900
 3322SOL    HW121602   2.831   0.011  17.383  0.2948  1.6398  0.3362
 3322SOL    HW221603   2.795   4.705  17.526  0.0044  3.0559  0.8388
 3323SOL     OW21604   1.582   0.941   3.792  0.2549  0.7492 -0.1082
 3323SOL    HW121605   1.528   0.884   3.846  0.3360  0.4441 -0.3498
 3323SOL    HW221606   1.574   0.894   3.708  1.8754  1.1336 -0.4747
 3324SOL     OW21607   0.982   0.747   9.613  0.2752  0.2976  0.1060
 3324SOL    HW121608   0.924   0.823   9.615 -1.2385 -0.8742  0.4389
 3324SOL    HW221609   0.933   0.671   9.644 -0.7012  1.4299  1.3218
 3325SOL     OW21610   2.885   0.015   4.327 -0.0614 -0.0301 -0.0424
 3325SOL    HW121611   2.853   0.061   4.249 -1.4692 -0.7012  0.1451
 3325SOL    HW221612   2.811   0.024   4.387 -1.3032  0.5184 -1.6660
 3326SOL     OW21613   1.361   3.578   8.144 -0.8059  0.0001  0.1554
 3326SOL    HW121614   1.343   3.565   8.051  2.9119  2.1471 -0.8611
 3326SOL    HW221615   1.425   3.650   8.135  0.6072 -1.5075 -1.8077
 3327SOL     OW21616   1.405   1.875   7.360 -0.3814 -0.0126  0.5042
 3327SOL    HW121617   1.394   1.927   7.440 -1.8150  1.4064 -0.6003
 3327SOL    HW221618   1.408   1.945   7.295  1.5587 -0.7768 -0.2165
 3328SOL     OW21619   1.599   3.005   7.856 -0.0746  0.2763  0.6345
 3328SOL    HW121620   1.533   3.073   7.842 -0.6568 -0.6754 -1.1723
 3328SOL    HW221621   1.671   3.067   7.872 -1.1497  1.6064  0.3389
 3329SOL     OW21622   0.910   0.555   6.035 -0.0512  0.1919 -0.7515
 3329SOL    HW121623   0.914   0.462   6.060  1.4520  0.8570  1.4042
 3329SOL    HW221624   0.932   0.592   6.120 -0.4204  1.2080 -1.1028
 3330SOL     OW21625   2.547   3.426  11.378 -0.3399  0.3730  0.0087
 3330SOL    HW121626   2.601   3.353  11.407  0.6692  0.0356 -2.6322
 3330SOL    HW221627   2.559   3.485  11.452 -0.5703 -0.0894  0.4120
 3331SOL     OW21628   1.815   1.438   8.634 -0.2473 -0.0472 -0.1350
 3331SOL    HW121629   1.791   1.529   8.654 -0.8784 -0.1754 -0.3188
 3331SOL    HW221630   1.759   1.413   8.561 -0.6624 -0.6177  0.3839
 3332SOL     OW21631   1.442   2.373   8.707  0.0372  0.0339  0.2811
 3332SOL    HW121632   1.502   2.312   8.665  0.5832  1.2561 -0.7067
 3332SOL    HW221633   1.385   2.320   8.763  1.9353 -0.9184  1.2830
 3333SOL     OW21634   3.040   3.296   7.137 -0.3851  0.7968  0.6234
 3333SOL    HW121635   3.060   3.225   7.199 -0.3238 -1.8637 -2.4385
 3333SOL    HW221636   3.067   3.249   7.058  0.1232 -1.4988  2.1289
 3334SOL     OW21637   3.568   2.270   3.584  0.3208  0.1861  0.3623
 3334SOL    HW121638   3.489   2.314   3.615  0.0893 -0.2802  0.4339
 3334SOL    HW221639   3.564   2.185   3.627 -0.1427 -1.2419 -2.5167
 3335SOL     OW21640   2.437   3.141  11.441 -0.4598  0.5938 -0.2380
 3335SOL    HW121641   2.469   3.054  11.466 -1.7077  0.3482  0.4607
 3335SOL    HW221642   2.522   3.186  11.436 -0.0645 -0.0409  0.6492
 3336SOL     OW21643   4.273   1.706   9.737  0.1795 -0.4066 -0.4158
 3336SOL    HW121644   4.181   1.685   9.754 -0.7544  3.5029 -0.5243
 3336SOL    HW221645   4.301   1.717   9.828  0.4251  1.4008 -0.7050
 3337SOL     OW21646   3.986   2.447   7.214  0.1562 -0.0676  0.1895
 3337SOL    HW121647   4.030   2.404   7.140  0.7211  0.0582  0.4562
 3337SOL    HW221648   3.950   2.372   7.262 -4.4639  1.5490 -0.7865
 3338SOL     OW21649   2.132   0.824   1.851  0.2925  0.4274  0.0551
 3338SOL    HW121650   2.220   0.798   1.824  0.8118  1.7607  0.4223
 3338SOL    HW221651   2.084   0.832   1.769  0.3547  1.4532  0.1191
 3339SOL     OW21652   0.279   3.196   7.671 -0.6328 -0.2675 -0.0103
 3339SOL    HW121653   0.333   3.182   7.593 -2.1292  1.3562 -1.3516
 3339SOL    HW221654   0.262   3.105   7.697  0.7630 -1.2310 -2.4645
 3340SOL     OW21655   1.150   2.940   2.020  0.0578  0.6093 -0.0118
 3340SOL    HW121656   1.168   2.846   2.012 -1.3929  0.2940  0.2280
 3340SOL    HW221657   1.084   2.932   2.090 -0.5006  0.0122 -0.6039
 3341SOL     OW21658   0.903   3.353  11.949 -0.4271  0.2994 -0.4521
 3341SOL    HW121659   0.851   3.429  11.925  0.1277  0.8578  0.1310
 3341SOL    HW221660   0.991   3.388  11.935 -0.5952  1.5242  1.6107
 3342SOL     OW21661   0.387   1.784   4.489 -0.5665 -0.1385  0.6233
 3342SOL    HW121662   0.444   1.820   4.558  1.0055  0.5990 -1.0583
 3342SOL    HW221663   0.391   1.692   4.517 -0.4718 -0.7844 -1.4943
 3343SOL     OW21664   2.224   4.210   7.939  0.0079 -0.1204  0.4552
 3343SOL    HW121665   2.205   4.119   7.963 -1.6411 -0.0152 -0.4472
 3343SOL    HW221666   2.136   4.242   7.918  1.0041  2.1280 -0.2209
 3344SOL     OW21667   3.771   1.989   6.390 -0.1295 -0.1928 -0.1613
 3344SOL    HW121668   3.679   1.963   6.390 -0.0801 -0.3984 -3.3789
 3344SOL    HW221669   3.790   2.014   6.481  1.4608 -2.3747  0.1180
 3345SOL     OW21670   4.696   1.388  17.647  0.1771  0.1566  0.5983
 3345SOL    HW121671   4.623   1.373  17.587 -0.0033  2.4522  0.2445
 3345SOL    HW221672   0.027   1.347  17.591 -1.9885 -2.6175  0.1162
 3346SOL     OW21673   3.687   0.080   5.313 -0.5940 -0.8116 -0.7293
 3346SOL    HW121674   3.664   0.147   5.378  0.9443  0.1885 -1.2020
 3346SOL    HW221675   3.725   0.019   5.376 -0.8870 -0.5536 -0.3022
 3347SOL     OW21676   4.306   1.694  11.617 -0.0881  0.0378  0.4143
 3347SOL    HW121677   4.333   1.647  11.696  1.3285  0.4809  0.1863
 3347SOL    HW221678   4.333   1.783  11.638 -0.8047 -0.1981  2.3009
 3348SOL     OW21679   2.463   0.825   9.502 -0.3976  0.5090  0.1894
 3348SOL    HW121680   2.491   0.750   9.554 -0.2520  0.2509 -0.2639
 3348SOL    HW221681   2.404   0.785   9.438 -0.7661  0.1944  0.7269
 3349SOL     OW21682   2.018   3.380   5.865  0.4793 -0.2115  0.1633
 3349SOL    HW121683   1.962   3.352   5.792  0.5727  3.0753 -1.1414
 3349SOL    HW221684   1.993   3.320   5.936 -1.0457 -1.1110 -1.1318
 3350SOL     OW21685   2.130   1.154   1.620  0.5005 -0.4059 -0.2788
 3350SOL    HW121686   2.115   1.224   1.684  1.1406 -0.7865  0.2923
 3350SOL    HW221687   2.041   1.156   1.584  1.5353 -0.1144 -2.8014
 3351SOL     OW21688   0.464   2.083   7.409 -0.4596  0.2916 -0.1076
 3351SOL    HW121689   0.536   2.021   7.410  1.3804  2.4328 -0.6835
 3351SOL    HW221690   0.501   2.130   7.335  1.4181 -0.9443  0.0668
 3352SOL     OW21691   2.429   0.739   5.010 -0.1801 -0.7550  0.1716
 3352SOL    HW121692   2.522   0.759   4.997 -0.3886  1.5380  2.2288
 3352SOL    HW221693   2.417   0.740   5.105  1.4085  0.0637  0.3571
 3353SOL     OW21694   2.655   2.120   8.589  0.1226  0.2353 -0.2644
 3353SOL    HW121695   2.676   2.185   8.656 -1.6349 -1.9124  2.3759
 3353SOL    HW221696   2.686   2.156   8.506  0.7693  0.0173 -0.1137
 3354SOL     OW21697   4.500   1.772   5.116  0.7209 -0.1136 -0.3058
 3354SOL    HW121698   4.476   1.807   5.030  2.1430 -1.9349 -1.4436
 3354SOL    HW221699   4.468   1.841   5.174 -0.1258  0.0295 -0.9351
 3355SOL     OW21700   0.459   1.297  17.626 -0.5432 -0.3020  0.8017
 3355SOL    HW121701   0.552   1.303  17.607 -0.2121  0.9278  2.8819
 3355SOL    HW221702   0.423   1.369  17.574 -0.1457 -0.5692  0.1541
 3356SOL     OW21703   3.517   1.252   3.308  0.6613  0.0553  0.4299
 3356SOL    HW121704   3.482   1.170   3.274  0.4774  0.4087 -0.2419
 3356SOL    HW221705   3.536   1.303   3.229 -0.4867  1.5127  1.0945
 3357SOL     OW21706   4.184   2.227  12.916 -0.0141 -0.4586  0.2564
 3357SOL    HW121707   4.176   2.278  12.835 -1.1224 -0.6837  0.2256
 3357SOL    HW221708   4.164   2.291  12.984 -0.1404 -0.4990  0.2579
 3358SOL     OW21709   3.483   4.082   0.041  0.7915  0.5639 -0.5517
 3358SOL    HW121710   3.485   4.027  17.698  2.2527 -0.0492 -0.0810
 3358SOL    HW221711   3.537   4.157   0.013  1.8051  0.2016  0.3945
 3359SOL     OW21712   3.101   4.121   5.107  0.0823 -0.1912  0.2795
 3359SOL    HW121713   3.194   4.109   5.087  0.5846  1.2864  1.7102
 3359SOL    HW221714   3.106   4.153   5.198  0.2261 -2.4736  1.0706
 3360SOL     OW21715   4.466   2.087   2.763  0.3867  0.1203  0.5876
 3360SOL    HW121716   4.405   2.101   2.835  0.3181 -2.0782  0.9290
 3360SOL    HW221717   4.515   2.010   2.791  0.9413 -0.2246 -1.3103
 3361SOL     OW21718   3.951   0.457   6.423  0.3914 -0.1625  0.0616
 3361SOL    HW121719   3.962   0.455   6.518  2.2456  1.7729 -0.0980
 3361SOL    HW221720   3.945   0.363   6.404 -1.1224  0.0684 -0.6013
 3362SOL     OW21721   3.826   3.426   3.208  0.1659  0.1424 -0.2464
 3362SOL    HW121722   3.746   3.404   3.254 -0.2439  0.6575 -0.7003
 3362SOL    HW221723   3.787   3.443   3.121 -0.3776  1.7180  0.2986
 3363SOL     OW21724   3.237   0.272   6.743  0.2179  0.0355 -0.1803
 3363SOL    HW121725   3.156   0.222   6.734  1.3565 -1.5171 -2.0369
 3363SOL    HW221726   3.296   0.197   6.730  1.2645  1.3200 -2.8410
 3364SOL     OW21727   3.232   0.137  14.269  0.2510  0.2974  0.2229
 3364SOL    HW121728   3.163   0.083  14.232  3.0836 -1.1711 -2.8628
 3364SOL    HW221729   3.303   0.073  14.274  0.0462 -0.0870 -1.8700
 3365SOL     OW21730   2.243   1.244  10.238  0.3026  0.7459  0.2841
 3365SOL    HW121731   2.278   1.283  10.158  0.0014 -1.2199 -0.8107
 3365SOL    HW221732   2.151   1.272  10.238 -0.2897 -1.1579 -0.6857
 3366SOL     OW21733   0.293   1.785   3.628 -0.6226  0.4227 -0.1576
 3366SOL    HW121734   0.377   1.793   3.673 -1.5678 -0.0769  1.6778
 3366SOL    HW221735   0.301   1.830   3.544  2.3439 -0.4960 -0.3446
 3367SOL     OW21736   4.042   4.588   2.419 -0.1989  0.2875  0.6263
 3367SOL    HW121737   4.011   4.583   2.329  0.0913  1.0945  0.4853
 3367SOL    HW221738   3.974   4.532   2.456 -0.4277  0.0467 -0.1618
 3368SOL     OW21739   1.102   0.890   6.821  0.1718  0.3815 -0.5025
 3368SOL    HW121740   1.012   0.869   6.847  0.3439 -1.8678 -1.7301
 3368SOL    HW221741   1.093   0.871   6.728  0.7998 -0.2306 -0.4370
 3369SOL     OW21742   1.426   4.165   0.886  1.2473  0.2282 -0.2252
 3369SOL    HW121743   1.408   4.231   0.818 -3.6730  1.4837  2.2774
 3369SOL    HW221744   1.519   4.145   0.877  0.5135 -0.8219 -5.5840
 3370SOL     OW21745   0.663   2.060   2.582  0.1935 -0.3472  0.2303
 3370SOL    HW121746   0.635   2.107   2.503  4.1486 -0.8158 -1.4861
 3370SOL    HW221747   0.737   2.011   2.546 -0.1864 -0.0275 -1.0109
 3371SOL     OW21748   2.566   1.486   4.198 -0.1669  0.0925 -0.2699
 3371SOL    HW121749   2.649   1.446   4.224  0.2754 -0.3348 -2.3863
 3371SOL    HW221750   2.601   1.553   4.139 -1.9185  0.1736 -1.2143
 3372SOL     OW21751   3.763   1.711   8.555  0.0217  0.4151 -0.0908
 3372SOL    HW121752   3.777   1.654   8.630 -0.2543  0.1282 -0.2586
 3372SOL    HW221753   3.708   1.778   8.595  1.2382  1.2097  0.2767
 3373SOL     OW21754   0.744   2.904   4.287  0.5651 -0.4859 -0.2326
 3373SOL    HW121755   0.685   2.978   4.275  0.8500 -0.2697 -0.3089
 3373SOL    HW221756   0.811   2.928   4.223  0.2907  1.2058  0.1038
 3374SOL     OW21757   2.630   1.042   9.855  0.0356  0.0919 -0.5294
 3374SOL    HW121758   2.724   1.057   9.867 -0.4477  1.4663  1.4802
 3374SOL    HW221759   2.622   0.946   9.854 -0.6493  0.1065  2.2415
 3375SOL     OW21760   4.064   4.077   3.305  0.1994 -0.5958  0.2581
 3375SOL    HW121761   4.116   4.110   3.232 -2.0170  0.0198 -1.0432
 3375SOL    HW221762   4.037   4.157   3.351 -0.3684  0.2331 -1.5281
 3376SOL     OW21763   0.757   4.010   7.328 -0.7128  0.0837 -0.4234
 3376SOL    HW121764   0.717   3.951   7.391 -1.2509  1.4084  0.4675
 3376SOL    HW221765   0.785   3.958   7.252  0.3709 -0.2413  0.1933
 3377SOL     OW21766   3.297   4.513   8.898  0.3747  0.0683 -0.1290
 3377SOL    HW121767   3.297   4.487   8.806 -1.6290  1.2265 -0.4649
 3377SOL    HW221768   3.302   4.608   8.884  0.1322  0.1260  0.1804
 3378SOL     OW21769   3.319   3.278   4.433 -0.1061  0.2909 -0.5478
 3378SOL    HW121770   3.294   3.191   4.400  1.1727 -0.6656  1.0058
 3378SOL    HW221771   3.323   3.325   4.350 -0.3421 -0.0346 -0.7427
 3379SOL     OW21772   4.663   0.285   9.567  0.4463 -0.3166 -0.1962
 3379SOL    HW121773   4.716   0.322   9.496  0.5156 -2.0595 -1.0656
 3379SOL    HW221774   4.733   0.266   9.629 -1.2720 -1.7527  1.2937
 3380SOL     OW21775   1.794   1.749   0.733 -0.7257  0.1183 -0.4623
 3380SOL    HW121776   1.877   1.718   0.770  0.3102  1.8829 -1.3003
 3380SOL    HW221777   1.821   1.800   0.656 -0.9611  0.6214 -0.2099
 3381SOL     OW21778   1.182   4.539   4.689 -0.3397 -0.0730 -0.6189
 3381SOL    HW121779   1.207   4.583   4.770 -1.2929 -0.3053 -0.2039
 3381SOL    HW221780   1.239   4.575   4.621  0.4424 -1.6954 -0.8024
 3382SOL     OW21781   0.631   0.812   1.123  0.3134  0.0034 -0.3749
 3382SOL    HW121782   0.600   0.812   1.033 -0.3708  0.2307 -0.1385
 3382SOL    HW221783   0.551   0.776   1.162 -0.1971  0.2176 -1.2218
 3383SOL     OW21784   1.839   2.609   7.793 -0.1563  0.7270  0.0967
 3383SOL    HW121785   1.771   2.545   7.773  0.1635  0.7364 -1.0252
 3383SOL    HW221786   1.787   2.688   7.784  0.8120  1.3360 -0.2017
 3384SOL     OW21787   1.163   3.787   9.240  0.3448 -0.4627  0.0150
 3384SOL    HW121788   1.213   3.843   9.181  0.8964 -1.5499 -0.5696
 3384SOL    HW221789   1.156   3.845   9.315 -0.8330 -0.0789 -0.3915
 3385SOL     OW21790   0.975   0.107   6.526  0.0258  0.0186 -0.7877
 3385SOL    HW121791   0.947   0.135   6.439  2.3307  0.1116 -1.5079
 3385SOL    HW221792   0.893   0.127   6.572  1.1421  2.9587 -0.0573
 3386SOL     OW21793   4.596   0.738   2.759  0.8468 -0.0132 -0.2555
 3386SOL    HW121794   4.598   0.823   2.803 -0.9484 -0.0788 -0.0585
 3386SOL    HW221795   4.542   0.687   2.820 -0.6466 -1.4114 -2.7008
 3387SOL     OW21796   2.496   1.619   6.613 -0.1726  0.3039 -0.4224
 3387SOL    HW121797   2.466   1.667   6.535  0.8298  0.9808 -0.3972
 3387SOL    HW221798   2.576   1.670   6.631 -0.3836  0.2342  0.7274
 3388SOL     OW21799   3.783   0.157   1.989 -0.6853  0.1627  0.8160
 3388SOL    HW121800   3.770   0.205   2.071  1.3957  1.0399  0.6135
 3388SOL    HW221801   3.866   0.195   1.962 -0.5489 -0.3965  0.4553
 3389SOL     OW21802   3.768   1.247   4.160  0.1885  0.2987  0.1566
 3389SOL    HW121803   3.775   1.293   4.244  0.6957  1.0678 -0.2994
 3389SOL    HW221804   3.824   1.303   4.106  0.1915  1.4500  1.3443
 3390SOL     OW21805   0.998   3.681  10.246 -0.5754  0.4234 -0.0010
 3390SOL    HW121806   1.039   3.766  10.263  0.1104  0.1438 -0.2595
 3390SOL    HW221807   1.024   3.674  10.155  2.1369 -0.3468  0.8237
 3391SOL     OW21808   0.505   0.356  11.096  0.5228 -0.3189  0.1351
 3391SOL    HW121809   0.506   0.273  11.049 -1.7983  0.7899 -1.8865
 3391SOL    HW221810   0.576   0.348  11.160  0.4343 -1.0440  0.1432
 3392SOL     OW21811   2.874   1.638   2.626  0.0558 -0.3155 -0.0877
 3392SOL    HW121812   2.964   1.618   2.602  0.9236  3.3260  0.2227
 3392SOL    HW221813   2.853   1.560   2.677 -1.3685  0.7729  0.9697
 3393SOL     OW21814   2.165   2.031   2.100 -0.3237  0.4801  0.1705
 3393SOL    HW121815   2.180   2.125   2.090  1.6067 -0.1436 -2.6502
 3393SOL    HW221816   2.207   2.023   2.186 -0.8231 -1.1180  0.2637
 3394SOL     OW21817   4.194   2.793  15.956  0.0369 -0.1909 -0.3317
 3394SOL    HW121818   4.185   2.833  15.869  1.1697  3.6719  1.3081
 3394SOL    HW221819   4.182   2.871  16.010  2.2645 -1.6454  2.1949
 3395SOL     OW21820   0.510   3.828   9.946  0.2640 -0.7554  0.3101
 3395SOL    HW121821   0.528   3.810  10.039 -2.6842  1.4795  1.3066
 3395SOL    HW221822   0.566   3.904   9.933 -0.7449  0.0078  0.4379
 3396SOL     OW21823   1.546   0.180   1.845 -0.0166 -0.2032 -0.4207
 3396SOL    HW121824   1.506   0.098   1.818  0.0846 -0.6101  0.6771
 3396SOL    HW221825   1.605   0.159   1.917 -0.7464 -0.7783  0.0082
 3397SOL     OW21826   1.428   1.515   1.533  0.1710 -0.7800  0.2471
 3397SOL    HW121827   1.395   1.580   1.471 -0.4148 -0.1663  1.2084
 3397SOL    HW221828   1.436   1.562   1.616  0.0247 -1.5686  0.7154
 3398SOL     OW21829   3.129   1.581   0.970  0.6179  0.1177 -0.3201
 3398SOL    HW121830   3.143   1.671   0.939  3.6473 -0.3715 -0.3550
 3398SOL    HW221831   3.200   1.575   1.034 -0.8650  1.2693  1.4680
 3399SOL     OW21832   1.970   4.582   2.435  0.5642 -0.3944  0.3810
 3399SOL    HW121833   2.012   4.655   2.388 -1.9649  0.4852 -0.5088
 3399SOL    HW221834   1.923   4.623   2.507  0.0151 -0.7386  0.2162
 3400SOL     OW21835   1.022   2.113   8.435 -0.0711 -0.2593 -0.2614
 3400SOL    HW121836   0.945   2.060   8.457  1.5553 -3.3257 -2.1546
 3400SOL    HW221837   1.054   2.125   8.524  0.7884 -3.3296 -0.1637
 3401SOL     OW21838   1.409   2.011   9.362 -0.1839  0.2226 -0.2685
 3401SOL    HW121839   1.398   2.094   9.409 -1.3255 -0.4650  0.6730
 3401SOL    HW221840   1.366   2.019   9.277  0.2147 -1.0071 -0.5794
 3402SOL     OW21841   0.255   2.993  16.248  0.0694  0.1355 -0.1348
 3402SOL    HW121842   0.161   3.001  16.268 -0.4532 -2.6968 -1.5951
 3402SOL    HW221843   0.259   2.954  16.161  1.4842 -0.6178  0.2710
 3403SOL     OW21844   1.983   4.171   7.300 -0.0709 -0.2232  0.4924
 3403SOL    HW121845   1.902   4.217   7.278  0.5145 -0.0665 -1.3100
 3403SOL    HW221846   2.002   4.216   7.382 -1.3656 -0.4075  0.8972
 3404SOL     OW21847   0.512   4.467  15.928  0.4540 -0.4468  0.4088
 3404SOL    HW121848   0.419   4.458  15.906  0.5850 -0.3056 -0.2056
 3404SOL    HW221849   0.543   4.401  15.866  0.7503 -0.7311  0.8554
 3405SOL     OW21850   3.865   4.544  13.404 -0.1198 -0.0160 -0.2825
 3405SOL    HW121851   3.811   4.590  13.340  0.2466 -2.0228 -2.0471
 3405SOL    HW221852   3.836   4.574  13.491 -0.3346  0.1312 -0.4044
 3406SOL     OW21853   3.595   4.542   2.091  0.2538  0.1703  0.0172
 3406SOL    HW121854   3.517   4.597   2.089  0.9198  1.1122 -0.0145
 3406SOL    HW221855   3.582   4.478   2.021  0.9074  0.4856 -0.3962
 3407SOL     OW21856   0.414   3.055   5.901  0.2551 -0.0091 -0.1172
 3407SOL    HW121857   0.462   3.072   5.982 -0.1511 -1.0473  0.3447
 3407SOL    HW221858   0.353   2.988   5.934  0.1012  0.9352  1.5119
 3408SOL     OW21859   4.627   4.443   4.014  0.5954  0.0033 -0.4054
 3408SOL    HW121860   4.675   4.443   3.931 -0.1329  0.9031 -0.8393
 3408SOL    HW221861   4.700   4.434   4.075  0.3706 -1.2831 -0.3283
 3409SOL     OW21862   1.984   4.158  12.481  0.2720  0.1201  0.2958
 3409SOL    HW121863   2.068   4.202  12.468 -0.7775  2.1908  0.4334
 3409SOL    HW221864   2.000   4.072  12.443  0.3661  0.2272  0.0929
 3410SOL     OW21865   3.369   1.103   9.652 -0.2044 -0.2466 -0.0989
 3410SOL    HW121866   3.326   1.028   9.693  1.0026 -0.6872  0.3367
 3410SOL    HW221867   3.454   1.090   9.694 -0.5059  2.9043  1.4839
 3411SOL     OW21868   4.526   2.651  17.703  0.4566  0.1644 -0.2107
 3411SOL    HW121869   4.476   2.681   0.043  0.9931 -0.9346  0.5707
 3411SOL    HW221870   4.541   2.727  17.647  0.4196  0.1181 -0.2850
 3412SOL     OW21871   0.040   2.343   8.624 -0.0483  0.1947  0.5926
 3412SOL    HW121872   0.025   2.397   8.546 -0.2234 -1.5508 -0.5936
 3412SOL    HW221873   4.685   2.333   8.658 -0.3673  0.8121 -0.0668
 3413SOL     OW21874   1.143   1.040   2.212  0.0965  0.1438  0.1506
 3413SOL    HW121875   1.170   1.076   2.127 -0.9652 -0.4692 -0.4466
 3413SOL    HW221876   1.182   0.952   2.207 -1.9862 -0.7711 -0.1472
 3414SOL     OW21877   2.494   0.145  16.127  0.0995  0.1503 -0.6643
 3414SOL    HW121878   2.469   0.235  16.151  1.4739  0.8038 -1.6545
 3414SOL    HW221879   2.408   0.104  16.130  0.5847 -0.7858  0.3408
 3415SOL     OW21880   0.750   2.873   1.982  0.3676  0.1532  0.1371
 3415SOL    HW121881   0.733   2.856   1.890 -0.1381  1.3019  0.0132
 3415SOL    HW221882   0.663   2.849   2.012 -0.3728  1.7941 -0.7358
 3416SOL     OW21883   0.227   0.861   7.113 -0.3754  0.1279  0.0452
 3416SOL    HW121884   0.188   0.778   7.141 -1.6892  0.8408  0.3341
 3416SOL    HW221885   0.195   0.924   7.178 -0.1575 -1.3935  1.6395
 3417SOL     OW21886   4.719   4.473   3.472  0.2426  0.0235  0.0143
 3417SOL    HW121887   0.004   4.564   3.497  0.6458 -0.4717  1.5509
 3417SOL    HW221888   4.696   4.473   3.379  3.1267  0.0498 -0.6923
 3418SOL     OW21889   4.356   1.750   2.433  0.3185  0.3782  0.1419
 3418SOL    HW121890   4.334   1.832   2.478  0.1217 -0.1449  0.9920
 3418SOL    HW221891   4.265   1.733   2.408  0.6596 -1.6110  0.2672
 3419SOL     OW21892   2.239   3.091  12.089 -0.0334  0.3204 -0.6021
 3419SOL    HW121893   2.285   3.014  12.124 -0.1571 -0.1110 -1.3875
 3419SOL    HW221894   2.154   3.083  12.133 -0.1915  1.1080 -0.7669
 3420SOL     OW21895   4.225   1.762   7.135  0.5076 -0.5121  0.1317
 3420SOL    HW121896   4.248   1.705   7.208 -1.0730 -0.6584  0.5209
 3420SOL    HW221897   4.234   1.695   7.066  1.2422 -1.1726  0.8799
 3421SOL     OW21898   3.371   1.774   4.513  0.0529  0.3051 -1.0018
 3421SOL    HW121899   3.296   1.752   4.458 -0.5588  0.2908 -0.1536
 3421SOL    HW221900   3.410   1.692   4.544 -1.4250  0.1391  0.4144
 3422SOL     OW21901   3.563   1.523  16.278 -0.2089 -0.0951 -0.8489
 3422SOL    HW121902   3.587   1.538  16.369 -1.2612 -3.3831 -0.0421
 3422SOL    HW221903   3.479   1.568  16.283  1.0646  2.1350  0.3706
 3423SOL     OW21904   2.512   1.288  13.008  0.2855 -0.2512  0.6500
 3423SOL    HW121905   2.593   1.238  12.994  1.5686  1.1447  3.1045
 3423SOL    HW221906   2.540   1.351  13.074 -0.5024 -2.0779  2.7455
 3424SOL     OW21907   4.195   1.733  15.907  0.0261  0.3406 -0.6673
 3424SOL    HW121908   4.268   1.793  15.896 -0.9453  0.9238 -3.9239
 3424SOL    HW221909   4.171   1.753  15.997  0.2656 -0.2128 -0.4773
 3425SOL     OW21910   2.878   4.164   7.829  0.3277  0.4437  0.2432
 3425SOL    HW121911   2.945   4.231   7.847 -1.5206  1.6724  2.6627
 3425SOL    HW221912   2.926   4.081   7.831 -0.5591 -0.0398  1.9691
 3426SOL     OW21913   2.794   4.595   1.842 -0.2493  0.3779 -0.2466
 3426SOL    HW121914   2.709   4.551   1.837 -1.5140  2.7218  0.7519
 3426SOL    HW221915   2.760   4.667   1.895 -2.0444 -1.9895  1.8908
 3427SOL     OW21916   4.236   2.466   9.806  0.3411 -0.4188 -0.1323
 3427SOL    HW121917   4.314   2.457   9.751 -0.1585 -2.1703 -0.5451
 3427SOL    HW221918   4.186   2.387   9.787  0.9996 -0.6833 -0.7567
 3428SOL     OW21919   2.390   0.643   1.416  0.5622  0.2874  0.2571
 3428SOL    HW121920   2.330   0.579   1.453 -1.6598  2.6046  0.6923
 3428SOL    HW221921   2.346   0.657   1.333  2.0847  4.1675  0.0603
 3429SOL     OW21922   0.412   3.526  11.070 -0.0285 -0.3781  0.4898
 3429SOL    HW121923   0.333   3.532  11.018  0.5749  2.9940 -0.0101
 3429SOL    HW221924   0.384   3.578  11.146  0.4742 -0.0603  0.4564
 3430SOL     OW21925   3.931   1.995   8.983  0.0805  0.5062  0.2049
 3430SOL    HW121926   3.914   2.027   9.071 -2.3887  0.0368 -0.0990
 3430SOL    HW221927   3.924   1.900   8.994  0.2212  0.4675 -0.0254
 3431SOL     OW21928   2.246   2.156   8.727  0.3930 -0.2431  0.1997
 3431SOL    HW121929   2.288   2.167   8.812  1.5410 -3.2454  0.0287
 3431SOL    HW221930   2.154   2.180   8.740  0.8380  2.5281 -1.7954
 3432SOL     OW21931   3.628   1.246   9.250 -0.2510  0.1252  0.3756
 3432SOL    HW121932   3.583   1.166   9.223 -0.5962  0.2835  0.4924
 3432SOL    HW221933   3.649   1.224   9.341 -0.0125  2.6858  0.9426
 3433SOL     OW21934   2.118   3.383  12.113  0.3742  0.5210  0.5304
 3433SOL    HW121935   2.192   3.335  12.077  2.0515  2.4370  1.4469
 3433SOL    HW221936   2.127   3.380  12.209  0.0992  2.4440  0.6176
 3434SOL     OW21937   3.775   4.692  14.880 -0.4892 -0.3156 -0.6382
 3434SOL    HW121938   3.681   4.702  14.866 -0.8107 -1.1256  0.9298
 3434SOL    HW221939   3.785   4.609  14.927  0.0086  0.3566  0.4365
 3435SOL     OW21940   1.531   1.131   1.803 -0.2881 -0.4741  0.2363
 3435SOL    HW121941   1.574   1.215   1.790 -0.2107 -0.8874 -2.0542
 3435SOL    HW221942   1.606   1.071   1.806  0.3506  0.2744 -0.7019
 3436SOL     OW21943   3.392   4.655  11.928 -0.2689  0.3692 -0.3512
 3436SOL    HW121944   3.456   4.698  11.871  2.8208  0.0881  2.9486
 3436SOL    HW221945   3.359   4.723  11.987 -1.3014  0.7127 -1.3158
 3437SOL     OW21946   1.469   3.361   7.861  0.1726  0.3219 -0.3108
 3437SOL    HW121947   1.401   3.428   7.856  1.3492  1.4687 -0.7663
 3437SOL    HW221948   1.423   3.291   7.813 -2.7206  1.5300  0.7028
 3438SOL     OW21949   1.400   0.268  14.491 -0.1475 -0.5887 -0.0278
 3438SOL    HW121950   1.402   0.174  14.511 -1.1986 -0.9653 -1.7188
 3438SOL    HW221951   1.495   0.276  14.504  0.2244  0.3890 -3.3870
 3439SOL     OW21952   3.373   3.779  10.365  0.5922 -0.0468  0.2370
 3439SOL    HW121953   3.361   3.688  10.395  0.7250  0.8552  3.0958
 3439SOL    HW221954   3.339   3.777  10.276  2.2163 -0.9414 -0.3659
 3440SOL     OW21955   0.656   0.879   3.989 -0.1067 -0.2906  0.4629
 3440SOL    HW121956   0.631   0.792   4.018 -2.0257  0.4084  0.8591
 3440SOL    HW221957   0.586   0.907   3.930  1.3995 -0.7939 -1.5619
 3441SOL     OW21958   1.740   0.662  15.729  0.1671  0.0835 -0.4627
 3441SOL    HW121959   1.791   0.710  15.794 -1.6071  0.2447  0.7855
 3441SOL    HW221960   1.656   0.644  15.772 -0.6285 -0.3445 -2.1832
 3442SOL     OW21961   3.855   0.843  10.489 -0.1223  0.2161 -0.1051
 3442SOL    HW121962   3.831   0.901  10.561 -2.1368  0.7464 -1.1918
 3442SOL    HW221963   3.868   0.756  10.525 -0.1472  1.0242  1.8300
 3443SOL     OW21964   1.106   4.173   7.938  0.1326 -0.2126  0.0249
 3443SOL    HW121965   1.057   4.109   7.989  1.3467  0.8454  2.5403
 3443SOL    HW221966   1.033   4.220   7.897 -1.9422 -1.9001  1.7527
 3444SOL     OW21967   2.854   4.671   4.817  0.2194 -0.3546  0.2701
 3444SOL    HW121968   2.778   4.678   4.759 -0.3371 -1.1292  0.9204
 3444SOL    HW221969   2.807   4.638   4.893  0.7042  0.2721  0.8482
 3445SOL     OW21970   2.608   2.208  16.755  0.1121  0.0782  0.2654
 3445SOL    HW121971   2.569   2.294  16.773  1.7167  0.9640 -0.4792
 3445SOL    HW221972   2.687   2.236  16.709 -0.8601  0.1805 -1.3348
 3446SOL     OW21973   4.180   1.179   2.208 -0.1802  0.4495 -0.0696
 3446SOL    HW121974   4.131   1.119   2.265  0.3008 -1.2257 -1.4529
 3446SOL    HW221975   4.151   1.260   2.251  0.5531  0.3323  0.6346
 3447SOL     OW21976   3.420   1.029   5.952  0.6996  0.3327  0.1151
 3447SOL    HW121977   3.496   1.000   6.002 -0.5289 -1.8457  0.7413
 3447SOL    HW221978   3.353   1.029   6.021 -1.7374  0.7297 -2.2428
 3448SOL     OW21979   3.036   3.234   5.682 -0.3287 -0.4533 -0.2473
 3448SOL    HW121980   3.080   3.314   5.654 -1.4471 -0.1120 -1.0083
 3448SOL    HW221981   3.070   3.168   5.622  0.1260 -1.1653  0.7856
 3449SOL     OW21982   3.337   0.049   3.352  0.2826 -0.0438  0.1317
 3449SOL    HW121983   3.295   0.132   3.334 -2.1214 -0.7279  2.5329
 3449SOL    HW221984   3.392   0.076   3.425 -0.8161 -1.0401  1.3325
 3450SOL     OW21985   4.194   0.925   8.611 -0.1217  0.2507 -0.5234
 3450SOL    HW121986   4.112   0.908   8.566 -0.3187 -1.2631  0.4230
 3450SOL    HW221987   4.238   0.955   8.531 -1.3804  0.8499 -0.9813
 3451SOL     OW21988   1.698   3.652   2.760 -0.1517  0.0594  0.1194
 3451SOL    HW121989   1.619   3.623   2.807  1.6486  0.0791  3.1430
 3451SOL    HW221990   1.677   3.620   2.672  0.5245  0.8684 -0.3313
 3452SOL     OW21991   0.072   3.280   5.265 -0.3715 -0.4213 -0.8553
 3452SOL    HW121992   0.116   3.219   5.205  0.8887 -0.9960  0.6646
 3452SOL    HW221993   0.066   3.361   5.214  1.2829  0.9505  1.1460
 3453SOL     OW21994   3.227   2.595   0.588  0.4669  0.2164 -0.2430
 3453SOL    HW121995   3.292   2.578   0.656  0.9835 -0.2634 -0.8502
 3453SOL    HW221996   3.238   2.525   0.523  0.8978 -0.2301  0.3058
 3454SOL     OW21997   2.295   3.121   4.069 -0.1057  0.3684 -0.4560
 3454SOL    HW121998   2.371   3.063   4.075 -1.6193 -1.3613  2.0161
 3454SOL    HW221999   2.279   3.145   3.978  2.3063 -1.1947 -1.2925
 3455SOL     OW22000   4.158   3.532  13.381 -0.3143  0.1262  0.2360
 3455SOL    HW122001   4.082   3.539  13.324 -0.0573 -0.6913 -0.2161
 3455SOL    HW222002   4.212   3.591  13.330 -2.5576  1.3505 -0.6891
 3456SOL     OW22003   4.568   2.702  16.576 -0.1984  0.1853 -0.0335
 3456SOL    HW122004   4.635   2.756  16.616  0.1375  0.3382 -0.8079
 3456SOL    HW222005   4.581   2.730  16.486  4.8592 -0.5087  0.5232
 3457SOL     OW22006   1.497   1.781   9.771  0.0695 -0.0502 -0.1950
 3457SOL    HW122007   1.538   1.709   9.724 -0.2992  0.4634 -1.3047
 3457SOL    HW222008   1.568   1.822   9.819  0.7401 -1.1007 -0.3054
 3458SOL     OW22009   2.291   1.519   0.291  0.5757  0.0613  0.1996
 3458SOL    HW122010   2.383   1.494   0.294  1.3153  2.8581  1.2897
 3458SOL    HW222011   2.260   1.523   0.382  1.6872 -0.8652  0.6159
 3459SOL     OW22012   3.918   2.950  17.635  0.4467  0.2050 -0.0276
 3459SOL    HW122013   3.859   2.955  17.560  0.6404  1.0759 -0.1172
 3459SOL    HW222014   3.906   3.036  17.675  0.8816 -0.2417  1.0782
 3460SOL     OW22015   4.041   0.875  11.965  0.5244  0.2850  0.5854
 3460SOL    HW122016   4.035   0.854  12.059 -0.1027 -1.0046  0.2472
 3460SOL    HW222017   4.135   0.871  11.950  0.2353 -0.6298 -0.9351
 3461SOL     OW22018   0.220   4.468  15.836  0.0106 -0.2635  0.3427
 3461SOL    HW122019   0.180   4.548  15.802  2.3935 -0.0200 -1.9039
 3461SOL    HW222020   0.151   4.408  15.809  0.2688 -1.8912  3.2810
 3462SOL     OW22021   2.655   3.804  15.316 -0.0872 -0.4810  0.8590
 3462SOL    HW122022   2.742   3.772  15.338 -0.1732  0.0259  1.9257
 3462SOL    HW222023   2.629   3.740  15.249  1.6672  0.5259 -0.7760
 3463SOL     OW22024   3.730   2.659   1.392 -0.3323  0.0831 -0.0255
 3463SOL    HW122025   3.797   2.605   1.434 -0.8493 -1.3432 -1.0711
 3463SOL    HW222026   3.720   2.720   1.465 -0.8713 -1.0368  0.8250
 3464SOL     OW22027   0.134   0.265  10.606 -0.8121 -0.0330  0.6762
 3464SOL    HW122028   0.122   0.214  10.525  1.1078  0.0054  0.3659
 3464SOL    HW222029   0.086   0.345  10.587 -1.1219 -0.7375 -1.5479
 3465SOL     OW22030   2.755   4.153  16.677  0.3707  0.1915 -0.2905
 3465SOL    HW122031   2.684   4.167  16.614  2.1621  1.7408 -1.9671
 3465SOL    HW222032   2.806   4.234  16.680  2.5966 -1.2416  0.5244
 3466SOL     OW22033   1.144   3.213   8.302  0.4078  0.2030 -0.0783
 3466SOL    HW122034   1.077   3.241   8.364 -2.7268 -4.1046 -1.5072
 3466SOL    HW222035   1.102   3.151   8.243 -0.0060 -0.2561  0.6990
 3467SOL     OW22036   1.710   2.100   8.840  0.3294 -0.0915  0.5965
 3467SOL    HW122037   1.697   2.006   8.854  0.9461 -0.5437 -1.8235
 3467SOL    HW222038   1.695   2.133   8.929 -0.3633 -0.8674  0.7728
 3468SOL     OW22039   2.795   0.321   7.011  0.2095 -0.4925  0.3801
 3468SOL    HW122040   2.758   0.369   7.085 -2.8045 -2.4928  0.1705
 3468SOL    HW222041   2.797   0.394   6.950  0.6837 -0.1868  0.7586
 3469SOL     OW22042   3.114   1.375   1.638 -0.0543 -0.2377 -0.0849
 3469SOL    HW122043   3.021   1.377   1.658  0.2971 -0.5744  1.5999
 3469SOL    HW222044   3.121   1.384   1.543  0.7411  0.6744  0.0650
 3470SOL     OW22045   1.034   2.871  16.105  0.6614 -0.7009  0.1304
 3470SOL    HW122046   1.021   2.830  16.191  0.2094 -0.4041  0.2041
 3470SOL    HW222047   1.128   2.877  16.118  0.5646 -2.2439  1.6240
 3471SOL     OW22048   3.597   0.155   3.841 -0.2679  0.6656  0.0364
 3471SOL    HW122049   3.525   0.163   3.779  0.0496 -0.5883 -0.5024
 3471SOL    HW222050   3.602   0.238   3.887  0.4784 -0.3315  1.7637
 3472SOL     OW22051   0.581   1.283   0.889  0.0444  0.0318  0.1515
 3472SOL    HW122052   0.579   1.373   0.924  1.5691  1.1125 -2.5504
 3472SOL    HW222053   0.513   1.236   0.937 -0.1887  0.9981  0.7775
 3473SOL     OW22054   3.125   3.510   0.659 -0.4291  0.3146  0.1155
 3473SOL    HW122055   3.175   3.457   0.721  1.9136  3.3324  0.8028
 3473SOL    HW222056   3.179   3.588   0.652 -1.2059  0.9657  1.4115
 3474SOL     OW22057   2.063   3.557   3.554  0.1070 -0.2995 -0.0596
 3474SOL    HW122058   2.077   3.529   3.644 -1.5880  0.3586  0.4042
 3474SOL    HW222059   1.968   3.545   3.550 -0.0912  0.4663  2.4483
 3475SOL     OW22060   0.206   2.928  16.713 -0.0641  0.0099  0.0688
 3475SOL    HW122061   0.113   2.939  16.695  0.0234  0.2452 -0.2356
 3475SOL    HW222062   0.253   3.011  16.700 -1.5811  0.5205 -2.1364
 3476SOL     OW22063   1.827   0.602   8.468  0.0494  0.3422 -0.2506
 3476SOL    HW122064   1.885   0.639   8.402  0.0014  1.2575  0.2196
 3476SOL    HW222065   1.874   0.623   8.548  2.4138  0.9879 -1.8293
 3477SOL     OW22066   1.465   4.202   9.384  0.3961  0.2776 -0.0239
 3477SOL    HW122067   1.403   4.164   9.446 -0.2134 -1.4315 -1.6750
 3477SOL    HW222068   1.549   4.160   9.407  0.4661 -0.4565 -1.5741
 3478SOL     OW22069   1.306   4.037   9.124  0.2481  0.0968 -0.7732
 3478SOL    HW122070   1.388   4.018   9.168 -1.6888 -1.3609  2.1962
 3478SOL    HW222071   1.265   4.093   9.190 -0.8853 -1.7891  0.1197
 3479SOL     OW22072   4.673   4.272  13.448  0.1066  0.5400 -0.1608
 3479SOL    HW122073   4.672   4.364  13.422  0.2568  0.1585 -1.4839
 3479SOL    HW222074   4.703   4.217  13.376 -1.4507 -1.6038  0.8050
 3480SOL     OW22075   3.586   0.593  11.372 -0.3225  0.0248 -0.5200
 3480SOL    HW122076   3.647   0.520  11.381  0.3624  0.5917 -0.5895
 3480SOL    HW222077   3.623   0.658  11.430 -1.4664  1.4206 -1.3543
 3481SOL     OW22078   2.892   4.136  15.936 -0.0077 -0.2225  0.1748
 3481SOL    HW122079   2.837   4.175  16.003  0.8923  0.5470  0.4612
 3481SOL    HW222080   2.838   4.168  15.864 -0.6854  1.2345  1.3412
 3482SOL     OW22081   2.635   3.449   6.601  0.3286 -0.3776 -0.3503
 3482SOL    HW122082   2.568   3.509   6.568  0.6281  0.9027  1.3297
 3482SOL    HW222083   2.577   3.384   6.642 -1.1889  0.8301 -0.5725
 3483SOL     OW22084   4.002   0.404   7.376  0.4719  0.3729 -0.3210
 3483SOL    HW122085   4.059   0.480   7.362  0.1784  0.4583 -1.0195
 3483SOL    HW222086   3.948   0.440   7.446  2.0715 -0.0452  1.1365
 3484SOL     OW22087   2.379   1.168   7.891  0.2336  0.1563 -0.6372
 3484SOL    HW122088   2.401   1.075   7.902 -1.7139 -0.4388 -1.7723
 3484SOL    HW222089   2.456   1.217   7.919  0.0480  1.7000 -2.8937
 3485SOL     OW22090   3.905   2.970   4.511  0.2718 -0.2746 -0.3821
 3485SOL    HW122091   3.820   2.955   4.554 -1.2011  0.1603 -3.1443
 3485SOL    HW222092   3.956   2.923   4.577  0.3229  0.8325  0.3648
 3486SOL     OW22093   2.894   1.779   4.675 -0.3183 -0.2926 -0.1619
 3486SOL    HW122094   2.898   1.736   4.761 -1.9190 -0.4881 -0.1945
 3486SOL    HW222095   2.883   1.868   4.709 -1.1859  0.6679 -2.9853
 3487SOL     OW22096   2.617   4.034  15.442  0.0710  0.6605  0.8497
 3487SOL    HW122097   2.631   3.948  15.402  1.8207 -0.5037  3.9395
 3487SOL    HW222098   2.706   4.045  15.475 -0.5286  0.2007  2.6013
 3488SOL     OW22099   3.151   3.035  10.686 -0.0070 -0.3026 -0.0706
 3488SOL    HW122100   3.109   3.041  10.600 -0.3858 -1.1118  0.0560
 3488SOL    HW222101   3.171   3.128  10.700 -1.8784  0.2886 -1.2773
 3489SOL     OW22102   0.064   3.646   9.565 -0.2320  0.5123 -0.3833
 3489SOL    HW122103   0.110   3.573   9.524  0.0631 -0.1007  1.0470
 3489SOL    HW222104   4.705   3.629   9.547  0.0667 -2.3249  0.8367
 3490SOL     OW22105   1.027   4.404   4.192 -0.4103  0.0711  0.3113
 3490SOL    HW122106   0.966   4.444   4.130  0.1900  2.4939  1.2520
 3490SOL    HW222107   0.968   4.343   4.236  1.0280 -1.9906 -0.6257
 3491SOL     OW22108   1.546   3.551   2.512 -0.0921 -0.2943 -0.2756
 3491SOL    HW122109   1.456   3.583   2.509 -0.5676 -1.3180  2.9054
 3491SOL    HW222110   1.555   3.512   2.425  0.9832 -0.3710 -0.1295
 3492SOL     OW22111   3.345   1.899   2.009 -0.2875  0.3540  0.0821
 3492SOL    HW122112   3.360   1.917   1.917 -0.1933 -0.7992 -0.1251
 3492SOL    HW222113   3.351   1.990   2.040  0.7674  0.7877 -1.3893
 3493SOL     OW22114   2.500   0.635   2.822  0.2770 -0.0495 -0.2877
 3493SOL    HW122115   2.464   0.643   2.911 -1.2231 -0.3067 -0.8639
 3493SOL    HW222116   2.421   0.659   2.773  0.7882  0.8193 -0.6777
 3494SOL     OW22117   3.973   0.049   2.738  0.2282 -0.3836 -0.1837
 3494SOL    HW122118   3.913   4.709   2.736 -1.6518  1.1224  0.7992
 3494SOL    HW222119   3.922   0.102   2.676  0.0881 -0.2479  0.0455
 3495SOL     OW22120   1.151   2.544   8.620 -0.0769 -0.3105  0.0273
 3495SOL    HW122121   1.065   2.534   8.579 -0.6918  0.4704  1.1039
 3495SOL    HW222122   1.206   2.488   8.566 -1.3108 -0.0409 -1.5278
 3496SOL     OW22123   1.726   1.669  14.795  0.7068 -0.0347 -0.3905
 3496SOL    HW122124   1.743   1.639  14.706  1.1538 -1.5356  0.2057
 3496SOL    HW222125   1.631   1.663  14.779  0.6220  0.2670  0.0088
 3497SOL     OW22126   3.457   0.394   2.390 -0.3948 -0.2630 -0.4326
 3497SOL    HW122127   3.503   0.443   2.458  1.0736 -0.9842 -0.8855
 3497SOL    HW222128   3.384   0.359   2.441 -0.3743 -1.0131 -0.9055
 3498SOL     OW22129   0.457   4.146   6.833 -0.4612  0.0852 -0.0240
 3498SOL    HW122130   0.370   4.186   6.825 -0.4443  0.5939  2.1440
 3498SOL    HW222131   0.441   4.058   6.798  0.9819  0.4206 -1.4848
 3499SOL     OW22132   4.234   3.780   6.900  0.2296 -0.0153 -0.3525
 3499SOL    HW122133   4.235   3.871   6.870 -1.3381 -0.2438 -1.0800
 3499SOL    HW222134   4.150   3.788   6.945 -0.3371  2.0612 -1.7748
 3500SOL     OW22135   3.704   3.161  12.716 -0.1233 -0.1007  0.1914
 3500SOL    HW122136   3.620   3.115  12.720  0.2079 -0.9199 -2.2018
 3500SOL    HW222137   3.742   3.128  12.798 -0.3288 -2.6608 -0.7357
 3501SOL     OW22138   1.580   4.098   2.902 -0.0881  0.1225 -0.3806
 3501SOL    HW122139   1.669   4.091   2.868  0.5970  1.4292  1.1504
 3501SOL    HW222140   1.523   4.049   2.843 -1.6543 -0.0224  1.2453
 3502SOL     OW22141   1.287   2.317   4.822 -0.1472 -0.0991 -0.4200
 3502SOL    HW122142   1.321   2.301   4.734  1.0508  0.2137 -0.0180
 3502SOL    HW222143   1.237   2.398   4.816  0.1933  0.2818  1.9605
 3503SOL     OW22144   2.677   1.344   5.093  0.3236 -0.0978 -0.1039
 3503SOL    HW122145   2.613   1.395   5.043 -1.8551 -1.4231  1.2863
 3503SOL    HW222146   2.622   1.304   5.162  0.6984 -0.5630 -0.0752
 3504SOL     OW22147   0.574   1.346   3.484 -0.6364  0.4493  0.2902
 3504SOL    HW122148   0.552   1.365   3.575  1.7572  2.6377  0.4197
 3504SOL    HW222149   0.573   1.250   3.476 -1.4234  0.3962  1.0168
 3505SOL     OW22150   1.649   1.550   9.666  0.4026  0.2069  0.3246
 3505SOL    HW122151   1.679   1.554   9.576 -2.0708  0.3838 -0.4823
 3505SOL    HW222152   1.693   1.474   9.703  0.0767 -0.0296  0.2259
 3506SOL     OW22153   4.706   3.022  11.055  0.1832  0.0771  0.0484
 3506SOL    HW122154   4.644   3.053  11.121 -1.2638  0.7833 -1.6358
 3506SOL    HW222155   0.003   2.937  11.086  0.1533  1.1838  3.1386
 3507SOL     OW22156   4.006   3.638   5.492  0.0091 -0.2914 -0.0041
 3507SOL    HW122157   3.917   3.666   5.470  0.7705  0.8654 -1.5630
 3507SOL    HW222158   3.992   3.544   5.506 -1.9594 -0.0141 -0.1693
 3508SOL     OW22159   4.389   3.986   8.251  0.6704 -0.2076 -0.0163
 3508SOL    HW122160   4.450   3.964   8.321  0.8090 -1.0728 -0.4071
 3508SOL    HW222161   4.317   4.019   8.305  1.8276  2.0083  0.1663
 3509SOL     OW22162   3.405   0.219   8.705 -0.7856 -0.1269 -0.6430
 3509SOL    HW122163   3.403   0.313   8.720 -0.2639 -0.2868  0.4406
 3509SOL    HW222164   3.355   0.188   8.781  1.1776 -0.0563  0.6681
 3510SOL     OW22165   0.408   2.163   2.443  0.1297 -0.2075  0.5206
 3510SOL    HW122166   0.354   2.236   2.412  1.0319  0.3089  0.1602
 3510SOL    HW222167   0.348   2.112   2.497  1.5503 -1.5726  0.7958
 3511SOL     OW22168   2.801   3.433   7.871 -0.2216 -0.4126 -0.0362
 3511SOL    HW122169   2.869   3.375   7.835 -0.0075 -0.4332  0.4047
 3511SOL    HW222170   2.775   3.482   7.793  0.3703 -0.5471 -0.3226
 3512SOL     OW22171   2.405   1.450   4.544 -0.7636 -0.0071  0.0352
 3512SOL    HW122172   2.402   1.528   4.600 -2.0054 -0.1768  0.1952
 3512SOL    HW222173   2.493   1.416   4.562 -0.5538  1.0778  1.0821
 3513SOL     OW22174   1.136   4.141  17.456  0.4494  0.4210 -0.0813
 3513SOL    HW122175   1.115   4.084  17.383 -0.7552 -0.7710  1.1921
 3513SOL    HW222176   1.050   4.180  17.470  0.1548 -0.9777  2.0376
 3514SOL     OW22177   1.713   0.497   4.627 -0.7683 -1.0531 -0.1149
 3514SOL    HW122178   1.621   0.491   4.650 -0.6632 -2.2145  0.0176
 3514SOL    HW222179   1.699   0.488   4.532  4.3676  0.3914 -1.0089
 3515SOL     OW22180   0.094   1.037   9.122 -0.4054 -0.0278 -0.1902
 3515SOL    HW122181   0.067   1.101   9.056  0.6260  1.6234  0.9772
 3515SOL    HW222182   0.184   1.064   9.142 -0.4390 -0.2533  0.2482
 3516SOL     OW22183   3.492   0.940   3.440  1.0160 -0.0975  0.3556
 3516SOL    HW122184   3.441   0.860   3.443 -0.1822  0.7237  1.7605
 3516SOL    HW222185   3.555   0.929   3.511  0.8584 -2.1906  0.1447
 3517SOL     OW22186   1.457   0.125   3.861  0.6576  0.1750  0.3384
 3517SOL    HW122187   1.391   0.087   3.802  2.1377 -1.3894 -0.2723
 3517SOL    HW222188   1.504   0.051   3.898 -0.2637  0.3140  1.7850
 3518SOL     OW22189   4.305   3.791   6.314  0.1933 -0.6818  1.0247
 3518SOL    HW122190   4.323   3.702   6.285 -0.8722 -0.4749 -0.2770
 3518SOL    HW222191   4.311   3.838   6.230 -1.1160  0.8488  1.7880
 3519SOL     OW22192   1.790   0.491   6.349 -0.1302  0.2532  0.5986
 3519SOL    HW122193   1.839   0.569   6.326 -0.9546  0.4427 -0.4986
 3519SOL    HW222194   1.834   0.429   6.291  1.2085  0.4414  1.4308
 3520SOL     OW22195   2.930   2.858  11.251  0.1483  0.2704 -0.3972
 3520SOL    HW122196   2.985   2.780  11.257  1.4546  1.2537  0.3934
 3520SOL    HW222197   2.879   2.845  11.331  1.6058 -0.5353  0.3910
 3521SOL     OW22198   2.056   4.295   7.545  0.2001 -0.4170  0.3930
 3521SOL    HW122199   2.096   4.365   7.597 -0.6939  0.5048 -0.1810
 3521SOL    HW222200   2.119   4.226   7.564  2.0821  1.1449 -0.1401
 3522SOL     OW22201   4.374   4.095   8.778  0.0965 -0.6036  0.0646
 3522SOL    HW122202   4.300   4.036   8.761  0.3574 -0.8719 -0.1305
 3522SOL    HW222203   4.419   4.047   8.848  1.1264 -1.7406 -1.3754
 3523SOL     OW22204   2.040   3.421   6.286 -0.3298 -0.5248 -0.0432
 3523SOL    HW122205   2.124   3.450   6.253  0.5643  0.0252  2.6925
 3523SOL    HW222206   2.019   3.488   6.352  2.2206 -0.4178  0.6437
 3524SOL     OW22207   0.490   4.012   0.388  0.3158  0.1356 -0.2757
 3524SOL    HW122208   0.426   3.975   0.448  2.1160 -1.6400  0.5487
 3524SOL    HW222209   0.472   4.106   0.393 -3.5797 -0.4162 -3.8184
 3525SOL     OW22210   1.368   0.241  17.234 -0.1328  0.3594  0.1308
 3525SOL    HW122211   1.418   0.314  17.197  1.3997  0.1049  1.6866
 3525SOL    HW222212   1.435   0.211  17.295 -2.7768 -1.6627  2.0324
 3526SOL     OW22213   3.065   3.800   4.187 -0.4318  0.2868  0.4989
 3526SOL    HW122214   3.071   3.725   4.246  2.2462  0.0510 -0.1084
 3526SOL    HW222215   2.993   3.771   4.131  0.5175 -1.6277  0.2893
 3527SOL     OW22216   3.421   0.650   9.575 -0.1413 -0.2716 -0.0832
 3527SOL    HW122217   3.453   0.724   9.522 -0.9419 -0.5064 -0.8901
 3527SOL    HW222218   3.437   0.679   9.665  0.1197  0.7567 -0.4583
 3528SOL     OW22219   3.661   0.578   5.247 -0.6636 -0.0879  0.2683
 3528SOL    HW122220   3.592   0.641   5.267  0.1891  0.6029  1.0706
 3528SOL    HW222221   3.674   0.541   5.334  0.4630  3.5856  1.6486
 3529SOL     OW22222   4.401   4.524  12.367  0.1716 -0.1833  0.2342
 3529SOL    HW122223   4.400   4.611  12.408 -3.3672 -0.5421  0.8379
 3529SOL    HW222224   4.449   4.536  12.285  1.3696 -1.6831  0.7022
 3530SOL     OW22225   1.577   0.190   9.386  0.1380 -0.2279 -0.3723
 3530SOL    HW122226   1.507   0.244   9.422  1.9940  0.8104  1.6366
 3530SOL    HW222227   1.545   0.100   9.397 -0.0352 -0.0116  0.8931
 3531SOL     OW22228   2.939   2.407   1.124  0.1372 -0.2571 -0.0683
 3531SOL    HW122229   3.007   2.451   1.074  1.0648  0.0540  1.4649
 3531SOL    HW222230   2.884   2.376   1.052  1.1541  1.1298 -1.4352
 3532SOL     OW22231   3.027   0.853   2.376 -0.1399 -0.6513  0.2939
 3532SOL    HW122232   3.044   0.946   2.390 -2.0513 -0.6336  2.6055
 3532SOL    HW222233   3.113   0.826   2.408  0.6867  0.0801 -1.3545
 3533SOL     OW22234   2.937   1.325   6.367 -0.4185  0.3478 -0.6360
 3533SOL    HW122235   2.892   1.346   6.285 -0.4432 -3.2246 -1.5386
 3533SOL    HW222236   2.861   1.336   6.425  1.0435 -0.5970  1.4284
 3534SOL     OW22237   4.391   1.304   5.242 -0.5328 -0.3344 -0.3465
 3534SOL    HW122238   4.307   1.347   5.257 -1.4411 -2.4052  0.4736
 3534SOL    HW222239   4.441   1.385   5.232  0.0986 -0.6946 -0.0878
 3535SOL     OW22240   3.745   3.493   2.567  0.2717  0.1874  0.1489
 3535SOL    HW122241   3.820   3.475   2.623  1.4030  1.5191 -0.9304
 3535SOL    HW222242   3.701   3.554   2.626  2.6675  0.0670  2.0713
 3536SOL     OW22243   2.727   3.651   3.301  0.0502 -0.7013  0.2972
 3536SOL    HW122244   2.666   3.577   3.301 -1.3462  0.4409  2.4721
 3536SOL    HW222245   2.785   3.610   3.365  1.3001  1.2094  0.4021
 3537SOL     OW22246   2.322   3.445   4.838  0.5182 -0.0067 -0.0801
 3537SOL    HW122247   2.397   3.470   4.892  1.7304  0.1057 -1.8415
 3537SOL    HW222248   2.367   3.369   4.800  0.5114 -0.1437  0.1822
 3538SOL     OW22249   4.321   4.518   8.063  0.0881  0.0471  0.1134
 3538SOL    HW122250   4.254   4.525   8.131 -0.0289  0.2620 -0.0260
 3538SOL    HW222251   4.392   4.559   8.112 -0.1750  1.3347 -0.5958
 3539SOL     OW22252   0.516   3.955   4.736  0.1492 -0.0459  0.2317
 3539SOL    HW122253   0.433   3.930   4.696 -1.2524 -0.3152  3.2729
 3539SOL    HW222254   0.565   3.995   4.664  0.2041 -1.8606 -0.7330
 3540SOL     OW22255   2.843   4.326   6.792 -0.2088  0.3417 -0.1954
 3540SOL    HW122256   2.839   4.415   6.756 -1.3368 -0.8934 -3.0975
 3540SOL    HW222257   2.770   4.285   6.746 -0.1036  1.4361 -1.3461
 3541SOL     OW22258   1.369   2.267   9.459 -0.1418  0.7130 -0.0165
 3541SOL    HW122259   1.389   2.216   9.538 -0.4969 -0.3995 -0.6427
 3541SOL    HW222260   1.344   2.351   9.496 -1.8120  0.0990  0.2847
 3542SOL     OW22261   4.274   3.505  13.970  0.0519  0.6399  0.3785
 3542SOL    HW122262   4.365   3.531  13.956  1.1113 -4.7503 -2.9877
 3542SOL    HW222263   4.281   3.409  13.973 -2.5089  0.5061  2.2553
 3543SOL     OW22264   0.568   3.589   3.406 -0.2343 -0.6414  0.5097
 3543SOL    HW122265   0.557   3.546   3.490 -1.6396 -0.4079  0.4483
 3543SOL    HW222266   0.560   3.684   3.420  1.9484 -0.2971 -0.4794
 3544SOL     OW22267   3.010   4.081   5.688 -0.1302 -0.5714 -0.4773
 3544SOL    HW122268   2.937   4.116   5.739 -0.1116  0.3211 -1.0691
 3544SOL    HW222269   3.045   4.025   5.758  0.7382  0.6982  0.1064
 3545SOL     OW22270   3.354   1.428   2.415  0.6375 -0.0553  0.5414
 3545SOL    HW122271   3.339   1.407   2.322 -0.8101  0.1183  0.7332
 3545SOL    HW222272   3.307   1.357   2.459 -2.3173  1.7155  0.2384
 3546SOL     OW22273   3.771   2.814  12.381 -0.0699  0.6767 -0.6334
 3546SOL    HW122274   3.866   2.830  12.383  0.2111 -1.0119 -0.6559
 3546SOL    HW222275   3.747   2.906  12.369  4.0239  2.1913  2.3773
 3547SOL     OW22276   1.455   3.556   6.759 -0.5443 -0.4995 -0.1325
 3547SOL    HW122277   1.423   3.604   6.836  1.2112 -0.3381  0.4782
 3547SOL    HW222278   1.450   3.624   6.692 -1.4101 -0.0343  0.3901
 3548SOL     OW22279   1.609   4.203  14.951 -0.2867 -0.2819  0.1078
 3548SOL    HW122280   1.677   4.228  15.014  1.5769  0.6360 -2.2700
 3548SOL    HW222281   1.533   4.239  14.997  0.0014  1.9163 -1.1529
 3549SOL     OW22282   3.033   0.726   2.141  0.3211 -0.1354  0.6420
 3549SOL    HW122283   3.022   0.787   2.213  1.4327  0.4147  0.3425
 3549SOL    HW222284   3.123   0.733   2.107  0.3294 -1.2175  0.4234
 3550SOL     OW22285   1.092   2.042  12.511  0.2560 -0.3139  0.6874
 3550SOL    HW122286   1.072   1.952  12.485 -0.6725  0.0799  0.0132
 3550SOL    HW222287   1.178   2.056  12.471  0.7314  1.0784  2.1852
 3551SOL     OW22288   2.246   1.718   4.084  0.1507 -0.5490  0.0947
 3551SOL    HW122289   2.293   1.776   4.023  1.0517 -1.4689 -0.0954
 3551SOL    HW222290   2.309   1.719   4.156 -0.1740 -1.2369  0.3744
 3552SOL     OW22291   3.962   0.021   6.923  0.0187  0.1415  0.0581
 3552SOL    HW122292   4.056   0.041   6.925  0.6223 -2.8437  1.0959
 3552SOL    HW222293   3.936   0.054   6.837 -2.4088  2.3492  1.6274
 3553SOL     OW22294   4.517   3.841   7.393 -0.3004  0.5875  0.5576
 3553SOL    HW122295   4.585   3.894   7.434  0.1904  0.4885 -0.1316
 3553SOL    HW222296   4.459   3.838   7.470 -0.6013 -3.7126  0.1731
 3554SOL     OW22297   3.165   0.094   7.155 -0.0305  0.3439  0.3004
 3554SOL    HW122298   3.108   0.171   7.145  0.2425  0.3264 -1.3013
 3554SOL    HW222299   3.107   0.023   7.183  1.1037 -0.7138 -0.0824
 3555SOL     OW22300   2.414   4.207   1.846 -0.6599 -0.7082  0.1726
 3555SOL    HW122301   2.349   4.161   1.900 -0.7093 -1.6523 -0.7132
 3555SOL    HW222302   2.485   4.144   1.859  0.0618  0.1627  0.4402
 3556SOL     OW22303   0.151   0.819   8.762 -0.1543  0.1845  0.3593
 3556SOL    HW122304   0.170   0.743   8.706 -1.7395  0.3661 -0.4328
 3556SOL    HW222305   0.153   0.776   8.848  1.5095 -1.2687 -0.3950
 3557SOL     OW22306   3.563   1.985   4.409 -0.0622 -0.1424  0.2813
 3557SOL    HW122307   3.588   2.033   4.488  1.5973 -0.9055  0.2340
 3557SOL    HW222308   3.512   1.913   4.447  0.1714 -2.0007 -2.9653
 3558SOL     OW22309   2.093   3.410   0.889 -0.2306 -0.0917 -0.6978
 3558SOL    HW122310   2.136   3.327   0.868 -1.7356 -1.4440  1.5312
 3558SOL    HW222311   2.075   3.440   0.800 -0.2986  1.8457 -0.0298
 3559SOL     OW22312   0.714   1.935   1.228 -0.7300  0.8611  0.6704
 3559SOL    HW122313   0.768   2.014   1.221  0.7713 -0.4412 -2.2162
 3559SOL    HW222314   0.748   1.886   1.303  3.1753  0.9908 -0.9678
 3560SOL     OW22315   0.372   2.442   1.423 -0.2047 -0.2267  0.2187
 3560SOL    HW122316   0.392   2.499   1.497  0.0330  1.5969 -1.2351
 3560SOL    HW222317   0.424   2.366   1.448  1.4251  0.1208 -2.1458
 3561SOL     OW22318   4.665   3.950   5.965  0.3035 -0.0539  0.4218
 3561SOL    HW122319   4.687   3.897   5.888 -0.4255 -1.4977  1.2013
 3561SOL    HW222320   4.728   4.021   5.954  0.5061  0.0685  2.3818
 3562SOL     OW22321   3.163   0.069   9.212  0.6583  0.4633  0.1465
 3562SOL    HW122322   3.246   0.023   9.223  0.8275  0.4443 -1.1629
 3562SOL    HW222323   3.187   0.162   9.212 -3.5443  1.5653  1.8818
 3563SOL     OW22324   0.020   0.859  13.453 -0.5294  0.0439 -0.0892
 3563SOL    HW122325   0.044   0.831  13.365 -1.6121 -0.0878 -0.3361
 3563SOL    HW222326   0.103   0.885  13.493 -1.8645  1.1106  2.0150
 3564SOL     OW22327   2.610   4.520   2.136  0.1050  0.2302  0.1325
 3564SOL    HW122328   2.552   4.450   2.168 -0.8066 -0.2530 -2.6411
 3564SOL    HW222329   2.619   4.494   2.045  0.9634  0.8394  0.0425
 3565SOL     OW22330   3.359   3.136   1.101 -0.6936  0.6948 -0.8742
 3565SOL    HW122331   3.351   3.217   1.150  2.0074  2.5857 -3.5816
 3565SOL    HW222332   3.451   3.152   1.080  0.0673 -1.0258  1.1053
 3566SOL     OW22333   3.282   0.224  13.297  0.0764 -0.8414  0.1947
 3566SOL    HW122334   3.377   0.217  13.292  0.0366 -0.3657 -1.4133
 3566SOL    HW222335   3.265   0.215  13.203 -0.2686 -0.7440  0.2480
 3567SOL     OW22336   4.616   1.861   2.844  0.6455  0.2642  1.1305
 3567SOL    HW122337   4.649   1.787   2.794  0.8372  0.4896  0.9211
 3567SOL    HW222338   4.697   1.901   2.876  0.2287  1.8596  0.1987
 3568SOL     OW22339   2.932   1.734  13.963  0.0343  0.5431 -0.4069
 3568SOL    HW122340   2.966   1.796  14.027  0.6684 -0.7458  0.5064
 3568SOL    HW222341   2.863   1.693  14.015  0.6702  3.2838  2.5527
 3569SOL     OW22342   0.895   2.844  13.462 -0.7358 -0.0243  0.4977
 3569SOL    HW122343   0.861   2.920  13.415 -1.5354 -1.0731 -0.6083
 3569SOL    HW222344   0.868   2.862  13.552  0.2892 -0.3340  0.8689
 3570SOL     OW22345   1.678   3.913   5.871  0.0108 -0.6000  0.2832
 3570SOL    HW122346   1.633   3.845   5.822  2.2206 -0.2297 -2.2449
 3570SOL    HW222347   1.763   3.872   5.883 -0.3354 -1.1573  0.7920
 3571SOL     OW22348   0.163   3.487   8.156 -0.1182  0.3972 -0.1488
 3571SOL    HW122349   0.088   3.466   8.212 -0.6443  3.4591  0.2690
 3571SOL    HW222350   0.215   3.408   8.175  1.2265  1.9221  2.4369
 3572SOL     OW22351   1.916   4.346   1.998 -0.5467  0.2175 -0.2563
 3572SOL    HW122352   1.901   4.440   2.003  0.0452  0.3923 -1.6226
 3572SOL    HW222353   1.880   4.326   1.911  0.7081 -0.3737 -0.6471
 3573SOL     OW22354   2.938   0.760   6.403 -0.3717  0.1594 -0.0474
 3573SOL    HW122355   2.952   0.853   6.384  3.9951 -1.1367 -3.1669
 3573SOL    HW222356   2.999   0.739   6.473  0.9271 -1.9135 -1.7947
 3574SOL     OW22357   0.825   2.085   0.474 -0.3299 -0.1239  0.6950
 3574SOL    HW122358   0.755   2.122   0.420 -0.5192 -1.3997  0.0715
 3574SOL    HW222359   0.766   2.040   0.535  0.4616 -0.9893  0.8254
 3575SOL     OW22360   2.535   0.125  10.121  0.1885  0.0914  0.8095
 3575SOL    HW122361   2.601   0.193  10.122 -0.1434  0.4290  0.0523
 3575SOL    HW222362   2.454   0.171  10.099 -1.1799 -3.7927 -2.4175
 3576SOL     OW22363   0.870   4.473   2.929 -0.4653  0.0829 -0.6735
 3576SOL    HW122364   0.945   4.533   2.925  0.2362 -0.5368  2.7255
 3576SOL    HW222365   0.861   4.457   2.835  0.3613  1.2842 -0.9625
 3577SOL     OW22366   1.486   2.849   4.234  0.1374  0.5561  0.5579
 3577SOL    HW122367   1.394   2.856   4.257  0.5061 -0.3400  2.2623
 3577SOL    HW222368   1.515   2.792   4.305  3.8870  0.1853 -1.2102
 3578SOL     OW22369   0.581   1.425   8.214 -0.9054  0.2076 -0.3610
 3578SOL    HW122370   0.487   1.405   8.219 -1.0708  1.0311 -0.0673
 3578SOL    HW222371   0.569   1.501   8.157  2.5260  1.8070  1.0411
 3579SOL     OW22372   4.436   0.049   2.328 -0.3743 -0.9060 -0.2701
 3579SOL    HW122373   4.381   0.126   2.314 -0.4535 -0.3831  2.9241
 3579SOL    HW222374   4.398   4.719   2.268 -0.1320 -0.8755 -0.4578
 3580SOL     OW22375   0.753   1.968   5.947 -0.0837  0.1999 -0.0770
 3580SOL    HW122376   0.778   2.041   5.892  0.4159 -0.2501 -0.4501
 3580SOL    HW222377   0.722   2.017   6.023  0.1643 -0.5943  0.5440
 3581SOL     OW22378   2.716   2.704  17.521  0.0623  0.1519  0.2551
 3581SOL    HW122379   2.640   2.649  17.501  0.4503 -0.7858  1.3202
 3581SOL    HW222380   2.675   2.758  17.588 -0.0941  0.5519 -0.1677
 3582SOL     OW22381   3.688   0.091  12.704  0.1924 -0.1798 -0.2358
 3582SOL    HW122382   3.633   0.115  12.630 -1.4865 -1.0922  0.7102
 3582SOL    HW222383   3.636   0.030  12.757 -1.1894  1.6221  0.4835
 3583SOL     OW22384   0.959   2.936   2.606  0.6658  0.5372  0.1888
 3583SOL    HW122385   0.882   2.992   2.596  0.7644  1.0647  2.5117
 3583SOL    HW222386   0.926   2.852   2.573 -1.2538  0.5809  1.9551
 3584SOL     OW22387   1.463   0.191  13.589 -0.5735  0.6400  0.5733
 3584SOL    HW122388   1.401   0.134  13.542 -1.0634  1.2949  0.4366
 3584SOL    HW222389   1.399   0.251  13.626 -1.5811 -1.8794  2.9048
 3585SOL     OW22390   3.500   4.017  13.055 -0.5452  0.0833 -0.2581
 3585SOL    HW122391   3.530   4.064  13.134 -0.4648 -0.9796  0.3437
 3585SOL    HW222392   3.493   4.094  12.998  0.0946 -0.8357 -1.5724
 3586SOL     OW22393   2.959   4.698  13.365  0.1191  0.1383  0.4423
 3586SOL    HW122394   2.933   4.611  13.335 -0.5053 -0.0157  1.4390
 3586SOL    HW222395   3.033   4.670  13.418 -0.9131 -0.2250  1.6833
 3587SOL     OW22396   2.427   3.559  10.866  0.6080  0.5516  0.0658
 3587SOL    HW122397   2.344   3.594  10.835  0.2071 -1.0536 -0.6288
 3587SOL    HW222398   2.470   3.638  10.898 -0.4310  1.8025 -1.6031
 3588SOL     OW22399   1.569   3.877  16.771  0.3888 -0.0352 -0.2670
 3588SOL    HW122400   1.543   3.968  16.785 -0.1583 -0.1646 -0.4280
 3588SOL    HW222401   1.630   3.846  16.839  0.8877 -0.7327 -1.0272
 3589SOL     OW22402   4.165   1.308   3.614 -0.2899 -0.3913 -0.2961
 3589SOL    HW122403   4.113   1.228   3.600 -2.3081  0.9071 -0.3046
 3589SOL    HW222404   4.253   1.285   3.586  1.7079  1.1581  4.7525
 3590SOL     OW22405   0.416   3.792   6.168 -0.4339  0.0860  0.0890
 3590SOL    HW122406   0.389   3.877   6.133 -2.9151 -0.9541 -0.5245
 3590SOL    HW222407   0.342   3.769   6.225 -0.5658 -1.4099 -0.6922
 3591SOL     OW22408   2.790   3.644  15.827  0.0057 -0.0620  0.3988
 3591SOL    HW122409   2.812   3.660  15.736  0.2412 -0.4623  0.3823
 3591SOL    HW222410   2.848   3.712  15.860 -0.7771  1.3997 -1.2784
 3592SOL     OW22411   2.903   0.154   8.931 -0.1946  0.0843  0.2365
 3592SOL    HW122412   2.916   0.071   8.977 -3.1881  0.0998  1.0777
 3592SOL    HW222413   2.906   0.209   9.009  1.3769 -0.9401  0.9004
 3593SOL     OW22414   2.975   4.360   9.169 -0.3655 -0.3973  0.7169
 3593SOL    HW122415   3.016   4.283   9.207  2.6767  1.6924  1.7082
 3593SOL    HW222416   2.912   4.373   9.240  0.1845  1.0691  0.9487
 3594SOL     OW22417   2.845   0.596   8.208 -0.1647 -0.1957  0.1011
 3594SOL    HW122418   2.801   0.680   8.196  0.1375 -0.1874 -0.8982
 3594SOL    HW222419   2.890   0.601   8.292  1.0268  0.6480 -0.5944
 3595SOL     OW22420   0.952   0.970  13.741  0.3307  0.2963 -0.3774
 3595SOL    HW122421   0.986   0.895  13.692 -0.8519 -1.0385  0.8351
 3595SOL    HW222422   1.018   1.039  13.743 -0.7240  1.2821  0.1507
 3596SOL     OW22423   4.020   2.993   3.559 -0.1057 -0.0601 -0.0793
 3596SOL    HW122424   3.940   3.025   3.518  0.0485  3.6025  2.4447
 3596SOL    HW222425   4.072   3.072   3.540 -0.7241 -0.1274 -2.0738
 3597SOL     OW22426   0.819   1.009   7.087 -0.2264 -0.1726 -0.0266
 3597SOL    HW122427   0.879   1.080   7.108  1.1193 -0.2360 -3.6109
 3597SOL    HW222428   0.779   1.053   7.011  0.4734 -0.4358 -0.5503
 3598SOL     OW22429   0.609   2.186   0.328  0.0363  0.2387  0.0825
 3598SOL    HW122430   0.545   2.249   0.292  0.3443  0.8083  0.5234
 3598SOL    HW222431   0.566   2.107   0.297 -0.7823  1.0994 -1.0031
 3599SOL     OW22432   0.820   3.106   6.292 -0.3721  0.3411 -0.3963
 3599SOL    HW122433   0.889   3.081   6.353  0.4022  1.9406 -0.6077
 3599SOL    HW222434   0.881   3.134   6.224  1.4061 -1.8713  0.2696
 3600SOL     OW22435   1.291   0.108   6.244 -0.3860  0.3606 -0.0492
 3600SOL    HW122436   1.346   0.112   6.322  2.2263  2.3187 -1.9878
 3600SOL    HW222437   1.276   0.014   6.229 -0.5888  0.1772  1.3056
 3601SOL     OW22438   4.079   4.691  11.187  0.3343  0.6861  0.1791
 3601SOL    HW122439   4.044   4.630  11.122  0.3420 -0.7200  1.5046
 3601SOL    HW222440   4.060   4.647  11.269  0.2267 -1.5255 -1.0239
 3602SOL     OW22441   3.678   3.446   3.801  0.1451  0.2731  0.5933
 3602SOL    HW122442   3.636   3.364   3.776 -2.0842  0.9868  1.9748
 3602SOL    HW222443   3.752   3.413   3.852  0.7902  1.4875  0.4458
 3603SOL     OW22444   0.623   0.577   6.037  0.2019  0.5576 -0.1765
 3603SOL    HW122445   0.656   0.663   6.063  0.6367  0.5496 -0.7116
 3603SOL    HW222446   0.701   0.544   5.994 -0.6853 -2.2985  0.4392
 3604SOL     OW22447   0.349   3.660  15.881  0.4993 -0.0806 -0.3487
 3604SOL    HW122448   0.379   3.732  15.825 -0.3855  1.7641  1.5739
 3604SOL    HW222449   0.261   3.687  15.905  0.5875 -2.2815  2.5468
 3605SOL     OW22450   1.635   0.833   6.931  0.5317  0.2840  0.2253
 3605SOL    HW122451   1.717   0.809   6.974  0.7679 -0.3762 -0.5819
 3605SOL    HW222452   1.655   0.851   6.839 -1.2688  0.3480 -0.1536
 3606SOL     OW22453   1.462   1.581  10.878 -0.0206  0.3155 -0.0942
 3606SOL    HW122454   1.446   1.491  10.849  1.3355 -0.3680  1.2532
 3606SOL    HW222455   1.373   1.614  10.892 -0.5748 -1.3869  0.4788
 3607SOL     OW22456   0.529   1.514   1.154  0.0362  0.6376  0.1941
 3607SOL    HW122457   0.523   1.609   1.143 -2.6889  0.1387 -2.4237
 3607SOL    HW222458   0.624   1.504   1.155  0.1742  2.1167  2.3588
 3608SOL     OW22459   0.428   1.034   9.509 -0.2685  0.0233 -0.3095
 3608SOL    HW122460   0.354   1.068   9.559  0.3729  1.0356 -0.0595
 3608SOL    HW222461   0.465   0.983   9.581  0.1699  0.7374 -0.0284
 3609SOL     OW22462   4.292   4.392   4.748  0.1256 -0.2502  0.2324
 3609SOL    HW122463   4.207   4.436   4.759  0.6336  0.3220  1.8837
 3609SOL    HW222464   4.343   4.441   4.813  0.8369  0.0095 -0.5196
 3610SOL     OW22465   1.124   1.857   6.885 -0.4370  0.1521  0.0929
 3610SOL    HW122466   1.189   1.874   6.953 -1.1672  1.9205  0.3273
 3610SOL    HW222467   1.066   1.795   6.929  0.0890  0.4395  1.1966
 3611SOL     OW22468   2.267   2.361   4.856 -0.2105  0.0703  0.4955
 3611SOL    HW122469   2.184   2.351   4.811  0.0105 -0.1150  0.1244
 3611SOL    HW222470   2.338   2.369   4.791 -1.4262 -2.8523 -1.2012
 3612SOL     OW22471   0.229   3.422   4.291  0.3545  0.2528  0.1871
 3612SOL    HW122472   0.155   3.372   4.255  1.6648 -2.7518  1.6325
 3612SOL    HW222473   0.277   3.423   4.208  1.4389  2.6240  0.8478
 3613SOL     OW22474   0.833   1.092   3.171  0.2634 -0.4658  0.1318
 3613SOL    HW122475   0.839   1.062   3.081  0.8689  0.8385 -0.2765
 3613SOL    HW222476   0.761   1.044   3.211 -2.0032  2.3929 -0.5713
 3614SOL     OW22477   4.043   3.516  15.373 -0.2718  0.5533 -0.4373
 3614SOL    HW122478   4.024   3.604  15.340 -1.6919 -0.4740 -2.3529
 3614SOL    HW222479   4.119   3.523  15.431  0.8414  0.2614 -1.8730
 3615SOL     OW22480   0.011   4.195   8.806  0.5695  0.6511  0.4317
 3615SOL    HW122481   0.025   4.266   8.869 -3.5725  2.3911 -0.6199
 3615SOL    HW222482   0.098   4.177   8.771  0.6918 -0.4974  1.3281
 3616SOL     OW22483   2.196   0.853   7.160  0.2726 -0.1944  0.5705
 3616SOL    HW122484   2.226   0.943   7.150  1.0146 -0.3619  1.3075
 3616SOL    HW222485   2.199   0.852   7.255  1.6927 -3.6418  0.5019
 3617SOL     OW22486   4.172   1.875   5.638  0.2658 -0.2900 -0.1247
 3617SOL    HW122487   4.113   1.950   5.650 -0.3610 -0.8140  0.0347
 3617SOL    HW222488   4.174   1.846   5.729  1.3622 -0.3668 -0.1735
 3618SOL     OW22489   3.790   1.616   2.720 -0.3703  0.0996  0.7632
 3618SOL    HW122490   3.871   1.566   2.727  0.7814  2.0279  0.9706
 3618SOL    HW222491   3.759   1.588   2.634 -0.2572 -1.2414  1.1566
 3619SOL     OW22492   2.773   4.059   9.313  0.3345  0.0338 -0.0901
 3619SOL    HW122493   2.745   4.083   9.402 -0.5015 -2.2593  0.2677
 3619SOL    HW222494   2.705   3.993   9.302  2.0617 -1.3788 -2.1757
 3620SOL     OW22495   0.923   3.128   1.958 -0.3061 -0.3471 -0.3093
 3620SOL    HW122496   0.964   3.193   2.015  0.1087 -1.8059  1.0311
 3620SOL    HW222497   0.996   3.069   1.941  0.8257  0.5818  1.3024
 3621SOL     OW22498   0.318   2.205   6.404 -0.0903  0.0806 -0.3144
 3621SOL    HW122499   0.362   2.152   6.470  1.1855  1.8028  0.1941
 3621SOL    HW222500   0.371   2.284   6.403  0.6302 -0.4132 -0.8392
 3622SOL     OW22501   1.031   2.464   4.456 -0.1266  0.0555  0.0949
 3622SOL    HW122502   1.022   2.370   4.471  1.6337  0.2123  2.2292
 3622SOL    HW222503   0.948   2.498   4.488  0.8904  2.0691  0.6618
 3623SOL     OW22504   4.466   2.438   6.904  0.3494 -0.4411  0.1390
 3623SOL    HW122505   4.418   2.364   6.868 -0.5403 -0.6259  1.6960
 3623SOL    HW222506   4.514   2.395   6.975  3.3377  1.6888 -0.5356
 3624SOL     OW22507   1.680   3.388   6.865  0.3841 -0.1105  0.2005
 3624SOL    HW122508   1.617   3.460   6.861 -0.2634 -0.6786  0.0039
 3624SOL    HW222509   1.654   3.365   6.775  2.2115  0.8772 -0.5869
 3625SOL     OW22510   3.393   4.141  16.808  0.7398  0.2175  0.1955
 3625SOL    HW122511   3.446   4.171  16.734  0.4563 -2.0875 -0.9775
 3625SOL    HW222512   3.377   4.053  16.772 -0.4285  0.2062  0.7738
 3626SOL     OW22513   2.224   3.906  11.033 -0.2132 -0.2713 -0.0141
 3626SOL    HW122514   2.313   3.877  11.014 -0.1724  0.9177 -1.6166
 3626SOL    HW222515   2.257   3.974  11.092 -0.3252 -0.9148  0.7896
 3627SOL     OW22516   4.371   3.689  10.814  0.1709 -0.6393  0.2288
 3627SOL    HW122517   4.452   3.641  10.794  1.4929  1.4324  0.6574
 3627SOL    HW222518   4.407   3.768  10.854  0.2878 -0.5474 -0.0614
 3628SOL     OW22519   4.560   0.702  14.630 -1.0665  0.4480  0.2906
 3628SOL    HW122520   4.484   0.654  14.664 -1.0573 -1.2863 -2.0938
 3628SOL    HW222521   4.596   0.643  14.563  1.2443  1.4007  0.7003
 3629SOL     OW22522   0.358   1.417   7.876 -0.4488  0.5189  0.5030
 3629SOL    HW122523   0.281   1.405   7.821 -0.2249  0.1525  0.2678
 3629SOL    HW222524   0.324   1.422   7.965  0.9760  1.0526  1.0359
 3630SOL     OW22525   2.325   3.647   8.527 -0.3387  0.0017  0.3684
 3630SOL    HW122526   2.413   3.671   8.497 -0.9212  1.8218  0.0941
 3630SOL    HW222527   2.338   3.563   8.571 -1.0102  1.1673  2.7550
 3631SOL     OW22528   0.210   0.691   5.293 -0.0566  0.1269  0.8318
 3631SOL    HW122529   0.134   0.657   5.245  0.5366  1.6814 -1.2425
 3631SOL    HW222530   0.217   0.635   5.370 -2.4639  1.2051  1.8065
 3632SOL     OW22531   2.529   1.988   1.984 -0.8678  0.0063  0.0940
 3632SOL    HW122532   2.448   1.946   2.011 -0.7785 -1.6273 -2.2169
 3632SOL    HW222533   2.568   2.011   2.069  1.3155 -0.5920 -0.7505
 3633SOL     OW22534   2.946   2.558  15.460 -0.4744  0.1244 -0.0892
 3633SOL    HW122535   2.927   2.642  15.417 -1.2157 -0.8687 -1.7245
 3633SOL    HW222536   2.873   2.555  15.522  1.0802 -0.2841  1.6855
 3634SOL     OW22537   4.626   2.818   6.770  0.5312 -0.0851 -0.0638
 3634SOL    HW122538   4.544   2.859   6.742  0.6657 -0.4402 -0.9746
 3634SOL    HW222539   4.667   2.897   6.806  2.7461 -0.9963 -0.5712
 3635SOL     OW22540   3.376   2.406   1.467  0.2656 -0.2953  0.2586
 3635SOL    HW122541   3.334   2.414   1.382 -0.8038 -2.7958  0.5418
 3635SOL    HW222542   3.418   2.491   1.469  0.0633 -0.2010  0.5716
 3636SOL     OW22543   4.174   0.331   5.204 -0.0299  0.1867  0.7463
 3636SOL    HW122544   4.154   0.251   5.253 -1.5952 -1.2293 -2.2142
 3636SOL    HW222545   4.168   0.406   5.264  0.4498  0.8877 -0.0809
 3637SOL     OW22546   4.626   2.633   5.156 -0.6183  0.2797 -0.0657
 3637SOL    HW122547   4.606   2.659   5.245 -0.6480  0.2342 -0.0590
 3637SOL    HW222548   4.576   2.552   5.147 -0.6444  0.2929 -0.0366
 3638SOL     OW22549   3.736   3.179  14.256  0.2446 -0.7446 -0.3289
 3638SOL    HW122550   3.674   3.222  14.197  0.5399  1.8081  1.2092
 3638SOL    HW222551   3.744   3.099  14.204 -0.0444 -1.1213  0.2150
 3639SOL     OW22552   4.074   2.879   3.049  0.6846  0.0756 -0.5322
 3639SOL    HW122553   4.138   2.943   3.081  0.2067 -0.1472  0.8873
 3639SOL    HW222554   4.048   2.843   3.134 -0.1820  1.6164 -0.1514
 3640SOL     OW22555   0.952   1.224   7.168 -0.3102  0.4338  0.2112
 3640SOL    HW122556   0.923   1.305   7.125 -0.9454 -0.6183 -1.3214
 3640SOL    HW222557   0.956   1.245   7.262 -0.4336 -0.9855  0.5296
 3641SOL     OW22558   3.732   3.586   5.013 -0.7358  0.0582 -0.3398
 3641SOL    HW122559   3.739   3.649   5.085  0.6392 -0.2315 -0.2235
 3641SOL    HW222560   3.765   3.646   4.946 -0.7100  0.6351  0.1902
 3642SOL     OW22561   2.556   1.254   8.629  0.6520 -0.2730  0.1098
 3642SOL    HW122562   2.462   1.258   8.649  0.1044  4.5735 -3.3693
 3642SOL    HW222563   2.586   1.191   8.694 -0.7117 -0.3901  0.6457
 3643SOL     OW22564   4.065   2.007   0.117  0.0984  0.5672 -0.4985
 3643SOL    HW122565   4.154   1.985   0.087  0.7411  2.0990  0.2825
 3643SOL    HW222566   4.055   1.976   0.206 -2.6953  2.0804 -0.2927
 3644SOL     OW22567   1.059   3.941   9.912 -0.1438 -0.4860 -0.0717
 3644SOL    HW122568   0.992   4.002   9.942 -0.4026 -1.2307  0.8506
 3644SOL    HW222569   1.012   3.858   9.898 -1.0219 -0.1093  0.6747
 3645SOL     OW22570   1.655   3.615   3.747 -0.3516 -0.0658 -0.0587
 3645SOL    HW122571   1.609   3.698   3.756  1.6894  1.0401  0.1753
 3645SOL    HW222572   1.727   3.627   3.809 -0.5642  1.5287 -0.1418
 3646SOL     OW22573   3.039   2.189   0.451  0.4504  0.2022  0.0247
 3646SOL    HW122574   3.008   2.168   0.539  0.6560 -2.7753 -0.6199
 3646SOL    HW222575   2.956   2.186   0.404  0.4896  0.5877 -0.0690
 3647SOL     OW22576   4.247   3.604   8.757 -0.4076  0.3066 -0.1154
 3647SOL    HW122577   4.152   3.593   8.754 -0.4331 -0.0541  2.1907
 3647SOL    HW222578   4.274   3.584   8.668 -0.1805  0.7932 -0.1535
 3648SOL     OW22579   2.429   3.958   8.342 -0.0327  0.2288  0.5706
 3648SOL    HW122580   2.509   4.009   8.352  0.2223  0.1855 -1.2629
 3648SOL    HW222581   2.471   3.890   8.288  2.3820 -0.9404  3.9454
 3649SOL     OW22582   2.313   4.023  12.478  0.4989 -0.3044  0.7776
 3649SOL    HW122583   2.227   3.990  12.452 -0.0372  0.6241  1.3491
 3649SOL    HW222584   2.365   3.944  12.463  0.5047 -0.1685  0.0610
 3650SOL     OW22585   1.430   3.367  17.621 -0.5929 -0.0795  0.0279
 3650SOL    HW122586   1.373   3.380  17.697 -0.0591  0.3994  0.3406
 3650SOL    HW222587   1.515   3.381  17.663 -0.6041 -0.3773  0.1523
 3651SOL     OW22588   2.863   3.399   6.472  0.2481  0.0131 -0.1668
 3651SOL    HW122589   2.777   3.420   6.436 -0.9087  0.0775  2.6605
 3651SOL    HW222590   2.840   3.358   6.555 -0.4785 -1.9335 -1.3300
 3652SOL     OW22591   1.576   0.244   6.269  0.3627 -0.3687  0.2419
 3652SOL    HW122592   1.594   0.242   6.175  1.0803  2.2630  0.3123
 3652SOL    HW222593   1.515   0.316   6.284  0.2072 -0.5633  0.5468
 3653SOL     OW22594   1.278   1.092  16.911 -0.3615  0.3040 -0.1223
 3653SOL    HW122595   1.194   1.116  16.871  0.5880 -0.8380 -2.7836
 3653SOL    HW222596   1.279   0.998  16.894  0.3434  0.4845 -1.0230
 3654SOL     OW22597   1.493   4.461  10.229  0.4058  0.4561  0.2017
 3654SOL    HW122598   1.442   4.484  10.307  2.6117  0.8965  1.5228
 3654SOL    HW222599   1.565   4.415  10.271 -1.2814 -0.8900  1.6610
 3655SOL     OW22600   3.761   0.802   7.909  0.1775 -0.2577 -0.0862
 3655SOL    HW122601   3.826   0.747   7.865 -0.6272  0.2471 -1.8964
 3655SOL    HW222602   3.681   0.751   7.905 -2.0483  3.2151  0.2199
 3656SOL     OW22603   1.007   1.596   3.117 -0.1821  0.4030 -0.2141
 3656SOL    HW122604   0.951   1.667   3.147 -2.1048 -1.8841  1.6547
 3656SOL    HW222605   0.951   1.553   3.053 -0.0371  1.1935 -0.8754
 3657SOL     OW22606   0.187   3.637   9.041  0.8023 -0.2483 -0.3348
 3657SOL    HW122607   0.231   3.660   9.123  0.9041 -0.6891 -0.2651
 3657SOL    HW222608   0.234   3.684   8.972 -1.8938  1.6348 -0.8689
 3658SOL     OW22609   2.955   4.279  12.743 -0.7202  0.3976 -0.2070
 3658SOL    HW122610   2.973   4.371  12.724 -0.6649 -0.0187 -2.2033
 3658SOL    HW222611   2.888   4.259  12.678 -0.3927 -1.1736 -0.0863
 3659SOL     OW22612   2.154   2.682   5.013 -0.5310 -0.6298 -0.0828
 3659SOL    HW122613   2.085   2.739   5.045  1.6769  1.9167  0.1695
 3659SOL    HW222614   2.096   2.625   4.963  0.2766 -1.1647 -0.4150
 3660SOL     OW22615   4.624   1.704   5.590 -0.4256 -0.3528  0.6689
 3660SOL    HW122616   4.571   1.628   5.566 -0.6812  0.2385 -0.6613
 3660SOL    HW222617   4.596   1.718   5.681 -0.0177  2.9710  0.3014
 3661SOL     OW22618   4.099   1.566   8.165 -0.2108 -0.2382  0.1372
 3661SOL    HW122619   4.092   1.479   8.205 -0.3533 -0.7166 -0.9211
 3661SOL    HW222620   4.019   1.609   8.195  1.1903  1.7715  0.9571
 3662SOL     OW22621   3.855   3.157   6.465 -0.3832  0.4982 -0.8218
 3662SOL    HW122622   3.770   3.122   6.437  0.1205 -0.9147 -0.6023
 3662SOL    HW222623   3.908   3.078   6.459  0.1401  0.7325  1.0426
 3663SOL     OW22624   1.374   0.497   3.495  0.0458 -0.2565 -0.5764
 3663SOL    HW122625   1.395   0.409   3.527  0.3536  0.3983  1.0204
 3663SOL    HW222626   1.282   0.518   3.508  0.1593  0.3886 -0.8075
 3664SOL     OW22627   0.353   1.595   5.407  0.4237  0.0441 -0.1816
 3664SOL    HW122628   0.395   1.596   5.493  0.1497  0.9541 -0.0551
 3664SOL    HW222629   0.278   1.649   5.431  0.9210  0.0643  1.3293
 3665SOL     OW22630   0.419   1.998  16.501  0.5075  0.4289  0.2726
 3665SOL    HW122631   0.467   2.013  16.420  0.1132  0.3802  0.0321
 3665SOL    HW222632   0.447   1.908  16.514 -0.1533  0.2447  0.3722
 3666SOL     OW22633   4.120   4.531   7.804  0.7001 -0.0967 -0.0567
 3666SOL    HW122634   4.032   4.513   7.838 -0.2344 -1.4518 -3.1410
 3666SOL    HW222635   4.176   4.515   7.879  0.4529 -2.0784 -0.3001
 3667SOL     OW22636   4.627   4.337   4.851  0.2698 -0.7416  0.0144
 3667SOL    HW122637   4.589   4.294   4.928  0.6418  0.3888  0.8231
 3667SOL    HW222638   4.598   4.428   4.860  3.0575 -0.0455  2.0662
 3668SOL     OW22639   1.041   0.286  11.334 -0.1432  0.3330  0.4058
 3668SOL    HW122640   1.134   0.309  11.337 -0.1347  0.4430 -0.4936
 3668SOL    HW222641   1.050   0.208  11.388 -1.8307 -0.4141 -0.4153
 3669SOL     OW22642   3.165   2.358   7.794 -0.2795  0.4201  0.3126
 3669SOL    HW122643   3.136   2.447   7.812 -1.1466 -0.0937  1.4107
 3669SOL    HW222644   3.208   2.357   7.708  0.0462 -1.0130  0.4861
 3670SOL     OW22645   3.002   0.380   8.280  0.3439 -0.2114 -0.1187
 3670SOL    HW122646   2.989   0.291   8.247  0.1562  0.5179 -2.0248
 3670SOL    HW222647   2.951   0.429   8.216  0.3044  1.2969  1.0687
 3671SOL     OW22648   1.057   2.285   8.725 -0.6321  0.0719  0.1558
 3671SOL    HW122649   1.140   2.308   8.683 -2.8110  3.3453 -2.4111
 3671SOL    HW222650   1.062   2.305   8.818 -0.5044 -0.6020  0.2912
 3672SOL     OW22651   0.882   0.320   4.647  0.2358  0.4728  0.4417
 3672SOL    HW122652   0.857   0.359   4.562  0.3662 -2.6339 -1.0030
 3672SOL    HW222653   0.955   0.270   4.613 -0.8180 -0.1707 -0.9080
 3673SOL     OW22654   0.375   2.188   3.872 -0.0657 -0.1267  0.7957
 3673SOL    HW122655   0.282   2.166   3.882 -0.7753  2.5091 -0.0070
 3673SOL    HW222656   0.409   2.183   3.961 -0.0324 -1.1150  0.7250
 3674SOL     OW22657   0.561   1.140  14.602  0.0065  0.0353 -0.0783
 3674SOL    HW122658   0.597   1.089  14.675 -0.9496  0.8076  0.9149
 3674SOL    HW222659   0.608   1.120  14.521 -0.6806  0.2262 -0.5201
 3675SOL     OW22660   0.074   0.944   5.217  0.5260 -0.1043  0.2209
 3675SOL    HW122661   0.128   0.869   5.242 -2.4617 -2.6154 -0.8629
 3675SOL    HW222662   0.120   1.017   5.258  0.9394 -0.9422  1.2656
 3676SOL     OW22663   3.678   0.201   6.409 -0.5252  0.4723  0.1055
 3676SOL    HW122664   3.723   0.228   6.330  1.3675  0.1374  1.0693
 3676SOL    HW222665   3.591   0.230   6.381 -0.9796  1.4280  2.5020
 3677SOL     OW22666   0.672   2.935  14.717  0.3193 -0.0882  0.4897
 3677SOL    HW122667   0.635   2.855  14.754 -1.6484  1.3467  1.6045
 3677SOL    HW222668   0.697   2.911  14.627  2.4359  0.1317  1.0188
 3678SOL     OW22669   4.575   2.845   3.449  0.0376  0.2714 -0.4585
 3678SOL    HW122670   4.647   2.857   3.511 -1.9005 -0.1558  1.9019
 3678SOL    HW222671   4.618   2.850   3.364 -2.0878 -0.4483 -1.5898
 3679SOL     OW22672   0.092   2.269   5.320  0.3003  0.0357  0.3177
 3679SOL    HW122673   0.007   2.272   5.276  1.2180 -0.6016 -1.5033
 3679SOL    HW222674   0.144   2.326   5.263  0.9296 -2.0225 -1.1770
 3680SOL     OW22675   1.067   2.329  16.600  0.4049  0.2523  0.3723
 3680SOL    HW122676   1.124   2.273  16.653  0.3072 -0.3073 -0.1092
 3680SOL    HW222677   1.127   2.371  16.538 -0.9626  1.7585  0.0751
 3681SOL     OW22678   0.893   1.466   2.218 -0.8538  0.5826 -0.8598
 3681SOL    HW122679   0.894   1.561   2.229 -0.2419  0.5124 -0.3172
 3681SOL    HW222680   0.987   1.450   2.216 -0.9815 -0.4815  1.7727
 3682SOL     OW22681   4.225   2.673   3.961  0.1452 -0.0702  0.3180
 3682SOL    HW122682   4.139   2.645   3.930  0.9364 -1.7190 -0.3655
 3682SOL    HW222683   4.208   2.765   3.980 -0.6776 -0.4261  1.2952
 3683SOL     OW22684   1.961   4.593  10.630  0.3492  0.1204  0.0233
 3683SOL    HW122685   1.883   4.631  10.590 -0.8052 -2.4433 -0.1276
 3683SOL    HW222686   2.023   4.615  10.560  1.0127  1.8901  1.1541
 3684SOL     OW22687   3.546   2.085   5.807  0.0098  0.5509 -0.3100
 3684SOL    HW122688   3.586   2.058   5.890  2.5232  4.6999 -0.2015
 3684SOL    HW222689   3.496   2.009   5.776  1.1612 -0.3277  0.0069
 3685SOL     OW22690   3.756   1.186   6.123 -0.5820 -0.0328 -0.2608
 3685SOL    HW122691   3.825   1.129   6.087 -0.1345  0.5919 -0.3819
 3685SOL    HW222692   3.805   1.247   6.178 -1.9346 -0.1279  1.0465
 3686SOL     OW22693   0.972   0.300   8.410  0.5543 -0.0997  0.4176
 3686SOL    HW122694   1.035   0.277   8.477 -0.5061 -1.4787  0.9445
 3686SOL    HW222695   0.991   0.233   8.345 -0.6986 -1.8960  1.9043
 3687SOL     OW22696   4.366   1.410   8.833  0.2110 -0.3446 -0.1828
 3687SOL    HW122697   4.364   1.316   8.848  1.2894 -0.2097  0.7569
 3687SOL    HW222698   4.397   1.450   8.914 -1.2698 -2.6471  1.5118
 3688SOL     OW22699   0.193   0.759   0.348  0.1561  0.0047  0.7881
 3688SOL    HW122700   0.186   0.827   0.281  1.3498 -1.2016 -0.5441
 3688SOL    HW222701   0.278   0.777   0.387  0.1790  1.5115  0.0374
 3689SOL     OW22702   1.076   4.262   8.426 -0.2439  0.0035  0.2071
 3689SOL    HW122703   1.013   4.326   8.461 -0.4038 -0.2789  0.4387
 3689SOL    HW222704   1.137   4.313   8.374  1.6588 -1.8786  0.6071
 3690SOL     OW22705   4.406   3.039   7.352 -0.0195 -0.4870 -0.3872
 3690SOL    HW122706   4.337   3.018   7.415  1.9246  1.7771  2.5581
 3690SOL    HW222707   4.356   3.080   7.282 -0.3788  0.5959  0.4985
 3691SOL     OW22708   3.789   0.987  16.220 -0.7045  0.0190  0.0712
 3691SOL    HW122709   3.732   0.913  16.200 -0.4525  0.4500 -2.2148
 3691SOL    HW222710   3.795   1.026  16.132 -0.2356  1.8170  0.8940
 3692SOL     OW22711   1.319   1.553   5.985  0.3274  0.4906  0.2958
 3692SOL    HW122712   1.398   1.606   5.998  2.2872 -2.4531  0.4725
 3692SOL    HW222713   1.347   1.500   5.910 -2.6993  0.5196 -0.8414
 3693SOL     OW22714   1.351   2.708   4.867 -0.0789 -0.0710 -0.1792
 3693SOL    HW122715   1.421   2.660   4.822  0.7867  0.3940  0.6689
 3693SOL    HW222716   1.393   2.761   4.935 -2.1124 -0.4861  1.3928
 3694SOL     OW22717   4.325   2.226  17.652  0.1926 -0.3062 -0.3217
 3694SOL    HW122718   4.379   2.302  17.627  0.5889 -1.2900 -2.5186
 3694SOL    HW222719   4.339   2.170  17.575 -0.6774 -2.9500  1.4743
 3695SOL     OW22720   2.873   2.151   8.142  0.5829  0.2059  0.4565
 3695SOL    HW122721   2.881   2.245   8.127 -2.2416  0.2547 -0.6142
 3695SOL    HW222722   2.781   2.143   8.167  0.1099  0.3463 -1.2101
 3696SOL     OW22723   0.651   1.151  16.479  0.9169  0.3674  0.1572
 3696SOL    HW122724   0.651   1.222  16.415 -1.1812 -0.7456 -1.0697
 3696SOL    HW222725   0.574   1.096  16.464 -0.1215  0.9003  3.4632
 3697SOL     OW22726   2.189   1.326   3.723  0.0669  0.0207 -0.0804
 3697SOL    HW122727   2.185   1.409   3.677 -0.6817  0.4446  0.7549
 3697SOL    HW222728   2.232   1.356   3.803  2.0309  3.2449 -2.3274
 3698SOL     OW22729   2.724   2.974  17.142 -0.2691  0.2706  0.2823
 3698SOL    HW122730   2.812   2.950  17.170  0.2258  0.2726 -1.2604
 3698SOL    HW222731   2.741   3.068  17.139 -1.3419  0.4253 -0.8945
 3699SOL     OW22732   3.518   0.650   6.975  0.1795  0.3474  0.1634
 3699SOL    HW122733   3.501   0.561   6.947 -0.3094  0.2733  0.6895
 3699SOL    HW222734   3.433   0.677   7.010  0.6954 -0.9340  2.4377
 3700SOL     OW22735   0.367   4.230   5.061 -0.0346 -0.2922  0.0569
 3700SOL    HW122736   0.421   4.159   5.026 -0.5274 -0.4117 -0.4551
 3700SOL    HW222737   0.425   4.299   5.027 -0.4865 -0.7528 -1.6364
 3701SOL     OW22738   4.684   4.017   2.937 -0.1849  0.3763 -0.2480
 3701SOL    HW122739   4.647   4.090   2.888  0.0907  1.6462  1.4774
 3701SOL    HW222740   0.004   4.054   3.006 -2.0432  1.2091  0.7548
 3702SOL     OW22741   3.253   0.710   7.055  0.4702  0.2617  0.1293
 3702SOL    HW122742   3.219   0.679   6.971  0.8103 -0.3642  0.2203
 3702SOL    HW222743   3.185   0.684   7.117  1.1502  0.5935  1.0095
 3703SOL     OW22744   3.062   4.042  11.595 -0.0881  0.0427 -0.3372
 3703SOL    HW122745   3.060   4.087  11.511 -0.8801  0.7941  0.0941
 3703SOL    HW222746   3.124   4.093  11.647 -0.4744  0.9407 -0.7703
 3704SOL     OW22747   3.937   2.949   1.603 -0.5946  0.3101 -0.4820
 3704SOL    HW122748   3.846   2.922   1.613  0.3351 -2.5846  0.1550
 3704SOL    HW222749   3.983   2.867   1.622 -0.6215  1.0479  2.7011
 3705SOL     OW22750   1.976   1.296   5.694  0.1445 -0.5393 -0.3363
 3705SOL    HW122751   1.997   1.378   5.740 -0.6762 -0.0283 -0.8589
 3705SOL    HW222752   2.035   1.233   5.734  0.8580  2.0010  2.6347
 3706SOL     OW22753   3.136   1.998   5.964 -0.1037 -0.3708 -0.1032
 3706SOL    HW122754   3.152   2.040   6.049 -1.3111  0.5045 -0.3057
 3706SOL    HW222755   3.131   1.904   5.980  0.6323 -0.2519  0.7913
 3707SOL     OW22756   0.043   1.348   7.886  0.1630 -0.7363  0.3118
 3707SOL    HW122757   4.700   1.300   7.916  0.3746 -1.4362 -0.2806
 3707SOL    HW222758   0.068   1.299   7.807  0.4942  3.1820 -2.0109
 3708SOL     OW22759   3.755   2.430  15.153 -0.1762  0.0159 -0.1924
 3708SOL    HW122760   3.683   2.393  15.205  0.3035  1.7013  1.6580
 3708SOL    HW222761   3.718   2.514  15.126 -0.4705  0.1686  0.6735
 3709SOL     OW22762   3.948   0.141   8.067 -0.7527  0.5946 -0.2678
 3709SOL    HW122763   4.030   0.164   8.023 -0.2117 -1.2777 -0.2294
 3709SOL    HW222764   3.915   0.066   8.018 -0.2780 -0.5657  1.2047
 3710SOL     OW22765   2.696   3.234  11.483  0.1730 -0.2039  0.1659
 3710SOL    HW122766   2.722   3.202  11.569 -0.5782  2.0106  1.2200
 3710SOL    HW222767   2.782   3.251  11.443 -0.2792 -2.6822 -1.8401
 3711SOL     OW22768   3.236   4.153  14.845 -0.4286  0.2905 -0.1012
 3711SOL    HW122769   3.141   4.141  14.853 -0.5137  1.5474  0.7659
 3711SOL    HW222770   3.253   4.135  14.752 -0.4761 -0.1537 -0.0212
 3712SOL     OW22771   1.951   1.404   4.564 -0.3929  0.6766  0.4216
 3712SOL    HW122772   2.034   1.373   4.601 -0.1387 -0.0326 -0.7550
 3712SOL    HW222773   1.964   1.497   4.579  1.7453  0.3003  0.9574
 3713SOL     OW22774   1.926   3.521   0.079  0.3766 -0.5833  0.1110
 3713SOL    HW122775   1.956   3.576   0.007  2.6962  0.3652  1.7805
 3713SOL    HW222776   2.004   3.472   0.104  2.0207  2.3651  0.8518
 3714SOL     OW22777   4.658   2.803   7.408  0.3976  0.5484  0.0463
 3714SOL    HW122778   4.639   2.812   7.314  1.7359  1.7165 -0.1052
 3714SOL    HW222779   4.575   2.770   7.443 -0.9007 -0.3500 -3.8617
 3715SOL     OW22780   2.795   1.238  12.731  0.3158 -0.0640  0.4351
 3715SOL    HW122781   2.731   1.308  12.724  0.7346  0.1575 -1.1353
 3715SOL    HW222782   2.781   1.194  12.815  0.0320  1.1225  1.0135
 3716SOL     OW22783   0.570   2.327   5.258  0.1466 -0.1469  0.3598
 3716SOL    HW122784   0.615   2.307   5.340  1.1901 -0.7087 -0.3494
 3716SOL    HW222785   0.506   2.389   5.294 -0.5661  0.6543 -2.2716
 3717SOL     OW22786   0.002   3.125   8.195  0.5032  0.0596  0.5472
 3717SOL    HW122787   4.705   3.077   8.272 -0.4023 -2.1279 -1.1682
 3717SOL    HW222788   0.063   3.184   8.239  0.1835 -0.1859  1.3177
 3718SOL     OW22789   4.552   3.173   3.794 -0.3081 -0.1213  0.0880
 3718SOL    HW122790   4.604   3.233   3.739 -0.0107  0.0727  0.5772
 3718SOL    HW222791   4.468   3.178   3.747 -0.5500  0.6281  0.5962
 3719SOL     OW22792   2.305   2.840  11.352 -0.3439  0.1191  0.8172
 3719SOL    HW122793   2.313   2.793  11.269 -2.5193  1.4485 -0.1467
 3719SOL    HW222794   2.243   2.778  11.391 -0.4878  0.2447  0.7879
 3720SOL     OW22795   0.335   0.070   8.371 -0.4807 -0.5740  0.1179
 3720SOL    HW122796   0.300   0.148   8.330 -0.9501 -1.5599 -1.3550
 3720SOL    HW222797   0.401   0.106   8.430  1.8693 -2.3757 -1.4312
 3721SOL     OW22798   2.428   2.816   3.827 -0.1884 -0.0180 -0.0199
 3721SOL    HW122799   2.507   2.796   3.778  0.9472  1.0316  1.3529
 3721SOL    HW222800   2.384   2.731   3.819  1.5498 -0.8581 -0.4239
 3722SOL     OW22801   1.597   2.682  16.412  0.2317 -0.4194  0.0893
 3722SOL    HW122802   1.624   2.751  16.472 -0.5177  2.9613 -3.4807
 3722SOL    HW222803   1.684   2.644  16.400 -0.2797 -1.6371  0.2013
 3723SOL     OW22804   4.259   1.527   5.069  0.6665  0.1979 -0.1752
 3723SOL    HW122805   4.329   1.476   5.028 -0.2901  0.0450 -1.6114
 3723SOL    HW222806   4.195   1.525   4.998 -0.0357  0.7573  0.4396
 3724SOL     OW22807   1.008   2.900   8.819 -0.1769  0.0858  0.5960
 3724SOL    HW122808   0.924   2.863   8.794 -0.1722 -0.3895  1.3009
 3724SOL    HW222809   1.054   2.873   8.739 -0.0267 -0.2352  0.7929
 3725SOL     OW22810   0.396   1.142   7.904 -0.6755 -0.3349 -0.1443
 3725SOL    HW122811   0.384   1.235   7.920  0.2010 -0.6541  2.2459
 3725SOL    HW222812   0.320   1.117   7.955 -0.5252  1.8468  1.1238
 3726SOL     OW22813   1.332   3.028   8.729  0.2527  0.4900  1.0519
 3726SOL    HW122814   1.424   3.001   8.732  0.6434  1.7619  0.2290
 3726SOL    HW222815   1.293   2.947   8.696  1.9406  0.7895 -1.6613
 3727SOL     OW22816   2.825   1.661   8.930 -0.5978 -0.1975 -0.2418
 3727SOL    HW122817   2.849   1.568   8.923 -0.4278 -0.1454 -0.3408
 3727SOL    HW222818   2.870   1.701   8.856  0.1739  0.3205  0.5130
 3728SOL     OW22819   3.074   2.179   8.686  0.0783  0.2050  0.7717
 3728SOL    HW122820   3.012   2.240   8.647  0.4013  0.2852  0.3843
 3728SOL    HW222821   3.014   2.118   8.728 -1.7630 -0.4288 -2.7542
 3729SOL     OW22822   3.266   2.176   3.926  0.2090  0.8246  0.2219
 3729SOL    HW122823   3.293   2.251   3.874  1.9280 -0.8670 -1.3137
 3729SOL    HW222824   3.339   2.115   3.929 -0.0660  0.5275  1.0857
 3730SOL     OW22825   4.456   0.974   7.434  0.2923  0.6481  0.5033
 3730SOL    HW122826   4.422   1.027   7.362  1.4283  1.4496  0.5623
 3730SOL    HW222827   4.528   1.027   7.466 -0.5014  1.2886  1.2413
 3731SOL     OW22828   3.339   2.359   0.249 -0.1456 -0.3709  0.1263
 3731SOL    HW122829   3.378   2.431   0.199  0.4810 -0.1516  0.9488
 3731SOL    HW222830   3.253   2.364   0.206  0.0624 -1.3945 -0.4084
 3732SOL     OW22831   1.020   1.161   5.591  0.2081 -0.5373  0.3220
 3732SOL    HW122832   1.087   1.159   5.659  1.6444  2.3903 -0.9810
 3732SOL    HW222833   1.012   1.257   5.586 -1.6746 -0.6438  1.3396
 3733SOL     OW22834   3.130   0.848  13.196 -0.1106 -0.2663 -0.4350
 3733SOL    HW122835   3.073   0.797  13.254 -2.2906  0.0432 -2.3363
 3733SOL    HW222836   3.218   0.811  13.205  0.8559  2.1966  0.4201
 3734SOL     OW22837   1.397   0.168   8.438 -0.2438  0.3401  0.2048
 3734SOL    HW122838   1.481   0.172   8.392 -0.1646  1.7555  0.4658
 3734SOL    HW222839   1.380   0.076   8.419  0.7586  0.2519 -0.2624
 3735SOL     OW22840   1.600   1.556   9.168  0.3811 -0.0553  0.1561
 3735SOL    HW122841   1.679   1.535   9.118 -0.1473 -0.5805 -0.4649
 3735SOL    HW222842   1.603   1.651   9.170  0.0381 -0.0534  0.5011
 3736SOL     OW22843   2.659   0.668  16.191  0.0941  0.1462 -0.7302
 3736SOL    HW122844   2.653   0.756  16.153  1.2326  0.3569 -0.4343
 3736SOL    HW222845   2.628   0.621  16.113 -0.6773  1.1991 -1.0573
 3737SOL     OW22846   2.644   2.005  11.007  0.6767 -0.5367 -0.5627
 3737SOL    HW122847   2.702   1.929  11.001  1.5865  0.2317 -1.6029
 3737SOL    HW222848   2.581   1.976  11.073  0.4385  0.9271 -0.1345
 3738SOL     OW22849   2.159   1.111   3.393  0.7889  0.1486  0.6740
 3738SOL    HW122850   2.186   1.164   3.468  2.8255 -0.0106  0.0479
 3738SOL    HW222851   2.155   1.163   3.313 -2.1395 -1.0434  0.0482
 3739SOL     OW22852   3.022   1.188  15.251 -0.4487 -0.3422  0.0598
 3739SOL    HW122853   2.985   1.125  15.190  1.4905 -2.2261  0.8020
 3739SOL    HW222854   3.108   1.149  15.267 -1.1125 -1.8253  0.0365
 3740SOL     OW22855   2.644   1.072  15.757  0.7095  0.0191  0.1915
 3740SOL    HW122856   2.582   1.037  15.692 -2.1255  2.4124  1.6427
 3740SOL    HW222857   2.586   1.097  15.828  0.8596 -0.2121  0.3945
 3741SOL     OW22858   2.755   2.367   1.862 -0.4162 -0.2557 -0.3472
 3741SOL    HW122859   2.681   2.406   1.816  0.6316  0.9106 -1.0452
 3741SOL    HW222860   2.731   2.277   1.839  0.7404 -0.3733 -1.0996
 3742SOL     OW22861   2.647   3.765  14.964  0.0296 -0.0105 -0.4700
 3742SOL    HW122862   2.643   3.670  14.979  0.9325  0.1536  0.8248
 3742SOL    HW222863   2.735   3.788  14.995  0.1042 -0.8194 -0.0754
 3743SOL     OW22864   4.071   4.624   4.754 -0.4028  0.5425  0.1899
 3743SOL    HW122865   4.021   4.697   4.716 -0.5552  0.4778  0.2705
 3743SOL    HW222866   4.133   4.616   4.681  0.2020 -1.6258  0.9614
 3744SOL     OW22867   3.019   2.125   2.132  0.1185  0.1671  0.2745
 3744SOL    HW122868   3.009   2.093   2.042  1.1719 -1.6728  0.8101
 3744SOL    HW222869   3.061   2.209   2.116  0.8281 -0.1544  0.4259
 3745SOL     OW22870   4.427   3.115   4.075  0.0279  0.5092 -0.5769
 3745SOL    HW122871   4.394   3.139   3.989 -0.1870  2.1349 -0.0517
 3745SOL    HW222872   4.469   3.032   4.053  1.4284  0.7390  1.2247
 3746SOL     OW22873   3.139   2.502  17.578  0.5165 -1.2627 -0.1985
 3746SOL    HW122874   3.052   2.502  17.537 -0.1638  2.1707  1.2256
 3746SOL    HW222875   3.126   2.436  17.646  0.1673  1.1852  2.1410
 3747SOL     OW22876   2.656   3.324  10.042 -0.3928 -0.0990 -0.2888
 3747SOL    HW122877   2.593   3.383  10.084  1.7656  0.7671  1.7074
 3747SOL    HW222878   2.677   3.250  10.099  0.3461  0.5500  0.2775
 3748SOL     OW22879   1.313   4.427   0.762 -0.2040 -0.0907  0.6276
 3748SOL    HW122880   1.298   4.514   0.726 -0.5403 -1.2839 -2.1583
 3748SOL    HW222881   1.255   4.430   0.838  0.5797 -0.0860  1.2198
 3749SOL     OW22882   4.412   0.982   5.900 -0.2759  0.3224  0.6511
 3749SOL    HW122883   4.499   0.959   5.933  0.9524  2.5140 -0.9488
 3749SOL    HW222884   4.351   0.957   5.968 -2.5563  3.5739 -0.1630
 3750SOL     OW22885   0.386   4.385   7.039 -0.0164  0.8437 -0.5982
 3750SOL    HW122886   0.452   4.433   6.989  0.2779 -0.3693 -1.3774
 3750SOL    HW222887   0.421   4.392   7.128  1.1806  2.5356 -1.2080
 3751SOL     OW22888   3.605   0.259   5.493  0.0608 -0.0095 -0.1394
 3751SOL    HW122889   3.611   0.237   5.586 -0.4957 -1.7918 -0.5247
 3751SOL    HW222890   3.543   0.331   5.501  0.1961 -0.2300  3.0717
 3752SOL     OW22891   2.209   3.798  11.878 -0.1646  0.8758  0.0574
 3752SOL    HW122892   2.252   3.728  11.829  0.5966  0.2037  1.6978
 3752SOL    HW222893   2.127   3.804  11.830  0.9583  2.7703 -1.6571
 3753SOL     OW22894   4.333   1.514   5.759  0.5878  0.5595  0.3604
 3753SOL    HW122895   4.277   1.496   5.835  1.7694  0.0245  1.1096
 3753SOL    HW222896   4.325   1.609   5.763  1.2531  0.6643 -1.0897
 3754SOL     OW22897   3.449   4.413   9.093  0.0028  0.3398 -0.7073
 3754SOL    HW122898   3.416   4.462   9.169 -0.1749 -0.0712 -0.5158
 3754SOL    HW222899   3.399   4.453   9.022  1.4591 -0.1368 -1.9953
 3755SOL     OW22900   1.577   1.353   3.343 -0.8531  0.3186  0.3727
 3755SOL    HW122901   1.484   1.333   3.341 -0.5894 -0.8612  0.3529
 3755SOL    HW222902   1.583   1.387   3.433 -0.4264 -2.0719  1.2524
 3756SOL     OW22903   3.398   2.569   0.800 -0.5910 -0.9289 -0.7287
 3756SOL    HW122904   3.484   2.537   0.772 -1.0517 -0.0811 -3.1600
 3756SOL    HW222905   3.424   2.648   0.848 -0.9991 -0.9609 -0.4586
 3757SOL     OW22906   4.083   1.146  17.523 -0.8891  0.1453 -0.2592
 3757SOL    HW122907   4.001   1.158  17.571 -0.7137 -2.8872  0.8464
 3757SOL    HW222908   4.142   1.211  17.561  0.2750  0.6694 -2.9975
 3758SOL     OW22909   0.082   2.890  17.681 -0.3529 -0.3786  0.6324
 3758SOL    HW122910   4.731   2.873  17.642  0.0092  1.6511 -1.0286
 3758SOL    HW222911   0.131   2.833  17.622 -2.6383 -1.1958 -0.4318
 3759SOL     OW22912   0.936   2.942  10.388 -0.6699 -0.2547 -0.2657
 3759SOL    HW122913   0.964   3.023  10.345  1.9466 -0.8507  0.3665
 3759SOL    HW222914   0.889   2.911  10.311 -0.3047 -0.9197 -0.2119
 3760SOL     OW22915   2.111   1.916   9.395  0.4630 -0.4121 -0.3518
 3760SOL    HW122916   2.199   1.930   9.361  0.8510 -3.4081 -0.5669
 3760SOL    HW222917   2.130   1.880   9.482  2.3581 -0.0035 -0.6065
 3761SOL     OW22918   3.462   1.001  15.073  0.2616 -0.2185  0.1952
 3761SOL    HW122919   3.443   0.925  15.017 -0.3178  1.2057 -1.5542
 3761SOL    HW222920   3.512   1.059  15.015  0.8348  0.4705  1.3689
 3762SOL     OW22921   3.041   2.504   8.388 -0.1394  0.0341  0.2178
 3762SOL    HW122922   3.036   2.530   8.480  3.1076 -0.0600  0.4408
 3762SOL    HW222923   2.960   2.543   8.357  0.0070  1.3829  1.5857
 3763SOL     OW22924   2.883   4.082   4.423 -0.4534  0.8256  0.0866
 3763SOL    HW122925   2.924   4.087   4.337 -0.5304 -0.8617 -0.0569
 3763SOL    HW222926   2.872   4.173   4.449 -3.6748  0.7808 -1.1741
 3764SOL     OW22927   0.395   4.660   8.732  0.5077 -0.4846 -0.2424
 3764SOL    HW122928   0.387   4.623   8.820 -0.4821 -2.5278 -1.1776
 3764SOL    HW222929   0.328   4.611   8.684 -1.6400  2.2479  0.0082
 3765SOL     OW22930   3.800   2.411   2.742 -0.6265  0.4809 -0.4620
 3765SOL    HW122931   3.876   2.370   2.783  0.4102  1.1513 -1.7023
 3765SOL    HW222932   3.795   2.503   2.769  1.8008  0.2311  0.8370
 3766SOL     OW22933   3.851   2.277   3.288 -1.1923 -0.4910 -0.0966
 3766SOL    HW122934   3.851   2.254   3.195 -1.7519 -0.4444 -0.1101
 3766SOL    HW222935   3.767   2.321   3.302 -0.4385  1.7820 -2.8629
 3767SOL     OW22936   0.309   4.025   5.723 -0.2297  0.1016 -0.1491
 3767SOL    HW122937   0.336   4.111   5.690  0.8638  0.1551  0.8893
 3767SOL    HW222938   0.276   4.043   5.811  1.0884  0.8092  0.1957
 3768SOL     OW22939   2.185   2.911   9.965  0.2951 -0.4019  0.0262
 3768SOL    HW122940   2.149   2.919  10.053 -4.5291  0.4094 -2.0455
 3768SOL    HW222941   2.279   2.897   9.973  0.3283 -0.3462 -0.2507
 3769SOL     OW22942   4.079   1.856   7.797  0.4727 -0.1530 -0.0465
 3769SOL    HW122943   4.013   1.832   7.863 -0.6209  1.8060 -0.4606
 3769SOL    HW222944   4.157   1.817   7.839  0.3989  0.8788  1.0707
 3770SOL     OW22945   0.727   0.528   3.671  0.0407 -0.3798  0.8088
 3770SOL    HW122946   0.777   0.604   3.642  1.6849 -1.2663  1.3844
 3770SOL    HW222947   0.669   0.571   3.734 -3.7908 -0.3650 -2.6924
 3771SOL     OW22948   3.835   0.706   7.355  0.3624  0.2901 -0.1780
 3771SOL    HW122949   3.815   0.736   7.266 -1.2864 -0.4904 -0.0652
 3771SOL    HW222950   3.814   0.614   7.341 -1.8868  0.5589  1.5047
 3772SOL     OW22951   2.177   4.173   6.830 -0.2471  0.4628 -0.2826
 3772SOL    HW122952   2.105   4.140   6.884 -0.8327  2.3558  0.0998
 3772SOL    HW222953   2.191   4.096   6.774  2.5296 -0.8451  2.1824
 3773SOL     OW22954   1.064   0.330   1.847  0.0122 -0.0719  0.1571
 3773SOL    HW122955   1.039   0.251   1.798 -2.6142  0.8524  0.0078
 3773SOL    HW222956   0.982   0.346   1.894  0.4733 -2.2413  1.7221
 3774SOL     OW22957   1.604   3.750   8.424 -0.0362 -0.5352  0.2725
 3774SOL    HW122958   1.553   3.782   8.350 -0.5789  0.0420  0.8860
 3774SOL    HW222959   1.695   3.778   8.412  0.0088 -0.4247  0.8550
 3775SOL     OW22960   0.520   1.424   7.630  0.3414  0.0118 -0.2707
 3775SOL    HW122961   0.455   1.370   7.675 -1.2948  0.6770 -1.8248
 3775SOL    HW222962   0.578   1.450   7.701 -0.6401  0.5352  0.3396
 3776SOL     OW22963   0.743   4.145   4.850  0.1621  0.2404 -0.2979
 3776SOL    HW122964   0.689   4.112   4.923  0.3345 -1.7099 -1.0617
 3776SOL    HW222965   0.704   4.112   4.769  1.5234 -0.1461 -0.7990
 3777SOL     OW22966   2.100   4.490   0.262 -0.2446 -0.0248  0.0786
 3777SOL    HW122967   2.026   4.506   0.320  0.4579  0.5804  0.8053
 3777SOL    HW222968   2.145   4.573   0.277 -1.5360  1.2490 -3.0575
 3778SOL     OW22969   4.516   1.591  16.568 -0.1137  1.0484  0.7190
 3778SOL    HW122970   4.481   1.567  16.482  0.6078 -0.8828  0.9503
 3778SOL    HW222971   4.599   1.635  16.553 -0.0504  0.3315 -1.1661
 3779SOL     OW22972   1.901   2.294   7.710 -0.6142 -0.4019  0.7299
 3779SOL    HW122973   1.819   2.251   7.684  0.1795 -0.8072 -1.1387
 3779SOL    HW222974   1.881   2.319   7.800 -0.1214  1.6456  0.2718
 3780SOL     OW22975   3.644   0.272   6.876 -0.3848 -0.1624 -0.1126
 3780SOL    HW122976   3.675   0.227   6.954  2.2139  1.1254 -0.3859
 3780SOL    HW222977   3.726   0.284   6.827 -0.0026 -0.7311  0.3829
 3781SOL     OW22978   4.304   0.986   9.417 -0.2309 -0.1572  0.3256
 3781SOL    HW122979   4.392   0.978   9.380 -1.7256 -1.0213 -3.0124
 3781SOL    HW222980   4.291   0.907   9.469  0.3527 -0.5645 -0.1427
 3782SOL     OW22981   2.789   3.587   5.026 -0.1070  0.1080  0.1548
 3782SOL    HW122982   2.836   3.524   5.081  0.5025 -0.2961 -0.8343
 3782SOL    HW222983   2.740   3.538   4.960 -1.8987 -0.8731  2.2375
 3783SOL     OW22984   3.574   1.663  13.924 -0.5162 -0.5587 -0.4601
 3783SOL    HW122985   3.621   1.652  13.841 -1.0386 -0.1396 -0.8149
 3783SOL    HW222986   3.487   1.688  13.894  0.0544 -0.1713 -1.8203
 3784SOL     OW22987   0.322   3.847   4.599  0.5765 -0.2805 -0.0827
 3784SOL    HW122988   0.232   3.844   4.565 -0.3270 -1.9120  2.4359
 3784SOL    HW222989   0.363   3.785   4.538 -1.2368  0.4172 -2.0122
 3785SOL     OW22990   3.692   1.428  11.235 -0.3145 -0.3938 -0.1851
 3785SOL    HW122991   3.671   1.372  11.310  0.1094 -2.3488 -1.5441
 3785SOL    HW222992   3.745   1.500  11.267 -1.4575  0.5196 -0.3402
 3786SOL     OW22993   3.535   2.088   2.448  0.2367  0.6527 -0.1462
 3786SOL    HW122994   3.605   2.033   2.482  0.4816  1.4992  0.7102
 3786SOL    HW222995   3.521   2.157   2.513 -1.1167  1.1786 -0.9941
 3787SOL     OW22996   0.803   4.283   7.351 -0.1543 -0.0853 -0.6761
 3787SOL    HW122997   0.770   4.194   7.337  2.6613 -0.5840 -3.9398
 3787SOL    HW222998   0.765   4.339   7.283 -4.2256 -1.7269  0.2099
 3788SOL     OW22999   2.747   1.696  10.354  0.0726 -0.2364 -0.0911
 3788SOL    HW123000   2.737   1.790  10.340  2.0480 -0.0822 -0.4788
 3788SOL    HW223001   2.842   1.693  10.343 -0.2325  1.2945 -3.1848
 3789SOL     OW23002   4.584   0.707   6.138 -0.2683 -0.0688 -0.1390
 3789SOL    HW123003   4.561   0.615   6.123  0.3594 -0.5691  1.9673
 3789SOL    HW223004   4.624   0.701   6.225 -0.1999 -0.6659 -0.2149
 3790SOL     OW23005   0.503   1.812  17.246  0.2965 -0.3906 -0.5370
 3790SOL    HW123006   0.597   1.826  17.256  0.8361 -4.3380 -0.0286
 3790SOL    HW223007   0.496   1.721  17.217 -2.0042 -0.4150  0.0805
 3791SOL     OW23008   4.151   3.799   0.654 -0.3582  0.1410  0.3230
 3791SOL    HW123009   4.236   3.799   0.608 -0.7839  0.5984 -0.4639
 3791SOL    HW223010   4.187   3.769   0.737  0.6131 -0.4625 -0.3075
 3792SOL     OW23011   4.545   0.574   4.920  0.6551  0.6464  0.8585
 3792SOL    HW123012   4.480   0.513   4.955  1.2806 -1.6298 -1.9525
 3792SOL    HW223013   4.479   0.634   4.884 -1.3368 -2.7186 -1.0635
 3793SOL     OW23014   0.258   3.755   9.315  0.6858  0.2022  0.9567
 3793SOL    HW123015   0.327   3.728   9.375  0.7693 -0.6791  0.4729
 3793SOL    HW223016   0.229   3.834   9.360 -1.4243 -0.0779  0.1128
 3794SOL     OW23017   4.090   2.355   2.399 -0.4426 -0.3603 -0.3344
 3794SOL    HW123018   4.019   2.409   2.432 -1.7962 -0.8106 -2.5170
 3794SOL    HW223019   4.160   2.418   2.380  1.0917 -1.6254  1.1794
 3795SOL     OW23020   1.511   3.391   6.120 -0.3043 -0.3657 -0.0658
 3795SOL    HW123021   1.595   3.346   6.125 -0.3903 -0.4249  0.9107
 3795SOL    HW223022   1.473   3.358   6.202  2.6614 -1.8560  0.7053
 3796SOL     OW23023   3.693   2.828   1.632 -0.2250  0.2786 -0.5189
 3796SOL    HW123024   3.678   2.784   1.716  1.8089 -0.3269 -0.4822
 3796SOL    HW223025   3.606   2.865   1.618 -0.4439 -0.2600 -0.5897
 3797SOL     OW23026   3.527   1.539   9.456 -0.2522  0.0136 -0.5962
 3797SOL    HW123027   3.446   1.588   9.444  1.1119  2.4675  0.1723
 3797SOL    HW223028   3.490   1.467   9.506  1.0747  0.0571  0.4633
 3798SOL     OW23029   4.068   0.904   7.379 -0.8279 -0.6264  0.4672
 3798SOL    HW123030   3.979   0.874   7.360 -0.1309 -1.2561 -1.8160
 3798SOL    HW223031   4.076   0.977   7.318 -2.9400  0.3324  1.3514
 3799SOL     OW23032   0.850   1.478  16.474 -0.6223  0.8531  0.0108
 3799SOL    HW123033   0.805   1.422  16.537  0.9066 -1.5092 -0.9637
 3799SOL    HW223034   0.931   1.476  16.525  0.1392 -1.4836 -1.2609
 3800SOL     OW23035   1.478   0.024   5.485  0.3287 -0.2434  0.0419
 3800SOL    HW123036   1.523   0.108   5.484 -2.2253  1.1272  1.8487
 3800SOL    HW223037   1.520   4.719   5.561  0.7407  2.9737  1.4569
 3801SOL     OW23038   0.958   0.350  14.763  0.4194 -0.1120  0.5037
 3801SOL    HW123039   0.972   0.405  14.686 -0.0827 -0.0273  0.4790
 3801SOL    HW223040   0.996   0.399  14.836  1.1750 -2.1652  1.4878
 3802SOL     OW23041   3.104   1.155   8.431  0.1678 -0.2657 -0.2565
 3802SOL    HW123042   3.076   1.063   8.425  0.0681 -0.3121  1.0383
 3802SOL    HW223043   3.171   1.155   8.362 -0.9405 -1.1912 -1.3287
 3803SOL     OW23044   1.657   4.182   5.888  0.4252 -0.9019 -0.2152
 3803SOL    HW123045   1.606   4.188   5.807  1.0402  1.3311 -0.4213
 3803SOL    HW223046   1.667   4.087   5.881  0.1552 -0.7847 -2.3556
 3804SOL     OW23047   4.620   1.408   9.173  0.3184 -0.3732  0.0644
 3804SOL    HW123048   4.643   1.452   9.255 -1.5079 -0.0503  0.3851
 3804SOL    HW223049   4.528   1.385   9.186 -0.1929  0.9481 -1.3520
 3805SOL     OW23050   0.113   3.342   6.924  0.3759  0.3039 -0.8042
 3805SOL    HW123051   0.162   3.424   6.912  0.7902  0.4205  1.6982
 3805SOL    HW223052   0.022   3.370   6.919 -0.1508 -1.0765  1.2249
 3806SOL     OW23053   0.415   2.393   2.954 -0.0902  0.1621 -0.0505
 3806SOL    HW123054   0.375   2.374   3.039  1.4513 -0.7480  0.4803
 3806SOL    HW223055   0.382   2.479   2.931 -2.2639 -0.3842  0.9573
 3807SOL     OW23056   4.028   1.377   7.085  0.2504  0.1527 -0.0039
 3807SOL    HW123057   4.026   1.453   7.027  1.6795 -0.2921 -0.6517
 3807SOL    HW223058   4.121   1.366   7.105  0.3900 -0.3062 -0.8978
 3808SOL     OW23059   4.569   0.997   6.393  0.1581 -0.1030  0.2246
 3808SOL    HW123060   4.643   1.056   6.406  0.6384 -0.8499  0.9030
 3808SOL    HW223061   4.569   0.962   6.482  1.6032  2.7879  1.3532
 3809SOL     OW23062   2.805   4.469  11.333  0.0655 -0.1719 -0.0418
 3809SOL    HW123063   2.805   4.522  11.413 -0.1256 -0.2591  0.0158
 3809SOL    HW223064   2.789   4.541  11.272 -0.9268 -0.6342 -0.3180
 3810SOL     OW23065   1.405   4.663   8.660  0.1724 -0.2149  0.1100
 3810SOL    HW123066   1.382   4.704   8.744  1.3328  0.8947 -0.1044
 3810SOL    HW223067   1.320   4.623   8.641  1.2264 -2.9568  1.1730
 3811SOL     OW23068   1.675   2.606   6.832 -0.4296 -0.1979  0.5765
 3811SOL    HW123069   1.708   2.627   6.920  0.6875 -2.2904  0.6433
 3811SOL    HW223070   1.694   2.688   6.786 -5.3239  1.2312  1.0576
 3812SOL     OW23071   0.567   4.615  12.619 -0.3083  0.4700  0.1594
 3812SOL    HW123072   0.627   4.563  12.672  0.7504 -0.8770 -2.3095
 3812SOL    HW223073   0.533   4.661  12.695  0.6774 -1.5191  1.8126
 3813SOL     OW23074   4.350   0.804   1.236 -0.3633  0.1370 -0.4536
 3813SOL    HW123075   4.293   0.728   1.240  0.4058 -0.4447 -0.6754
 3813SOL    HW223076   4.391   0.790   1.151 -1.2043  0.6727 -0.9454
 3814SOL     OW23077   0.883   4.183   6.264 -0.4399 -0.0646 -0.2070
 3814SOL    HW123078   0.957   4.201   6.322 -0.3696  0.1494 -0.3638
 3814SOL    HW223079   0.860   4.095   6.295 -2.9639  0.7028  0.1121
 3815SOL     OW23080   4.157   3.699  13.607  0.2824 -0.4575 -0.2694
 3815SOL    HW123081   4.241   3.686  13.651  0.2229 -3.5256 -1.0447
 3815SOL    HW223082   4.166   3.636  13.536  0.8010 -0.7618  0.0654
 3816SOL     OW23083   4.119   1.614  10.372  0.4211 -0.0245 -0.1279
 3816SOL    HW123084   4.132   1.610  10.467  1.5792  0.0428 -0.2788
 3816SOL    HW223085   4.040   1.563  10.353 -0.6706  1.3731  0.6665
 3817SOL     OW23086   1.061   4.520   1.290  0.2189 -0.1141 -0.3946
 3817SOL    HW123087   1.143   4.505   1.243  1.1072  1.5650  0.6232
 3817SOL    HW223088   1.032   4.599   1.245 -0.8163 -0.9147 -1.1165
 3818SOL     OW23089   3.660   1.775  15.197 -0.1642  0.0777 -0.1198
 3818SOL    HW123090   3.680   1.750  15.107 -0.7824  1.7758 -0.7369
 3818SOL    HW223091   3.743   1.776  15.245  0.4215 -0.4015 -1.1421
 3819SOL     OW23092   2.770   1.793   6.051  0.0146 -0.1416  0.4131
 3819SOL    HW123093   2.676   1.795   6.036 -0.1033  2.0956  1.5601
 3819SOL    HW223094   2.797   1.723   5.991  0.6011  1.3570 -1.0861
 3820SOL     OW23095   3.576   4.631   5.914  0.2428 -0.3951 -0.1235
 3820SOL    HW123096   3.485   4.640   5.887  0.6415 -0.6452 -1.5824
 3820SOL    HW223097   3.583   4.540   5.943  2.0629 -0.9430 -2.2296
 3821SOL     OW23098   2.076   3.871   3.964  0.2450 -0.3955 -0.9570
 3821SOL    HW123099   2.067   3.929   3.888  1.7798  2.1984  0.8647
 3821SOL    HW223100   2.170   3.857   3.949  0.2820  0.3921 -1.4631
 3822SOL     OW23101   4.306   4.323   8.329 -0.4060 -0.4002  1.0605
 3822SOL    HW123102   4.243   4.389   8.301 -1.2944 -1.0157  1.6549
 3822SOL    HW223103   4.253   4.251   8.361  0.0940 -1.2291  0.0305
 3823SOL     OW23104   3.744   3.265   7.293 -0.0030 -0.2664 -0.2115
 3823SOL    HW123105   3.830   3.235   7.321  0.1494 -1.7377 -2.2064
 3823SOL    HW223106   3.757   3.344   7.240  1.0834 -1.0890 -1.1589
 3824SOL     OW23107   1.836   0.316   5.123  0.1704  0.1898  0.0990
 3824SOL    HW123108   1.816   0.327   5.030  2.8416 -1.0067 -0.6133
 3824SOL    HW223109   1.828   0.223   5.141  3.4485 -0.0255  0.4748
 3825SOL     OW23110   2.740   4.025  15.096 -0.7328  0.0449  0.3531
 3825SOL    HW123111   2.774   3.981  15.018  1.2316  1.0613  0.6408
 3825SOL    HW223112   2.821   4.027  15.146 -1.4975 -1.7167  1.6466
 3826SOL     OW23113   3.871   1.420  15.466  0.1595  0.1293 -0.7058
 3826SOL    HW123114   3.803   1.422  15.534 -0.5809  3.3333 -1.5178
 3826SOL    HW223115   3.855   1.333  15.432  0.0597  0.4391 -1.4455
 3827SOL     OW23116   4.287   2.141   6.878 -0.4030  0.1731  0.1177
 3827SOL    HW123117   4.374   2.101   6.868 -1.2388 -1.1572 -1.8076
 3827SOL    HW223118   4.282   2.183   6.792  1.2461  1.3109  0.5708
 3828SOL     OW23119   2.637   2.578   6.183  0.4782  0.2866 -0.1196
 3828SOL    HW123120   2.593   2.495   6.163  2.1488 -0.7811  0.7020
 3828SOL    HW223121   2.604   2.628   6.108 -0.9384 -2.4750 -1.3342
 3829SOL     OW23122   3.086   1.470   5.811  0.1548  0.0941 -0.4317
 3829SOL    HW123123   3.135   1.415   5.750  1.7738 -2.0115  2.7688
 3829SOL    HW223124   3.131   1.551   5.786  1.9082 -0.2926  1.4874
 3830SOL     OW23125   0.348   4.078  10.158 -0.0907  0.2831 -0.0200
 3830SOL    HW123126   0.427   4.026  10.169  0.0386  0.4849 -0.0064
 3830SOL    HW223127   0.282   4.009  10.147 -2.0414  2.0790  0.3886
 3831SOL     OW23128   3.524   3.179   1.820  0.9657  0.1962 -0.6979
 3831SOL    HW123129   3.475   3.241   1.874  0.2739 -1.6403  0.7586
 3831SOL    HW223130   3.508   3.092   1.857 -2.3098  1.1702  0.1375
 3832SOL     OW23131   1.070   3.719   3.188 -0.6881  0.1432 -0.0785
 3832SOL    HW123132   1.160   3.737   3.163  0.5899 -0.9729  3.7098
 3832SOL    HW223133   1.062   3.626   3.168  0.4269 -0.1042  0.6201
 3833SOL     OW23134   3.911   0.949   8.069  0.3059  0.3854 -0.5476
 3833SOL    HW123135   3.870   0.908   7.993  2.7253 -0.7927 -1.2274
 3833SOL    HW223136   3.916   0.877   8.132  0.1376  1.2510  0.4539
 3834SOL     OW23137   0.646   0.710  13.704 -0.5514  0.2252  0.6187
 3834SOL    HW123138   0.669   0.665  13.785  0.4567  0.4471  0.4655
 3834SOL    HW223139   0.723   0.680  13.655 -0.4084  1.4021  0.1065
 3835SOL     OW23140   3.411   1.578   7.751 -0.1615  0.4123 -0.1408
 3835SOL    HW123141   3.384   1.667   7.731 -2.5347  0.1171  1.6443
 3835SOL    HW223142   3.389   1.560   7.843 -1.2003  2.2978 -0.0270
 3836SOL     OW23143   1.072   0.026  10.132 -0.1458 -0.0046 -0.0076
 3836SOL    HW123144   0.989   0.005  10.089  1.0340 -1.2570 -1.6616
 3836SOL    HW223145   1.137   4.704  10.089 -0.9814 -1.9733  1.3036
 3837SOL     OW23146   0.242   0.596   8.336 -0.4579 -0.3230  0.5429
 3837SOL    HW123147   0.299   0.663   8.297 -0.5357  0.9551  2.6442
 3837SOL    HW223148   0.168   0.599   8.275  1.5595 -1.0098 -1.9847
 3838SOL     OW23149   1.785   3.342   4.042 -0.6722  0.1313  0.7148
 3838SOL    HW123150   1.738   3.402   4.099 -1.8836 -0.5873  0.4615
 3838SOL    HW223151   1.720   3.278   4.011 -1.0930 -0.4874  2.9190
 3839SOL     OW23152   4.302   1.570  15.706  0.5540 -0.1518 -0.2574
 3839SOL    HW123153   4.268   1.596  15.791  0.6761 -0.4988 -0.1007
 3839SOL    HW223154   4.228   1.523  15.665  0.0650  0.7902 -0.4451
 3840SOL     OW23155   0.701   2.610   6.672 -0.4494  0.0772  0.0095
 3840SOL    HW123156   0.637   2.679   6.659 -0.6302 -0.3760 -1.4904
 3840SOL    HW223157   0.720   2.635   6.763  1.7666  2.3050 -1.0689
 3841SOL     OW23158   4.676   2.582   5.676  0.3641  0.3824  0.0057
 3841SOL    HW123159   4.628   2.601   5.756 -1.2401 -1.1063 -0.5880
 3841SOL    HW223160   4.702   2.492   5.694 -1.1976  0.1532  1.0924
 3842SOL     OW23161   0.075   1.517   7.146  0.1871  0.0112 -0.3370
 3842SOL    HW123162   0.100   1.452   7.080 -1.3150  0.0530 -0.9601
 3842SOL    HW223163   0.017   1.571   7.092  0.2007  1.2596  0.9002
 3843SOL     OW23164   2.930   2.113  12.452 -0.2144 -0.0220 -0.4582
 3843SOL    HW123165   2.899   2.192  12.409 -1.1544  0.2829  0.7784
 3843SOL    HW223166   2.998   2.085  12.391 -0.9306 -0.3403 -1.1121
 3844SOL     OW23167   1.760   0.701   3.982 -0.3875  0.1297  0.0547
 3844SOL    HW123168   1.824   0.707   3.911  1.4257 -1.9523  1.4999
 3844SOL    HW223169   1.815   0.728   4.056  3.1951 -1.6870 -1.9625
 3845SOL     OW23170   1.561   1.286   7.032  0.3688 -0.0268 -0.3003
 3845SOL    HW123171   1.647   1.261   6.999  0.6824 -0.6726  0.9782
 3845SOL    HW223172   1.517   1.297   6.948  2.5674  0.6277 -1.3497
 3846SOL     OW23173   4.547   3.240   7.042 -0.8788  0.2617  0.3417
 3846SOL    HW123174   4.456   3.214   7.054 -0.3202 -0.7856  2.3170
 3846SOL    HW223175   4.568   3.269   7.131 -2.1584 -0.4049  0.8568
 3847SOL     OW23176   2.794   4.144  12.911  0.4574  0.2952 -0.4031
 3847SOL    HW123177   2.858   4.209  12.940  1.8321 -0.4440 -1.8209
 3847SOL    HW223178   2.789   4.165  12.818 -0.4408 -0.8407 -0.6150
 3848SOL     OW23179   4.048   2.904   7.696 -0.9058 -0.5112 -0.0001
 3848SOL    HW123180   3.967   2.944   7.666 -1.0091 -2.0649 -1.8351
 3848SOL    HW223181   4.067   2.825   7.645  1.4663  0.9681 -1.4251
 3849SOL     OW23182   1.969   0.771   4.139 -0.4197 -0.0542  0.6415
 3849SOL    HW123183   2.001   0.690   4.177  2.3699  2.6199  4.0481
 3849SOL    HW223184   2.042   0.803   4.085  1.9663 -2.7189  2.2973
 3850SOL     OW23185   3.387   1.013   6.595  0.1194  0.4358 -0.0228
 3850SOL    HW123186   3.302   1.034   6.634  0.3847  1.8083 -0.1751
 3850SOL    HW223187   3.376   0.921   6.572 -0.3072  0.4651  0.0488
 3851SOL     OW23188   1.019   4.539   7.642 -0.6626 -0.2005 -0.2725
 3851SOL    HW123189   0.941   4.575   7.683 -0.7796  0.2845 -0.9182
 3851SOL    HW223190   1.065   4.622   7.637 -0.4429 -0.2071  2.0484
 3852SOL     OW23191   4.495   4.459   8.460 -0.1016  0.0848 -0.3597
 3852SOL    HW123192   4.536   4.401   8.524 -0.1243  0.0584 -0.3689
 3852SOL    HW223193   4.420   4.410   8.427 -0.2944 -0.7101  1.2298
 3853SOL     OW23194   1.681   1.011   8.246 -0.9135 -0.5575  0.1876
 3853SOL    HW123195   1.737   0.946   8.203  2.2252  1.4963  1.2532
 3853SOL    HW223196   1.624   1.034   8.172  0.9303  1.3419 -0.6391
 3854SOL     OW23197   3.310   0.797   3.037  0.1181 -0.0485  0.3781
 3854SOL    HW123198   3.348   0.746   2.966  1.0691  0.6825  0.3522
 3854SOL    HW223199   3.217   0.777   3.043  0.0783 -0.2930 -1.0421
 3855SOL     OW23200   2.428   0.595  14.240  0.4701 -0.8044 -0.1421
 3855SOL    HW123201   2.462   0.519  14.287 -0.0811 -0.9468  0.0269
 3855SOL    HW223202   2.414   0.558  14.153 -1.2109 -2.1191  0.6934
 3856SOL     OW23203   0.829   2.014   7.013 -0.2172 -0.2617 -0.2075
 3856SOL    HW123204   0.881   2.010   6.933 -0.7472 -0.4804 -0.5376
 3856SOL    HW223205   0.882   1.951   7.064  0.4845  0.3319 -0.2032
 3857SOL     OW23206   3.713   1.060   1.939 -0.2193  0.6328  0.6579
 3857SOL    HW123207   3.786   1.079   1.998 -0.6585  0.7620  1.1669
 3857SOL    HW223208   3.662   1.141   1.945 -2.5419 -0.9227  2.0510
 3858SOL     OW23209   3.000   3.432   4.778  0.1792  0.3996 -0.0671
 3858SOL    HW123210   2.952   3.506   4.816 -1.0639  0.6758 -2.1927
 3858SOL    HW223211   3.028   3.384   4.855  0.5676 -1.5885 -1.4534
 3859SOL     OW23212   3.926   0.689  10.170  0.4475  0.2498 -0.1298
 3859SOL    HW123213   3.994   0.653  10.226  0.3334  0.6529  0.2703
 3859SOL    HW223214   3.929   0.631  10.094  0.4680  1.0847 -0.7677
 3860SOL     OW23215   2.250   1.501   5.693 -0.4785 -0.0259  0.3224
 3860SOL    HW123216   2.279   1.586   5.660  1.0268 -0.4591  0.5468
 3860SOL    HW223217   2.164   1.523   5.731 -0.9978 -0.2572 -0.7162
 3861SOL     OW23218   2.611   3.906   1.015 -0.1734 -0.1197 -0.2615
 3861SOL    HW123219   2.575   3.834   0.963  1.2013 -0.3963 -0.8296
 3861SOL    HW223220   2.583   3.983   0.965 -1.2811 -0.2206  0.1853
 3862SOL     OW23221   1.225   0.129   9.359 -0.1090  0.0757 -0.3997
 3862SOL    HW123222   1.233   0.157   9.268 -2.0665  1.3408 -0.1807
 3862SOL    HW223223   1.300   0.070   9.362 -0.4939 -0.5977 -3.8336
 3863SOL     OW23224   2.190   2.418  11.863 -0.4214 -0.4342  0.5707
 3863SOL    HW123225   2.184   2.328  11.831  1.7121  0.4323 -2.2498
 3863SOL    HW223226   2.123   2.460  11.811  1.0017 -0.9629 -1.6811
 3864SOL     OW23227   2.824   1.165   5.769 -0.0410 -0.2895 -0.1142
 3864SOL    HW123228   2.756   1.215   5.723  1.9991  2.4137 -0.1778
 3864SOL    HW223229   2.781   1.153   5.854  0.6556  3.5260  0.7777
 3865SOL     OW23230   4.644   1.190   9.490  0.3042 -0.4631 -0.2555
 3865SOL    HW123231   4.633   1.108   9.442  0.9607 -0.5047 -0.3372
 3865SOL    HW223232   4.729   1.215   9.454 -1.3356  1.9244 -2.4637
 3866SOL     OW23233   0.214   2.554   5.964 -0.8731  0.5757 -0.0756
 3866SOL    HW123234   0.225   2.493   5.891 -1.2494 -1.6400  1.7359
 3866SOL    HW223235   0.207   2.495   6.040  0.3946  0.1446 -0.2855
 3867SOL     OW23236   0.825   0.528  10.651 -0.3743 -0.4974 -0.2674
 3867SOL    HW123237   0.874   0.585  10.711  0.3984  1.7003 -2.9402
 3867SOL    HW223238   0.873   0.535  10.568  0.2548  1.1105  0.2285
 3868SOL     OW23239   3.828   0.014   3.773  1.2647 -0.3112  0.3000
 3868SOL    HW123240   3.858   0.084   3.831 -0.2648 -1.2496  2.2378
 3868SOL    HW223241   3.733   0.030   3.770  1.5053  1.4903  2.4313
 3869SOL     OW23242   1.536   1.683   2.057  0.1248 -0.4538 -0.2718
 3869SOL    HW123243   1.519   1.638   2.140 -1.6764  0.7997  0.0427
 3869SOL    HW223244   1.617   1.733   2.070  1.0586 -1.6160 -1.5675
 3870SOL     OW23245   4.252   4.248   9.323 -0.2901 -0.0908  0.5387
 3870SOL    HW123246   4.257   4.178   9.258 -0.6292  0.6136 -0.2502
 3870SOL    HW223247   4.165   4.245   9.363 -1.1581  1.3992 -1.2670
 3871SOL     OW23248   2.114   2.581  10.064  0.0727  0.3580  0.3657
 3871SOL    HW123249   2.188   2.543  10.016  0.3305  0.8900  0.3393
 3871SOL    HW223250   2.154   2.585  10.152 -1.6715 -1.4697  1.2439
 3872SOL     OW23251   2.092   1.439   8.759  0.7602  0.2094 -0.3302
 3872SOL    HW123252   2.057   1.471   8.842  2.4421  1.6563 -0.1845
 3872SOL    HW223253   2.014   1.429   8.704  1.4030 -0.4996 -1.1108
 3873SOL     OW23254   0.148   1.115  14.907  0.3918 -0.1384 -0.0751
 3873SOL    HW123255   0.108   1.043  14.859 -3.3479  1.6349  0.3966
 3873SOL    HW223256   0.163   1.071  14.991  2.3954 -0.5765 -0.6763
 3874SOL     OW23257   0.131   3.764   3.698  0.0331 -0.3286 -0.5040
 3874SOL    HW123258   0.132   3.858   3.718 -2.0574 -0.0383 -1.7404
 3874SOL    HW223259   0.116   3.729   3.786  2.3635 -0.5094 -0.1946
 3875SOL     OW23260   4.376   0.693   5.780  0.0268 -0.0140  0.5368
 3875SOL    HW123261   4.424   0.611   5.789  0.7707  0.3626  0.0285
 3875SOL    HW223262   4.450   0.750   5.760  0.2362 -0.3300  0.4161
 3876SOL     OW23263   0.903   0.638   0.710 -0.3544 -0.6476  0.2155
 3876SOL    HW123264   0.931   0.694   0.782 -0.7852  0.4605 -0.4814
 3876SOL    HW223265   0.938   0.684   0.634 -2.5388 -2.1398 -1.7111
 3877SOL     OW23266   1.953   3.301  16.700  0.7042  0.5713 -0.5649
 3877SOL    HW123267   1.870   3.349  16.710  0.6181  0.5027 -0.9291
 3877SOL    HW223268   2.008   3.348  16.763 -1.4754  0.8178  1.1821
 3878SOL     OW23269   3.373   4.245   3.235  0.1539 -0.3399 -0.1173
 3878SOL    HW123270   3.333   4.271   3.152  0.4864 -0.6273 -0.3686
 3878SOL    HW223271   3.309   4.274   3.300  1.1880  1.6309  0.0175
 3879SOL     OW23272   0.405   1.186  13.995  0.4415 -0.2745 -0.2954
 3879SOL    HW123273   0.455   1.218  14.070  0.5920 -0.6036 -0.2534
 3879SOL    HW223274   0.439   1.253  13.936  0.1354  0.1859  0.0592
 3880SOL     OW23275   3.123   4.147  16.602  0.0539 -0.0809 -0.1396
 3880SOL    HW123276   3.126   4.195  16.685  0.2503 -0.2445 -0.0525
 3880SOL    HW223277   3.198   4.088  16.602 -1.1743 -1.6278  3.2053
 3881SOL     OW23278   3.601   1.189   5.486 -0.4228 -0.3850  0.1000
 3881SOL    HW123279   3.533   1.173   5.552  1.2524 -0.4307  1.8278
 3881SOL    HW223280   3.582   1.133   5.411 -1.2711  1.1806 -0.8448
 3882SOL     OW23281   3.930   2.541  17.318 -0.3261  0.0414 -0.4854
 3882SOL    HW123282   4.009   2.502  17.357  0.3067  1.1126 -0.7034
 3882SOL    HW223283   3.954   2.585  17.237 -2.4138 -0.5258 -1.4010
 3883SOL     OW23284   1.661   4.260   9.930  0.3542 -0.5637  0.3705
 3883SOL    HW123285   1.709   4.218  10.002  1.1724  0.3018  0.3166
 3883SOL    HW223286   1.633   4.179   9.886  1.6543 -1.5233  1.3226
 3884SOL     OW23287   4.060   1.383   7.501  0.3978 -0.5903 -0.1522
 3884SOL    HW123288   4.071   1.456   7.440  2.3755 -2.4657 -2.0380
 3884SOL    HW223289   4.033   1.427   7.582  0.7497 -1.2888  0.3528
 3885SOL     OW23290   3.454   0.111   0.585  0.0017  0.1982  0.2689
 3885SOL    HW123291   3.447   0.153   0.671 -0.4125  0.6586  0.0052
 3885SOL    HW223292   3.503   0.179   0.539 -0.3168 -0.6408 -1.2770
 3886SOL     OW23293   1.455   0.752   3.575 -0.6027 -0.3396  0.1560
 3886SOL    HW123294   1.419   0.664   3.568 -1.8187  0.0998  0.8381
 3886SOL    HW223295   1.377   0.803   3.553  0.4782  1.2474 -0.0003
 3887SOL     OW23296   0.694   2.476  11.084 -0.1925  0.5220  0.3161
 3887SOL    HW123297   0.756   2.404  11.087 -0.6840  0.1030  0.4004
 3887SOL    HW223298   0.619   2.441  11.132  0.2144 -0.7809  0.0041
 3888SOL     OW23299   0.220   2.249   4.954  0.3335  0.6951 -0.2963
 3888SOL    HW123300   0.216   2.318   5.020 -0.7282 -0.4709  0.8609
 3888SOL    HW223301   0.263   2.177   5.001  1.0018  0.5381 -1.1598
 3889SOL     OW23302   3.612   2.423   0.346  0.0620  0.2573 -0.1827
 3889SOL    HW123303   3.625   2.465   0.261  1.8335  1.1424  0.5184
 3889SOL    HW223304   3.517   2.430   0.357 -0.3523 -1.9388 -2.4948
 3890SOL     OW23305   4.291   1.243  10.910 -0.2342 -0.2343  0.2407
 3890SOL    HW123306   4.347   1.311  10.872 -3.0540  1.2023 -1.2902
 3890SOL    HW223307   4.272   1.197  10.828  0.3305  0.3413 -0.2192
 3891SOL     OW23308   2.181   4.354   2.081  0.4210  0.7813  0.6043
 3891SOL    HW123309   2.169   4.438   2.036 -0.0603 -0.9294 -2.5060
 3891SOL    HW223310   2.088   4.332   2.092  0.9603 -1.0501  1.5176
 3892SOL     OW23311   1.400   0.596  15.256 -0.4557  0.7334  0.2534
 3892SOL    HW123312   1.474   0.554  15.211 -0.0011  1.8436 -0.0539
 3892SOL    HW223313   1.443   0.635  15.332  0.6880 -0.3815  0.1616
 3893SOL     OW23314   1.719   2.811  11.669  0.1904  0.0762 -0.4097
 3893SOL    HW123315   1.783   2.882  11.662  0.1930  0.0722 -0.4258
 3893SOL    HW223316   1.705   2.811  11.764  0.0051  0.7878 -0.4304
 3894SOL     OW23317   3.907   3.330   5.258 -0.2749  0.4932 -0.5856
 3894SOL    HW123318   3.942   3.387   5.189  0.2358  1.7135  0.6918
 3894SOL    HW223319   3.991   3.303   5.296 -0.5030 -0.9200 -1.0714
 3895SOL     OW23320   1.011   1.352   5.116  0.2771 -0.2588 -0.0507
 3895SOL    HW123321   0.929   1.364   5.068 -0.0722  2.9461  1.3978
 3895SOL    HW223322   0.979   1.361   5.205 -1.4790 -1.2605 -0.5713
 3896SOL     OW23323   4.028   2.779   9.069  0.1744 -0.1104 -0.1825
 3896SOL    HW123324   4.039   2.712   9.002  0.1615 -1.4219  1.1306
 3896SOL    HW223325   4.042   2.717   9.141 -1.1696 -0.9503 -0.6420
 3897SOL     OW23326   3.602   2.414   5.654  0.4580  0.0065 -0.6216
 3897SOL    HW123327   3.540   2.465   5.603  0.2104  1.2221  0.8917
 3897SOL    HW223328   3.581   2.329   5.617  0.7634  0.2457 -1.3462
 3898SOL     OW23329   4.383   3.699   9.697 -0.7253 -0.6812 -0.1502
 3898SOL    HW123330   4.291   3.686   9.675 -0.6750  0.3308 -0.9402
 3898SOL    HW223331   4.423   3.703   9.610 -0.7023  1.2303 -0.0340
 3899SOL     OW23332   4.383   3.343  17.251 -0.1740  0.1118 -0.6705
 3899SOL    HW123333   4.378   3.356  17.157 -1.3812 -0.3152 -0.6699
 3899SOL    HW223334   4.373   3.248  17.253 -1.1333  0.2646  1.9093
 3900SOL     OW23335   0.310   2.731   8.286  0.6986 -0.1531  0.6963
 3900SOL    HW123336   0.270   2.800   8.338 -0.5510 -1.6026  1.6574
 3900SOL    HW223337   0.322   2.785   8.208  0.9159 -0.7149  0.3389
 3901SOL     OW23338   1.547   0.868   6.455  0.0398 -0.2198 -0.5273
 3901SOL    HW123339   1.457   0.835   6.464 -0.2415  0.0053 -2.5608
 3901SOL    HW223340   1.545   0.945   6.399 -0.9164  0.7394  0.8026
 3902SOL     OW23341   2.194   4.071   3.487  0.6641 -0.4874 -0.1656
 3902SOL    HW123342   2.129   4.106   3.426  0.1295 -0.9731  0.1177
 3902SOL    HW223343   2.140   4.077   3.565 -2.0770  1.1358 -2.1815
 3903SOL     OW23344   2.528   2.626   5.319 -0.1712 -0.3041 -0.0094
 3903SOL    HW123345   2.464   2.694   5.300  0.5751 -0.3058 -2.4849
 3903SOL    HW223346   2.512   2.561   5.251  1.1410  1.0807 -1.6395
 3904SOL     OW23347   2.104   2.827   2.432 -0.0136  0.4967 -0.2917
 3904SOL    HW123348   2.017   2.812   2.470 -0.7667 -0.0051 -2.1894
 3904SOL    HW223349   2.078   2.829   2.340 -0.7370 -0.7488 -0.1208
 3905SOL     OW23350   3.232   4.094   0.188  0.4031  0.4222  0.1181
 3905SOL    HW123351   3.314   4.049   0.168  0.0167  0.1434 -0.8569
 3905SOL    HW223352   3.253   4.115   0.279 -0.6314  1.8974  0.0201
 3906SOL     OW23353   2.191   3.713   0.654  0.5435  0.3071 -0.5179
 3906SOL    HW123354   2.110   3.671   0.682  1.2819 -0.1471  0.9441
 3906SOL    HW223355   2.160   3.799   0.628  0.4873  0.4327 -0.0310
 3907SOL     OW23356   3.144   4.280  16.826 -0.3286 -0.7210 -0.2665
 3907SOL    HW123357   3.238   4.263  16.833 -0.0885 -0.3630 -2.6858
 3907SOL    HW223358   3.137   4.365  16.868  0.1429 -1.4635  1.2939
 3908SOL     OW23359   1.522   3.089  12.404 -0.3332  0.6635  0.1693
 3908SOL    HW123360   1.497   3.142  12.480  3.7090  1.2310  1.1085
 3908SOL    HW223361   1.540   3.005  12.447 -1.1601  0.1518 -0.4873
 3909SOL     OW23362   1.974   2.872   2.198 -0.3413  0.1982  0.8989
 3909SOL    HW123363   1.895   2.887   2.147  0.0679 -1.9174 -0.3395
 3909SOL    HW223364   2.031   2.830   2.134 -1.2623  1.4381 -0.7369
 3910SOL     OW23365   1.096   4.144   6.853  0.1506  0.0616 -0.1577
 3910SOL    HW123366   1.080   4.234   6.882  1.4499 -0.1360  1.2238
 3910SOL    HW223367   1.006   4.111   6.849  0.7237 -1.5868  0.5614
 3911SOL     OW23368   1.599   2.641  11.081 -0.7306 -0.2300 -0.6266
 3911SOL    HW123369   1.604   2.714  11.143  0.3406 -0.1417 -0.8286
 3911SOL    HW223370   1.509   2.661  11.053 -1.1304 -0.8189  0.2453
 3912SOL     OW23371   0.926   3.348  10.043 -0.4008  0.2772  0.5131
 3912SOL    HW123372   0.986   3.285  10.005 -1.1067  0.1580 -0.3944
 3912SOL    HW223373   0.861   3.370   9.977 -1.6305 -0.8004  1.3631
 3913SOL     OW23374   3.931   1.938   3.131 -0.3364 -0.0864  0.4568
 3913SOL    HW123375   3.921   2.021   3.085 -0.3118 -0.4144 -0.1361
 3913SOL    HW223376   4.025   1.944   3.148 -0.3005  2.0222 -0.4490
 3914SOL     OW23377   0.281   0.569  13.282  0.4063 -0.3599  0.5319
 3914SOL    HW123378   0.303   0.654  13.243  0.6469  0.2703  2.0545
 3914SOL    HW223379   0.247   0.517  13.209 -0.7105  0.6674  0.3173
 3915SOL     OW23380   1.202   1.597   3.325  0.2592  0.3394  0.1445
 3915SOL    HW123381   1.137   1.582   3.257  0.6722 -1.2787  0.1229
 3915SOL    HW223382   1.154   1.582   3.407  1.3733 -3.2536  0.1496
 3916SOL     OW23383   3.108   0.735   9.079 -0.3340 -0.6878  0.1596
 3916SOL    HW123384   3.197   0.701   9.068 -0.0007 -0.4539  2.1273
 3916SOL    HW223385   3.128   0.789   9.154 -1.0428 -1.0137  0.5835
 3917SOL     OW23386   0.422   1.815  10.225 -0.4210 -0.0048  0.3226
 3917SOL    HW123387   0.374   1.796  10.305  1.5590 -1.0089  1.2636
 3917SOL    HW223388   0.494   1.875  10.244  1.2141 -1.1701 -2.2605
 3918SOL     OW23389   1.665   0.362  14.407 -0.4409 -0.4714 -0.0309
 3918SOL    HW123390   1.692   0.311  14.331  1.7092  1.0558 -0.2957
 3918SOL    HW223391   1.733   0.428  14.409 -0.1706 -0.8007  1.8824
 3919SOL     OW23392   0.041   3.749  13.030 -0.1347 -0.3710 -0.1132
 3919SOL    HW123393   4.687   3.717  13.051  0.5116 -3.1724 -1.5968
 3919SOL    HW223394   0.074   3.756  13.119 -0.4621 -0.9522  0.0598
 3920SOL     OW23395   2.552   0.029   5.035  0.0277 -0.5141 -0.9646
 3920SOL    HW123396   2.635   0.052   4.993 -0.0008 -0.6131 -1.0731
 3920SOL    HW223397   2.490   0.068   4.973 -1.3716 -0.2222  0.6221
 3921SOL     OW23398   0.111   1.974   5.689  0.2145 -0.4391  0.1686
 3921SOL    HW123399   0.199   1.999   5.717  0.5123 -0.1956 -0.9473
 3921SOL    HW223400   0.082   1.926   5.766  2.1310 -0.4279  0.9073
 3922SOL     OW23401   0.849   1.036   1.508 -0.1210 -0.1531 -0.7224
 3922SOL    HW123402   0.939   1.059   1.531 -0.2364 -1.3679  0.9627
 3922SOL    HW223403   0.860   0.970   1.439  3.3892 -0.7184  0.3823
 3923SOL     OW23404   0.591   0.687   2.361  0.1536 -0.2467  0.1766
 3923SOL    HW123405   0.538   0.765   2.373  0.4714 -0.1695  1.0282
 3923SOL    HW223406   0.670   0.719   2.404  0.4256 -0.3359 -0.2530
 3924SOL     OW23407   2.213   3.054   5.878  0.4149 -0.2104  0.1962
 3924SOL    HW123408   2.179   3.010   5.800  2.2244 -2.1187  0.5045
 3924SOL    HW223409   2.260   3.132   5.847  1.7136 -0.8349  0.6247
 3925SOL     OW23410   0.146   3.949   7.885  0.3745 -0.6986 -0.4708
 3925SOL    HW123411   0.220   3.888   7.894  0.7978  0.2551  2.7828
 3925SOL    HW223412   0.153   3.982   7.796  3.4172  0.9576  0.3540
 3926SOL     OW23413   3.126   2.714  17.075 -0.4264 -0.4164  0.3053
 3926SOL    HW123414   3.152   2.738  16.986 -2.8128  1.2749  0.0803
 3926SOL    HW223415   3.209   2.679  17.107 -0.7191  0.5794  2.1586
 3927SOL     OW23416   2.049   2.774   1.604  0.1515 -0.4381 -0.6488
 3927SOL    HW123417   2.022   2.788   1.513 -1.0546  2.3204  0.1326
 3927SOL    HW223418   2.137   2.813   1.604  0.3881 -0.9787 -0.2985
 3928SOL     OW23419   1.175   2.165  16.804 -0.2071 -0.3088  0.3728
 3928SOL    HW123420   1.262   2.127  16.792  0.2868  0.9788 -0.1365
 3928SOL    HW223421   1.131   2.086  16.836  0.7567  0.0457  2.5596
 3929SOL     OW23422   0.212   0.110   5.968  0.2910  0.1542  0.3803
 3929SOL    HW123423   0.248   0.022   5.977  0.9062  0.0989 -2.6434
 3929SOL    HW223424   0.193   0.103   5.875  0.0630  1.4385  0.3272
 3930SOL     OW23425   1.093   0.753   5.683 -0.3432  0.0371  0.7885
 3930SOL    HW123426   1.093   0.657   5.683 -0.4307  0.0382 -0.5767
 3930SOL    HW223427   0.998   0.769   5.686 -0.6805 -1.6928 -0.4968
 3931SOL     OW23428   3.213   3.870   3.590 -0.3670 -0.0365 -0.0766
 3931SOL    HW123429   3.285   3.832   3.639 -0.8524  0.2394  0.8386
 3931SOL    HW223430   3.235   3.962   3.607  2.4198 -0.8538  0.6713
 3932SOL     OW23431   3.844   2.830   8.442  0.0424 -0.1767 -0.3471
 3932SOL    HW123432   3.807   2.792   8.522  1.2890 -1.0376 -0.1879
 3932SOL    HW223433   3.878   2.913   8.473 -0.9077 -0.0543  0.3842
 3933SOL     OW23434   0.939   0.808   5.949 -0.2225  0.0447 -0.3978
 3933SOL    HW123435   0.892   0.767   5.876 -0.8763 -1.8987  1.1021
 3933SOL    HW223436   0.946   0.731   6.005 -0.6466  0.1488 -0.1988
 3934SOL     OW23437   0.519   2.554   1.816  0.3308  0.6160  0.1019
 3934SOL    HW123438   0.571   2.626   1.849 -1.3635  2.8706 -2.1400
 3934SOL    HW223439   0.464   2.525   1.889  1.0357 -1.8063 -0.3125
 3935SOL     OW23440   1.845   1.175   1.556  0.3773  0.1101 -0.1176
 3935SOL    HW123441   1.832   1.193   1.649  1.7901  2.3130 -0.3520
 3935SOL    HW223442   1.786   1.242   1.521  0.8750  0.4544 -0.2983
 3936SOL     OW23443   4.672   4.678   0.558  0.6443 -0.6069  0.0045
 3936SOL    HW123444   4.616   4.604   0.534 -1.3852  0.1303  2.5163
 3936SOL    HW223445   0.002   4.668   0.487 -2.1702  0.4102 -2.6635
 3937SOL     OW23446   4.030   2.725   8.768  0.0927  0.5441 -0.8150
 3937SOL    HW123447   4.109   2.772   8.793 -0.8276  1.9269 -0.5038
 3937SOL    HW223448   4.043   2.713   8.674  1.0491 -0.0031 -0.6104
 3938SOL     OW23449   2.402   4.444   3.681 -0.3637 -0.4436  0.0051
 3938SOL    HW123450   2.424   4.365   3.731  0.1909  0.0376  0.5321
 3938SOL    HW223451   2.486   4.489   3.674 -1.5109  1.1842 -2.9209
 3939SOL     OW23452   3.198   0.081   7.825  0.6109 -0.3306 -0.1366
 3939SOL    HW123453   3.288   0.051   7.834  1.2903  1.8372  0.3728
 3939SOL    HW223454   3.218   0.157   7.769  0.8618 -1.3448 -1.4172
 3940SOL     OW23455   3.136   2.224  12.632 -0.3360  0.6109  0.6188
 3940SOL    HW123456   3.085   2.192  12.706  0.9810  2.3552  2.2607
 3940SOL    HW223457   3.082   2.219  12.553 -0.4474 -1.9412  0.8401
 3941SOL     OW23458   2.924   1.851   5.396 -1.0493  0.1297 -0.0565
 3941SOL    HW123459   2.983   1.913   5.438  0.7186 -0.7852 -1.2244
 3941SOL    HW223460   2.884   1.905   5.328  1.0859  0.4050 -1.0769
 3942SOL     OW23461   2.558   3.153   0.369  0.0654  0.4340 -0.1140
 3942SOL    HW123462   2.631   3.175   0.427 -0.9562  1.3778  0.8156
 3942SOL    HW223463   2.569   3.211   0.293 -0.1975 -0.6946 -1.0199
 3943SOL     OW23464   2.611   4.281  15.306 -0.0911 -0.1056  0.1644
 3943SOL    HW123465   2.603   4.200  15.358  1.0245  0.0995  0.6596
 3943SOL    HW223466   2.520   4.308  15.321  0.1829  1.5458 -1.2317
 3944SOL     OW23467   2.915   4.356   7.092 -0.1358  1.0005 -0.1987
 3944SOL    HW123468   2.893   4.344   7.000 -0.0482 -0.9522  0.0267
 3944SOL    HW223469   2.822   4.363   7.117 -0.0324  0.6669  0.2890
 3945SOL     OW23470   1.171   0.003   9.783 -0.1215 -0.3981 -0.1505
 3945SOL    HW123471   1.251   0.055   9.775  0.2640 -0.4475  3.5694
 3945SOL    HW223472   1.178   4.701   9.871  0.4448  0.4948  0.1639
 3946SOL     OW23473   0.442   1.093   1.894 -0.1042 -0.2624 -0.7452
 3946SOL    HW123474   0.477   1.072   1.807 -2.4987 -1.7370 -1.3465
 3946SOL    HW223475   0.351   1.115   1.874  0.8680  2.4280 -2.1631
 3947SOL     OW23476   3.669   1.820  15.814  0.1492  0.1655 -0.5508
 3947SOL    HW123477   3.608   1.793  15.883 -0.1284 -0.8389 -1.1786
 3947SOL    HW223478   3.755   1.808  15.854  1.5629  0.0996 -3.5863
 3948SOL     OW23479   0.649   4.418   7.932 -0.1186  0.2410  0.3607
 3948SOL    HW123480   0.603   4.338   7.959 -1.8433  0.3768 -2.2307
 3948SOL    HW223481   0.735   4.379   7.914 -1.7876 -2.2870 -2.1490
 3949SOL     OW23482   1.149   4.138   9.712  0.5825  0.8183 -0.3970
 3949SOL    HW123483   1.097   4.090   9.776  0.1958 -1.1356 -2.1688
 3949SOL    HW223484   1.093   4.209   9.681  1.4075  1.7489  0.2497
 3950SOL     OW23485   0.300   1.327   2.227  0.3596  0.0132  0.4120
 3950SOL    HW123486   0.217   1.314   2.181  0.1169 -0.0875  0.8762
 3950SOL    HW223487   0.372   1.336   2.164  0.0808  1.9510  0.3484
 3951SOL     OW23488   0.797   0.956   9.643  0.0953 -0.1702  0.4707
 3951SOL    HW123489   0.776   1.002   9.561  0.6413  1.5535  1.2888
 3951SOL    HW223490   0.804   1.029   9.704  2.3275 -0.3186  0.3993
 3952SOL     OW23491   0.210   3.197   2.082  0.0129  0.2455 -0.3291
 3952SOL    HW123492   0.259   3.174   2.161 -0.0216 -1.1562 -0.7240
 3952SOL    HW223493   0.153   3.267   2.116  2.7788  2.9341 -1.2676
 3953SOL     OW23494   1.954   0.158  11.144 -0.0801  0.1160 -0.9119
 3953SOL    HW123495   2.005   0.196  11.215 -1.7609  0.7661 -0.0624
 3953SOL    HW223496   1.867   0.158  11.182  0.0144  1.7644 -0.7064
 3954SOL     OW23497   3.281   1.107   8.175 -0.0514  0.2420 -0.4723
 3954SOL    HW123498   3.310   1.176   8.116 -0.2707  1.0455  0.3757
 3954SOL    HW223499   3.348   1.041   8.156  2.2217  1.5987  2.8995
 3955SOL     OW23500   1.846   3.091   7.254  0.6573 -0.3831  0.1801
 3955SOL    HW123501   1.907   3.141   7.308 -0.6542 -0.3985  1.6626
 3955SOL    HW223502   1.760   3.116   7.288 -0.7198 -0.6209 -3.1644
 3956SOL     OW23503   2.172   2.204   5.361  0.4241  0.2590  0.0765
 3956SOL    HW123504   2.243   2.216   5.297  1.6187  0.6001  1.4656
 3956SOL    HW223505   2.094   2.189   5.307  0.4455  0.6860 -0.0764
 3957SOL     OW23506   0.634   2.286   1.311  0.2599 -0.2617  1.0866
 3957SOL    HW123507   0.647   2.275   1.405  1.1345  1.5162  1.1648
 3957SOL    HW223508   0.718   2.286   1.265 -1.2214 -1.6987 -1.6763
 3958SOL     OW23509   2.687   1.637  17.003  0.1785  0.0492  0.6624
 3958SOL    HW123510   2.689   1.733  17.004 -2.6815  0.1344 -0.3455
 3958SOL    HW223511   2.726   1.617  17.088 -0.1118 -3.0117  0.0749
 3959SOL     OW23512   1.404   3.179   3.810 -0.3142  0.2312 -0.6968
 3959SOL    HW123513   1.388   3.266   3.847  1.4589  1.1458 -2.0534
 3959SOL    HW223514   1.345   3.133   3.869 -0.3795  0.6345 -0.4471
 3960SOL     OW23515   1.244   3.047  10.846  0.3678 -0.1164 -0.0532
 3960SOL    HW123516   1.221   3.003  10.928  0.8894 -1.0635 -0.4243
 3960SOL    HW223517   1.167   3.019  10.796 -1.2423 -0.4628  2.6391
 3961SOL     OW23518   4.341   0.458   8.458 -0.1153  0.2356  0.0282
 3961SOL    HW123519   4.421   0.407   8.469 -0.3959 -0.1357  0.3491
 3961SOL    HW223520   4.300   0.433   8.542  2.9286 -1.0569  1.1310
 3962SOL     OW23521   4.729   3.751  11.458  0.2222 -0.1957 -0.0968
 3962SOL    HW123522   0.015   3.844  11.470  0.3710 -0.5711  2.5477
 3962SOL    HW223523   4.641   3.753  11.420  0.7031 -2.5901 -1.4070
 3963SOL     OW23524   3.499   0.287   7.659  0.1841  0.8482  0.1394
 3963SOL    HW123525   3.517   0.313   7.749 -1.6821  1.4513  0.3263
 3963SOL    HW223526   3.405   0.295   7.647 -0.1210  0.2023  2.1921
 3964SOL     OW23527   3.444   2.662   1.439 -0.3525 -0.2950  0.5896
 3964SOL    HW123528   3.401   2.744   1.465  0.0152 -0.5006  1.8409
 3964SOL    HW223529   3.519   2.694   1.389  0.1200 -0.4860  1.1872
 3965SOL     OW23530   3.418   1.024  13.491  0.1175  0.0843 -0.0752
 3965SOL    HW123531   3.347   1.088  13.500  0.0516 -0.1191  0.8326
 3965SOL    HW223532   3.424   1.021  13.395  0.5987 -0.3931 -0.0300
 3966SOL     OW23533   1.705   2.263   5.762  0.0511 -0.5366 -0.5548
 3966SOL    HW123534   1.646   2.326   5.723  0.7159  0.2123 -0.3550
 3966SOL    HW223535   1.779   2.319   5.786 -1.0752  0.7536 -0.1357
 3967SOL     OW23536   0.661   3.093   2.475  0.1939 -0.4355  0.1132
 3967SOL    HW123537   0.650   3.000   2.454  0.9254 -1.0245  2.3780
 3967SOL    HW223538   0.632   3.135   2.394 -0.7411  1.0298  1.2180
 3968SOL     OW23539   0.198   3.250   9.877 -0.1070  0.1240 -0.2294
 3968SOL    HW123540   0.190   3.344   9.859  0.2241  0.1403 -0.2919
 3968SOL    HW223541   0.182   3.224   9.786 -0.5496  2.0590 -0.7093
 3969SOL     OW23542   0.178   1.750   4.296 -0.2793  0.0984  0.0746
 3969SOL    HW123543   0.246   1.775   4.358 -1.5985 -0.4497  1.7552
 3969SOL    HW223544   0.112   1.819   4.308  0.7076  0.8425  1.2425
 3970SOL     OW23545   0.739   1.100   6.844  0.0918  0.6083 -0.9650
 3970SOL    HW123546   0.802   1.109   6.772 -0.1303  1.3974 -1.0583
 3970SOL    HW223547   0.660   1.143   6.811  1.4751  3.0818 -1.0605
 3971SOL     OW23548   4.538   2.396  12.342 -0.4169  0.1414  0.3362
 3971SOL    HW123549   4.503   2.396  12.431 -1.7968 -0.5900 -0.2082
 3971SOL    HW223550   4.612   2.457  12.343  0.0047 -0.3609  0.2164
 3972SOL     OW23551   4.056   2.021   0.822  0.2461  1.1701  0.1738
 3972SOL    HW123552   4.017   1.934   0.833 -0.5824  1.5475  0.2106
 3972SOL    HW223553   3.991   2.062   0.878  0.1115 -0.2422  1.0640
 3973SOL     OW23554   1.375   0.817  17.121 -0.0356  0.2664 -0.0873
 3973SOL    HW123555   1.296   0.817  17.176  0.3683 -0.0879  0.4911
 3973SOL    HW223556   1.333   0.820  17.035 -0.0801  1.8662 -0.0040
 3974SOL     OW23557   0.754   1.911  10.031  0.1412 -0.2473  0.1106
 3974SOL    HW123558   0.736   1.853  10.105  0.9450 -2.0485 -1.1141
 3974SOL    HW223559   0.675   1.965  10.039 -0.1800 -0.7284  0.2325
 3975SOL     OW23560   0.078   3.305   7.480  0.1969 -0.5364  0.1946
 3975SOL    HW123561   0.018   3.364   7.525  0.2929 -0.1930 -0.1354
 3975SOL    HW223562   0.131   3.263   7.548  0.8700 -0.4610 -0.2931
 3976SOL     OW23563   2.202   0.703  17.654  0.1094  0.3830  0.0474
 3976SOL    HW123564   2.287   0.705  17.611 -0.0579 -1.6767 -0.4164
 3976SOL    HW223565   2.220   0.656   0.000  0.5408  0.2981 -0.0982
 3977SOL     OW23566   0.461   4.418   9.853  0.3940 -0.1521 -0.1729
 3977SOL    HW123567   0.432   4.328   9.870 -2.6664  0.4970 -1.8948
 3977SOL    HW223568   0.507   4.443   9.933 -0.0328  1.7251 -0.5234
 3978SOL     OW23569   0.658   4.733   4.004  0.4009  0.0868  0.3096
 3978SOL    HW123570   0.607   0.079   4.014  0.8508  0.7855 -3.0273
 3978SOL    HW223571   0.595   4.668   3.972 -1.1133  1.7346 -0.0148
 3979SOL     OW23572   3.079   2.728   1.213 -0.2744 -0.5450 -0.3914
 3979SOL    HW123573   3.157   2.777   1.191  1.0721 -1.2778  2.6885
 3979SOL    HW223574   3.019   2.797   1.241  0.8213  0.1210  0.3134
 3980SOL     OW23575   0.540   2.374   3.613 -0.0436  0.5741  0.0585
 3980SOL    HW123576   0.558   2.458   3.571  1.9992  0.7966  1.3311
 3980SOL    HW223577   0.579   2.388   3.700  0.1421  1.9825 -0.2491
 3981SOL     OW23578   4.301   0.874  11.941 -0.1237  0.0102 -0.0219
 3981SOL    HW123579   4.334   0.860  11.853  1.9199  2.4916  0.3463
 3981SOL    HW223580   4.346   0.804  11.988  0.3250 -1.1361 -2.1707
 3982SOL     OW23581   4.208   2.733   9.845 -0.0896 -0.2790  0.4308
 3982SOL    HW123582   4.115   2.752   9.849 -0.0166  0.1379  0.2164
 3982SOL    HW223583   4.204   2.637   9.842 -1.8192 -0.1517 -1.1243
 3983SOL     OW23584   1.187   1.354   3.769 -0.0741  0.2761  0.3885
 3983SOL    HW123585   1.195   1.288   3.838  1.9997  0.6507  0.4837
 3983SOL    HW223586   1.204   1.311   3.685 -0.8719  2.3812 -0.8367
 3984SOL     OW23587   2.160   1.596   3.214  0.4090  0.1191 -0.7288
 3984SOL    HW123588   2.105   1.673   3.223 -1.7929 -1.3517 -1.8009
 3984SOL    HW223589   2.244   1.642   3.210  0.1650  0.6867  0.7390
 3985SOL     OW23590   0.449   1.005   3.841 -0.1845 -0.7697  0.3665
 3985SOL    HW123591   0.386   1.044   3.780  0.9935 -1.6698 -1.3961
 3985SOL    HW223592   0.432   1.056   3.920  1.0074 -2.2717  1.5824
 3986SOL     OW23593   0.900   4.000   9.353  0.3878  0.1054 -0.5005
 3986SOL    HW123594   0.973   3.947   9.387 -1.3008 -2.2636 -0.5126
 3986SOL    HW223595   0.915   4.019   9.261 -0.7624 -0.4215 -0.8032
 3987SOL     OW23596   0.645   4.346  10.908 -0.0067  0.0564 -0.4580
 3987SOL    HW123597   0.598   4.272  10.869 -1.3519  2.2788 -3.0727
 3987SOL    HW223598   0.663   4.317  10.998 -2.0680  1.5071  0.4104
 3988SOL     OW23599   0.998   3.733   9.666  0.1500  0.1480 -0.0790
 3988SOL    HW123600   0.997   3.643   9.632 -1.0026  0.6138 -1.2890
 3988SOL    HW223601   0.918   3.762   9.623  0.1374  0.6205  0.2676
 3989SOL     OW23602   0.627   4.660  13.080  0.2685  0.1332 -0.4584
 3989SOL    HW123603   0.703   4.683  13.027 -2.0641  3.5767 -2.2796
 3989SOL    HW223604   0.557   4.674  13.017  1.4660 -1.7474 -2.1943
 3990SOL     OW23605   4.466   2.768   4.869 -0.1556  0.5252 -0.0212
 3990SOL    HW123606   4.502   2.790   4.955 -1.6537  2.1140  0.1957
 3990SOL    HW223607   4.547   2.780   4.820  0.1961  0.1097  0.4475
 3991SOL     OW23608   3.490   1.460   9.154 -0.2308  0.0764 -0.2336
 3991SOL    HW123609   3.524   1.495   9.237  0.6929 -0.8251 -0.2267
 3991SOL    HW223610   3.531   1.374   9.159  0.3835  0.3630 -0.2864
 3992SOL     OW23611   1.715   0.892  13.439  0.3765  0.4948 -0.2474
 3992SOL    HW123612   1.711   0.974  13.488 -2.9173  0.2209 -0.0238
 3992SOL    HW223613   1.800   0.910  13.400 -0.1537 -0.0830 -1.6833
 3993SOL     OW23614   3.559   2.854   3.413  0.3546 -0.0677  0.2146
 3993SOL    HW123615   3.484   2.816   3.459 -1.6582  1.7141 -1.6224
 3993SOL    HW223616   3.531   2.823   3.327  0.9479 -0.7643  0.2652
 3994SOL     OW23617   4.384   2.987   0.493  0.1532  0.2212 -0.1643
 3994SOL    HW123618   4.339   2.905   0.513 -0.8284  0.5623 -0.9342
 3994SOL    HW223619   4.329   3.016   0.420 -0.3428 -1.6075 -0.5053
 3995SOL     OW23620   4.645   0.445   8.349  0.3523 -0.1983 -0.0710
 3995SOL    HW123621   4.696   0.465   8.270  1.4547  0.4607  0.7979
 3995SOL    HW223622   4.586   0.389   8.299 -0.6535  0.2951  0.5770
 3996SOL     OW23623   0.202   2.942   8.450  0.4135 -0.4347  0.0822
 3996SOL    HW123624   0.205   2.881   8.524 -0.0708 -0.8559 -0.2480
 3996SOL    HW223625   0.107   2.957   8.445  0.5163  0.8055  1.7469
 3997SOL     OW23626   4.356   2.656   7.981  0.4939  1.3876 -0.0929
 3997SOL    HW123627   4.347   2.595   7.908 -0.8429  1.3153  0.1331
 3997SOL    HW223628   4.267   2.691   7.983 -0.4261 -1.0161  0.3590
 3998SOL     OW23629   4.649   1.732   4.849  0.1330 -0.2599 -0.2641
 3998SOL    HW123630   4.641   1.785   4.929 -1.6883  0.5168 -0.9600
 3998SOL    HW223631   4.724   1.675   4.866  0.9386  0.7041 -0.5837
 3999SOL     OW23632   1.453   2.621   8.622 -0.1363  0.2649 -0.5730
 3999SOL    HW123633   1.457   2.540   8.672 -0.5157  0.5448 -0.0932
 3999SOL    HW223634   1.539   2.615   8.580 -0.2974 -0.4722 -0.7916
 4000SOL     OW23635   3.133   0.454   6.217  0.1871 -0.3967  0.0787
 4000SOL    HW123636   3.167   0.456   6.307  0.3819 -1.2314  0.0218
 4000SOL    HW223637   3.042   0.468   6.242  0.4874 -0.9472  1.5200
 4001SOL     OW23638   4.276   2.374  10.073  0.1112 -0.4078 -0.2227
 4001SOL    HW123639   4.253   2.418   9.991 -3.5076 -0.0344  1.0087
 4001SOL    HW223640   4.366   2.407  10.077 -0.8418  2.0903  0.4289
 4002SOL     OW23641   2.437   4.003  14.558  0.1575  0.1378  0.4238
 4002SOL    HW123642   2.401   4.021  14.645  2.4645 -1.6393  1.7394
 4002SOL    HW223643   2.420   4.091  14.525  0.8378  0.4416  0.8860
 4003SOL     OW23644   1.570   3.695  15.092  0.0950 -0.3836 -0.1555
 4003SOL    HW123645   1.478   3.700  15.066  0.3413  3.7768 -0.3190
 4003SOL    HW223646   1.583   3.789  15.108 -1.4525 -0.6603  2.5719
 4004SOL     OW23647   1.997   0.771   9.582 -0.8051  0.0097  0.1572
 4004SOL    HW123648   2.073   0.721   9.609 -0.7597  0.6432  1.2146
 4004SOL    HW223649   1.943   0.697   9.552 -1.0666  0.0772  0.4663
 4005SOL     OW23650   1.316   2.392  14.428  0.4255 -0.1312  0.1834
 4005SOL    HW123651   1.233   2.349  14.448  1.1089 -1.2854  0.5848
 4005SOL    HW223652   1.300   2.481  14.458  1.4898 -0.7668  2.7326
 4006SOL     OW23653   1.413   0.098   6.505 -0.8457  0.0874  0.2685
 4006SOL    HW123654   1.450   0.010   6.512  0.8718  0.7729 -0.3904
 4006SOL    HW223655   1.491   0.147   6.529 -0.6864 -0.9042  1.7729
 4007SOL     OW23656   3.656   1.074   7.178 -0.3504 -0.1403 -0.6615
 4007SOL    HW123657   3.704   1.085   7.260 -2.1119  2.7950 -0.0368
 4007SOL    HW223658   3.684   0.985   7.158 -1.0276 -0.5598  0.2955
 4008SOL     OW23659   3.523   0.493   9.163 -0.1402  0.0745 -0.0263
 4008SOL    HW123660   3.527   0.425   9.095  1.9023 -0.7668  0.9096
 4008SOL    HW223661   3.568   0.439   9.229 -0.3368 -0.0511  0.0053
 4009SOL     OW23662   0.231   3.390   9.180 -0.1410  0.5291 -0.8859
 4009SOL    HW123663   0.182   3.458   9.134  0.6880  2.2579  0.7620
 4009SOL    HW223664   0.196   3.314   9.135 -1.7079  0.8595 -0.2279
 4010SOL     OW23665   1.491   2.525   3.743  0.1892  0.4153 -0.4070
 4010SOL    HW123666   1.430   2.481   3.683 -0.7068  0.3723  0.5351
 4010SOL    HW223667   1.571   2.538   3.692  1.0964  0.6141  1.0723
 4011SOL     OW23668   1.015   1.576   0.605 -0.1546 -0.2419 -0.6320
 4011SOL    HW123669   1.061   1.496   0.582  1.8723 -0.4338  4.2052
 4011SOL    HW223670   0.968   1.546   0.683  0.9428 -0.1539  0.0560
 4012SOL     OW23671   0.998   3.941  17.186  0.1339  0.1729  0.1799
 4012SOL    HW123672   1.059   3.903  17.249 -1.4090 -0.3142  1.3816
 4012SOL    HW223673   0.915   3.923  17.230 -0.8574 -0.7429 -2.0690
 4013SOL     OW23674   2.922   0.163  13.860 -0.0050  0.0794 -0.0575
 4013SOL    HW123675   3.001   0.207  13.829 -0.0315  0.4471  0.4063
 4013SOL    HW223676   2.933   0.079  13.816 -2.9282  1.2782 -3.1759
 4014SOL     OW23677   0.880   2.519   3.599 -0.1350 -0.6131  0.0730
 4014SOL    HW123678   0.858   2.527   3.692 -0.8868  0.6889 -0.2138
 4014SOL    HW223679   0.935   2.442   3.604  0.1379 -0.3891  0.5635
 4015SOL     OW23680   0.380   0.107   7.370  0.7910 -0.2387  0.0392
 4015SOL    HW123681   0.291   0.098   7.405  0.7410  0.6133  0.1330
 4015SOL    HW223682   0.440   0.041   7.406  1.5548  0.0677 -0.6645
 4016SOL     OW23683   3.326   3.902   4.183 -0.2362  0.3317  0.3359
 4016SOL    HW123684   3.249   3.846   4.168  2.9214 -3.4358 -1.7676
 4016SOL    HW223685   3.299   3.987   4.150 -1.6657 -0.1422  0.2693
 4017SOL     OW23686   3.360   1.502  17.030 -0.0974 -0.6314 -0.9323
 4017SOL    HW123687   3.340   1.473  16.941 -1.5289  0.4844 -0.9739
 4017SOL    HW223688   3.389   1.593  17.018 -2.3444  0.0952 -0.8813
 4018SOL     OW23689   0.625   2.363   1.638  0.2717  0.3833 -0.3910
 4018SOL    HW123690   0.599   2.444   1.681 -0.1582 -0.7606  1.5253
 4018SOL    HW223691   0.543   2.318   1.617 -0.3536  1.0569  0.6199
 4019SOL     OW23692   1.359   0.531   7.137 -0.1186  0.1453  0.0411
 4019SOL    HW123693   1.395   0.611   7.176 -0.7746  1.0558 -1.2276
 4019SOL    HW223694   1.269   0.523   7.168 -0.7092 -1.5286 -2.1739
 4020SOL     OW23695   1.050   1.043  11.700  0.2420 -0.1650  0.1433
 4020SOL    HW123696   1.098   1.083  11.627  1.4740 -0.0769  0.9939
 4020SOL    HW223697   0.977   1.012  11.646  1.1274 -2.8588  0.4743
 4021SOL     OW23698   0.559   1.187   7.445 -1.1142  0.2490 -0.4253
 4021SOL    HW123699   0.552   1.281   7.458 -2.2433  0.2650 -1.1665
 4021SOL    HW223700   0.507   1.156   7.520 -1.8788 -4.0452 -2.7183
 4022SOL     OW23701   2.353   1.538   5.294  0.3625  0.4543 -0.0091
 4022SOL    HW123702   2.384   1.586   5.217  1.0481 -1.0355 -0.6681
 4022SOL    HW223703   2.383   1.450   5.271 -4.2262 -1.5340  1.7580
 4023SOL     OW23704   0.851   1.892  10.850 -0.2974  0.1312  0.8078
 4023SOL    HW123705   0.894   1.877  10.935  2.6319  0.5860 -0.5868
 4023SOL    HW223706   0.924   1.871  10.793 -1.6041  0.8286 -1.1104
 4024SOL     OW23707   3.263   3.403  17.569  0.0195  0.1203  0.3223
 4024SOL    HW123708   3.309   3.454  17.635 -1.3772  0.8654  0.7259
 4024SOL    HW223709   3.305   3.423  17.485  1.1296 -0.0081  0.8522
 4025SOL     OW23710   1.907   0.449   3.746 -0.2977  0.0083 -0.0221
 4025SOL    HW123711   1.874   0.538   3.747 -1.9876 -0.6256  0.6073
 4025SOL    HW223712   1.846   0.416   3.812 -2.6289  1.1327 -1.6365
 4026SOL     OW23713   2.280   4.252  10.659  0.2805 -0.3946  0.0852
 4026SOL    HW123714   2.185   4.259  10.668  0.4800  1.8441  0.5946
 4026SOL    HW223715   2.304   4.319  10.723 -0.0395  0.8217 -1.0597
 4027SOL     OW23716   3.168   0.488  11.705  0.0875 -0.3756 -0.1224
 4027SOL    HW123717   3.141   0.559  11.763  2.1727 -0.2532  0.7063
 4027SOL    HW223718   3.162   0.529  11.619  2.2387  0.1425 -0.0326
 4028SOL     OW23719   4.328   4.365   2.847 -0.3791  0.2205 -0.5356
 4028SOL    HW123720   4.345   4.453   2.813 -0.6396  0.9719  1.3267
 4028SOL    HW223721   4.412   4.354   2.890 -1.4962 -3.1667  0.7551
 4029SOL     OW23722   2.265   4.497  14.553 -0.2699 -0.2329 -0.9177
 4029SOL    HW123723   2.253   4.480  14.646  0.2707 -0.1791 -0.8382
 4029SOL    HW223724   2.183   4.538  14.524  0.8837  1.3522 -1.9317
 4030SOL     OW23725   3.897   0.647   5.164  0.2527  0.1015 -0.1012
 4030SOL    HW123726   3.803   0.645   5.183  0.3855  0.6403  0.5988
 4030SOL    HW223727   3.924   0.680   5.250  1.2984 -2.2605  0.4908
 4031SOL     OW23728   2.367   4.595   3.206  0.1696  0.2217  0.5303
 4031SOL    HW123729   2.461   4.586   3.188 -0.0514 -1.3553  0.1062
 4031SOL    HW223730   2.340   4.504   3.190 -0.1581  0.6790 -1.4814
 4032SOL     OW23731   3.299   4.701   6.103  0.0103  0.2392 -0.1691
 4032SOL    HW123732   3.345   0.043   6.138  0.8808 -0.2159 -0.3082
 4032SOL    HW223733   3.330   4.700   6.012  0.1237  1.6525 -0.1454
 4033SOL     OW23734   2.704   4.094   2.263 -0.3594 -0.5541 -0.6600
 4033SOL    HW123735   2.754   4.019   2.231  3.2058  0.6060  2.2605
 4033SOL    HW223736   2.778   4.153   2.276 -1.6889 -0.0648  4.7027
 4034SOL     OW23737   4.335   3.862  13.819 -0.6810 -0.2295  0.9265
 4034SOL    HW123738   4.382   3.781  13.801 -0.6354  0.2870 -1.2600
 4034SOL    HW223739   4.369   3.915  13.747 -1.4634 -0.1718  0.5982
 4035SOL     OW23740   0.615   4.465   2.664  0.0356  0.0701 -0.2538
 4035SOL    HW123741   0.710   4.470   2.668  0.0560 -0.7725  0.3944
 4035SOL    HW223742   0.609   4.398   2.595  0.4446 -1.4135  1.1625
 4036SOL     OW23743   4.499   1.553   3.189 -0.3384  0.1830 -0.2017
 4036SOL    HW123744   4.430   1.518   3.133  0.3107 -0.6844 -0.4561
 4036SOL    HW223745   4.529   1.629   3.139  2.8937 -0.8766  0.1166
 4037SOL     OW23746   1.889   1.559   5.486  0.0876 -0.0980  0.1928
 4037SOL    HW123747   1.852   1.638   5.525  0.6681  0.9658 -1.3800
 4037SOL    HW223748   1.979   1.578   5.459  0.4281 -0.4878  1.0731
 4038SOL     OW23749   2.336   4.280   9.726 -0.2113  0.1226  0.2853
 4038SOL    HW123750   2.403   4.337   9.764  0.1867 -1.1927  1.5343
 4038SOL    HW223751   2.251   4.323   9.739 -0.4579 -0.7659  1.6612
 4039SOL     OW23752   2.591   3.356   3.510 -0.1598 -0.8281 -0.2356
 4039SOL    HW123753   2.542   3.283   3.472 -2.5056  0.9566 -0.6539
 4039SOL    HW223754   2.547   3.366   3.595  1.0906 -1.1023  0.4431
 4040SOL     OW23755   3.896   4.678   4.085 -0.1958 -0.0082 -0.4159
 4040SOL    HW123756   3.903   0.028   4.039  1.4423  1.2175  2.0172
 4040SOL    HW223757   3.817   4.645   4.044 -0.6703  1.7036 -0.8664
 4041SOL     OW23758   0.158   4.590   8.353  0.5543 -0.2326  0.0105
 4041SOL    HW123759   0.204   4.511   8.382 -0.7673 -1.0361 -0.0845
 4041SOL    HW223760   0.210   4.666   8.378 -2.7642  2.6733 -1.9058
 4042SOL     OW23761   4.466   2.047   9.263 -0.3627  0.4105  0.2520
 4042SOL    HW123762   4.427   1.974   9.310  0.6105 -0.9689 -1.0591
 4042SOL    HW223763   4.467   2.007   9.176  2.0145  0.3311  0.3174
 4043SOL     OW23764   0.134   3.827   4.183  0.4590  0.6338  0.2496
 4043SOL    HW123765   0.107   3.911   4.221 -0.1287  0.5440  0.0300
 4043SOL    HW223766   0.137   3.770   4.260  0.1970  0.2126 -0.0550
 4044SOL     OW23767   2.148   3.119  15.184  0.0742 -0.1716  0.8467
 4044SOL    HW123768   2.071   3.115  15.241  0.0838 -0.7904  0.8227
 4044SOL    HW223769   2.212   3.171  15.231  0.6024  0.6132 -0.7456
 4045SOL     OW23770   0.699   3.464  13.551  0.3054 -0.2193 -0.1837
 4045SOL    HW123771   0.741   3.481  13.636 -0.9382  0.4213  0.2886
 4045SOL    HW223772   0.729   3.373  13.541 -2.5016 -1.4302  2.2008
 4046SOL     OW23773   4.067   1.935   7.465 -0.4753 -0.3617  0.4703
 4046SOL    HW123774   4.078   1.840   7.467 -3.8628 -0.7094  2.8773
 4046SOL    HW223775   4.150   1.965   7.501  0.4873 -1.8732 -0.4762
 4047SOL     OW23776   1.452   0.943  15.954  0.1388  0.5144  0.0996
 4047SOL    HW123777   1.509   0.989  15.893 -0.5222 -1.7465 -2.2339
 4047SOL    HW223778   1.508   0.948  16.032 -1.3671 -0.3877  1.2349
 4048SOL     OW23779   2.559   0.054   6.767  0.4859 -0.4454  0.3680
 4048SOL    HW123780   2.519   4.728   6.704 -1.1988 -1.0368  2.0348
 4048SOL    HW223781   2.524   0.031   6.853 -1.0523  2.2198  0.4449
 4049SOL     OW23782   3.036   0.502  16.154  0.7472 -0.2316  0.6786
 4049SOL    HW123783   2.954   0.496  16.105  2.1419 -0.9230 -1.5238
 4049SOL    HW223784   3.074   0.421  16.120 -2.4346 -0.8168 -1.4510
 4050SOL     OW23785   4.353   2.657   9.506  0.7338 -0.1083  0.8177
 4050SOL    HW123786   4.389   2.625   9.424  0.9156 -1.6585  1.4943
 4050SOL    HW223787   4.330   2.575   9.550  1.9121 -0.4875  0.7283
 4051SOL     OW23788   0.865   1.129   6.602 -0.2610 -0.3760  0.1629
 4051SOL    HW123789   0.796   1.148   6.538  0.8706 -0.3192 -1.0478
 4051SOL    HW223790   0.930   1.099   6.538 -0.6879 -0.1186 -0.3922
 4052SOL     OW23791   4.003   2.156  16.810  0.4086  0.0333 -0.4926
 4052SOL    HW123792   3.979   2.188  16.723 -0.9903 -0.5230 -0.3147
 4052SOL    HW223793   3.955   2.222  16.860 -0.8940  0.2137 -1.9561
 4053SOL     OW23794   1.281   1.232   8.364  0.7376  0.8159  0.0192
 4053SOL    HW123795   1.228   1.153   8.352  0.1339  1.2123  0.0772
 4053SOL    HW223796   1.280   1.268   8.275  2.9444  0.8317  0.0048
 4054SOL     OW23797   0.349   0.255  13.725 -0.5496  0.2777 -0.0606
 4054SOL    HW123798   0.305   0.306  13.657 -2.1767 -2.3423 -0.9567
 4054SOL    HW223799   0.401   0.192  13.676  0.5402  1.5351 -0.5172
 4055SOL     OW23800   4.520   2.688   4.067  0.0102  0.4250  0.3190
 4055SOL    HW123801   4.525   2.757   4.001 -0.5405  0.2186  0.0593
 4055SOL    HW223802   4.433   2.658   4.041  1.0856 -1.5090 -1.0294
 4056SOL     OW23803   2.795   4.646   2.258 -0.1754  0.0071  0.0943
 4056SOL    HW123804   2.778   4.641   2.352  2.0744 -0.5209  0.4703
 4056SOL    HW223805   2.742   4.575   2.220  0.5963 -0.4562 -0.1194
 4057SOL     OW23806   3.210   3.562   4.626  0.4475 -0.4556  0.3008
 4057SOL    HW123807   3.187   3.625   4.694 -0.4536 -0.4001 -0.0654
 4057SOL    HW223808   3.149   3.491   4.644 -1.4907  1.5756  1.7788
 4058SOL     OW23809   3.274   1.007   2.141 -0.0720 -0.3809  1.1677
 4058SOL    HW123810   3.326   1.041   2.068 -0.6833 -0.8877  0.4940
 4058SOL    HW223811   3.257   0.919   2.107 -2.1303  0.3300  0.3699
 4059SOL     OW23812   4.184   0.834  11.118 -0.0270 -0.3846  0.3036
 4059SOL    HW123813   4.209   0.841  11.026 -2.7951 -0.5606 -0.4571
 4059SOL    HW223814   4.094   0.867  11.114 -0.0756 -0.4114  1.2520
 4060SOL     OW23815   2.462   0.360   6.447 -0.2521  0.3775  0.0283
 4060SOL    HW123816   2.394   0.361   6.381  1.1943  3.8884 -1.4137
 4060SOL    HW223817   2.485   0.269   6.426 -0.6178  0.9002 -2.5595
 4061SOL     OW23818   1.095   3.824   4.562 -0.0803 -0.2286 -0.0205
 4061SOL    HW123819   1.174   3.874   4.580 -0.0247  0.1242 -1.2443
 4061SOL    HW223820   1.034   3.876   4.616 -1.5944 -1.7846 -0.2378
 4062SOL     OW23821   0.204   2.644   4.417 -0.0535 -0.2516 -0.3431
 4062SOL    HW123822   0.244   2.588   4.484 -0.6683 -0.2231  0.0452
 4062SOL    HW223823   0.140   2.586   4.376  0.4972 -0.8915 -0.3118
 4063SOL     OW23824   0.987   1.296   8.310 -0.3919  0.0033  0.5968
 4063SOL    HW123825   1.051   1.320   8.243 -1.1569 -0.3165 -0.2557
 4063SOL    HW223826   0.906   1.268   8.265 -0.1601  1.3600 -0.6667
 4064SOL     OW23827   1.280   0.885   6.417 -0.3543 -0.1052 -0.1774
 4064SOL    HW123828   1.292   0.912   6.326 -1.0180  0.6067 -0.0497
 4064SOL    HW223829   1.280   0.790   6.403  3.4633 -0.3567  1.4395
 4065SOL     OW23830   4.374   4.609   9.475  0.5484 -0.0704  0.5169
 4065SOL    HW123831   4.287   4.619   9.514  0.2649  2.5605 -0.7755
 4065SOL    HW223832   4.355   4.657   9.394  1.0617  0.0557  0.4702
 4066SOL     OW23833   0.363   2.110   2.839 -0.0340 -0.0905 -0.2478
 4066SOL    HW123834   0.298   2.113   2.769 -0.1360 -0.3981 -0.1655
 4066SOL    HW223835   0.432   2.173   2.817  1.0007 -0.2874  2.3394
 4067SOL     OW23836   1.548   1.366   5.498 -0.7390  0.6987 -0.8118
 4067SOL    HW123837   1.629   1.347   5.545 -1.9943  0.2613  1.1898
 4067SOL    HW223838   1.516   1.279   5.475  1.7019 -0.6609  0.9521
 4068SOL     OW23839   2.080   3.498   5.524  0.1699 -0.6638 -0.3404
 4068SOL    HW123840   1.985   3.499   5.513  0.6239 -0.9465 -4.1939
 4068SOL    HW223841   2.115   3.551   5.452  1.0567  0.0134  0.5895
 4069SOL     OW23842   1.165   1.715   2.148 -0.1743 -0.6024  0.3525
 4069SOL    HW123843   1.095   1.780   2.145 -1.3001 -1.8529 -0.0205
 4069SOL    HW223844   1.229   1.759   2.091 -1.2325 -1.8395 -1.7440
 4070SOL     OW23845   1.735   4.661   6.247  0.8499  0.7895 -0.1949
 4070SOL    HW123846   1.815   4.645   6.298 -1.2774  0.8771  3.1633
 4070SOL    HW223847   1.699   4.573   6.237  0.7106  0.6674  1.3529
 4071SOL     OW23848   0.261   2.099   7.728  0.4751  0.2285  0.5431
 4071SOL    HW123849   0.330   2.103   7.793 -1.7792 -1.4996  3.0265
 4071SOL    HW223850   0.272   2.010   7.695  3.3965  0.2312  1.5563
 4072SOL     OW23851   1.500   2.281   2.606 -0.5920 -0.0755 -0.1847
 4072SOL    HW123852   1.408   2.278   2.631 -0.0359  2.1757  2.1835
 4072SOL    HW223853   1.488   2.241   2.520  2.0217 -1.2771  0.0003
 4073SOL     OW23854   3.531   3.799   4.848 -0.0189 -0.3039  0.6765
 4073SOL    HW123855   3.472   3.796   4.924  1.8393 -1.1554  2.0830
 4073SOL    HW223856   3.523   3.707   4.824  0.8584 -0.1140 -0.3205
 4074SOL     OW23857   2.985   1.042   6.339 -0.5749 -0.1588 -0.4765
 4074SOL    HW123858   2.948   1.130   6.349  1.7706  0.5182  2.1683
 4074SOL    HW223859   3.059   1.070   6.285  1.2788 -2.5400  0.8581
 4075SOL     OW23860   1.511   3.872   7.666  0.0477 -0.5089  0.4959
 4075SOL    HW123861   1.468   3.940   7.615 -0.3632 -1.6306 -0.6430
 4075SOL    HW223862   1.599   3.909   7.668 -0.6231  1.0220  2.1477
 4076SOL     OW23863   3.475   4.445   6.357 -0.4093  0.7905 -0.1717
 4076SOL    HW123864   3.531   4.391   6.300  0.0370 -0.3852  1.3640
 4076SOL    HW223865   3.515   4.531   6.345 -0.2232  0.7622  0.2734
 4077SOL     OW23866   1.080   0.034  16.704 -0.2127  0.0094  0.2575
 4077SOL    HW123867   1.164   0.076  16.683  0.5955 -2.6495 -1.7949
 4077SOL    HW223868   1.036   0.041  16.620  0.4596  2.7074  0.1259
 4078SOL     OW23869   1.477   2.974   7.276  0.4251 -0.0515  0.5727
 4078SOL    HW123870   1.486   2.899   7.218 -3.3779  0.4752 -0.7215
 4078SOL    HW223871   1.399   3.013   7.238 -0.6555  1.0274  3.8616
 4079SOL     OW23872   3.526   2.715  12.474  0.2657  0.8588  0.1463
 4079SOL    HW123873   3.506   2.784  12.537 -0.4789  2.4548 -1.8261
 4079SOL    HW223874   3.619   2.733  12.460  0.4029 -1.3195 -1.7234
 4080SOL     OW23875   4.051   0.804   4.151 -0.2503 -0.0649 -0.2621
 4080SOL    HW123876   4.124   0.794   4.211  0.0760  0.8407 -0.5065
 4080SOL    HW223877   3.967   0.789   4.195 -1.5771  1.5982 -2.1847
 4081SOL     OW23878   1.159   2.178  11.996  0.3999  0.0049  0.1161
 4081SOL    HW123879   1.186   2.198  11.907  1.8368 -2.8674 -0.0926
 4081SOL    HW223880   1.143   2.269  12.021  1.0566 -0.0875  0.9053
 4082SOL     OW23881   2.321   0.245  16.453  0.5452 -0.9353  0.1455
 4082SOL    HW123882   2.273   0.162  16.459  0.4211 -0.9901 -1.6242
 4082SOL    HW223883   2.376   0.239  16.531 -0.7628  0.2347  1.1672
 4083SOL     OW23884   4.467   2.121   5.253 -0.0591 -0.2285  0.6967
 4083SOL    HW123885   4.537   2.058   5.273 -1.7565 -2.4673 -0.4553
 4083SOL    HW223886   4.412   2.118   5.331 -0.0948  1.6081  0.7571
 4084SOL     OW23887   3.053   3.586  15.628  0.3715  0.1410 -0.5645
 4084SOL    HW123888   3.078   3.598  15.536  0.5391  1.1768 -0.3803
 4084SOL    HW223889   2.982   3.650  15.625 -0.3355 -0.6738 -1.3293
 4085SOL     OW23890   3.851   0.473   7.040  0.3636  0.0437  0.1894
 4085SOL    HW123891   3.771   0.467   7.093 -0.5286  1.3851 -0.9895
 4085SOL    HW223892   3.929   0.482   7.094  0.0824 -3.2986  1.1557
 4086SOL     OW23893   0.444   1.902  12.416 -0.4284 -0.1035  0.0958
 4086SOL    HW123894   0.373   1.846  12.386 -0.8923  0.6009 -0.1219
 4086SOL    HW223895   0.491   1.896  12.333 -0.0902 -2.7164  0.4841
 4087SOL     OW23896   4.334   0.414  12.227 -0.9397 -0.0243 -0.0631
 4087SOL    HW123897   4.305   0.421  12.318 -0.7849 -1.8505  0.1248
 4087SOL    HW223898   4.258   0.446  12.178 -0.5719 -0.5314 -0.9767
 4088SOL     OW23899   2.835   0.771  14.726  0.8203 -0.0001  0.2354
 4088SOL    HW123900   2.767   0.829  14.761  0.7564  0.0572  0.0116
 4088SOL    HW223901   2.789   0.729  14.654 -0.5197 -3.2784  3.0348
 4089SOL     OW23902   0.964   2.298  15.788 -0.1277  0.1575 -0.3047
 4089SOL    HW123903   0.885   2.254  15.756  0.2138 -0.1778 -0.6846
 4089SOL    HW223904   0.962   2.371  15.725 -0.0067  0.6881  0.3051
 4090SOL     OW23905   2.206   0.718   2.283  1.0525  0.1972  0.3287
 4090SOL    HW123906   2.142   0.758   2.342 -1.4697 -0.8591 -1.6679
 4090SOL    HW223907   2.247   0.794   2.240 -2.6795  0.9786 -1.8640
 4091SOL     OW23908   4.586   1.917   5.371  0.2770  0.6337  0.5677
 4091SOL    HW123909   4.580   1.847   5.436  3.8516  0.8398  1.0750
 4091SOL    HW223910   4.663   1.890   5.322 -0.0709  1.9302 -0.6997
 4092SOL     OW23911   2.613   1.019   2.224  0.1203 -0.2372  0.0811
 4092SOL    HW123912   2.518   1.034   2.221  0.3698  1.8984  3.6112
 4092SOL    HW223913   2.626   0.966   2.302 -1.6565  0.1440  0.6522
 4093SOL     OW23914   1.636   0.164  17.288  0.0555  0.4648 -0.3356
 4093SOL    HW123915   1.696   0.137  17.219 -0.1649  0.4840 -0.5356
 4093SOL    HW223916   1.618   0.252  17.254  1.0628 -0.2424 -2.6728
 4094SOL     OW23917   0.028   1.869  11.018  0.2608  0.4143  0.4169
 4094SOL    HW123918   0.058   1.837  10.932  0.1095 -2.8919  1.5966
 4094SOL    HW223919   0.079   1.808  11.071 -1.5801 -0.1583  1.5218
 4095SOL     OW23920   4.406   1.202   9.663  0.1697 -0.0702  0.6329
 4095SOL    HW123921   4.480   1.181   9.606 -0.4615  0.2763 -0.3087
 4095SOL    HW223922   4.407   1.297   9.654  1.3604 -0.2833 -1.4111
 4096SOL     OW23923   4.647   3.305   2.416  0.2502  0.0865  0.1293
 4096SOL    HW123924   4.654   3.357   2.496  1.3650 -1.6003  1.1268
 4096SOL    HW223925   4.726   3.255   2.436  0.4627  0.0830 -0.7357
 4097SOL     OW23926   2.389   3.469   7.070  0.1433  0.7927 -0.0442
 4097SOL    HW123927   2.372   3.544   7.127  0.0227  0.3204  0.5510
 4097SOL    HW223928   2.458   3.499   7.012  0.0213 -0.1675 -0.6883
 4098SOL     OW23929   2.269   1.212   8.187 -0.0989  0.1082 -0.0149
 4098SOL    HW123930   2.347   1.260   8.158  0.3550  0.8382  2.4244
 4098SOL    HW223931   2.295   1.121   8.171  0.3098  0.3694 -0.8757
 4099SOL     OW23932   1.876   0.132  14.991  0.0683  0.1073  0.4298
 4099SOL    HW123933   1.827   0.135  15.074  1.2731  0.9388  1.1182
 4099SOL    HW223934   1.835   0.058  14.947  0.0917  0.9222 -0.9673
 4100SOL     OW23935   2.292   2.883   1.618  0.4779  0.1345 -0.9310
 4100SOL    HW123936   2.324   2.958   1.567  0.8097  0.8611  0.3528
 4100SOL    HW223937   2.372   2.830   1.621  1.4920  1.6790 -0.6298
 4101SOL     OW23938   1.539   3.824  13.275  0.4361  0.0237  0.5432
 4101SOL    HW123939   1.606   3.833  13.207 -1.5348  1.4660 -1.1791
 4101SOL    HW223940   1.560   3.884  13.346 -1.2023 -0.3039  1.3123
 4102SOL     OW23941   2.322   3.486   4.424  0.0883  0.0779  0.3855
 4102SOL    HW123942   2.306   3.457   4.334 -0.6479 -1.0965  0.9006
 4102SOL    HW223943   2.244   3.542   4.430  1.3408  1.8348  0.1493
 4103SOL     OW23944   4.231   0.266   5.517 -0.3372  0.1749 -0.2160
 4103SOL    HW123945   4.214   0.220   5.600 -0.9899 -1.3883 -1.2122
 4103SOL    HW223946   4.198   0.351   5.545  2.0773  0.1796  2.6621
 4104SOL     OW23947   3.871   2.241   4.833 -0.8118  0.3356 -0.1076
 4104SOL    HW123948   3.942   2.235   4.768  0.5625 -1.4180  1.5427
 4104SOL    HW223949   3.891   2.167   4.890 -0.4706 -0.9684 -1.8959
 4105SOL     OW23950   2.928   1.219   3.835  0.0696 -0.1822  0.3890
 4105SOL    HW123951   2.951   1.304   3.797  1.1572 -0.2001  0.9935
 4105SOL    HW223952   2.885   1.240   3.917  0.9215 -0.8475  1.0107
 4106SOL     OW23953   1.408   4.429   9.254  0.3001 -0.4126  0.6100
 4106SOL    HW123954   1.318   4.432   9.222 -0.1943 -2.8098  1.7766
 4106SOL    HW223955   1.416   4.360   9.319 -1.8326  0.7764  2.1105
 4107SOL     OW23956   1.356   3.378  13.463 -0.7095  0.0233 -0.0119
 4107SOL    HW123957   1.377   3.450  13.403 -0.1080 -0.6785 -0.6472
 4107SOL    HW223958   1.422   3.394  13.530 -1.7352  1.0087  0.7507
 4108SOL     OW23959   1.573   2.062   4.004  0.2013 -0.0891 -0.4636
 4108SOL    HW123960   1.657   2.094   3.970 -0.2496  1.0664 -0.4912
 4108SOL    HW223961   1.600   1.970   4.007  0.3259  0.0039  1.0067
 4109SOL     OW23962   0.921   4.107   5.794 -0.6676  0.0290 -0.0020
 4109SOL    HW123963   0.931   4.024   5.840 -3.2635 -0.0739  0.3644
 4109SOL    HW223964   0.860   4.076   5.727  0.3000 -0.9031 -0.4466
 4110SOL     OW23965   4.088   2.993   7.149 -0.1292  0.2409 -0.1155
 4110SOL    HW123966   4.096   3.062   7.215 -3.8177  0.3447  0.2608
 4110SOL    HW223967   4.062   3.041   7.070 -1.2010  1.0970  0.7428
 4111SOL     OW23968   2.745   2.073   1.727 -0.3390  0.1661 -0.2896
 4111SOL    HW123969   2.738   1.998   1.785 -0.3577  0.2139 -0.2302
 4111SOL    HW223970   2.824   2.053   1.678 -1.8323 -2.0550 -1.8037
 4112SOL     OW23971   2.431   1.475   1.409  0.2090  0.0199 -0.1613
 4112SOL    HW123972   2.342   1.441   1.397 -0.8547  2.0142  2.2874
 4112SOL    HW223973   2.465   1.395   1.450 -0.5121 -0.9205 -1.3783
 4113SOL     OW23974   1.555   3.836   4.773  0.7487 -0.0198 -0.5575
 4113SOL    HW123975   1.581   3.920   4.734  0.1728  1.0321  1.2848
 4113SOL    HW223976   1.504   3.801   4.700  0.8341 -1.2768 -0.0181
 4114SOL     OW23977   2.277   3.062   5.115 -0.0278 -0.1986  0.6367
 4114SOL    HW123978   2.361   3.024   5.090  0.5329  0.9247  0.8135
 4114SOL    HW223979   2.225   3.044   5.037 -0.7501  0.4799  0.9645
 4115SOL     OW23980   1.248   1.819   5.152 -0.3751 -0.5848  0.2207
 4115SOL    HW123981   1.214   1.852   5.069  2.2442  2.5210  0.3735
 4115SOL    HW223982   1.246   1.723   5.145  2.5985 -0.3337 -4.1732
 4116SOL     OW23983   1.062   0.459   2.774 -0.2463  0.7660 -0.3153
 4116SOL    HW123984   1.068   0.553   2.789 -0.3760  0.6310  0.5775
 4116SOL    HW223985   1.118   0.449   2.697  0.4330  1.4806  0.0842
 4117SOL     OW23986   1.865   2.891  10.621 -0.0590  0.0046  0.1404
 4117SOL    HW123987   1.819   2.909  10.703 -2.8622 -3.5987 -0.6648
 4117SOL    HW223988   1.847   2.798  10.612 -1.5941  0.3343 -0.3623
 4118SOL     OW23989   0.586   0.199  13.901  0.0300 -0.2026  0.5039
 4118SOL    HW123990   0.493   0.217  13.912  0.0867  1.1121 -1.2613
 4118SOL    HW223991   0.583   0.112  13.862 -0.5998  1.5552 -3.3510
 4119SOL     OW23992   1.750   2.232  16.757 -0.0002  0.9431  0.4342
 4119SOL    HW123993   1.806   2.298  16.798  2.3046 -0.6227 -0.2107
 4119SOL    HW223994   1.673   2.240  16.813  0.3056  0.3974  0.9362
 4120SOL     OW23995   3.493   1.220   6.250 -0.1640  0.4192  0.1939
 4120SOL    HW123996   3.504   1.215   6.344  1.8650  0.9905 -0.0044
 4120SOL    HW223997   3.579   1.255   6.223 -0.6561  0.1406 -1.7176
 4121SOL     OW23998   2.805   2.048  12.685  0.0221  0.1970  0.0431
 4121SOL    HW123999   2.854   1.966  12.693  1.7074  1.2262  0.3118
 4121SOL    HW224000   2.839   2.085  12.603 -0.6967  0.7891  0.0164
 4122SOL     OW24001   4.687   4.199   3.518  0.5239  0.0003 -0.9187
 4122SOL    HW124002   4.715   4.277   3.471  0.9762 -1.1245 -2.5268
 4122SOL    HW224003   4.663   4.235   3.603  1.9064  0.6794 -0.8232
 4123SOL     OW24004   4.473   2.342   2.709  0.0993 -0.4941  0.4541
 4123SOL    HW124005   4.384   2.332   2.676 -0.3434 -1.5585  1.9981
 4123SOL    HW224006   4.498   2.263   2.757 -0.4858 -1.2163 -0.4376
 4124SOL     OW24007   1.089   2.016   1.702  0.2929 -0.6181  1.1479
 4124SOL    HW124008   1.176   1.981   1.680 -0.1032 -0.6370 -0.4330
 4124SOL    HW224009   1.062   2.053   1.617 -1.9634 -2.2261  1.1751
 4125SOL     OW24010   1.502   1.719   7.591  0.1767  0.6037 -0.3489
 4125SOL    HW124011   1.542   1.789   7.539 -1.3453  1.2884 -0.5772
 4125SOL    HW224012   1.471   1.763   7.671  0.6684  1.7130 -0.7641
 4126SOL     OW24013   1.797   0.152   0.603  0.1516  0.0368 -0.4341
 4126SOL    HW124014   1.843   0.092   0.545 -0.6080  0.0338 -1.0239
 4126SOL    HW224015   1.713   0.106   0.603  0.7280 -1.0309  2.3077
 4127SOL     OW24016   2.747   1.293   1.986  0.0052  0.2692 -0.3821
 4127SOL    HW124017   2.757   1.204   2.022  1.3561  1.6026  2.5033
 4127SOL    HW224018   2.657   1.302   2.017 -0.7929  1.8661 -3.1941
 4128SOL     OW24019   4.503   3.077   2.274 -0.2522 -0.1022 -0.0362
 4128SOL    HW124020   4.520   3.138   2.203 -1.0353 -0.9724 -0.9777
 4128SOL    HW224021   4.462   3.137   2.337  0.7587 -0.2287  0.7470
 4129SOL     OW24022   3.635   2.265  13.665 -0.1094 -0.3737  0.0219
 4129SOL    HW124023   3.548   2.224  13.661  1.5108 -3.7768 -0.6442
 4129SOL    HW224024   3.670   2.237  13.580 -2.5488 -0.8143 -0.8522
 4130SOL     OW24025   3.890   2.047   0.601 -0.1181  0.1419  0.1380
 4130SOL    HW124026   3.881   2.143   0.605 -0.9605  0.1031 -0.8087
 4130SOL    HW224027   3.958   2.027   0.665  0.8618  1.0347 -0.6146
 4131SOL     OW24028   2.628   1.905   8.774 -0.5771  0.4940  0.1448
 4131SOL    HW124029   2.601   1.817   8.748  3.2277  0.4504 -3.5372
 4131SOL    HW224030   2.592   1.957   8.702 -1.1433 -0.2100 -0.0784
 4132SOL     OW24031   1.963   1.729   2.441  0.0607  0.3112  0.1353
 4132SOL    HW124032   1.893   1.752   2.502 -0.0237  0.0625  0.1307
 4132SOL    HW224033   2.041   1.743   2.495  1.1774 -1.8223 -0.9569
 4133SOL     OW24034   2.992   0.444   2.454  0.0629 -0.2896 -0.2431
 4133SOL    HW124035   2.927   0.379   2.429 -0.0338  0.1222 -1.0780
 4133SOL    HW224036   2.945   0.523   2.478  2.0145  0.5719  0.8253
 4134SOL     OW24037   2.560   1.001   4.925 -0.2167 -0.4715 -0.7826
 4134SOL    HW124038   2.573   1.087   4.885 -1.9947  0.2689  0.2349
 4134SOL    HW224039   2.476   0.977   4.885 -0.1954 -0.1840 -1.0028
 4135SOL     OW24040   3.316   0.001   3.668  0.4905  0.3832 -0.0578
 4135SOL    HW124041   3.248   4.677   3.633  0.4415  0.0431  0.5902
 4135SOL    HW224042   3.392   4.679   3.650 -0.3817 -0.3722 -1.3903
 4136SOL     OW24043   3.142   1.415   1.366  0.3658 -0.0749  0.1628
 4136SOL    HW124044   3.084   1.490   1.349 -0.8301 -1.1195 -0.2972
 4136SOL    HW224045   3.206   1.414   1.294 -0.4888 -0.8865 -0.5700
 4137SOL     OW24046   4.415   2.035   4.602  0.4848 -0.0030  0.5564
 4137SOL    HW124047   4.359   2.051   4.678 -2.0095  0.7233 -1.4198
 4137SOL    HW224048   4.355   2.041   4.527  1.6616 -1.8453 -0.5285
 4138SOL     OW24049   4.562   4.208   8.591 -0.7858  0.4047  0.5333
 4138SOL    HW124050   4.487   4.190   8.648 -1.4398 -0.9635 -0.7612
 4138SOL    HW224051   4.623   4.180   8.659 -0.6155 -0.2755  0.0916
 4139SOL     OW24052   1.312   1.690   2.453 -0.2851  0.1563 -0.1802
 4139SOL    HW124053   1.374   1.631   2.410  0.7315  1.0607  0.0415
 4139SOL    HW224054   1.279   1.622   2.511 -0.2089  0.7930  0.6132
 4140SOL     OW24055   2.849   2.109   2.375 -0.6603 -0.4174  0.1123
 4140SOL    HW124056   2.771   2.087   2.324 -0.0017 -0.0178 -1.0711
 4140SOL    HW224057   2.914   2.102   2.304  0.7464  1.0089  1.2448
 4141SOL     OW24058   2.936   1.235   2.474  0.1792 -0.6508 -0.1705
 4141SOL    HW124059   2.940   1.183   2.394 -0.0481  0.7184 -1.0753
 4141SOL    HW224060   3.023   1.224   2.512  0.1247 -0.6794 -0.0531
 4142SOL     OW24061   0.548   2.261   3.312 -0.0041 -0.0858  0.5173
 4142SOL    HW124062   0.534   2.346   3.354  0.2251  0.6819 -0.9580
 4142SOL    HW224063   0.613   2.284   3.245 -1.6981  0.5438 -0.9007
 4143SOL     OW24064   0.977   2.053   6.762  0.1722  0.2058 -0.1884
 4143SOL    HW124065   1.052   2.112   6.754 -0.4933  1.2911  1.6275
 4143SOL    HW224066   1.021   1.972   6.790 -2.9979 -0.3521  3.2097
 4144SOL     OW24067   2.546   2.505   9.135  0.1448 -0.1924  0.1434
 4144SOL    HW124068   2.481   2.564   9.096 -1.0328 -1.4610  0.1950
 4144SOL    HW224069   2.595   2.574   9.180  0.7819  0.2884 -1.2904
 4145SOL     OW24070   4.679   0.042   9.374  0.3756 -0.7705  0.4863
 4145SOL    HW124071   4.698   0.078   9.461 -0.2049 -0.6405  0.5609
 4145SOL    HW224072   4.678   4.681   9.390 -1.2230 -1.0353 -1.2192
 4146SOL     OW24073   1.975   0.166   4.271  0.4028 -0.8369  0.2676
 4146SOL    HW124074   1.887   0.147   4.238  1.2884 -2.2377 -1.2826
 4146SOL    HW224075   1.961   0.163   4.365 -0.1770 -1.2188  0.1702
 4147SOL     OW24076   4.608   0.376   7.870 -0.4551  0.0040  0.0762
 4147SOL    HW124077   4.611   0.283   7.845  1.1872  0.8324 -2.8969
 4147SOL    HW224078   4.593   0.413   7.783  1.2985 -1.1164 -0.7129
 4148SOL     OW24079   0.276   4.009   1.167  0.0399 -0.2334 -0.4126
 4148SOL    HW124080   0.245   3.918   1.174  4.8752 -1.9706 -1.4160
 4148SOL    HW224081   0.298   4.024   1.259 -1.0259  1.1151 -0.3860
 4149SOL     OW24082   1.265   3.308   2.904 -0.3995 -0.5031  0.0413
 4149SOL    HW124083   1.233   3.302   2.814  0.7308  1.0132 -0.4697
 4149SOL    HW224084   1.197   3.369   2.932 -0.1017  0.3422 -1.0516
 4150SOL     OW24085   1.573   1.576   5.293  0.2082 -0.1527  0.7351
 4150SOL    HW124086   1.534   1.516   5.229  1.2323  2.1960 -2.1020
 4150SOL    HW224087   1.590   1.515   5.364  1.3606  1.1676  1.5975
 4151SOL     OW24088   1.295   2.911   5.980 -0.0604  0.5642  0.0888
 4151SOL    HW124089   1.308   2.979   6.046 -0.1069  0.6253  0.0344
 4151SOL    HW224090   1.354   2.841   6.009 -2.5163 -1.5789 -0.0569
 4152SOL     OW24091   0.188   3.344   8.695  0.0484  0.0705 -0.0091
 4152SOL    HW124092   0.256   3.394   8.650 -0.4446  0.2705 -0.5333
 4152SOL    HW224093   0.158   3.289   8.622 -2.6485  1.1675  0.2841
 4153SOL     OW24094   1.070   1.785  13.154  0.4097  0.2811  0.1241
 4153SOL    HW124095   1.103   1.821  13.072  0.5551 -2.8827 -1.2239
 4153SOL    HW224096   1.108   1.849  13.214 -0.8251  0.8982  0.2402
 4154SOL     OW24097   0.963   4.707   8.569 -0.0120  0.0535  0.7904
 4154SOL    HW124098   1.018   4.630   8.580 -0.1752 -0.2485 -0.4783
 4154SOL    HW224099   1.031   0.040   8.568  0.2723 -0.2438 -0.7846
 4155SOL     OW24100   2.943   0.630  13.323 -0.8570 -0.0587  0.1815
 4155SOL    HW124101   3.023   0.577  13.330 -1.5099 -0.8330  1.7892
 4155SOL    HW224102   2.877   0.567  13.293 -1.3516  0.1159  0.9176
 4156SOL     OW24103   1.323   2.506   2.236  0.3408 -0.7325 -0.7860
 4156SOL    HW124104   1.296   2.532   2.148 -0.5718  3.4534  0.7605
 4156SOL    HW224105   1.254   2.440   2.247 -1.3590  0.8582 -1.8219
 4157SOL     OW24106   2.400   2.018   9.630 -0.3616  0.6484 -0.1866
 4157SOL    HW124107   2.421   1.928   9.606  1.1286  1.3727 -1.5773
 4157SOL    HW224108   2.483   2.049   9.665  0.8566 -1.0935 -1.5156
 4158SOL     OW24109   0.839   1.034   8.894 -0.1715 -0.2899  0.1286
 4158SOL    HW124110   0.817   1.048   8.986 -1.1027 -0.0350 -0.1277
 4158SOL    HW224111   0.930   1.063   8.904  0.3632 -1.7368 -0.5196
 4159SOL     OW24112   3.859   3.143   4.937  0.3966 -0.1758 -0.3202
 4159SOL    HW124113   3.853   3.071   5.000 -0.1690 -0.5702 -0.8222
 4159SOL    HW224114   3.954   3.146   4.930  0.3917  1.9147  0.4435
 4160SOL     OW24115   1.801   3.591   2.336  0.2192  0.1031 -0.4183
 4160SOL    HW124116   1.814   3.502   2.369 -3.4708 -0.8408 -1.5124
 4160SOL    HW224117   1.879   3.639   2.364 -2.0730  2.9827  1.0017
 4161SOL     OW24118   0.600   2.499   0.536 -0.5950  0.0783  0.1170
 4161SOL    HW124119   0.566   2.530   0.620 -0.1244 -2.9126  1.4039
 4161SOL    HW224120   0.520   2.475   0.489  1.2717 -4.7450 -0.6093
 4162SOL     OW24121   3.245   1.331  10.233  0.4736  0.0013  0.0192
 4162SOL    HW124122   3.159   1.302  10.263  0.1889 -0.1544 -0.9451
 4162SOL    HW224123   3.287   1.263  10.286  0.0894 -0.1871  0.0843
 4163SOL     OW24124   3.569   3.834   3.236 -0.1224  0.9042  0.0156
 4163SOL    HW124125   3.485   3.797   3.207 -0.7220  1.9959  0.3941
 4163SOL    HW224126   3.564   3.926   3.211 -1.1283  1.2963  1.6937
 4164SOL     OW24127   4.288   0.657   9.063  0.1288  0.2402 -0.3634
 4164SOL    HW124128   4.222   0.724   9.085  0.3696 -0.0165  1.1620
 4164SOL    HW224129   4.357   0.696   9.117  0.7506 -3.1156  1.2567
 4165SOL     OW24130   3.194   0.274   3.328 -0.5244  0.2965  0.0321
 4165SOL    HW124131   3.137   0.351   3.339  0.6247  1.3339 -1.3969
 4165SOL    HW224132   3.253   0.321   3.270 -0.7397 -0.2163 -0.5949
 4166SOL     OW24133   2.440   1.704   8.709 -0.0625 -0.1771  0.0665
 4166SOL    HW124134   2.413   1.714   8.800  2.3984 -0.5715  0.8287
 4166SOL    HW224135   2.404   1.618   8.686  1.5143 -0.3749 -1.6068
 4167SOL     OW24136   1.520   1.861   4.522  0.2288 -0.3169  0.1091
 4167SOL    HW124137   1.554   1.771   4.529  1.9967  0.3828  0.6319
 4167SOL    HW224138   1.580   1.906   4.582 -0.9576  1.6332 -0.1817
 4168SOL     OW24139   1.693   1.059   8.834  0.8412 -0.5062 -0.8894
 4168SOL    HW124140   1.672   0.972   8.867  0.8077 -0.2899 -0.3486
 4168SOL    HW224141   1.616   1.115   8.845  1.1000 -0.4939  0.8937
 4169SOL     OW24142   0.016   4.473   5.414 -0.2483 -0.0861 -0.1377
 4169SOL    HW124143   4.731   4.563   5.386  1.8022  0.7082  1.0192
 4169SOL    HW224144   4.659   4.443   5.414 -0.2103 -0.1919  0.9021
 4170SOL     OW24145   2.351   1.790   8.983  0.8963 -0.7328  0.1111
 4170SOL    HW124146   2.418   1.849   9.018  1.8196 -1.8994  0.3055
 4170SOL    HW224147   2.285   1.858   8.968 -0.1270 -1.2031  2.4423
 4171SOL     OW24148   1.628   4.339  11.784  0.0864  0.0717 -0.5061
 4171SOL    HW124149   1.626   4.435  11.783 -1.6771  0.0296 -1.2699
 4171SOL    HW224150   1.655   4.321  11.694 -0.6837  0.9950 -0.9219
 4172SOL     OW24151   3.151   1.785   2.349  0.0867 -0.1079  0.0298
 4172SOL    HW124152   3.195   1.870   2.350 -1.5719  0.7478  1.1052
 4172SOL    HW224153   3.118   1.791   2.259  1.6647 -0.1319 -0.5407
 4173SOL     OW24154   4.732   2.589   9.492 -0.2669  0.2514 -0.1284
 4173SOL    HW124155   0.016   2.495   9.502  1.5768  0.5676 -0.5138
 4173SOL    HW224156   4.714   2.618   9.581 -1.2655 -0.3971 -0.1164
 4174SOL     OW24157   1.406   4.453   9.564 -0.1171 -0.6796 -0.2743
 4174SOL    HW124158   1.415   4.384   9.630  0.4055  0.7393  1.1412
 4174SOL    HW224159   1.318   4.484   9.584 -0.5602 -1.4057 -1.1089
 4175SOL     OW24160   4.535   1.556   9.958 -0.3546 -0.2678  0.1098
 4175SOL    HW124161   4.529   1.466   9.989  1.4177 -1.0539 -1.8077
 4175SOL    HW224162   4.492   1.609  10.025  0.2610  0.2579  0.0886
 4176SOL     OW24163   3.585   2.915  14.646 -0.0741 -0.5294 -0.3616
 4176SOL    HW124164   3.638   2.911  14.725 -0.4082 -2.6261 -0.2327
 4176SOL    HW224165   3.617   2.996  14.605 -1.7718  0.0213 -0.6367
 4177SOL     OW24166   0.416   4.349   5.907 -0.1775 -0.1468  0.0820
 4177SOL    HW124167   0.440   4.355   5.815 -1.4028  0.1513 -0.2067
 4177SOL    HW224168   0.490   4.306   5.950  0.9920 -0.4477 -2.2229
 4178SOL     OW24169   2.486   2.068   6.870 -0.1833  0.0523 -0.2923
 4178SOL    HW124170   2.439   2.059   6.788  0.9979  1.0061 -1.0780
 4178SOL    HW224171   2.541   2.146   6.862  0.2116  0.0460  2.1380
 4179SOL     OW24172   3.028   4.659   9.428 -0.4341 -0.1216 -0.3845
 4179SOL    HW124173   3.024   4.690   9.519  2.3970  1.8343 -0.9226
 4179SOL    HW224174   3.066   0.003   9.388 -0.1182 -0.7246 -1.2581
 4180SOL     OW24175   3.335   1.414   7.497  0.3665  0.1327  0.1485
 4180SOL    HW124176   3.362   1.460   7.418 -1.8112 -0.5663 -0.9954
 4180SOL    HW224177   3.356   1.473   7.569  2.2144  0.0386 -0.3159
 4181SOL     OW24178   3.887   4.576   8.871  0.0639 -0.4450 -0.4250
 4181SOL    HW124179   3.971   4.543   8.840  2.0882  3.2140  1.0567
 4181SOL    HW224180   3.865   4.645   8.808  0.5877 -0.0541 -0.1839
 4182SOL     OW24181   0.824   3.012  16.013  0.1643  0.2160 -0.5594
 4182SOL    HW124182   0.899   2.961  16.044 -0.0193 -0.4131 -1.1715
 4182SOL    HW224183   0.836   3.019  15.919  1.3554 -0.5298 -0.4688
 4183SOL     OW24184   0.837   0.077   9.252  0.5921 -0.3283 -0.1108
 4183SOL    HW124185   0.877   0.155   9.213  0.8272 -0.6335 -0.4822
 4183SOL    HW224186   0.800   0.120   9.329  1.0688 -0.4677  0.1916
 4184SOL     OW24187   1.370   3.848   5.551  0.5901 -0.1102  0.1976
 4184SOL    HW124188   1.327   3.929   5.580  0.5584  0.7770 -2.2602
 4184SOL    HW224189   1.462   3.875   5.548  0.0426  1.8219  0.4980
 4185SOL     OW24190   3.925   4.636   1.901  0.1633  0.0096 -0.4349
 4185SOL    HW124191   3.865   4.699   1.941  0.7256  0.1652  0.1770
 4185SOL    HW224192   3.869   4.559   1.890 -1.4842  1.2117 -0.3635
 4186SOL     OW24193   4.063   0.759  12.202 -0.5696 -0.3156  0.2539
 4186SOL    HW124194   4.020   0.806  12.274  1.4649 -1.2693  2.0835
 4186SOL    HW224195   4.153   0.754  12.232  0.0799  0.4340 -1.5858
 4187SOL     OW24196   1.170   1.729   6.480  0.1615  0.1001  0.1096
 4187SOL    HW124197   1.209   1.771   6.556 -0.3242 -0.4794  0.6797
 4187SOL    HW224198   1.239   1.750   6.417 -0.4854  0.1879 -0.5757
 4188SOL     OW24199   0.972   2.934  17.574  0.5754  0.2882  0.3607
 4188SOL    HW124200   1.010   2.852  17.543  0.2831  0.3935 -0.2781
 4188SOL    HW224201   0.945   2.909  17.663  0.8642  2.3746  1.0469
 4189SOL     OW24202   1.320   4.668   4.482 -0.1982  0.2007 -0.3517
 4189SOL    HW124203   1.285   4.728   4.416 -0.6083 -0.7922 -1.0336
 4189SOL    HW224204   1.355   4.606   4.418  2.7937 -0.3421  1.8410
 4190SOL     OW24205   1.047   2.685   6.213 -0.5865 -0.3138 -0.5112
 4190SOL    HW124206   0.988   2.612   6.230 -0.8964  0.1392  0.3370
 4190SOL    HW224207   1.040   2.685   6.118 -0.2498  0.9140 -0.5430
 4191SOL     OW24208   1.532   0.258   9.995  0.4845  0.4200  0.1592
 4191SOL    HW124209   1.506   0.347   9.971  1.5090  0.0625 -2.2161
 4191SOL    HW224210   1.540   0.256  10.090 -1.2624  0.0560  0.3026
 4192SOL     OW24211   1.929   4.407   3.197 -0.1989  0.2015  0.0128
 4192SOL    HW124212   1.988   4.468   3.240  1.2637 -2.4625  1.7857
 4192SOL    HW224213   1.852   4.412   3.254  0.4064 -0.6834  0.9056
 4193SOL     OW24214   4.312   1.835  12.774  0.2931  0.4793 -0.2258
 4193SOL    HW124215   4.350   1.920  12.795 -1.6808  1.4979 -0.6726
 4193SOL    HW224216   4.305   1.843  12.678 -2.6072 -0.9271 -0.1313
 4194SOL     OW24217   3.234   3.651   5.772 -0.0920 -0.0230 -0.6350
 4194SOL    HW124218   3.155   3.641   5.825  2.5687 -0.2493  3.2567
 4194SOL    HW224219   3.290   3.581   5.805  1.6924  2.2091  1.0434
 4195SOL     OW24220   1.555   0.691  15.447 -0.1757  0.2572 -0.5663
 4195SOL    HW124221   1.606   0.762  15.408  0.7144  1.6651  3.1782
 4195SOL    HW224222   1.622   0.665  15.509 -1.6509 -0.3599  0.7856
 4196SOL     OW24223   3.851   3.133   8.520  0.6573  0.0059  0.2172
 4196SOL    HW124224   3.780   3.104   8.462 -0.8592  0.6212  1.7453
 4196SOL    HW224225   3.830   3.075   8.593 -0.1172 -1.7914 -1.4227
 4197SOL     OW24226   3.927   2.680   9.364 -0.2226  0.1907 -0.0689
 4197SOL    HW124227   3.972   2.727   9.434 -2.3111  0.6649  0.9769
 4197SOL    HW224228   3.923   2.588   9.392 -0.4448  0.1488 -0.2387
 4198SOL     OW24229   2.020   3.198   7.653 -0.0743 -0.2544  0.3080
 4198SOL    HW124230   2.059   3.216   7.568  0.4471  0.6579  0.7417
 4198SOL    HW224231   2.095   3.213   7.710 -1.1567  1.4153  1.2955
 4199SOL     OW24232   2.802   3.340  17.088  0.7376  0.1452 -0.0268
 4199SOL    HW124233   2.869   3.326  17.021 -1.8198 -1.8026 -2.1831
 4199SOL    HW224234   2.731   3.283  17.059 -0.3361  2.1365 -1.2820
 4200SOL     OW24235   2.994   0.363  10.397 -0.2545 -0.3021  0.0420
 4200SOL    HW124236   2.979   0.286  10.342  0.6396 -0.6943  0.3514
 4200SOL    HW224237   2.906   0.401  10.403  0.0166  0.1701  1.0255
 4201SOL     OW24238   2.849   1.418  11.181 -0.5157 -0.3933 -0.0677
 4201SOL    HW124239   2.856   1.351  11.113  1.5855 -0.7913  0.5456
 4201SOL    HW224240   2.813   1.366  11.253  1.9049 -1.8703  0.0762
 4202SOL     OW24241   1.101   1.993  13.303  0.0559  0.2384  0.3687
 4202SOL    HW124242   1.034   1.973  13.368 -0.1625 -0.2861 -0.0173
 4202SOL    HW224243   1.167   2.042  13.353  0.0382 -0.7492  1.3389
 4203SOL     OW24244   2.272   1.877   1.722 -0.4603 -0.8797  0.6709
 4203SOL    HW124245   2.285   1.830   1.804  0.9429 -0.2309  0.8057
 4203SOL    HW224246   2.308   1.809   1.666 -1.7164 -1.3423  0.4161
 4204SOL     OW24247   3.249   0.531   9.298 -0.0731 -0.2409 -0.2271
 4204SOL    HW124248   3.284   0.471   9.364  1.1375 -1.2409 -1.7799
 4204SOL    HW224249   3.317   0.599   9.305 -2.2509  1.8513  0.5807
 4205SOL     OW24250   3.060   1.710  11.325 -0.0303  0.4103  0.1686
 4205SOL    HW124251   3.080   1.764  11.248  1.9072 -1.6408 -0.7658
 4205SOL    HW224252   3.112   1.631  11.311 -2.5958 -1.0560 -1.1319
 4206SOL     OW24253   0.087   3.921  15.123 -0.2268  0.0854  0.1490
 4206SOL    HW124254   0.129   3.952  15.042 -0.0975 -1.4394 -0.3601
 4206SOL    HW224255   0.132   3.842  15.152 -1.0039  0.1165  1.4046
 4207SOL     OW24256   3.962   1.488   6.351  0.8502 -0.2158 -0.5898
 4207SOL    HW124257   3.880   1.462   6.307  0.0485  1.5052 -0.0944
 4207SOL    HW224258   3.949   1.582   6.362 -1.7965 -0.8769  2.2223
 4208SOL     OW24259   0.543   1.275  17.280 -0.3517 -0.3010 -0.2602
 4208SOL    HW124260   0.560   1.289  17.374 -0.6080  0.7255 -0.3599
 4208SOL    HW224261   0.501   1.189  17.277 -2.6958  0.8201  0.3651
 4209SOL     OW24262   2.885   4.010  10.339  0.1016  0.1853 -0.5390
 4209SOL    HW124263   2.926   4.076  10.283 -2.2176 -0.3720 -2.8894
 4209SOL    HW224264   2.836   4.065  10.400 -0.9724  1.8729 -2.9709
 4210SOL     OW24265   0.777   3.791   9.179  0.2140  0.8995  0.2613
 4210SOL    HW124266   0.750   3.850   9.250 -0.2034  0.4587  0.4737
 4210SOL    HW224267   0.857   3.835   9.151 -0.1791  1.1136 -0.5285
 4211SOL     OW24268   3.202   2.870  16.838 -0.5412  0.2814 -0.6202
 4211SOL    HW124269   3.294   2.882  16.813 -0.5360  1.1314 -0.1959
 4211SOL    HW224270   3.159   2.873  16.753  1.0155  0.1461 -1.4185
 4212SOL     OW24271   4.715   3.112  10.308 -0.4247 -0.0068 -0.6130
 4212SOL    HW124272   4.635   3.079  10.267 -0.8448  1.0469 -0.6349
 4212SOL    HW224273   0.017   3.036  10.354 -0.1636 -1.2661 -2.9040
 4213SOL     OW24274   4.119   1.683   1.756  0.5157 -0.3297  0.0408
 4213SOL    HW124275   4.025   1.679   1.772  0.2887  0.2463 -1.1242
 4213SOL    HW224276   4.126   1.595   1.717 -0.1839  0.4243 -1.7893
 4214SOL     OW24277   0.845   3.236  13.472  0.3072  0.0503 -0.0303
 4214SOL    HW124278   0.859   3.174  13.400 -2.4266 -1.0091  0.3573
 4214SOL    HW224279   0.931   3.270  13.497 -0.2272  0.6569  0.9794
 4215SOL     OW24280   2.154   1.570   9.758  0.4037  0.0902 -0.1417
 4215SOL    HW124281   2.097   1.523   9.819 -2.4302  0.7276 -2.2738
 4215SOL    HW224282   2.111   1.553   9.675  0.5699  0.7666 -0.3668
 4216SOL     OW24283   3.008   4.499   8.267 -0.0891  0.4819  0.3895
 4216SOL    HW124284   3.035   4.411   8.241  0.0643  0.3457  1.0184
 4216SOL    HW224285   2.990   4.489   8.360  0.0026  3.1891  0.7222
 4217SOL     OW24286   0.765   2.001   4.519 -0.0944 -0.2297 -0.1344
 4217SOL    HW124287   0.847   1.968   4.482  0.3088  0.6372 -0.0209
 4217SOL    HW224288   0.752   1.958   4.603  0.1046 -0.6199 -0.3020
 4218SOL     OW24289   1.852   0.680  16.813  0.5931  0.0898  0.2073
 4218SOL    HW124290   1.903   0.749  16.856  1.0276 -0.5201  0.6653
 4218SOL    HW224291   1.765   0.712  16.838 -1.2266 -1.5419 -4.2141
 4219SOL     OW24292   1.411   1.541   8.383  0.3180  0.4282  0.0702
 4219SOL    HW124293   1.378   1.452   8.394  0.9867 -0.0442 -1.6308
 4219SOL    HW224294   1.468   1.533   8.306 -0.3839 -3.6263 -0.0223
 4220SOL     OW24295   3.513   4.520   2.669 -0.0288 -0.1812  0.2834
 4220SOL    HW124296   3.508   4.425   2.682  0.8725 -0.4223 -1.1725
 4220SOL    HW224297   3.476   4.536   2.582 -0.6444  3.2285  1.1665
 4221SOL     OW24298   0.484   3.587   8.939  0.1386  0.2829 -0.2728
 4221SOL    HW124299   0.550   3.626   8.882  2.9183 -3.0878  0.6768
 4221SOL    HW224300   0.406   3.603   8.886 -1.0560 -3.3074  0.4156
 4222SOL     OW24301   1.000   2.566   1.955  0.2762 -0.6621  0.3228
 4222SOL    HW124302   1.015   2.474   1.932  1.8953 -0.6065  1.1726
 4222SOL    HW224303   0.923   2.585   1.902  0.3667  1.3241  0.9168
 4223SOL     OW24304   0.671   4.470  12.838 -0.3945 -0.0014  0.0485
 4223SOL    HW124305   0.677   4.422  12.920  0.4159 -0.6480 -0.4005
 4223SOL    HW224306   0.764   4.492  12.833  0.0483 -1.7500  0.6544
 4224SOL     OW24307   1.533   4.075   3.509  0.3998 -0.3948  0.0955
 4224SOL    HW124308   1.541   4.116   3.423 -1.3163  1.4820  0.8359
 4224SOL    HW224309   1.565   3.989   3.483 -2.4261 -1.0039 -1.3903
 4225SOL     OW24310   0.386   3.397   3.090 -0.2693  0.1800 -0.1158
 4225SOL    HW124311   0.390   3.490   3.110  0.5089  0.2399 -0.5573
 4225SOL    HW224312   0.292   3.387   3.077 -0.2050  1.6613 -1.7526
 4226SOL     OW24313   0.424   3.457   4.518  0.1240 -0.1516 -0.2968
 4226SOL    HW124314   0.345   3.480   4.470 -1.3948  1.1236  2.7848
 4226SOL    HW224315   0.483   3.477   4.445  0.0180  0.4299 -0.2222
 4227SOL     OW24316   1.332   2.140  12.356 -0.1309 -0.2221 -0.0718
 4227SOL    HW124317   1.408   2.121  12.301 -0.4250 -0.7468 -0.2929
 4227SOL    HW224318   1.311   2.226  12.320  0.3383 -0.3366 -0.6303
 4228SOL     OW24319   0.572   2.223   6.535 -0.8626  0.3511  0.3420
 4228SOL    HW124320   0.589   2.281   6.461  0.7320 -0.3426  0.1617
 4228SOL    HW224321   0.658   2.181   6.533 -0.9306  0.1889  0.8639
 4229SOL     OW24322   1.927   0.021   8.223 -0.4520 -0.4734 -0.5531
 4229SOL    HW124323   1.970   0.072   8.155 -0.4790 -0.7406 -0.7695
 4229SOL    HW224324   1.928   0.080   8.299 -0.2150 -1.2632  0.0593
 4230SOL     OW24325   1.962   0.103   7.742  0.1561 -0.1480 -0.4093
 4230SOL    HW124326   1.897   0.163   7.706 -0.3431 -0.3634  0.1436
 4230SOL    HW224327   1.994   0.064   7.660  2.2520 -1.1562  0.8695
 4231SOL     OW24328   1.811   2.071   0.885  0.4425  0.3562 -0.3972
 4231SOL    HW124329   1.726   2.082   0.843  0.0198  2.1357  0.8900
 4231SOL    HW224330   1.872   2.078   0.812  0.9817  1.2938  0.1339
 4232SOL     OW24331   1.483   1.206   7.297  0.3625 -0.3024 -0.1324
 4232SOL    HW124332   1.534   1.209   7.216 -0.3310  2.2564 -0.4885
 4232SOL    HW224333   1.396   1.180   7.268  0.7813 -0.2233 -1.4595
 4233SOL     OW24334   2.903   1.140   4.722 -0.3075 -0.3088  0.4201
 4233SOL    HW124335   2.888   1.108   4.633  2.9125 -0.2476 -0.1469
 4233SOL    HW224336   2.810   1.144   4.743 -0.3247 -2.9762  0.8334
 4234SOL     OW24337   2.011   1.166  15.706 -0.2616 -0.2066  0.4339
 4234SOL    HW124338   2.004   1.250  15.751  1.0358 -0.3562  0.8905
 4234SOL    HW224339   2.075   1.115  15.755 -1.2083  0.6207  2.5021
 4235SOL     OW24340   1.217   1.654  10.852 -0.0722 -0.6881  0.2630
 4235SOL    HW124341   1.129   1.618  10.860 -0.6002  1.0856  2.0998
 4235SOL    HW224342   1.182   1.724  10.797 -1.5368 -2.2016 -0.7663
 4236SOL     OW24343   0.177   2.074   2.609 -0.0048  0.2688 -0.0768
 4236SOL    HW124344   0.210   1.996   2.655  0.8112  0.6038 -0.0980
 4236SOL    HW224345   0.138   2.030   2.533  1.5510 -1.3380  0.0417
 4237SOL     OW24346   1.418   3.939   2.491  0.3513  0.3591 -0.0322
 4237SOL    HW124347   1.473   3.872   2.452 -3.3951 -1.7487 -1.7369
 4237SOL    HW224348   1.387   3.977   2.408  1.5356  1.5512  0.0681
 4238SOL     OW24349   0.812   1.763   1.775  0.2754  0.0057  0.1207
 4238SOL    HW124350   0.799   1.668   1.777  1.1497 -0.1574 -1.6433
 4238SOL    HW224351   0.864   1.764   1.694  2.6461 -0.4498  1.6233
 4239SOL     OW24352   1.006   3.652   5.504 -0.2854 -0.3294 -0.3265
 4239SOL    HW124353   0.968   3.584   5.448  0.3816 -1.7014  0.8812
 4239SOL    HW224354   1.006   3.732   5.452  1.5083  2.2941  3.7623
 4240SOL     OW24355   1.274   2.965   1.041 -0.6582 -0.4530  0.1021
 4240SOL    HW124356   1.277   3.055   1.073 -0.3058 -1.8175  3.9870
 4240SOL    HW224357   1.290   2.985   0.949 -0.4712  1.2076  0.4882
 4241SOL     OW24358   0.234   2.217   7.494 -0.2338  0.1557 -0.1449
 4241SOL    HW124359   0.253   2.186   7.583 -0.4926 -1.5055 -0.6726
 4241SOL    HW224360   0.311   2.178   7.452  0.6464  1.6637  0.0709
 4242SOL     OW24361   3.298   2.925   9.504 -0.1459  0.2906 -0.2182
 4242SOL    HW124362   3.260   2.839   9.487  3.5455 -1.7979  2.0889
 4242SOL    HW224363   3.301   2.935   9.600 -1.0824  3.9701 -0.5490
 4243SOL     OW24364   0.046   1.428   3.648  0.2757  0.1416 -0.4728
 4243SOL    HW124365   4.724   1.466   3.580  0.8161 -0.6020 -1.3344
 4243SOL    HW224366   0.132   1.462   3.623  0.5046 -1.0588 -1.2987
 4244SOL     OW24367   2.680   2.173   5.520  0.5194 -0.3108 -0.8862
 4244SOL    HW124368   2.763   2.184   5.567 -0.5466 -0.7430  1.0790
 4244SOL    HW224369   2.640   2.259   5.532 -1.0261 -1.1240 -0.2001
 4245SOL     OW24370   1.509   3.712   5.747  0.4038 -0.0165 -0.2895
 4245SOL    HW124371   1.572   3.648   5.712  0.5435  0.2156 -0.4606
 4245SOL    HW224372   1.468   3.726   5.662 -0.7642  2.1770  0.6424
 4246SOL     OW24373   0.069   3.891   5.660 -0.5748 -0.1779  0.0950
 4246SOL    HW124374   0.116   3.808   5.659 -2.5249 -1.3259  1.6523
 4246SOL    HW224375   0.141   3.952   5.671  1.2542 -2.6345  1.7428
 4247SOL     OW24376   1.501   0.159   5.804 -0.5124 -0.4214 -0.4612
 4247SOL    HW124377   1.554   0.093   5.758 -0.1083 -0.9492  0.7650
 4247SOL    HW224378   1.498   0.127   5.894  0.0202  1.2472  0.1468
 4248SOL     OW24379   2.319   2.323   9.175  0.0955  0.3250 -0.3267
 4248SOL    HW124380   2.239   2.288   9.215  0.0135 -0.6218 -1.3404
 4248SOL    HW224381   2.319   2.403   9.228  0.9204 -0.2651  0.5513
 4249SOL     OW24382   3.422   1.734   2.456  0.1141 -0.0553  0.1248
 4249SOL    HW124383   3.356   1.699   2.396 -0.4652 -0.3047  0.9048
 4249SOL    HW224384   3.423   1.827   2.434  0.7420 -0.3140 -0.9281
 4250SOL     OW24385   0.678   1.152   9.459  0.3279  0.1900  0.1495
 4250SOL    HW124386   0.658   1.242   9.433 -1.3953 -0.2939 -0.2241
 4250SOL    HW224387   0.588   1.126   9.480  0.2891  1.8254  1.9314
 4251SOL     OW24388   2.364   1.067   5.827 -0.6422 -0.3704  0.2077
 4251SOL    HW124389   2.399   1.151   5.858 -0.2783 -1.5849  3.0791
 4251SOL    HW224390   2.271   1.077   5.805 -0.7375 -0.5091  0.5361
 4252SOL     OW24391   0.575   3.177   4.500  0.2832 -0.1186  0.2860
 4252SOL    HW124392   0.561   3.115   4.572  0.2282 -0.3758  0.0518
 4252SOL    HW224393   0.500   3.232   4.522  0.1590  0.0299 -0.5116
 4253SOL     OW24394   3.626   2.361   4.717  0.1633 -0.5154  0.0469
 4253SOL    HW124395   3.695   2.327   4.775 -0.5231 -0.5536  0.8364
 4253SOL    HW224396   3.687   2.420   4.672 -1.3277  0.1544 -1.0672
 4254SOL     OW24397   2.063   0.086  12.055 -0.0506 -0.2291 -0.3195
 4254SOL    HW124398   2.095   0.175  12.064 -0.3736 -0.3439  1.7728
 4254SOL    HW224399   2.074   0.057  12.145 -1.2160  1.6331  0.4138
 4255SOL     OW24400   2.502   1.381   9.458 -0.0327  0.2202  0.5614
 4255SOL    HW124401   2.424   1.413   9.412  0.4248 -0.1196 -0.4461
 4255SOL    HW224402   2.474   1.371   9.549 -2.3633 -0.3302 -0.2076
 4256SOL     OW24403   2.156   4.559   6.739 -0.1248  0.1044  0.1259
 4256SOL    HW124404   2.137   4.652   6.753 -0.3589 -0.2254  1.9826
 4256SOL    HW224405   2.250   4.576   6.732 -0.4529  0.6054 -3.0348
 4257SOL     OW24406   1.289   4.039   7.003 -1.0287  0.0309  0.2515
 4257SOL    HW124407   1.246   4.080   6.928 -0.0521 -1.4847 -1.1150
 4257SOL    HW224408   1.308   3.952   6.969  2.3220  0.8921 -0.0501
 4258SOL     OW24409   3.001   2.965   9.551  0.2449 -0.1290  0.0702
 4258SOL    HW124410   3.012   3.001   9.639  3.2657  1.5127 -0.9670
 4258SOL    HW224411   3.052   2.884   9.552 -0.1835 -0.3918  0.4563
 4259SOL     OW24412   4.426   0.648   2.953 -0.7284  0.7519 -0.5949
 4259SOL    HW124413   4.424   0.708   3.027  0.4644 -1.8847  1.5895
 4259SOL    HW224414   4.334   0.628   2.937 -0.2478 -1.7477 -0.3989
 4260SOL     OW24415   2.308   1.273   6.238 -0.7364  0.4518  1.0890
 4260SOL    HW124416   2.236   1.236   6.289 -0.8108 -0.3078  0.4414
 4260SOL    HW224417   2.375   1.282   6.306  0.7805 -1.5084 -0.1471
 4261SOL     OW24418   1.055   2.509   3.178 -0.1265 -0.9743  0.4015
 4261SOL    HW124419   1.081   2.490   3.088 -0.7139 -1.2730  0.2887
 4261SOL    HW224420   1.140   2.535   3.211 -1.7568  3.0824  1.3725
 4262SOL     OW24421   2.886   3.879  11.243 -0.6625  0.0574  0.3153
 4262SOL    HW124422   2.953   3.824  11.282 -1.1637 -0.1429  0.8824
 4262SOL    HW224423   2.899   3.966  11.280 -1.9640 -0.0654  1.0427
 4263SOL     OW24424   0.280   2.804   0.606  0.3522 -0.0516  0.3461
 4263SOL    HW124425   0.290   2.719   0.649  1.4219  0.0987  0.4017
 4263SOL    HW224426   0.366   2.821   0.568 -0.7671  0.6435 -1.8695
 4264SOL     OW24427   0.165   1.922   6.381 -0.4996 -0.2975 -0.5740
 4264SOL    HW124428   0.164   2.016   6.363 -2.0474 -0.4801 -1.4212
 4264SOL    HW224429   0.198   1.915   6.471 -0.2839 -1.0512 -0.7065
 4265SOL     OW24430   4.089   1.543   9.215 -0.1079 -0.0930  0.2835
 4265SOL    HW124431   4.113   1.599   9.289 -0.5459 -1.5254  1.4975
 4265SOL    HW224432   4.021   1.493   9.260 -0.3137 -0.8835 -0.8946
 4266SOL     OW24433   0.700   1.478  14.965  0.1851 -0.4663  0.6665
 4266SOL    HW124434   0.761   1.491  14.893 -0.8097  1.5247  0.1551
 4266SOL    HW224435   0.612   1.471  14.927  0.0280  1.9885  0.5735
 4267SOL     OW24436   0.525   2.656  13.401 -0.2505  0.6127 -0.3695
 4267SOL    HW124437   0.490   2.595  13.337 -1.1096 -0.3153  0.9646
 4267SOL    HW224438   0.558   2.726  13.345  1.8789 -0.8729 -0.9400
 4268SOL     OW24439   2.639   0.066   8.238  0.2407 -0.2515 -0.2651
 4268SOL    HW124440   2.567   0.031   8.291 -0.4860 -0.4240 -1.3623
 4268SOL    HW224441   2.638   0.152   8.280  1.6544 -0.1153 -0.4988
 4269SOL     OW24442   0.650   1.210   6.452  0.3129 -0.4998  0.4701
 4269SOL    HW124443   0.616   1.129   6.415 -1.2974  0.0553  0.7045
 4269SOL    HW224444   0.650   1.261   6.371 -0.0570  2.6328  2.4383
 4270SOL     OW24445   4.265   1.092   0.167  0.2113 -0.0037 -0.0545
 4270SOL    HW124446   4.264   0.996   0.171 -1.0853 -0.1167 -3.1849
 4270SOL    HW224447   4.171   1.109   0.166  0.2901  0.3954 -0.8520
 4271SOL     OW24448   3.252   4.147  11.765  0.4693  0.7187 -0.1933
 4271SOL    HW124449   3.342   4.145  11.731 -0.5943 -1.4973 -2.8823
 4271SOL    HW224450   3.261   4.110  11.853  1.0545 -1.7134 -1.2714
 4272SOL     OW24451   3.089   0.719   7.947 -0.5387 -0.3856  0.0693
 4272SOL    HW124452   3.112   0.812   7.942  1.3146 -0.9140 -1.0524
 4272SOL    HW224453   3.021   0.717   7.880 -0.4517 -0.2735 -0.0208
 4273SOL     OW24454   2.406   2.803   9.718 -0.2082  0.0236 -0.1520
 4273SOL    HW124455   2.497   2.782   9.697  0.4596 -0.7452  3.5090
 4273SOL    HW224456   2.405   2.792   9.813  0.2899  0.8126 -0.0578
 4274SOL     OW24457   3.850   3.028   9.048  0.2962 -0.1420  0.2748
 4274SOL    HW124458   3.913   2.961   9.077 -0.6721 -2.0120 -2.0068
 4274SOL    HW224459   3.772   3.005   9.098 -0.0808  1.8121  0.6047
 4275SOL     OW24460   2.572   2.001  14.159  0.0315  0.6410  0.1510
 4275SOL    HW124461   2.570   2.013  14.064 -0.2133  1.1661  0.2232
 4275SOL    HW224462   2.512   2.071  14.184  0.7058  1.3227 -0.1410
 4276SOL     OW24463   3.397   3.697   4.491 -0.3200 -0.7824  0.5389
 4276SOL    HW124464   3.483   3.655   4.494 -0.6596 -1.5601 -0.3974
 4276SOL    HW224465   3.347   3.642   4.551 -2.9536 -0.6738 -1.5212
 4277SOL     OW24466   0.912   2.041   7.924 -0.7574  0.0990 -0.5488
 4277SOL    HW124467   0.982   1.986   7.889  0.1493  0.6457  0.4085
 4277SOL    HW224468   0.870   1.963   7.962  2.6456  0.2855  3.5578
 4278SOL     OW24469   0.439   4.303   3.563  0.1967  0.1144 -0.3756
 4278SOL    HW124470   0.515   4.286   3.508 -0.7889  0.8539 -1.9669
 4278SOL    HW224471   0.388   4.368   3.515 -0.1683  0.6711  0.7713
 4279SOL     OW24472   1.062   1.365  14.995 -0.8379 -0.1490 -0.0752
 4279SOL    HW124473   0.981   1.407  14.968 -0.5525 -0.7074 -1.7679
 4279SOL    HW224474   1.111   1.402  14.922 -3.1561  1.1559 -0.9801
 4280SOL     OW24475   4.316   2.958   5.399  0.0784  0.5089 -0.0263
 4280SOL    HW124476   4.337   2.970   5.492  2.4568 -1.7223 -0.2737
 4280SOL    HW224477   4.285   3.045   5.373  0.7489  0.5537 -0.6513
 4281SOL     OW24478   1.674   0.501   4.371  0.6395  0.1697  0.0982
 4281SOL    HW124479   1.733   0.474   4.301  1.1158  0.7159  0.2798
 4281SOL    HW224480   1.617   0.561   4.323  0.8607 -0.8291 -1.4006
 4282SOL     OW24481   0.331   0.040   5.074 -0.1229  0.2249 -0.0593
 4282SOL    HW124482   0.396   0.017   5.141  2.4283  0.7181 -2.3809
 4282SOL    HW224483   0.389   0.072   5.004  0.6367  3.2091  1.9757
 4283SOL     OW24484   2.114   1.689   5.414 -0.4893 -0.2822 -0.6148
 4283SOL    HW124485   2.102   1.721   5.325  2.1553 -2.3195 -1.7077
 4283SOL    HW224486   2.197   1.642   5.411 -0.5236 -0.3084 -1.0381
 4284SOL     OW24487   1.413   3.315   8.691  0.2195  0.5491 -0.0589
 4284SOL    HW124488   1.403   3.220   8.679 -1.3507  0.5097  1.4716
 4284SOL    HW224489   1.480   3.313   8.759  0.7377 -1.9750 -0.6389
 4285SOL     OW24490   0.520   0.921  14.001 -0.0654  0.8282  0.3003
 4285SOL    HW124491   0.454   0.886  14.061  1.4562  0.1375  1.5734
 4285SOL    HW224492   0.505   1.015  14.005  1.1384  0.9560  1.7244
 4286SOL     OW24493   1.503   1.323   6.259  0.0845 -0.0706  0.0806
 4286SOL    HW124494   1.537   1.341   6.172  0.3974 -0.4100  0.1319
 4286SOL    HW224495   1.525   1.230   6.258  1.7584  0.3180  0.8978
 4287SOL     OW24496   1.146   3.368   3.773  0.4139  0.0350  0.0732
 4287SOL    HW124497   1.216   3.339   3.832  0.5860  0.5251  0.1101
 4287SOL    HW224498   1.153   3.463   3.773 -0.0791  0.0726  0.1976
 4288SOL     OW24499   0.785   4.568  11.904  0.3884 -0.0164 -0.1889
 4288SOL    HW124500   0.781   4.663  11.918 -3.4952  0.0448 -1.8691
 4288SOL    HW224501   0.725   4.553  11.977  1.3690  0.3167  0.6996
 4289SOL     OW24502   0.778   1.605  11.618  0.2140 -0.3027  1.1879
 4289SOL    HW124503   0.839   1.619  11.545 -0.8496 -0.4361  0.2720
 4289SOL    HW224504   0.833   1.549  11.673  2.4152  0.5082 -0.1385
 4290SOL     OW24505   1.662   0.543   9.898  0.2933  0.7678  0.3772
 4290SOL    HW124506   1.688   0.626   9.859  1.3516 -1.1670 -3.0273
 4290SOL    HW224507   1.671   0.486   9.821 -0.9876  0.1575  0.6788
 4291SOL     OW24508   3.895   2.152   7.783  0.7181  0.1061  0.3364
 4291SOL    HW124509   3.987   2.126   7.785  0.9015  0.6348 -2.2362
 4291SOL    HW224510   3.898   2.189   7.872 -0.3253  0.6700  0.1315
 4292SOL     OW24511   2.634   2.472   0.525 -0.2002 -0.6389 -0.1614
 4292SOL    HW124512   2.709   2.448   0.579  0.5062 -1.2393 -1.4045
 4292SOL    HW224513   2.670   2.535   0.462 -2.4930 -0.4354 -1.2749
 4293SOL     OW24514   4.168   1.907   8.220 -0.6351  0.1514  0.0237
 4293SOL    HW124515   4.143   1.817   8.238 -1.1434  0.1757 -0.5301
 4293SOL    HW224516   4.118   1.946   8.292 -0.4618  2.8515 -1.3305
 4294SOL     OW24517   2.533   3.293   5.887 -0.2462 -0.8151 -0.5295
 4294SOL    HW124518   2.623   3.268   5.909 -0.4641  0.3052  1.5707
 4294SOL    HW224519   2.478   3.248   5.951 -0.0649 -0.8545 -0.3994
 4295SOL     OW24520   0.191   3.206   9.000 -0.3330  0.1440  0.2439
 4295SOL    HW124521   0.153   3.176   8.918 -0.5084 -0.8744  0.7054
 4295SOL    HW224522   0.279   3.178   8.977 -0.5748  1.2415 -2.0258
 4296SOL     OW24523   3.632   2.204   1.424 -0.1248 -0.5534 -0.0520
 4296SOL    HW124524   3.556   2.242   1.468  0.1166  0.5202 -0.5740
 4296SOL    HW224525   3.605   2.120   1.385 -1.2590  0.3788 -1.2763
 4297SOL     OW24526   3.660   1.243   2.560 -0.0965 -0.2713 -0.5058
 4297SOL    HW124527   3.705   1.261   2.642  0.4308 -1.2635 -0.5774
 4297SOL    HW224528   3.622   1.331   2.555  0.5870  0.0032 -0.8411
 4298SOL     OW24529   3.169   4.587   3.522  0.2421  0.3943 -0.5419
 4298SOL    HW124530   3.100   4.535   3.480 -2.0642  0.8226  2.7186
 4298SOL    HW224531   3.176   4.660   3.461 -2.0870  0.7968 -0.3087
 4299SOL     OW24532   3.528   4.424  17.167  0.2831 -0.0397 -0.3520
 4299SOL    HW124533   3.444   4.453  17.131 -0.0649  1.6645  1.7814
 4299SOL    HW224534   3.546   4.346  17.116 -0.2084 -0.9471  0.8692
 4300SOL     OW24535   0.890   3.462   3.899 -0.3499  0.0752 -0.2635
 4300SOL    HW124536   0.933   3.397   3.843 -1.3489 -1.5597  0.8867
 4300SOL    HW224537   0.806   3.487   3.859  0.5733  0.9349 -1.7044
 4301SOL     OW24538   3.252   4.515   8.410 -0.4037 -0.3636 -0.2711
 4301SOL    HW124539   3.282   4.598   8.446 -0.4549  0.0069 -1.0733
 4301SOL    HW224540   3.199   4.541   8.334  0.7064 -1.1431 -1.3126
 4302SOL     OW24541   4.003   1.577   4.952 -0.1941  0.5183  0.2434
 4302SOL    HW124542   4.000   1.547   5.043 -0.8014 -1.4816 -0.4286
 4302SOL    HW224543   3.908   1.582   4.941 -0.5712 -1.8694  2.4264
 4303SOL     OW24544   3.027   3.572   7.245  0.4615 -0.2002 -0.5236
 4303SOL    HW124545   3.054   3.492   7.200  0.3788 -0.5108 -0.0178
 4303SOL    HW224546   3.046   3.552   7.337 -0.2949  1.2774 -0.0484
 4304SOL     OW24547   1.900   0.817  15.922 -0.5068 -0.1726  0.0990
 4304SOL    HW124548   1.986   0.793  15.889 -2.0822 -1.5564 -2.9826
 4304SOL    HW224549   1.928   0.826  16.013 -0.1917 -2.1549  0.2121
 4305SOL     OW24550   2.493   3.449  14.009 -0.0257 -0.2685 -0.5917
 4305SOL    HW124551   2.425   3.382  14.017 -1.8184  1.4724 -1.2143
 4305SOL    HW224552   2.542   3.438  13.927  0.4334  0.1417 -0.3702
 4306SOL     OW24553   4.059   1.286   1.356  0.1495 -0.2270 -0.6304
 4306SOL    HW124554   4.093   1.354   1.298  0.7143  0.5722  0.6282
 4306SOL    HW224555   4.128   1.221   1.345  1.7568  1.3037  0.5276
 4307SOL     OW24556   3.875   3.198  12.000  0.2700  0.1762 -0.2857
 4307SOL    HW124557   3.862   3.203  11.906  0.3693  2.4534 -0.1945
 4307SOL    HW224558   3.944   3.131  12.005 -0.5605 -0.3984  3.7092
 4308SOL     OW24559   4.731   4.498   0.153 -0.1987 -0.5060  0.9212
 4308SOL    HW124560   0.050   4.494   0.233  1.5928 -1.4302 -0.3106
 4308SOL    HW224561   4.646   4.490   0.197  1.0607 -0.3581  3.4026
 4309SOL     OW24562   3.703   0.825  10.248  0.4121  0.2137 -0.2531
 4309SOL    HW124563   3.770   0.768  10.210 -0.0768  0.1732 -1.0737
 4309SOL    HW224564   3.745   0.838  10.332  1.8577  1.9031 -1.2244
 4310SOL     OW24565   2.603   2.696   4.162 -0.0798  0.4552  0.4302
 4310SOL    HW124566   2.581   2.776   4.114 -0.2928  1.1144  1.6318
 4310SOL    HW224567   2.698   2.695   4.160 -0.0867 -0.2419  0.5786
 4311SOL     OW24568   0.744   2.883   6.060 -0.0476  0.3250 -0.1508
 4311SOL    HW124569   0.726   2.961   6.112 -3.2976  0.1410 -1.0132
 4311SOL    HW224570   0.832   2.904   6.028  0.7833 -0.6269  1.5051
 4312SOL     OW24571   0.645   3.709   3.839 -0.2015  0.3214 -0.2218
 4312SOL    HW124572   0.591   3.788   3.833 -1.7597 -0.8270 -1.2739
 4312SOL    HW224573   0.656   3.699   3.933 -0.6135 -0.1403 -0.2197
 4313SOL     OW24574   3.144   3.563   4.361 -0.0306 -0.0046 -0.0891
 4313SOL    HW124575   3.195   3.504   4.304  1.4479 -0.0257  1.2582
 4313SOL    HW224576   3.190   3.560   4.445  0.7931  1.5971 -0.4693
 4314SOL     OW24577   3.588   4.371   7.057  0.3596 -0.3857 -0.5087
 4314SOL    HW124578   3.603   4.465   7.047  1.3888 -0.5060 -0.0866
 4314SOL    HW224579   3.550   4.353   6.971 -1.6732  1.1877  0.0489
 4315SOL     OW24580   1.561   1.298   8.130 -0.4174 -0.5525  0.0486
 4315SOL    HW124581   1.560   1.287   8.035  0.1581 -0.6160  0.0496
 4315SOL    HW224582   1.485   1.352   8.151  0.8200  1.4859 -0.6892
 4316SOL     OW24583   4.133   0.196  11.055 -0.2703 -0.3376 -0.4355
 4316SOL    HW124584   4.042   0.210  11.030  0.8313  1.8121 -3.3636
 4316SOL    HW224585   4.119   0.116  11.105 -0.2517 -0.1402 -0.1088
 4317SOL     OW24586   0.133   1.904   3.005  0.0799 -0.1378  0.1468
 4317SOL    HW124587   0.087   1.833   3.049  0.1845 -1.6269 -2.1242
 4317SOL    HW224588   0.213   1.910   3.058  1.5429  0.2072 -2.1133
 4318SOL     OW24589   1.164   0.372  14.543 -0.3912  0.4988 -0.0483
 4318SOL    HW124590   1.189   0.464  14.546 -0.0736  0.4969 -2.8105
 4318SOL    HW224591   1.244   0.336  14.505 -0.8124 -1.4742  0.9196
 4319SOL     OW24592   1.919   2.222   6.213 -0.2375  0.2172  0.2401
 4319SOL    HW124593   1.989   2.170   6.252 -0.4073 -0.0281  0.2173
 4319SOL    HW224594   1.968   2.278   6.153 -0.8497 -0.1044 -0.5632
 4320SOL     OW24595   3.634   2.431   1.707 -0.3241 -0.4155 -0.1074
 4320SOL    HW124596   3.658   2.523   1.715  0.8253 -0.6594 -0.7888
 4320SOL    HW224597   3.573   2.423   1.633  2.1449  3.8019 -2.5713
 4321SOL     OW24598   3.098   0.909   3.355  0.2697 -0.3671 -0.0748
 4321SOL    HW124599   3.106   0.927   3.262 -1.7524  1.6274  0.1401
 4321SOL    HW224600   3.018   0.856   3.353  0.8063 -1.2069  0.6686
 4322SOL     OW24601   2.466   3.512   5.288  0.0013 -0.2376  0.0957
 4322SOL    HW124602   2.492   3.533   5.378  0.7717  1.5351 -0.5302
 4322SOL    HW224603   2.471   3.417   5.300 -0.6311 -0.2856 -0.0675
 4323SOL     OW24604   2.971   2.611   3.844  0.2086  0.0962 -0.0177
 4323SOL    HW124605   3.048   2.646   3.889  0.8285 -2.3086  0.8209
 4323SOL    HW224606   2.979   2.644   3.755  0.1588  1.0629  0.3324
 4324SOL     OW24607   0.744   1.661   5.247 -0.0512 -0.1672 -0.0977
 4324SOL    HW124608   0.660   1.676   5.205  0.7922  1.4154 -1.2564
 4324SOL    HW224609   0.802   1.718   5.196  0.7349 -0.6063  0.3139
 4325SOL     OW24610   3.303   2.390   6.256 -0.1107  0.4994  0.0482
 4325SOL    HW124611   3.318   2.359   6.345 -4.0469  0.1217  0.5627
 4325SOL    HW224612   3.353   2.326   6.204 -0.7552 -0.0356  0.0851
 4326SOL     OW24613   1.862   3.237   5.672  0.3690 -0.1708 -0.5211
 4326SOL    HW124614   1.848   3.310   5.612  0.7899  0.2076 -0.1658
 4326SOL    HW224615   1.924   3.184   5.621  0.4894 -0.9029  0.3679
 4327SOL     OW24616   1.590   2.663   9.195 -0.0625 -0.5457  0.3500
 4327SOL    HW124617   1.582   2.632   9.105  0.5594  2.2138 -0.6270
 4327SOL    HW224618   1.601   2.757   9.185 -0.3652 -0.5186  0.2877
 4328SOL     OW24619   0.626   0.679  12.326 -0.2022  0.0836 -0.5371
 4328SOL    HW124620   0.635   0.710  12.236 -0.2487  0.9238 -0.2537
 4328SOL    HW224621   0.710   0.706  12.364 -0.4274  0.2735 -0.1699
 4329SOL     OW24622   4.370   2.165  16.652  0.3870 -0.4505  0.2854
 4329SOL    HW124623   4.443   2.108  16.674  0.8302  1.2968  3.2538
 4329SOL    HW224624   4.346   2.194  16.740 -0.7245 -2.0900  0.5236
 4330SOL     OW24625   3.828   2.404   6.885  0.1776  0.5441  0.2378
 4330SOL    HW124626   3.855   2.485   6.927 -0.0709 -0.1612  1.7656
 4330SOL    HW224627   3.882   2.408   6.806 -1.0380 -0.2162 -0.6335
 4331SOL     OW24628   0.879   4.688  14.604  0.5412  0.2713  0.2532
 4331SOL    HW124629   0.937   4.726  14.538 -1.3785  0.9071 -1.0900
 4331SOL    HW224630   0.852   4.604  14.566  1.5818 -0.5738  1.3946
 4332SOL     OW24631   1.228   0.865   3.487 -0.0181 -0.2675  0.0179
 4332SOL    HW124632   1.277   0.895   3.411 -1.1112 -2.4181 -1.5331
 4332SOL    HW224633   1.172   0.940   3.507 -0.6567 -1.0496  1.1335
 4333SOL     OW24634   0.525   1.278   6.697  0.0688  0.3554  0.0439
 4333SOL    HW124635   0.564   1.257   6.612 -0.5958 -0.8266  0.0405
 4333SOL    HW224636   0.433   1.254   6.692  0.0824  0.5500 -1.2243
 4334SOL     OW24637   0.759   2.847  14.075  0.4226  0.1229  0.1010
 4334SOL    HW124638   0.845   2.842  14.115  1.1133  0.3480 -1.3427
 4334SOL    HW224639   0.781   2.894  13.994 -0.0506  2.2211  1.1941
 4335SOL     OW24640   0.326   3.720  11.805  0.3865  0.1809 -0.0189
 4335SOL    HW124641   0.359   3.634  11.830  1.2337  0.4302 -0.2916
 4335SOL    HW224642   0.255   3.691  11.748 -1.1351  0.5267  1.7213
 4336SOL     OW24643   2.766   2.786   4.804  0.0014 -0.7690  0.2433
 4336SOL    HW124644   2.824   2.786   4.728 -2.9422 -1.4764 -2.0281
 4336SOL    HW224645   2.713   2.707   4.792 -1.7304  0.4513 -0.1259
 4337SOL     OW24646   4.155   4.330  10.998  0.4478  0.2450  0.2473
 4337SOL    HW124647   4.129   4.322  11.090  1.0996 -0.9269  0.3241
 4337SOL    HW224648   4.248   4.310  11.005  0.1738 -1.4105 -1.0988
 4338SOL     OW24649   2.409   0.555   5.788  0.0589 -0.2044 -0.7083
 4338SOL    HW124650   2.435   0.617   5.855 -3.3351 -0.4598  0.8774
 4338SOL    HW224651   2.429   0.590   5.701  2.1627  0.6682  0.1555
 4339SOL     OW24652   1.532   4.335   9.034  0.0335  0.0352 -0.0144
 4339SOL    HW124653   1.462   4.368   8.978  0.8183  1.3326 -0.2438
 4339SOL    HW224654   1.498   4.344   9.123 -0.2312 -1.2649  0.0244
 4340SOL     OW24655   0.242   2.712   2.771 -0.1698  0.2673  0.2580
 4340SOL    HW124656   0.271   2.803   2.776 -0.7009  0.4104  0.8982
 4340SOL    HW224657   0.155   2.723   2.810  0.7025  0.3359  2.2120
 4341SOL     OW24658   2.632   1.169   5.397  0.0775  0.7447 -0.0827
 4341SOL    HW124659   2.683   1.088   5.399 -1.0319  0.0250 -0.8269
 4341SOL    HW224660   2.554   1.137   5.443  0.6038 -0.4349  0.0023
 4342SOL     OW24661   4.412   4.627   5.192  0.2173  0.0067  0.3312
 4342SOL    HW124662   4.491   4.634   5.246  1.2317  1.5404 -1.3800
 4342SOL    HW224663   4.372   4.713   5.208 -0.4197 -0.1136 -0.6526
 4343SOL     OW24664   0.806   4.646   6.779 -0.0646  0.4801  0.1465
 4343SOL    HW124665   0.773   0.001   6.789  1.6335  0.6761  4.2297
 4343SOL    HW224666   0.897   4.652   6.808  0.6438  0.6005 -2.0895
 4344SOL     OW24667   2.001   3.457  14.274 -0.7954  0.0609 -0.5060
 4344SOL    HW124668   2.039   3.421  14.193  0.1423  0.6525 -0.3282
 4344SOL    HW224669   2.079   3.464  14.329 -0.6554  1.9789 -0.9796
 4345SOL     OW24670   3.543   3.537   1.028  0.2103  1.0536  0.5576
 4345SOL    HW124671   3.595   3.577   0.958  0.1939 -0.5457 -0.3898
 4345SOL    HW224672   3.553   3.603   1.096 -1.3848  1.9065 -0.0418
 4346SOL     OW24673   3.319   2.766   5.127  0.4166  0.3772  0.6097
 4346SOL    HW124674   3.277   2.812   5.054  1.1723  0.9547  0.5466
 4346SOL    HW224675   3.284   2.678   5.109 -0.2985  0.6968  0.4227
 4347SOL     OW24676   3.287   2.199   8.032  0.6939 -0.2691 -0.2970
 4347SOL    HW124677   3.256   2.226   7.946 -0.1393 -0.4598 -0.0574
 4347SOL    HW224678   3.228   2.126   8.050  0.4852 -0.1757 -0.6125
 4348SOL     OW24679   4.701   4.156   2.167 -0.3843 -0.1446  0.0070
 4348SOL    HW124680   0.022   4.143   2.090  2.1031  2.6291  1.3058
 4348SOL    HW224681   0.030   4.147   2.238  0.0986  2.5074 -0.0898
 4349SOL     OW24682   2.359   0.729  14.485  0.0295  0.6209  0.0800
 4349SOL    HW124683   2.377   0.680  14.405  1.3947  0.9029  0.2132
 4349SOL    HW224684   2.264   0.729  14.496 -0.1413  1.8034 -1.4132
 4350SOL     OW24685   2.273   1.250   2.732 -0.1083 -0.7331  0.3393
 4350SOL    HW124686   2.185   1.221   2.712 -0.0049 -2.4883  2.4742
 4350SOL    HW224687   2.266   1.278   2.824  1.3415 -0.1983  0.2965
 4351SOL     OW24688   3.403   1.821   3.170  0.4646 -0.4441  0.2160
 4351SOL    HW124689   3.432   1.903   3.209  0.0953 -0.1214 -0.1871
 4351SOL    HW224690   3.476   1.814   3.109  1.9578 -2.7182  2.2668
 4352SOL     OW24691   3.842   4.642   7.980 -0.4016  0.0069 -0.0500
 4352SOL    HW124692   3.793   4.670   7.903  1.7062  1.8171 -0.7418
 4352SOL    HW224693   3.858   4.548   7.966 -1.0228  0.2645 -2.4370
 4353SOL     OW24694   1.972   2.650   8.958  1.0037 -0.5179 -0.2544
 4353SOL    HW124695   1.964   2.720   8.892  3.0794 -1.1331 -1.1586
 4353SOL    HW224696   1.882   2.618   8.967  0.1606  1.7325 -0.5775
 4354SOL     OW24697   1.510   2.734  16.160  0.1462 -0.0086  0.2889
 4354SOL    HW124698   1.564   2.683  16.099  0.1851 -0.3987  0.6555
 4354SOL    HW224699   1.531   2.705  16.248  1.5288 -4.3648 -1.4629
 4355SOL     OW24700   1.340   2.851   7.669  0.7929  0.7192  0.6543
 4355SOL    HW124701   1.366   2.938   7.636 -2.7572  1.5697  0.1627
 4355SOL    HW224702   1.339   2.792   7.593 -0.2097  0.1875  1.0872
 4356SOL     OW24703   1.225   1.430   7.640  0.2505 -0.3752 -0.1375
 4356SOL    HW124704   1.191   1.359   7.586  0.5281  1.9320 -3.3196
 4356SOL    HW224705   1.312   1.428   7.600  1.1190 -0.5750  1.7778
 4357SOL     OW24706   4.374   0.133   8.072  0.0285  0.1282  0.2415
 4357SOL    HW124707   4.402   0.058   8.123 -0.1702  1.0841  1.7703
 4357SOL    HW224708   4.303   0.095   8.020  1.3075  0.0622 -1.4305
 4358SOL     OW24709   1.882   0.601   5.014  0.5586 -0.2861  0.2314
 4358SOL    HW124710   1.973   0.618   5.036  0.1602  0.3057  1.3973
 4358SOL    HW224711   1.841   0.607   5.100 -1.5850 -3.6142 -0.5322
 4359SOL     OW24712   0.533   4.604   5.152 -0.2498 -0.3078 -0.0269
 4359SOL    HW124713   0.616   4.638   5.119 -1.0164  0.5890 -1.0212
 4359SOL    HW224714   0.532   4.525   5.097  2.0280 -0.1147 -0.3342
 4360SOL     OW24715   2.173   3.719   7.324  0.2135 -0.1878 -0.2308
 4360SOL    HW124716   2.247   3.698   7.266 -0.1980  0.6731 -1.0690
 4360SOL    HW224717   2.163   3.814   7.336 -2.0665 -0.6418  1.4364
 4361SOL     OW24718   4.312   1.507   3.022  0.7827  0.5601  0.4181
 4361SOL    HW124719   4.246   1.452   2.978  1.4664  0.6417 -0.7062
 4361SOL    HW224720   4.262   1.585   3.044 -0.3936  0.1460 -0.7700
 4362SOL     OW24721   0.359   0.793   7.933  0.1751  0.1884 -0.1140
 4362SOL    HW124722   0.370   0.770   8.025  0.9008  1.2551  0.0719
 4362SOL    HW224723   0.381   0.885   7.948  1.1087  0.4992 -3.5661
 4363SOL     OW24724   2.596   0.563   3.267  0.2866  0.3345 -0.4433
 4363SOL    HW124725   2.538   0.553   3.342  0.7548  0.9029 -0.0058
 4363SOL    HW224726   2.639   0.477   3.267 -1.0387 -0.3271  3.4639
 4364SOL     OW24727   1.336   0.319   5.641  0.2952 -0.3491 -0.0251
 4364SOL    HW124728   1.375   0.288   5.723  0.8721  0.0565 -0.1495
 4364SOL    HW224729   1.404   0.292   5.579 -0.5740  1.7809 -1.8852
 4365SOL     OW24730   1.876   4.464   8.031 -0.2326  0.4934  0.4188
 4365SOL    HW124731   1.915   4.456   8.118 -0.0548  1.1566  0.3996
 4365SOL    HW224732   1.813   4.535   8.039  0.8402  1.6573 -1.5565
 4366SOL     OW24733   2.886   3.479   2.553  0.1618 -0.3855 -0.8061
 4366SOL    HW124734   2.945   3.542   2.594 -1.7152  0.2672  0.9577
 4366SOL    HW224735   2.849   3.432   2.629 -0.5543  1.6879  0.1493
 4367SOL     OW24736   2.654   1.257   4.779 -0.9209  0.9092 -0.4049
 4367SOL    HW124737   2.705   1.336   4.794 -0.3854  0.1344  1.8639
 4367SOL    HW224738   2.562   1.280   4.792 -0.4459  2.1633  0.7965
 4368SOL     OW24739   0.776   2.445  12.169  0.5589  0.0757 -0.5140
 4368SOL    HW124740   0.832   2.394  12.227 -2.2087 -2.0484  0.2698
 4368SOL    HW224741   0.690   2.416  12.197  0.9246  1.4799  2.0950
 4369SOL     OW24742   4.119   1.248   8.369 -0.6136 -0.0931 -0.5177
 4369SOL    HW124743   4.170   1.166   8.369  0.2256  0.4194  1.5582
 4369SOL    HW224744   4.086   1.248   8.279 -0.6786  1.5121 -0.4894
 4370SOL     OW24745   1.904   0.827   2.750 -0.2916 -0.1764  0.4519
 4370SOL    HW124746   1.820   0.781   2.744  0.5586 -1.9877  2.5797
 4370SOL    HW224747   1.899   0.865   2.838  1.2073 -1.1871  0.9732
 4371SOL     OW24748   3.318   0.949  11.853 -0.1735  0.4156 -0.3447
 4371SOL    HW124749   3.388   1.002  11.891 -1.4577 -0.3845  3.1427
 4371SOL    HW224750   3.255   1.019  11.837  1.0171  1.6021  0.0967
 4372SOL     OW24751   2.113   1.951  10.466 -0.2773 -0.1893  0.4823
 4372SOL    HW124752   2.123   1.979  10.558 -0.9633 -0.2878  0.5873
 4372SOL    HW224753   2.199   1.910  10.455 -0.1833  0.5728 -1.5575
 4373SOL     OW24754   3.658   2.311  12.848  0.1810 -0.3033 -0.2585
 4373SOL    HW124755   3.652   2.216  12.849  0.2005 -0.2676  2.7651
 4373SOL    HW224756   3.731   2.328  12.907  0.2781  0.6970 -0.6495
 4374SOL     OW24757   3.755   4.615   3.367 -0.1080 -0.2231 -0.2252
 4374SOL    HW124758   3.693   4.562   3.317 -0.8685  0.1015  0.3746
 4374SOL    HW224759   3.817   4.641   3.299  0.8937 -0.4108  0.6134
 4375SOL     OW24760   2.884   4.444   8.500  0.2731  0.5515  0.0222
 4375SOL    HW124761   2.817   4.395   8.453 -0.4857  1.9564 -0.3625
 4375SOL    HW224762   2.888   4.389   8.578  1.4691  1.2547  0.4576
 4376SOL     OW24763   4.691   0.701  15.124 -0.2501  0.1590  0.3473
 4376SOL    HW124764   4.679   0.669  15.213  0.5688 -0.0535  0.3780
 4376SOL    HW224765   0.012   0.633  15.084 -2.2920 -0.0798 -2.0406
 4377SOL     OW24766   4.006   2.047   8.405 -0.2001  0.2328 -0.0110
 4377SOL    HW124767   4.054   2.062   8.486  1.8486 -0.7880 -1.0546
 4377SOL    HW224768   3.985   2.138   8.385 -1.2751  0.2475  1.1545
 4378SOL     OW24769   3.304   1.533  14.092 -0.1697 -0.4685  0.3111
 4378SOL    HW124770   3.236   1.524  14.026  1.1820  0.3651 -1.1788
 4378SOL    HW224771   3.355   1.609  14.066  0.2775 -0.4378  1.2599
 4379SOL     OW24772   3.346   2.330   4.715 -0.1407  0.4315  0.0281
 4379SOL    HW124773   3.435   2.342   4.682  0.2556 -2.5970  0.0469
 4379SOL    HW224774   3.313   2.420   4.715 -3.4164 -0.7723  0.2477
 4380SOL     OW24775   3.624   3.168  17.720  0.5143  0.7592  0.2121
 4380SOL    HW124776   3.574   3.227   0.041  0.5067  0.7820  0.1811
 4380SOL    HW224777   3.596   3.085   0.023 -0.0823  0.6548 -0.4532
 4381SOL     OW24778   1.546   0.444  15.112 -0.0728  0.1375 -0.2679
 4381SOL    HW124779   1.489   0.380  15.071 -0.3089 -0.9663  1.8031
 4381SOL    HW224780   1.630   0.398  15.116  0.4764  1.3275  2.0892
 4382SOL     OW24781   1.735   0.444   8.197  0.2776 -0.2760 -0.1882
 4382SOL    HW124782   1.803   0.472   8.260 -1.2539 -0.3677  1.5215
 4382SOL    HW224783   1.734   0.497   8.117  0.6644 -1.5127 -1.0036
 4383SOL     OW24784   2.006   4.541   6.302  0.3587 -0.1449 -0.2419
 4383SOL    HW124785   2.063   4.613   6.275 -0.5025  0.6980  0.2114
 4383SOL    HW224786   2.081   4.492   6.336 -1.9914 -2.4632  1.6040
 4384SOL     OW24787   1.700   1.969   5.873  0.1697 -0.0497  0.1119
 4384SOL    HW124788   1.720   2.058   5.843  2.1775 -1.1383 -1.7576
 4384SOL    HW224789   1.711   1.985   5.967  2.6487 -1.4787  0.0490
 4385SOL     OW24790   3.275   1.708  17.200  0.5395  0.3859 -0.0951
 4385SOL    HW124791   3.311   1.620  17.188 -0.2725 -0.2603  2.2231
 4385SOL    HW224792   3.316   1.738  17.119 -1.3056  2.0348 -0.4253
 4386SOL     OW24793   4.590   2.823  16.347 -1.1152 -0.6535  0.3231
 4386SOL    HW124794   4.651   2.758  16.314 -0.2094 -0.1685  1.0558
 4386SOL    HW224795   4.623   2.900  16.302  0.9967 -1.2882  0.7709
 4387SOL     OW24796   3.876   2.315   3.557 -0.0923 -0.1240  0.6320
 4387SOL    HW124797   3.855   2.304   3.464 -1.0031  3.9844  0.3697
 4387SOL    HW224798   3.962   2.355   3.544  0.3390 -1.2936 -0.1847
 4388SOL     OW24799   4.223   4.241   4.134  0.4097  0.0658  0.0713
 4388SOL    HW124800   4.188   4.175   4.074 -0.1855 -1.1591  1.7745
 4388SOL    HW224801   4.274   4.287   4.068  0.7312  0.8185  0.8478
 4389SOL     OW24802   0.184   1.308   2.960 -0.0000  0.4401  0.0901
 4389SOL    HW124803   0.175   1.217   2.934 -1.1264  1.2298 -2.3270
 4389SOL    HW224804   0.262   1.313   3.015  1.5358 -0.0588 -2.0251
 4390SOL     OW24805   4.404   0.914   7.052 -0.7071 -0.3778  0.4212
 4390SOL    HW124806   4.339   0.882   6.989 -1.1082 -1.4280  1.3738
 4390SOL    HW224807   4.450   0.836   7.084 -1.3746 -0.0123  2.2694
 4391SOL     OW24808   1.390   2.559  14.236 -0.0883  0.1326  0.3593
 4391SOL    HW124809   1.465   2.508  14.205 -1.3058 -1.0664 -0.6076
 4391SOL    HW224810   1.376   2.501  14.311 -0.2383  0.9725  0.9737
 4392SOL     OW24811   0.555   0.674   2.757  0.0508  0.0079  0.7921
 4392SOL    HW124812   0.576   0.737   2.688  0.3935  0.4486  1.2979
 4392SOL    HW224813   0.636   0.624   2.767 -0.5098 -1.0139  0.1454
 4393SOL     OW24814   1.265   2.059   1.438 -0.6960  0.3081 -0.0860
 4393SOL    HW124815   1.210   2.135   1.423 -2.7998 -1.1760  0.0812
 4393SOL    HW224816   1.342   2.097   1.397 -0.9715  1.0936  0.1336
 4394SOL     OW24817   2.529   4.060   3.275  0.6059  0.7119  0.2113
 4394SOL    HW124818   2.499   4.126   3.338 -0.2663  2.3903 -1.9564
 4394SOL    HW224819   2.496   4.090   3.190 -0.3368  2.0900  1.0578
 4395SOL     OW24820   4.139   0.748  15.114 -0.3037 -0.1107  0.0298
 4395SOL    HW124821   4.056   0.701  15.123  0.1203 -1.1648 -1.6047
 4395SOL    HW224822   4.182   0.691  15.050 -1.0810 -1.1458  0.4391
 4396SOL     OW24823   1.087   1.441  16.668  0.1423  0.2077  0.3739
 4396SOL    HW124824   1.129   1.394  16.596  1.1586  0.2946  0.9067
 4396SOL    HW224825   1.062   1.362  16.716  0.7327 -0.1690  0.0582
 4397SOL     OW24826   0.579   1.465   6.100  0.3732 -0.1473 -0.0953
 4397SOL    HW124827   0.639   1.394   6.122 -1.4227 -2.0716 -1.4099
 4397SOL    HW224828   0.546   1.488   6.187 -0.5929 -2.1052  0.0493
 4398SOL     OW24829   0.688   1.904   3.581 -0.1765 -0.4990  0.2036
 4398SOL    HW124830   0.663   1.960   3.654  2.1670  0.4198  0.3207
 4398SOL    HW224831   0.696   1.969   3.511  0.0125 -1.2925 -0.5159
 4399SOL     OW24832   3.006   4.700   3.309  0.4527 -0.4289 -0.7515
 4399SOL    HW124833   2.942   4.629   3.301  0.1385 -0.0791 -1.3311
 4399SOL    HW224834   2.986   0.019   3.232  0.5693 -0.7291 -0.9889
 4400SOL     OW24835   0.300   2.961  14.605  0.3226 -0.1383 -0.4906
 4400SOL    HW124836   0.227   2.937  14.548 -0.7079  3.0050 -0.5229
 4400SOL    HW224837   0.374   2.913  14.568 -0.1225 -1.1960  0.0076
 4401SOL     OW24838   2.150   3.987  15.364 -0.0858 -0.6370  0.3590
 4401SOL    HW124839   2.213   3.929  15.407 -0.7083 -2.0296 -0.6348
 4401SOL    HW224840   2.206   4.064  15.378 -0.9220  0.0940 -0.3163
 4402SOL     OW24841   3.928   2.331   8.395 -0.1182  0.4636  0.0680
 4402SOL    HW124842   3.902   2.343   8.487 -0.7236  2.2128 -0.3320
 4402SOL    HW224843   3.915   2.417   8.356  0.5209  0.7243  0.4172
 4403SOL     OW24844   2.585   0.065   5.413  0.6529  0.3198 -0.1079
 4403SOL    HW124845   2.608   0.147   5.456  0.1178 -0.1505  1.0742
 4403SOL    HW224846   2.549   0.009   5.482  2.5504  1.4404  1.7754
 4404SOL     OW24847   2.747   2.232   8.831 -0.0781  0.0844  0.5226
 4404SOL    HW124848   2.768   2.230   8.924 -0.2503 -2.3710  0.5176
 4404SOL    HW224849   2.779   2.144   8.812  0.4400 -0.1151  2.3902
 4405SOL     OW24850   1.559   4.176   5.623 -0.5964  0.5701 -0.3610
 4405SOL    HW124851   1.604   4.105   5.577 -0.4010  0.0885  0.5671
 4405SOL    HW224852   1.470   4.155   5.597 -1.0340  2.9732 -0.7612
 4406SOL     OW24853   2.717   1.601   3.810 -0.2916  0.1251  0.5179
 4406SOL    HW124854   2.769   1.553   3.746 -0.0104 -0.5386  1.2427
 4406SOL    HW224855   2.650   1.537   3.836  0.8684 -0.8535  1.1041
 4407SOL     OW24856   4.164   2.437   8.112  0.2660  0.4818 -0.3347
 4407SOL    HW124857   4.201   2.442   8.024 -1.4481 -0.5042 -1.1281
 4407SOL    HW224858   4.163   2.342   8.123  0.5275  0.3607 -1.3618
 4408SOL     OW24859   3.797   4.127   6.592  0.1419 -0.3773  0.0607
 4408SOL    HW124860   3.789   4.092   6.503 -0.2401  0.2534 -0.1593
 4408SOL    HW224861   3.725   4.076   6.628 -0.5161  0.9807  0.6685
 4409SOL     OW24862   0.785   0.823   7.479  0.2334 -0.1901  0.1631
 4409SOL    HW124863   0.770   0.797   7.570  1.4661 -3.9867 -0.6969
 4409SOL    HW224864   0.730   0.901   7.483  0.1283 -0.2040 -0.9065
 4410SOL     OW24865   2.230   0.020  16.175 -0.0100 -0.0692  0.4733
 4410SOL    HW124866   2.232   4.725  16.266 -2.8702 -0.0630  0.5398
 4410SOL    HW224867   2.186   4.679  16.136 -0.5841 -0.1469  1.2647
 4411SOL     OW24868   1.753   0.003   3.868 -0.2682 -0.0331 -0.1771
 4411SOL    HW124869   1.843   0.003   3.903 -0.5009 -2.7951  0.4743
 4411SOL    HW224870   1.745   4.642   3.862 -2.7832  0.0095  2.3725
 4412SOL     OW24871   3.590   1.548   8.386  0.3743  0.7188 -0.2320
 4412SOL    HW124872   3.650   1.604   8.434  0.2201  0.3571  0.3790
 4412SOL    HW224873   3.610   1.464   8.428  0.8322 -0.1418 -2.1443
 4413SOL     OW24874   1.172   4.371   0.978 -0.5549 -0.0293  0.2270
 4413SOL    HW124875   1.258   4.340   1.005  0.0387  0.7847 -0.7528
 4413SOL    HW224876   1.129   4.301   0.929 -0.6078  1.4697 -1.8636
 4414SOL     OW24877   1.258   0.728   8.053 -0.9723  0.2075 -0.5346
 4414SOL    HW124878   1.168   0.755   8.037 -1.0367  0.3731  0.1156
 4414SOL    HW224879   1.288   0.678   7.977  2.2408  2.0391 -0.4868
 4415SOL     OW24880   1.452   4.008   6.450 -0.0754 -0.4896  0.5963
 4415SOL    HW124881   1.380   4.066   6.475  0.6404  1.2551 -1.3830
 4415SOL    HW224882   1.499   4.065   6.390  0.5585 -0.3711  1.2012
 4416SOL     OW24883   4.208   0.040   3.769  0.1507  0.0488  0.0219
 4416SOL    HW124884   4.226   4.709   3.702  1.1039  0.3257  0.0132
 4416SOL    HW224885   4.211   0.130   3.738 -1.2737 -0.3345 -1.2207
 4417SOL     OW24886   4.083   4.176   2.188 -0.0547 -0.9013 -0.8849
 4417SOL    HW124887   4.012   4.121   2.154 -0.7703 -1.4504  1.4893
 4417SOL    HW224888   4.054   4.218   2.269  0.2811 -1.3364 -0.5378
 4418SOL     OW24889   0.191   1.386   7.381 -0.4822 -0.2048  0.3373
 4418SOL    HW124890   0.148   1.429   7.308 -0.7296  0.1451  0.6925
 4418SOL    HW224891   0.281   1.414   7.364 -0.4553  0.4756  1.5983
 4419SOL     OW24892   0.737   1.199   3.843 -0.3539  0.6214 -0.0630
 4419SOL    HW124893   0.712   1.139   3.914 -0.5343 -1.1432 -1.6096
 4419SOL    HW224894   0.717   1.282   3.885 -1.0125  0.6902 -0.5055
 4420SOL     OW24895   4.178   3.486  17.374  0.1479  0.3654  0.2293
 4420SOL    HW124896   4.248   3.456  17.316 -2.5013 -1.5533 -1.9661
 4420SOL    HW224897   4.196   3.578  17.353  0.5693  0.1457 -0.3875
 4421SOL     OW24898   1.280   1.199   4.053 -0.0630 -0.2259  0.4451
 4421SOL    HW124899   1.345   1.206   4.124 -0.7590  1.5629  0.8905
 4421SOL    HW224900   1.202   1.187   4.107 -1.3592 -0.2657 -1.4540
 4422SOL     OW24901   1.445   0.448   4.664 -0.3159 -0.1603  0.1411
 4422SOL    HW124902   1.466   0.356   4.681  0.5426  0.2528  1.2455
 4422SOL    HW224903   1.378   0.441   4.595  0.2756  1.1847 -0.5674
 4423SOL     OW24904   0.971   1.556  14.824  0.1867 -0.2257  0.2198
 4423SOL    HW124905   1.061   1.557  14.792  0.1198  1.1234  0.0548
 4423SOL    HW224906   0.966   1.651  14.835 -0.6807 -0.1504 -0.8414
 4424SOL     OW24907   2.110   3.570   8.319 -0.0867 -0.1953  0.0510
 4424SOL    HW124908   2.135   3.555   8.411  1.3530  0.7635 -0.1884
 4424SOL    HW224909   2.015   3.571   8.330 -0.0883 -0.1350  0.0312
 4425SOL     OW24910   0.561   1.636   7.458  0.7411  0.0379  0.9692
 4425SOL    HW124911   0.527   1.547   7.473 -1.2630  0.4600 -1.1606
 4425SOL    HW224912   0.485   1.690   7.438  2.2705  0.9926 -2.1754
 4426SOL     OW24913   3.008   1.206   1.144 -0.2489 -0.3193 -0.1842
 4426SOL    HW124914   2.950   1.276   1.114 -1.8363 -0.8293  1.6780
 4426SOL    HW224915   3.084   1.263   1.156 -0.0554 -1.2944  3.1871
 4427SOL     OW24916   2.141   0.668   5.059 -0.2371 -0.2172 -0.0178
 4427SOL    HW124917   2.197   0.610   5.111 -0.4297  0.9293  1.4909
 4427SOL    HW224918   2.209   0.706   5.004 -1.2027  2.4695  0.6429
 4428SOL     OW24919   0.771   2.078  15.821  0.2739  0.1654  0.1133
 4428SOL    HW124920   0.834   2.007  15.813  0.1568  0.0734 -0.0082
 4428SOL    HW224921   0.700   2.044  15.766  2.1633 -0.3061 -2.0339
 4429SOL     OW24922   4.609   0.131   7.726  0.0711 -0.3398 -0.0804
 4429SOL    HW124923   4.541   0.131   7.658 -1.5975  1.1264  1.5807
 4429SOL    HW224924   4.690   0.113   7.677  0.3297  0.5825  0.0110
 4430SOL     OW24925   3.152   3.367   4.987  0.0608  0.1633 -0.4796
 4430SOL    HW124926   3.244   3.352   5.012 -0.5328 -2.5346  0.1320
 4430SOL    HW224927   3.170   3.461   4.982 -0.4515  0.2721 -0.2641
 4431SOL     OW24928   3.422   0.965   6.874 -0.3981 -0.2507  0.1416
 4431SOL    HW124929   3.446   0.974   6.782 -0.3833 -3.0259 -0.1304
 4431SOL    HW224930   3.376   1.048   6.883  1.4273  0.6992  0.8747
 4432SOL     OW24931   2.111   1.476  14.155  0.6965 -0.0711 -0.5789
 4432SOL    HW124932   2.192   1.426  14.147  0.4300 -0.5381 -0.3296
 4432SOL    HW224933   2.154   1.543  14.102  0.7572  0.9995  0.8195
 4433SOL     OW24934   2.924   0.784   4.711  0.3649 -0.1976 -0.2482
 4433SOL    HW124935   2.979   0.785   4.790  1.4191 -0.1383 -0.9795
 4433SOL    HW224936   2.983   0.772   4.637  1.4345 -0.1441  0.5772
 4434SOL     OW24937   4.399   1.167   1.429 -0.3581 -0.6303  0.0423
 4434SOL    HW124938   4.451   1.107   1.482  0.0129 -2.0481 -1.9146
 4434SOL    HW224939   4.390   1.232   1.498 -0.5196 -0.9484  0.3226
 4435SOL     OW24940   4.701   2.180   8.244  0.1271  0.2950 -0.0564
 4435SOL    HW124941   4.675   2.269   8.266 -1.2731 -0.4995  1.4651
 4435SOL    HW224942   4.677   2.125   8.318  3.1227 -1.2279 -0.1901
 4436SOL     OW24943   2.889   3.042   0.183 -0.0900  0.8079  0.0265
 4436SOL    HW124944   2.880   3.112   0.248  3.6766 -0.1514  1.5801
 4436SOL    HW224945   2.985   3.037   0.182 -0.1704 -0.3938 -0.6773
 4437SOL     OW24946   0.823   4.416  16.522 -0.6695 -0.1800 -0.2304
 4437SOL    HW124947   0.827   4.485  16.455  1.3691 -0.5596 -0.4931
 4437SOL    HW224948   0.809   4.480  16.592 -1.2106  1.1510 -1.5595
 4438SOL     OW24949   1.507   2.420  16.352  0.1368  0.6068  0.3548
 4438SOL    HW124950   1.537   2.398  16.263 -0.6992 -0.7157  0.3965
 4438SOL    HW224951   1.583   2.472  16.378 -0.7780  3.4853 -2.6029
 4439SOL     OW24952   4.562   1.170  12.099  0.1688  0.1810 -0.5093
 4439SOL    HW124953   4.495   1.117  12.141  1.3599  0.8093  2.1693
 4439SOL    HW224954   4.630   1.106  12.079  0.3545 -0.0658  0.8856
 4440SOL     OW24955   4.522   1.272   8.261 -0.1009  0.4123  0.4009
 4440SOL    HW124956   4.500   1.180   8.251  0.2409  0.4368 -0.5083
 4440SOL    HW224957   4.487   1.291   8.349  2.2280  2.3724  0.9093
 4441SOL     OW24958   3.033   1.180  16.750  0.9921 -0.0853  0.0553
 4441SOL    HW124959   2.943   1.154  16.765 -0.4267  3.7694 -1.5689
 4441SOL    HW224960   3.075   1.105  16.708  1.8064  0.5776 -0.3258
 4442SOL     OW24961   2.397   3.363  10.368  0.4013 -0.4816 -0.4151
 4442SOL    HW124962   2.303   3.367  10.383  0.4806 -0.9600  0.2185
 4442SOL    HW224963   2.408   3.401  10.281  1.9733 -3.3085 -1.4632
 4443SOL     OW24964   0.966   2.313   5.010  0.2969  0.5361 -0.2979
 4443SOL    HW124965   0.917   2.394   5.024  0.0678  0.3747 -0.1604
 4443SOL    HW224966   1.055   2.342   4.990  0.3396  0.9678  0.5157
 4444SOL     OW24967   2.337   0.147   4.923 -0.0892 -0.0845  0.5322
 4444SOL    HW124968   2.269   0.162   4.989  0.0457  0.8698  0.4429
 4444SOL    HW224969   2.369   0.235   4.906  2.2305 -1.5041 -2.5923
 4445SOL     OW24970   0.310   3.943  13.832  0.0695  0.1146 -0.3742
 4445SOL    HW124971   0.226   3.971  13.794  0.2079 -1.1590 -1.6368
 4445SOL    HW224972   0.354   3.904  13.757 -2.0971 -0.1015 -1.5563
 4446SOL     OW24973   3.999   3.227   4.255  0.3194 -0.0750 -0.1839
 4446SOL    HW124974   4.077   3.220   4.309 -0.3704  0.7272  0.9034
 4446SOL    HW224975   4.034   3.232   4.166 -0.0724 -0.5105 -0.3648
 4447SOL     OW24976   2.895   0.392   5.840 -0.0433 -0.2294 -0.3930
 4447SOL    HW124977   2.980   0.427   5.867 -0.2654 -0.2461  0.3206
 4447SOL    HW224978   2.836   0.466   5.856  1.0998  0.5281  0.3273
 4448SOL     OW24979   1.731   2.613   2.792  0.2489 -0.0155  0.2352
 4448SOL    HW124980   1.671   2.609   2.718 -0.2730  2.9186  0.4810
 4448SOL    HW224981   1.689   2.559   2.859  1.5369 -2.3746 -0.8617
 4449SOL     OW24982   4.459   3.569   3.729  0.1818  0.0580 -0.1173
 4449SOL    HW124983   4.478   3.613   3.812  0.2010 -0.4889  0.1626
 4449SOL    HW224984   4.366   3.553   3.740  0.6654 -1.9648  1.0099
 4450SOL     OW24985   2.141   1.855   6.662 -0.0683 -0.0118 -0.6932
 4450SOL    HW124986   2.211   1.863   6.597 -0.0743 -2.3547 -1.0016
 4450SOL    HW224987   2.162   1.765   6.690  0.2721  0.0759 -0.6571
 4451SOL     OW24988   1.411   1.640   1.792 -0.0381 -0.9395  0.3459
 4451SOL    HW124989   1.348   1.577   1.828 -0.4330  0.0838  1.4515
 4451SOL    HW224990   1.441   1.682   1.873 -0.1773  1.3364 -0.7961
 4452SOL     OW24991   0.397   3.773   8.497  0.4667 -0.4159 -0.0520
 4452SOL    HW124992   0.428   3.849   8.448 -0.3859  0.0148  0.0753
 4452SOL    HW224993   0.304   3.786   8.482  0.5664 -0.3037 -0.5847
 4453SOL     OW24994   3.123   0.604   1.564 -0.5537 -0.1154  0.4258
 4453SOL    HW124995   3.027   0.606   1.565 -0.5508  0.9753 -1.7194
 4453SOL    HW224996   3.146   0.582   1.654 -0.7966  0.6146  0.6635
 4454SOL     OW24997   1.032   0.004   3.194  0.2013  0.2303  0.2043
 4454SOL    HW124998   0.938   4.720   3.193  0.4370 -0.9732 -0.4963
 4454SOL    HW224999   1.059   4.717   3.105  0.5514 -1.3605  0.6787
 4455SOL     OW25000   2.538   1.621  12.801  0.0930 -0.5093 -0.0731
 4455SOL    HW125001   2.608   1.633  12.737  0.2107 -0.2214  0.1107
 4455SOL    HW225002   2.510   1.532  12.782 -4.2472  1.1054 -1.2313
 4456SOL     OW25003   1.003   1.823  14.792 -0.0428 -0.1250  0.1700
 4456SOL    HW125004   1.059   1.880  14.845  0.9742 -0.3137 -0.7229
 4456SOL    HW225005   1.053   1.819  14.711  0.7005 -1.8714  0.7210
 4457SOL     OW25006   1.573   0.654   5.208 -0.4387 -0.1167  0.6686
 4457SOL    HW125007   1.655   0.612   5.235 -1.9218 -1.7785  2.5666
 4457SOL    HW225008   1.560   0.614   5.123  0.4998 -1.1946  1.0346
 4458SOL     OW25009   2.788   3.645  17.667 -0.5740  0.4065 -0.0829
 4458SOL    HW125010   2.803   3.684   0.018 -2.0791 -1.1755  0.8722
 4458SOL    HW225011   2.765   3.557  17.697 -1.9399  0.8033  0.0265
 4459SOL     OW25012   4.670   2.288   3.279 -0.4764 -0.3451  0.3852
 4459SOL    HW125013   4.705   2.268   3.192 -1.9454 -1.5135  0.0794
 4459SOL    HW225014   0.012   2.256   3.328 -1.9109 -1.1701  2.0486
 4460SOL     OW25015   1.780   2.635  10.576 -0.0007 -0.4028 -0.2978
 4460SOL    HW125016   1.714   2.575  10.612 -0.9264  1.0066  0.3287
 4460SOL    HW225017   1.784   2.602  10.486  1.1151  0.1614 -0.4542
 4461SOL     OW25018   4.138   3.386  12.660 -0.1095  0.1047  0.3207
 4461SOL    HW125019   4.212   3.400  12.719 -1.2569 -0.0221  1.7632
 4461SOL    HW225020   4.095   3.313  12.703  0.3016 -1.2437 -1.5370
 4462SOL     OW25021   4.427   4.509   0.675 -0.1261  0.2550 -0.2787
 4462SOL    HW125022   4.347   4.484   0.721  0.0079  0.3457  0.0039
 4462SOL    HW225023   4.411   4.455   0.598 -1.0493  3.2609 -2.1818
 4463SOL     OW25024   2.587   1.145   3.891 -0.3948  0.0553  0.2574
 4463SOL    HW125025   2.643   1.088   3.838  0.8254  1.1739  0.3410
 4463SOL    HW225026   2.550   1.075   3.945 -1.9929 -0.3738 -1.3789
 4464SOL     OW25027   2.699   4.300   3.607  0.5491  0.5283 -0.2818
 4464SOL    HW125028   2.792   4.305   3.627  0.0748  0.8882  1.8944
 4464SOL    HW225029   2.675   4.392   3.617 -0.2272  0.4069 -1.0074
 4465SOL     OW25030   3.880   3.215   6.048 -0.1790  0.1226  0.3102
 4465SOL    HW125031   3.896   3.121   6.058  0.1764  0.3027  1.5344
 4465SOL    HW225032   3.821   3.235   6.120 -0.9987  1.8900 -0.8701
 4466SOL     OW25033   4.731   2.275  12.976 -0.2410 -0.5614 -0.5241
 4466SOL    HW125034   0.062   2.303  12.912 -0.4140 -1.9070 -1.2965
 4466SOL    HW225035   4.648   2.311  12.945  0.0402 -0.2783 -0.9576
 4467SOL     OW25036   1.498   1.807   4.834 -0.2048  0.3129 -0.6582
 4467SOL    HW125037   1.415   1.817   4.788 -0.0762  1.7582 -0.5990
 4467SOL    HW225038   1.479   1.746   4.904  1.9590  2.0776  1.4702
 4468SOL     OW25039   1.405   1.744   3.491 -0.2035 -0.8528 -0.0436
 4468SOL    HW125040   1.387   1.701   3.408 -2.7364  1.3211 -0.6293
 4468SOL    HW225041   1.316   1.762   3.521  0.4606 -0.3048  1.6100
 4469SOL     OW25042   0.921   1.787   8.689  0.5853  0.1243  0.5136
 4469SOL    HW125043   0.990   1.740   8.735  1.6036 -1.3505 -2.5119
 4469SOL    HW225044   0.845   1.739   8.723  0.4249 -1.3716 -1.9495
 4470SOL     OW25045   4.285   1.312   7.134 -0.0564 -0.0603  0.5528
 4470SOL    HW125046   4.340   1.390   7.141  2.1264 -1.3788 -1.7064
 4470SOL    HW225047   4.357   1.249   7.141 -0.5173 -0.4352  1.9530
 4471SOL     OW25048   4.697   2.499  16.801  0.0799 -0.2393 -0.0348
 4471SOL    HW125049   0.013   2.421  16.777  0.6968  0.1014  0.1564
 4471SOL    HW225050   4.715   2.551  16.722 -0.2283 -1.5397 -0.9539
 4472SOL     OW25051   2.584   4.070   5.899  0.0265  0.1027  0.0132
 4472SOL    HW125052   2.560   4.065   5.806  0.3068  1.7248 -0.1466
 4472SOL    HW225053   2.532   3.999   5.937 -1.4886  1.6815  0.8980
 4473SOL     OW25054   3.201   1.389  11.065 -0.1044  0.0697  0.1057
 4473SOL    HW125055   3.204   1.315  11.004  0.3884 -0.6671  1.0122
 4473SOL    HW225056   3.292   1.419  11.068  0.2985 -1.0715 -0.6036
 4474SOL     OW25057   2.849   2.932   1.214  0.8609  0.1334  0.2181
 4474SOL    HW125058   2.807   2.948   1.129 -1.2565 -0.8022  1.1003
 4474SOL    HW225059   2.912   3.003   1.203 -0.9762  1.3477 -2.6304
 4475SOL     OW25060   3.675   2.521  17.438  0.3951  0.3344  0.0731
 4475SOL    HW125061   3.765   2.512  17.404  0.0270 -1.5873 -0.3645
 4475SOL    HW225062   3.629   2.473  17.370 -2.4016  0.9243  1.5770
 4476SOL     OW25063   4.488   4.444   3.632  0.2037 -0.2477 -0.4786
 4476SOL    HW125064   4.508   4.488   3.715 -0.6779 -0.1831 -0.3004
 4476SOL    HW225065   4.567   4.442   3.579 -0.1997  0.9344 -1.1228
 4477SOL     OW25066   3.461   3.990  15.502 -0.2033  0.3263  0.6866
 4477SOL    HW125067   3.555   4.001  15.485 -0.2922  0.1595  0.0931
 4477SOL    HW225068   3.423   4.047  15.434  0.2412  0.5465  0.6215
 4478SOL     OW25069   1.872   4.598   5.848 -0.5892 -0.7281  0.6078
 4478SOL    HW125070   1.928   4.638   5.914  0.6647  0.7957 -1.3911
 4478SOL    HW225071   1.929   4.534   5.804 -0.3148  0.3128 -0.5340
 4479SOL     OW25072   3.675   2.546   8.132 -0.0878  0.3354  0.2524
 4479SOL    HW125073   3.662   2.639   8.150 -2.7541  0.0497 -0.2086
 4479SOL    HW225074   3.624   2.539   8.051  1.1772 -0.2190 -0.4972
 4480SOL     OW25075   3.993   3.316  14.001  0.4137  0.3417 -0.7417
 4480SOL    HW125076   4.024   3.343  14.087  0.3135  0.8429 -0.8636
 4480SOL    HW225077   3.988   3.220  13.999 -0.3594  0.3737 -0.6038
 4481SOL     OW25078   0.804   1.003   2.870  0.6017 -0.5492  0.2417
 4481SOL    HW125079   0.737   1.072   2.872  0.2778 -0.8734  0.5478
 4481SOL    HW225080   0.762   0.969   2.791  0.6738  0.9074 -0.4284
 4482SOL     OW25081   3.980   0.512   4.752 -0.6427 -0.5320  0.3226
 4482SOL    HW125082   4.033   0.439   4.785  2.2814  1.1428 -0.7909
 4482SOL    HW225083   3.900   0.481   4.795 -2.1720  1.0491 -1.3934
 4483SOL     OW25084   3.793   3.919   3.906 -0.2115 -0.2495 -0.5145
 4483SOL    HW125085   3.749   3.885   3.829 -1.3929 -1.2958  0.6275
 4483SOL    HW225086   3.815   4.007   3.874 -0.4338  0.1414  0.4120
 4484SOL     OW25087   1.501   4.552  14.963 -0.4350  0.8759 -0.1037
 4484SOL    HW125088   1.562   4.564  15.036 -1.0663  0.6428  0.4552
 4484SOL    HW225089   1.422   4.550  15.017  0.3197  0.0999  0.9791
 4485SOL     OW25090   3.325   1.708   1.480  0.1513 -0.3929  0.0492
 4485SOL    HW125091   3.375   1.640   1.435  1.4194  1.0763 -0.7451
 4485SOL    HW225092   3.312   1.669   1.566 -0.9389 -1.4803 -0.6043
 4486SOL     OW25093   4.108   1.114  13.825  0.2464 -0.7394  0.7654
 4486SOL    HW125094   4.028   1.164  13.842  1.3317  0.7440  1.5330
 4486SOL    HW225095   4.136   1.120  13.917  2.9099 -2.3470  0.0617
 4487SOL     OW25096   3.905   1.348  10.037  0.8183  0.4935  0.2861
 4487SOL    HW125097   3.817   1.341  10.000  1.8930 -0.2737 -2.0676
 4487SOL    HW225098   3.873   1.381  10.121 -0.5700 -0.5873  0.1842
 4488SOL     OW25099   1.588   1.699   2.917  0.1109 -0.1514  0.0300
 4488SOL    HW125100   1.531   1.758   2.966 -2.2862 -0.6543 -2.1602
 4488SOL    HW225101   1.638   1.766   2.869 -0.3484 -0.0617 -0.3185
 4489SOL     OW25102   2.481   2.345   8.694 -0.2248 -0.3557 -0.8470
 4489SOL    HW125103   2.419   2.272   8.688 -0.2227 -0.4322  0.0950
 4489SOL    HW225104   2.524   2.337   8.779 -1.3522  0.0540 -0.2436
 4490SOL     OW25105   2.037   2.412   4.552 -0.3825  0.2455 -0.1726
 4490SOL    HW125106   1.986   2.352   4.605  0.5753 -0.7141 -0.3343
 4490SOL    HW225107   2.056   2.487   4.608  1.5520 -0.2358 -0.1850
 4491SOL     OW25108   2.428   2.065   4.254  0.6500  0.4335  0.3889
 4491SOL    HW125109   2.399   2.031   4.339  2.1341  0.7146  1.0028
 4491SOL    HW225110   2.523   2.063   4.257  0.6974  2.1767  0.0831
 4492SOL     OW25111   3.397   3.544   6.684  0.1345 -0.1756  0.0344
 4492SOL    HW125112   3.376   3.562   6.592 -2.2145  0.9114  0.7862
 4492SOL    HW225113   3.399   3.631   6.725 -0.2845 -0.8392  1.4530
 4493SOL     OW25114   1.913   2.441   3.355  0.1492 -0.6901  0.4062
 4493SOL    HW125115   1.997   2.428   3.313  0.6209 -1.0224  1.4411
 4493SOL    HW225116   1.936   2.517   3.408 -2.3870 -0.5978  1.3934
 4494SOL     OW25117   1.823   2.545   6.161 -0.1495  0.1264  0.5345
 4494SOL    HW125118   1.766   2.477   6.125 -0.9592  0.9969  0.1850
 4494SOL    HW225119   1.808   2.536   6.255  0.8041  0.5121  0.7169
 4495SOL     OW25120   1.083   4.527   8.304 -0.3172 -0.9128  0.2757
 4495SOL    HW125121   0.991   4.502   8.306 -0.9189  1.0904 -2.9726
 4495SOL    HW225122   1.122   4.467   8.240 -1.0359 -1.4247  0.3144
 4496SOL     OW25123   3.970   1.922   4.867  0.0783  0.1449  0.1002
 4496SOL    HW125124   3.910   1.933   4.794  0.9941  1.9767 -0.3803
 4496SOL    HW225125   3.922   1.948   4.946  0.7022  0.2898  0.4293
 4497SOL     OW25126   1.881   4.506  14.079 -0.6928 -1.0692 -0.2752
 4497SOL    HW125127   1.831   4.523  13.999 -1.2239  1.9445  0.7132
 4497SOL    HW225128   1.950   4.444  14.055 -0.3017 -1.4068  1.6807
 4498SOL     OW25129   3.387   3.311   5.086  0.2129  0.5924 -0.3909
 4498SOL    HW125130   3.377   3.216   5.090 -0.6945  0.7068  0.0084
 4498SOL    HW225131   3.476   3.315   5.051  0.1804 -0.3420 -0.5890
 4499SOL     OW25132   3.661   3.559   6.648  0.1174 -0.1262 -0.4437
 4499SOL    HW125133   3.658   3.463   6.645 -2.3716 -0.0677  0.6369
 4499SOL    HW225134   3.596   3.569   6.718  0.9648 -0.0988  0.3440
 4500SOL     OW25135   0.728   0.136   3.495 -0.2403 -0.8610  0.5431
 4500SOL    HW125136   0.679   0.108   3.418 -1.9632  2.5458  0.4272
 4500SOL    HW225137   0.713   0.060   3.552 -0.3804 -1.2721 -0.0433
 4501SOL     OW25138   4.102   4.432   6.230 -0.3837 -0.2198 -0.4676
 4501SOL    HW125139   4.141   4.345   6.237 -1.3813 -0.5003  1.6713
 4501SOL    HW225140   4.128   4.465   6.316  2.4311 -0.3396 -1.2634
 4502SOL     OW25141   1.738   3.605   0.245  0.0759 -0.3349 -0.0210
 4502SOL    HW125142   1.821   3.598   0.199  0.0475  1.7738 -0.4298
 4502SOL    HW225143   1.767   3.657   0.320  0.0185 -1.3303  0.6922
 4503SOL     OW25144   1.437   0.686  15.893 -0.2682 -0.6705 -0.2495
 4503SOL    HW125145   1.381   0.705  15.818  1.5536  0.3113 -1.3571
 4503SOL    HW225146   1.425   0.769  15.939  1.7606 -1.3078  1.4210
 4504SOL     OW25147   1.333   0.288   4.144 -0.1080  0.0900 -0.0315
 4504SOL    HW125148   1.401   0.233   4.184  2.6961  3.0638 -0.7471
 4504SOL    HW225149   1.370   0.316   4.061  1.7022  0.6007  0.9502
 4505SOL     OW25150   0.727   2.837   5.302 -0.6267 -0.1641  0.3354
 4505SOL    HW125151   0.792   2.868   5.366 -1.9398  1.0186  1.0834
 4505SOL    HW225152   0.661   2.802   5.362 -0.1223  2.1794  2.2830
 4506SOL     OW25153   3.297   0.381   7.205 -0.1459  0.4505 -0.4555
 4506SOL    HW125154   3.348   0.452   7.244 -1.9626  1.4119  0.1896
 4506SOL    HW225155   3.315   0.398   7.113 -0.8098 -0.5294 -0.7611
 4507SOL     OW25156   3.559   3.758  15.691  0.0159 -0.2119  0.4774
 4507SOL    HW125157   3.643   3.742  15.734 -0.2052 -0.6106  0.7741
 4507SOL    HW225158   3.574   3.696  15.619  3.6927  0.5503  0.6096
 4508SOL     OW25159   2.762   1.956   6.955  0.0530  0.0200 -0.3349
 4508SOL    HW125160   2.667   1.966   6.943  0.0790 -0.3657 -0.8985
 4508SOL    HW225161   2.772   1.992   7.043  2.5790  1.5030 -1.2482
 4509SOL     OW25162   2.459   2.070  14.721 -0.3389 -0.2586  0.4126
 4509SOL    HW125163   2.403   2.145  14.703 -0.0251  0.0631  0.7897
 4509SOL    HW225164   2.507   2.105  14.796  2.0722  0.4171 -1.4373
 4510SOL     OW25165   0.838   0.222   4.913  0.6138  0.2349  0.2428
 4510SOL    HW125166   0.823   0.208   4.819  2.9053  0.0122 -0.0689
 4510SOL    HW225167   0.754   0.259   4.942 -0.2231 -0.5562 -1.1337
 4511SOL     OW25168   4.109   1.337  13.656 -0.2713 -0.0614  0.8379
 4511SOL    HW125169   4.013   1.339  13.656 -0.2989 -1.9496 -1.9778
 4511SOL    HW225170   4.120   1.259  13.710  0.9245 -0.9109 -0.6673
 4512SOL     OW25171   2.877   2.413   8.683 -0.2374 -0.7304  0.0176
 4512SOL    HW125172   2.815   2.359   8.732  0.3633 -1.0348  0.4413
 4512SOL    HW225173   2.812   2.450   8.623 -0.6322 -0.8097  0.3959
 4513SOL     OW25174   2.387   2.883   2.869  0.1974 -0.4544  0.2913
 4513SOL    HW125175   2.311   2.843   2.826  0.5087 -0.8077  0.0754
 4513SOL    HW225176   2.350   2.967   2.896  0.0690 -0.4047 -0.0318
 4514SOL     OW25177   2.932   1.129   3.519 -0.3755  0.0294  0.7210
 4514SOL    HW125178   2.910   1.093   3.605 -0.9472 -1.6050 -0.1278
 4514SOL    HW225179   2.969   1.055   3.471  1.4418  0.9596  0.6544
 4515SOL     OW25180   1.235   0.613  14.394 -0.0699 -0.3309  0.1333
 4515SOL    HW125181   1.310   0.621  14.335 -0.2444 -0.6156 -0.1218
 4515SOL    HW225182   1.198   0.697  14.369  0.4634 -0.0671  0.2238
 4516SOL     OW25183   0.880   1.353   8.026 -0.3030  0.1408  0.0030
 4516SOL    HW125184   0.889   1.442   8.058  0.0168  0.4670 -0.9707
 4516SOL    HW225185   0.957   1.356   7.968 -0.0528 -2.1957  0.2040
 4517SOL     OW25186   1.400   0.644   0.999 -1.1144  0.6742 -0.0894
 4517SOL    HW125187   1.404   0.559   0.956  1.6967 -0.3144  2.1902
 4517SOL    HW225188   1.455   0.630   1.076  2.5537  3.1202 -2.2880
 4518SOL     OW25189   1.507   2.828   3.099  0.2785 -0.1599  0.0400
 4518SOL    HW125190   1.591   2.840   3.054 -0.2028 -1.2809 -1.1626
 4518SOL    HW225191   1.535   2.769   3.169  0.1154  0.2024  0.4137
 4519SOL     OW25192   4.675   1.224  10.918 -0.2536  0.3767  0.0162
 4519SOL    HW125193   4.651   1.155  10.981 -1.4909  1.0015  0.2262
 4519SOL    HW225194   0.020   1.258  10.959  0.6509 -1.0965 -0.5133
 4520SOL     OW25195   4.460   4.733   5.600 -0.2094 -0.4474 -0.2991
 4520SOL    HW125196   4.389   0.061   5.615  0.0336  0.1524 -1.6682
 4520SOL    HW225197   4.416   4.649   5.590 -0.5041 -0.1862 -1.2011
 4521SOL     OW25198   2.905   0.460  14.068  0.2147 -0.3368  0.4057
 4521SOL    HW125199   2.991   0.419  14.070 -0.2342 -1.1458  3.1361
 4521SOL    HW225200   2.873   0.453  13.978 -0.6056 -0.4844  0.7019
 4522SOL     OW25201   2.401   3.726  14.502  0.4645  0.0083 -0.3656
 4522SOL    HW125202   2.417   3.717  14.596 -2.1747  0.9942  0.1712
 4522SOL    HW225203   2.417   3.820  14.503  1.2314 -0.1095 -1.9575
 4523SOL     OW25204   3.823   3.722   4.109 -0.0345  0.5380 -0.2441
 4523SOL    HW125205   3.848   3.804   4.067 -0.3437  1.1307  0.7124
 4523SOL    HW225206   3.740   3.699   4.065  0.2624 -1.5548  0.2897
 4524SOL     OW25207   2.677   1.807   1.826 -0.4304  0.0717 -0.2707
 4524SOL    HW125208   2.636   1.860   1.895  3.9446  0.4402  2.0912
 4524SOL    HW225209   2.724   1.739   1.874 -0.6253 -0.5433 -0.9627
 4525SOL     OW25210   4.239   4.090   2.486 -0.1587  0.2660  0.3422
 4525SOL    HW125211   4.277   4.003   2.473 -1.3654 -0.0105 -1.4448
 4525SOL    HW225212   4.299   4.128   2.550  0.1743  1.1502 -0.4951
 4526SOL     OW25213   3.720   4.419  15.025  0.0550 -0.0178 -0.1548
 4526SOL    HW125214   3.697   4.442  15.115  0.3350 -1.4511  0.2873
 4526SOL    HW225215   3.806   4.379  15.039  0.0203  0.6053  1.8637
 4527SOL     OW25216   2.857   0.940   1.820 -0.0156  0.4113  0.3150
 4527SOL    HW125217   2.861   0.942   1.916 -0.4434  1.7670  0.3104
 4527SOL    HW225218   2.948   0.921   1.799 -0.5870 -2.4905  0.4402
 4528SOL     OW25219   2.346   2.990   0.206  0.1670 -0.2105  1.1372
 4528SOL    HW125220   2.439   3.006   0.221  0.1193  0.0680  1.1257
 4528SOL    HW225221   2.344   3.023   0.116 -0.0619  0.8843  1.5503
 4529SOL     OW25222   0.637   0.759   9.952 -0.5277 -0.1866 -0.3636
 4529SOL    HW125223   0.725   0.789   9.974 -0.7986 -2.1533  3.3926
 4529SOL    HW225224   0.598   0.757  10.039  0.8302 -2.0579  0.2204
 4530SOL     OW25225   4.120   0.489  12.077  0.2130  0.3332 -0.4808
 4530SOL    HW125226   4.057   0.462  12.010  0.7093 -1.5873 -0.1777
 4530SOL    HW225227   4.100   0.582  12.085 -0.0845  0.2101  0.1534
 4531SOL     OW25228   1.970   2.878   3.285  0.3744 -0.0819 -0.4916
 4531SOL    HW125229   1.879   2.908   3.291  0.3828 -0.4214  1.2484
 4531SOL    HW225230   2.014   2.957   3.315  1.4131 -0.6263 -0.6063
 4532SOL     OW25231   1.014   1.348   4.171  0.5492  0.0280 -0.2311
 4532SOL    HW125232   1.009   1.442   4.183 -0.9050 -0.1462  0.5291
 4532SOL    HW225233   1.038   1.317   4.258 -1.0318 -1.1206 -0.1985
 4533SOL     OW25234   4.321   2.010   7.544 -0.3801 -0.3362 -0.4177
 4533SOL    HW125235   4.365   1.944   7.597  0.2951  0.7360  0.3788
 4533SOL    HW225236   4.393   2.070   7.523 -2.5951  1.5962 -2.4450
 4534SOL     OW25237   2.544   0.143   2.457  0.3799 -0.3677  0.2845
 4534SOL    HW125238   2.523   0.094   2.537  0.0536 -0.6678  0.0157
 4534SOL    HW225239   2.560   0.221   2.510 -0.6061  0.1962 -0.2414
 4535SOL     OW25240   1.397   0.465   2.814 -0.1229  0.2184 -0.4543
 4535SOL    HW125241   1.355   0.456   2.729 -0.3172  0.2313 -0.3607
 4535SOL    HW225242   1.431   0.376   2.825 -0.4923  0.0657 -0.5611
 4536SOL     OW25243   4.380   1.978   9.759 -0.4476  0.2687  0.1025
 4536SOL    HW125244   4.334   1.896   9.744 -1.0840  0.8365 -1.0477
 4536SOL    HW225245   4.343   2.004   9.843 -0.2681  1.7919 -0.2917
 4537SOL     OW25246   2.764   0.934   7.642  0.4055 -0.4038  0.8757
 4537SOL    HW125247   2.844   0.985   7.627  0.4952 -0.8990 -0.3323
 4537SOL    HW225248   2.700   0.996   7.608  1.8525 -0.5161 -2.1019
 4538SOL     OW25249   1.778   1.183  12.196  0.3952  0.1717 -0.1686
 4538SOL    HW125250   1.730   1.155  12.274 -0.8047 -0.4924 -1.1409
 4538SOL    HW225251   1.846   1.242  12.227  0.6553 -0.0838 -0.2558
 4539SOL     OW25252   3.665   2.615  12.017  0.7170 -0.3918  0.3889
 4539SOL    HW125253   3.698   2.695  11.976 -0.4695  0.4661  1.0803
 4539SOL    HW225254   3.644   2.555  11.945 -1.5649  2.9700 -1.7788
 4540SOL     OW25255   0.600   0.258   7.539  0.2767  0.6404  0.3586
 4540SOL    HW125256   0.647   0.191   7.589  0.3483  0.2740 -0.1992
 4540SOL    HW225257   0.589   0.217   7.453  1.6575  0.5007  0.2519
 4541SOL     OW25258   0.524   2.597   8.640  0.0857 -0.3666  0.1058
 4541SOL    HW125259   0.516   2.576   8.548  0.8588  0.4610 -0.1534
 4541SOL    HW225260   0.450   2.542   8.664 -1.3147  2.6914  2.7874
 4542SOL     OW25261   1.322   0.272   0.459  0.4372 -0.5911  0.1659
 4542SOL    HW125262   1.271   0.319   0.393  1.6104 -2.2455 -1.8878
 4542SOL    HW225263   1.250   0.258   0.520  0.8029 -0.1914  0.6906
 4543SOL     OW25264   0.378   0.620   5.912 -0.4009  0.3099  0.0796
 4543SOL    HW125265   0.466   0.622   5.950 -0.9545 -0.7659  1.4103
 4543SOL    HW225266   0.359   0.529   5.890  0.1181  0.3761 -0.6132
 4544SOL     OW25267   0.758   0.648   7.269 -0.2465 -0.1851  0.1080
 4544SOL    HW125268   0.763   0.585   7.341  2.6021 -1.1501 -0.9144
 4544SOL    HW225269   0.790   0.728   7.311  0.4160  0.1755 -1.0998
 4545SOL     OW25270   1.814   4.007   4.399  0.2046 -0.5778 -0.3191
 4545SOL    HW125271   1.829   4.087   4.448 -0.0145 -0.9514  0.3566
 4545SOL    HW225272   1.855   4.032   4.316  1.1725 -0.8775  0.0724
 4546SOL     OW25273   3.488   2.095   7.484  0.2117  0.1647 -0.5690
 4546SOL    HW125274   3.469   2.096   7.391 -3.4927 -0.6370  0.1992
 4546SOL    HW225275   3.567   2.040   7.480 -0.8484 -1.3959  0.0575
 4547SOL     OW25276   0.280   0.314   8.916  0.2939 -0.8535  0.0256
 4547SOL    HW125277   0.193   0.308   8.957 -0.2880  1.2345 -0.8832
 4547SOL    HW225278   0.283   0.404   8.883  0.5506 -0.7844  0.2461
 4548SOL     OW25279   3.773   1.174   8.180 -0.4347  0.0746 -0.6220
 4548SOL    HW125280   3.826   1.103   8.145  1.4710  0.9039  0.5777
 4548SOL    HW225281   3.772   1.233   8.105 -0.0285  0.3585 -0.3993
 4549SOL     OW25282   4.142   3.871  13.340  0.7152  0.1416 -0.1791
 4549SOL    HW125283   4.144   3.963  13.366  0.8318  0.4154 -1.1594
 4549SOL    HW225284   4.234   3.850  13.322  0.1968 -0.9827 -1.4453
 4550SOL     OW25285   2.128   4.341  14.163  0.0316  0.3218 -0.2382
 4550SOL    HW125286   2.136   4.403  14.090  1.6420  0.1262 -0.2320
 4550SOL    HW225287   2.188   4.279  14.121  0.0504  0.9347 -1.1176
 4551SOL     OW25288   1.488   3.419   4.199 -0.1237 -0.3586 -0.1884
 4551SOL    HW125289   1.493   3.498   4.253 -1.9121  0.0490 -0.6494
 4551SOL    HW225290   1.533   3.350   4.247 -0.5376 -0.3248  0.2500
 4552SOL     OW25291   4.287   0.964   0.479  1.1033 -0.3273 -1.1443
 4552SOL    HW125292   4.279   1.052   0.441 -0.3663  1.0263  2.3510
 4552SOL    HW225293   4.268   0.913   0.400  1.9153 -0.7678 -1.0578
 4553SOL     OW25294   4.358   1.692   7.633  0.6280 -0.2868  0.3119
 4553SOL    HW125295   4.305   1.662   7.707 -0.8931  1.4588 -0.0815
 4553SOL    HW225296   4.432   1.739   7.671 -0.9203  1.8837  0.6588
 4554SOL     OW25297   1.541   2.116   6.500  0.0855  0.2018  0.0019
 4554SOL    HW125298   1.570   2.027   6.481 -0.5069  0.4184 -1.8955
 4554SOL    HW225299   1.622   2.146   6.542  0.0275 -0.0572  0.2960
 4555SOL     OW25300   0.371   0.058   6.421  0.1169  0.3714  0.2780
 4555SOL    HW125301   0.394   0.136   6.472 -0.1084 -0.1964  1.2598
 4555SOL    HW225302   0.324   0.091   6.345  1.5372  2.0779  0.1543
 4556SOL     OW25303   0.052   3.740   7.644  0.4946 -0.2710 -0.1603
 4556SOL    HW125304   0.054   3.804   7.573  0.9409 -1.9498 -1.6532
 4556SOL    HW225305   0.116   3.674   7.618 -0.1008 -1.2402  0.8297
 4557SOL     OW25306   2.137   3.485   3.836  0.1535  0.0010 -0.0315
 4557SOL    HW125307   2.089   3.413   3.794 -0.4762  0.9405 -0.9221
 4557SOL    HW225308   2.108   3.460   3.924  0.6376  0.1646  0.1747
 4558SOL     OW25309   3.826   0.448   5.463  0.2383  0.3021 -0.3521
 4558SOL    HW125310   3.770   0.372   5.479 -0.7069  1.1639  0.3129
 4558SOL    HW225311   3.852   0.470   5.552  0.0019 -1.0780  0.0643
 4559SOL     OW25312   3.169   1.267   0.483  0.3311  0.2347 -0.3241
 4559SOL    HW125313   3.101   1.200   0.487  0.4794  0.0844 -0.3256
 4559SOL    HW225314   3.133   1.347   0.521 -1.0658 -0.1444 -0.8335
 4560SOL     OW25315   3.178   4.530   2.276 -0.4925  0.0967  0.1655
 4560SOL    HW125316   3.179   4.610   2.329  2.5480  1.2232 -1.6224
 4560SOL    HW225317   3.087   4.506   2.296 -1.1042  0.4949 -2.2230
 4561SOL     OW25318   0.122   1.995  10.083 -0.3304  0.4278 -0.1359
 4561SOL    HW125319   0.172   1.914  10.074 -1.1798 -0.1219  0.1358
 4561SOL    HW225320   0.041   1.978  10.035 -0.1096  1.7755 -0.9991
 4562SOL     OW25321   3.831   3.791   6.728 -0.2121  0.5904  0.4718
 4562SOL    HW125322   3.780   3.717   6.695  1.1213  0.4779 -1.3634
 4562SOL    HW225323   3.906   3.778   6.669 -0.5038  1.5057 -0.1144
 4563SOL     OW25324   0.554   4.646   3.575 -0.1847  0.0797  0.4320
 4563SOL    HW125325   0.500   4.617   3.648 -1.3338 -0.5630 -0.6579
 4563SOL    HW225326   0.488   4.653   3.506 -0.6946 -0.1001  0.9023
 4564SOL     OW25327   4.696   0.156   5.106  0.1522 -0.2074  0.6201
 4564SOL    HW125328   4.727   0.070   5.135  0.8719  0.3023  1.3657
 4564SOL    HW225329   4.670   0.123   5.020 -1.9717  1.1246  0.7615
 4565SOL     OW25330   2.817   0.143  15.076  0.0944 -0.0910  0.0498
 4565SOL    HW125331   2.866   0.176  15.151  2.1382 -0.2037 -1.2448
 4565SOL    HW225332   2.866   0.063  15.057  0.2409 -0.4861  2.0972
 4566SOL     OW25333   0.536   1.559  17.164 -0.0877 -0.0951 -0.4645
 4566SOL    HW125334   0.533   1.472  17.203 -2.9506  0.6516  1.0368
 4566SOL    HW225335   0.474   1.546  17.092 -1.7641 -1.1659  1.1644
 4567SOL     OW25336   2.374   2.208   9.443  0.0461 -0.2527 -0.3728
 4567SOL    HW125337   2.366   2.298   9.475 -0.5391 -0.6568  0.6255
 4567SOL    HW225338   2.367   2.147   9.516 -1.2586 -0.7964 -0.9569
 4568SOL     OW25339   3.865   0.257   7.758 -0.1115  0.5274 -0.1010
 4568SOL    HW125340   3.783   0.216   7.785  0.7291  0.1808  1.8703
 4568SOL    HW225341   3.838   0.297   7.675  1.5603  2.9984  0.5423
 4569SOL     OW25342   4.170   0.780   3.907 -0.0574 -0.3037  0.9377
 4569SOL    HW125343   4.252   0.765   3.954  0.3688 -1.7189 -0.2436
 4569SOL    HW225344   4.122   0.787   3.989 -3.6901 -1.1755 -1.0926
 4570SOL     OW25345   2.927   4.639  13.754 -0.3937  0.1704 -0.3216
 4570SOL    HW125346   3.002   4.606  13.705 -2.2770 -1.6401 -1.9944
 4570SOL    HW225347   2.850   4.591  13.723  0.0712 -0.7142 -0.1207
 4571SOL     OW25348   3.419   0.953   4.856 -0.3940 -0.3177  0.0702
 4571SOL    HW125349   3.475   0.930   4.782 -0.7082 -1.2610  0.1206
 4571SOL    HW225350   3.338   0.995   4.829 -0.6197 -1.0763 -0.4319
 4572SOL     OW25351   3.102   2.781   7.420 -0.1355 -0.4051  0.2011
 4572SOL    HW125352   3.021   2.811   7.462 -0.2550  1.8796 -1.6431
 4572SOL    HW225353   3.166   2.793   7.490 -0.8806 -0.1317  0.8382
 4573SOL     OW25354   4.493   4.593   6.234 -0.4294 -0.7710 -0.2934
 4573SOL    HW125355   4.431   4.548   6.291 -0.5323  1.2717  1.2119
 4573SOL    HW225356   4.573   4.610   6.284 -0.7568 -1.4782  0.4543
 4574SOL     OW25357   3.402   2.478   8.028 -0.1076  0.2305 -0.4198
 4574SOL    HW125358   3.370   2.389   8.041  1.1629 -0.2476 -0.6290
 4574SOL    HW225359   3.388   2.507   8.119 -1.4610 -1.0010 -0.2458
 4575SOL     OW25360   1.333   4.369   8.540  0.4154  0.4895  0.7587
 4575SOL    HW125361   1.406   4.370   8.477  1.2547 -1.0742  1.7055
 4575SOL    HW225362   1.371   4.326   8.616 -1.8162 -0.9245  1.0841
 4576SOL     OW25363   1.111   2.771   8.026  0.2961 -0.5687  0.0591
 4576SOL    HW125364   1.079   2.713   7.957 -0.2255  0.0067 -0.1878
 4576SOL    HW225365   1.137   2.708   8.093  1.6167  0.0743  0.1338
 4577SOL     OW25366   1.685   1.362   1.453 -0.5417  0.3495 -0.1336
 4577SOL    HW125367   1.740   1.432   1.489 -0.1614 -1.0372  1.9469
 4577SOL    HW225368   1.607   1.417   1.457 -1.3517 -0.6829 -1.4642
 4578SOL     OW25369   1.961   2.367  10.280 -0.6937 -0.0845  0.1823
 4578SOL    HW125370   1.923   2.280  10.293 -0.9752  0.1819  1.1349
 4578SOL    HW225371   1.879   2.410  10.254 -1.2786 -1.3820 -0.1006
 4579SOL     OW25372   4.642   1.105   0.192  0.0992  0.4610 -0.0188
 4579SOL    HW125373   0.002   1.117   0.210 -0.0583 -1.0139  1.8545
 4579SOL    HW225374   4.615   1.067   0.276  1.1340  0.2328  0.2094
 4580SOL     OW25375   2.183   2.789   2.699 -0.3384 -0.1840  0.2631
 4580SOL    HW125376   2.092   2.778   2.726 -0.5731 -2.0771 -1.3652
 4580SOL    HW225377   2.182   2.782   2.603 -0.6932 -0.1205  0.2623
 4581SOL     OW25378   3.052   0.218  13.448 -0.4423  0.6252  0.0040
 4581SOL    HW125379   3.136   0.221  13.402  1.1655  0.9035  2.9791
 4581SOL    HW225380   3.024   0.129  13.426  1.3874  0.8450 -3.3544
 4582SOL     OW25381   2.823   3.702  15.579  0.0895  0.6426 -0.4365
 4582SOL    HW125382   2.754   3.767  15.567  1.2805  2.3020  1.7560
 4582SOL    HW225383   2.836   3.683  15.486  1.5317 -2.0405  0.3181
 4583SOL     OW25384   4.597   0.788   8.977  0.1046 -0.6144 -0.4164
 4583SOL    HW125385   4.545   0.854   8.931 -0.1569  0.6378  1.7001
 4583SOL    HW225386   4.616   0.735   8.899 -0.4313  1.1646 -1.7552
 4584SOL     OW25387   2.553   1.050   8.837  0.4247 -0.5177  0.0983
 4584SOL    HW125388   2.513   0.999   8.767 -0.2003 -0.6550  0.5480
 4584SOL    HW225389   2.501   1.027   8.914  1.2414  0.6171  1.0077
 4585SOL     OW25390   1.075   3.147   3.134  0.1492  0.5982 -0.0374
 4585SOL    HW125391   1.049   3.184   3.218 -2.8593  0.3571 -0.8780
 4585SOL    HW225392   1.156   3.099   3.152 -0.7759 -0.6329  0.8810
 4586SOL     OW25393   0.625   2.754   2.942 -0.2017 -0.2776  0.2292
 4586SOL    HW125394   0.665   2.831   2.901 -2.2114  1.6455  1.8803
 4586SOL    HW225395   0.558   2.793   2.997  1.3039  0.3396  1.6183
 4587SOL     OW25396   2.358   1.902   4.480  0.2614 -0.5355  0.0749
 4587SOL    HW125397   2.296   1.835   4.508 -2.4752  1.8330 -0.3319
 4587SOL    HW225398   2.434   1.844   4.477 -1.0587 -2.1875 -1.9237
 4588SOL     OW25399   3.124   0.252   2.252  0.2260  0.1390 -0.0416
 4588SOL    HW125400   3.137   0.304   2.173  1.0040  0.5741  0.3763
 4588SOL    HW225401   3.113   0.327   2.311  0.9798  0.7231 -0.6330
 4589SOL     OW25402   3.219   3.018  17.066  0.0636  0.4946 -0.6522
 4589SOL    HW125403   3.143   2.998  17.120 -0.5199  1.5324 -1.0689
 4589SOL    HW225404   3.195   2.967  16.988 -1.0790  0.5366 -0.3327
 4590SOL     OW25405   2.953   4.454  11.848  0.0572 -0.1641  0.1395
 4590SOL    HW125406   3.043   4.483  11.838  0.8113 -2.4617  0.3132
 4590SOL    HW225407   2.946   4.368  11.806 -0.3462  0.2705 -0.6792
 4591SOL     OW25408   2.090   3.069  16.625  0.1300 -0.0080 -0.2890
 4591SOL    HW125409   2.013   3.125  16.640  0.0708 -0.0395 -0.4748
 4591SOL    HW225410   2.133   3.133  16.567  0.0032 -1.5070 -2.0399
 4592SOL     OW25411   4.715   3.494   5.571 -0.1137 -0.1406  0.0510
 4592SOL    HW125412   4.659   3.437   5.623 -0.2621  1.8181  2.0142
 4592SOL    HW225413   4.660   3.534   5.504 -0.4955 -1.7925 -0.6366
 4593SOL     OW25414   0.131   2.363   9.293 -0.0264 -0.6210  0.2482
 4593SOL    HW125415   0.108   2.271   9.311  0.3237 -0.6579  0.4995
 4593SOL    HW225416   0.090   2.377   9.208 -0.6448 -0.4906  0.5686
 4594SOL     OW25417   1.658   1.925   2.771 -0.5381  0.0731  0.2988
 4594SOL    HW125418   1.679   2.018   2.783 -0.1338  0.1486 -0.9623
 4594SOL    HW225419   1.583   1.930   2.712 -2.6367  3.3732  3.2362
 4595SOL     OW25420   1.076   3.495  11.208  0.1307 -0.2497  0.1686
 4595SOL    HW125421   1.119   3.512  11.124 -0.3838  0.9877  0.1583
 4595SOL    HW225422   1.148   3.504  11.270  0.1073  1.5517 -0.0840
 4596SOL     OW25423   4.642   1.306  11.264 -0.1983  0.5104  0.1887
 4596SOL    HW125424   4.555   1.299  11.303  0.0432 -0.6844  0.5000
 4596SOL    HW225425   4.645   1.218  11.226 -0.1205 -0.2467  1.9060
 4597SOL     OW25426   3.997   4.137   4.679 -0.1419 -0.3355  0.1862
 4597SOL    HW125427   3.929   4.145   4.745 -0.9472  0.6534 -0.7573
 4597SOL    HW225428   4.071   4.180   4.722  1.0212 -1.5072 -0.5966
 4598SOL     OW25429   3.233   0.725  11.210  0.5011 -0.1697  0.0409
 4598SOL    HW125430   3.138   0.712  11.213  0.2797  0.8594 -2.8195
 4598SOL    HW225431   3.241   0.813  11.248 -1.3741 -0.5018  1.2172
 4599SOL     OW25432   1.434   3.615   7.556 -0.0062  0.0656  0.2477
 4599SOL    HW125433   1.343   3.639   7.573 -0.0859 -0.7021  0.8892
 4599SOL    HW225434   1.481   3.692   7.587 -2.2134  0.5403  2.4270
 4600SOL     OW25435   0.116   0.675   4.071  0.1633  0.4163 -0.0863
 4600SOL    HW125436   0.095   0.746   4.131 -1.9808  1.1839 -1.7395
 4600SOL    HW225437   0.086   0.717   3.991 -1.5564 -1.5209 -0.4577
 4601SOL     OW25438   3.680   0.153   7.154 -0.5638  0.8380 -0.9973
 4601SOL    HW125439   3.646   0.137   7.242  0.7863  0.9252 -0.4722
 4601SOL    HW225440   3.721   0.238   7.167  1.1384 -0.6489  3.3335
 4602SOL     OW25441   0.121   1.002   2.889  0.1088  0.1757  0.2236
 4602SOL    HW125442   0.082   1.022   2.804 -1.0602  0.0635  0.7263
 4602SOL    HW225443   0.143   0.910   2.874 -0.7122 -0.0958  0.6759
 4603SOL     OW25444   2.048   1.645   6.098  0.1786 -0.0233  0.2473
 4603SOL    HW125445   1.973   1.593   6.128  0.1713 -0.1484  0.0138
 4603SOL    HW225446   2.110   1.628   6.169  0.9441  3.1990  0.3415
 4604SOL     OW25447   1.323   4.052   2.257 -0.0486 -0.4780 -1.0866
 4604SOL    HW125448   1.372   4.117   2.206  3.6950 -1.1690  1.5929
 4604SOL    HW225449   1.310   3.990   2.186  1.6360 -0.2813 -1.5827
 4605SOL     OW25450   2.290   4.005   2.726  0.3603  0.0960  0.0381
 4605SOL    HW125451   2.350   4.073   2.696  1.1905 -1.1056 -0.9640
 4605SOL    HW225452   2.351   3.960   2.784  0.3361 -0.2988 -0.2495
 4606SOL     OW25453   3.591   3.243   0.981 -0.3900 -0.6960 -0.0948
 4606SOL    HW125454   3.681   3.247   0.951  0.0689  0.6267  1.4461
 4606SOL    HW225455   3.585   3.338   0.991  0.8320 -0.8001  1.6895
 4607SOL     OW25456   2.022   0.598   7.995  0.0219 -0.2554 -0.0312
 4607SOL    HW125457   2.064   0.674   7.955 -0.2198 -1.4375 -2.5158
 4607SOL    HW225458   1.943   0.639   8.031  0.8892  0.8272  0.6433
 4608SOL     OW25459   1.330   2.094   3.829  0.1663 -0.3409 -0.1127
 4608SOL    HW125460   1.399   2.057   3.885 -2.3235 -3.4840  0.9115
 4608SOL    HW225461   1.375   2.067   3.749  1.1754  1.9522 -0.2956
 4609SOL     OW25462   3.837   2.665   7.884 -0.4434 -0.6859  0.3531
 4609SOL    HW125463   3.768   2.696   7.824  0.5601 -1.0818 -1.0055
 4609SOL    HW225464   3.868   2.586   7.841 -0.5335 -0.3345 -0.3658
 4610SOL     OW25465   2.329   1.523   9.112 -0.1235  0.8699  0.1293
 4610SOL    HW125466   2.258   1.580   9.083 -0.9080 -0.5389 -0.7209
 4610SOL    HW225467   2.403   1.573   9.078 -1.5934  1.8982 -1.5257
 4611SOL     OW25468   3.978   0.822   7.084  0.2618 -0.6548  0.4657
 4611SOL    HW125469   4.049   0.768   7.050  1.1406  1.6808 -1.4247
 4611SOL    HW225470   4.031   0.900   7.102 -1.0909 -0.0140  1.6409
 4612SOL     OW25471   0.798   2.941   8.180 -0.6019 -0.7603 -0.3120
 4612SOL    HW125472   0.753   2.888   8.114  0.0378 -0.4711 -0.9856
 4612SOL    HW225473   0.737   3.014   8.188 -0.7104 -1.0159  1.2401
 4613SOL     OW25474   3.859   4.148   3.697  0.1123  0.0401 -0.3055
 4613SOL    HW125475   3.910   4.154   3.617 -0.9578  1.4402 -0.8828
 4613SOL    HW225476   3.773   4.178   3.668 -1.8446 -3.2657  2.0313
 4614SOL     OW25477   1.315   4.394   3.228  0.1165 -0.1455 -0.3258
 4614SOL    HW125478   1.249   4.364   3.165 -0.0286 -0.2199 -0.1405
 4614SOL    HW225479   1.366   4.313   3.229  0.4297  0.0446 -0.8673
 4615SOL     OW25480   3.875   2.469   4.598  0.0942 -0.7765 -0.4132
 4615SOL    HW125481   3.934   2.468   4.673  0.2240  0.7224 -0.4965
 4615SOL    HW225482   3.928   2.440   4.524  0.9418  0.8161 -0.4315
 4616SOL     OW25483   1.338   2.209   1.918  0.2591 -0.5667  0.0535
 4616SOL    HW125484   1.364   2.147   1.850 -0.2925  1.1257 -1.6990
 4616SOL    HW225485   1.358   2.296   1.885 -1.4570 -0.0446  0.4202
 4617SOL     OW25486   3.115   2.000   8.050  0.1119  0.0939  0.1555
 4617SOL    HW125487   3.042   2.056   8.074 -0.4702 -0.7706  0.3886
 4617SOL    HW225488   3.100   1.925   8.108  0.6360  0.0946  0.2952
 4618SOL     OW25489   0.605   3.888   7.079 -0.4109 -0.5658  0.2870
 4618SOL    HW125490   0.621   3.794   7.074 -1.1550 -0.6689 -0.0548
 4618SOL    HW225491   0.512   3.885   7.101 -0.4517 -4.4980 -0.3416
 4619SOL     OW25492   3.150   4.187  15.953  0.2912  0.5278  0.4834
 4619SOL    HW125493   3.118   4.276  15.936 -1.5320 -0.2916 -0.3682
 4619SOL    HW225494   3.061   4.152  15.955 -0.3027  2.0150  0.3505
 4620SOL     OW25495   0.602   1.537  16.321 -0.1329  0.6247 -0.4800
 4620SOL    HW125496   0.550   1.588  16.384 -0.3034 -0.7945  0.5348
 4620SOL    HW225497   0.684   1.538  16.371 -1.4900 -0.5159  1.7852
 4621SOL     OW25498   4.536   0.998   8.293 -0.7589 -0.1750  0.0549
 4621SOL    HW125499   4.591   0.976   8.369  0.0774 -2.6225 -1.2812
 4621SOL    HW225500   4.598   0.989   8.221  1.2004  1.7231  1.5089
 4622SOL     OW25501   1.516   3.002   8.173  0.6512  0.1691 -0.2547
 4622SOL    HW125502   1.457   3.011   8.098  1.0825 -1.8376 -0.8371
 4622SOL    HW225503   1.589   3.046   8.129  0.7445  0.8463  0.5845
 4623SOL     OW25504   4.706   4.711   8.492  0.6158 -0.4095 -0.2207
 4623SOL    HW125505   0.048   4.663   8.458 -1.2824 -3.3907 -0.2487
 4623SOL    HW225506   4.668   4.649   8.553 -0.6766 -0.2526 -0.8762
 4624SOL     OW25507   4.412   3.947   6.554  0.2645  0.2305 -0.1490
 4624SOL    HW125508   4.364   3.912   6.480 -1.2858  0.1524  0.8795
 4624SOL    HW225509   4.481   3.881   6.559  0.8340  0.8631  0.3852
 4625SOL     OW25510   2.031   0.989   4.574  0.1165 -0.8210  0.4697
 4625SOL    HW125511   1.999   0.929   4.641 -3.2308  1.1881  0.6415
 4625SOL    HW225512   1.950   1.037   4.557 -0.0339 -1.1357  0.2958
 4626SOL     OW25513   1.302   1.674   4.007  0.2181  0.0233 -0.0270
 4626SOL    HW125514   1.385   1.645   3.970 -0.8034 -2.4708 -0.3574
 4626SOL    HW225515   1.242   1.644   3.938  0.2138 -0.2916  0.1139
 4627SOL     OW25516   4.381   4.643   4.132 -0.2236  0.8156  0.6244
 4627SOL    HW125517   4.314   4.678   4.074 -0.3973  0.1140  0.4150
 4627SOL    HW225518   4.463   4.657   4.085 -0.8496  1.2401 -0.3457
 4628SOL     OW25519   0.687   4.431   4.680  0.3225 -0.4538 -0.2088
 4628SOL    HW125520   0.595   4.456   4.667  0.5342 -0.1284 -1.0793
 4628SOL    HW225521   0.680   4.341   4.649 -1.5673 -0.6141  0.6752
 4629SOL     OW25522   3.995   3.180   6.932  0.2592 -0.0048  0.1352
 4629SOL    HW125523   3.934   3.210   6.864  0.9822  0.3410 -0.3597
 4629SOL    HW225524   4.035   3.116   6.874  0.8623 -2.1608  2.9086
 4630SOL     OW25525   1.290   2.274   2.794  0.3026  0.0964  0.3351
 4630SOL    HW125526   1.263   2.184   2.815  0.9529 -0.2767 -0.4142
 4630SOL    HW225527   1.232   2.285   2.719  1.0042 -3.4851 -0.7417
 4631SOL     OW25528   2.981   3.065  17.484  0.2907 -0.5786  0.8684
 4631SOL    HW125529   3.013   2.979  17.458 -0.3967 -0.1909 -1.3176
 4631SOL    HW225530   2.902   3.073  17.430 -0.4538  0.6432  2.1233
 4632SOL     OW25531   3.435   1.363   8.122  0.1028 -0.4735 -0.1905
 4632SOL    HW125532   3.490   1.326   8.191 -0.7104  1.6015  1.5788
 4632SOL    HW225533   3.458   1.456   8.128 -1.4409  0.1456 -3.9369
 4633SOL     OW25534   2.585   1.935   7.327  0.3963 -0.3597  0.3624
 4633SOL    HW125535   2.552   1.851   7.295 -0.7981 -0.3456  1.5411
 4633SOL    HW225536   2.533   1.935   7.408 -0.9331  0.3066 -0.4956
 4634SOL     OW25537   0.708   4.276   5.859  0.3570 -0.6234 -0.4062
 4634SOL    HW125538   0.773   4.208   5.845  0.5662 -0.5763  0.3670
 4634SOL    HW225539   0.716   4.288   5.953 -1.4236  0.9542 -0.4332
 4635SOL     OW25540   0.032   3.708  11.945 -0.1798  0.1613 -0.0056
 4635SOL    HW125541   0.066   3.620  11.926 -0.1002  0.3757 -0.8615
 4635SOL    HW225542   0.066   3.753  11.867 -0.8024 -0.5561 -0.6856
 4636SOL     OW25543   2.423   4.668   8.634  0.1379  0.4389  0.1308
 4636SOL    HW125544   2.513   4.645   8.658 -0.9517 -1.7860  2.0421
 4636SOL    HW225545   2.377   4.664   8.718  0.6118 -1.0694  0.3119
 4637SOL     OW25546   1.947   4.526   9.700 -0.4113 -0.5469  0.5727
 4637SOL    HW125547   1.949   4.558   9.609 -0.7589 -0.1054  0.7205
 4637SOL    HW225548   1.873   4.471   9.674  0.1210 -0.4631 -1.1458
 4638SOL     OW25549   4.489   2.215  12.169  0.3011 -0.1149 -0.3049
 4638SOL    HW125550   4.494   2.290  12.229  0.5373 -1.4784  1.3705
 4638SOL    HW225551   4.475   2.263  12.088  2.2870  2.1879  0.7117
 4639SOL     OW25552   3.264   1.151   3.748  0.4538 -0.2405  0.1238
 4639SOL    HW125553   3.320   1.228   3.759 -1.0238  1.0441 -1.3469
 4639SOL    HW225554   3.216   1.172   3.668  0.4679  2.5357  0.8469
 4640SOL     OW25555   1.969   2.174   5.060 -0.1543 -0.1223 -0.1775
 4640SOL    HW125556   1.935   2.087   5.081 -0.3531 -0.2044 -0.8506
 4640SOL    HW225557   2.061   2.168   5.086 -0.4100 -0.2078  0.7136
 4641SOL     OW25558   0.960   1.470  11.780  0.5616  0.3005 -0.5951
 4641SOL    HW125559   1.054   1.452  11.792  0.6787  1.3969  0.1560
 4641SOL    HW225560   0.924   1.399  11.833  1.3289  1.3128  1.2918
 4642SOL     OW25561   0.968   1.806  11.083  0.1025  0.7771 -1.1377
 4642SOL    HW125562   0.887   1.837  11.124  1.2401  0.7200  1.1175
 4642SOL    HW225563   1.031   1.873  11.110 -0.3253  0.8770 -0.3967
 4643SOL     OW25564   2.677   4.136   9.579 -0.1815  0.2442 -0.2572
 4643SOL    HW125565   2.753   4.135   9.637 -0.8172 -3.3252  0.5388
 4643SOL    HW225566   2.671   4.231   9.567 -0.0199  0.1630 -0.9871
 4644SOL     OW25567   0.194   2.744  14.852  0.0342 -0.1147 -0.0669
 4644SOL    HW125568   0.152   2.812  14.798  2.5914  1.7201  0.2369
 4644SOL    HW225569   0.207   2.668  14.795  1.3975 -0.0482  0.1499
 4645SOL     OW25570   1.110   3.036   2.387  0.2165  0.6504 -0.0580
 4645SOL    HW125571   1.052   2.989   2.327  0.0585  0.4711  0.2394
 4645SOL    HW225572   1.045   3.038   2.457 -1.3713  1.3739 -1.5215
 4646SOL     OW25573   3.168   3.856   8.145  0.3540  0.1456 -0.5109
 4646SOL    HW125574   3.073   3.864   8.155  0.1692 -0.1198 -1.9979
 4646SOL    HW225575   3.183   3.762   8.138  2.3653  0.4939 -0.8832
 4647SOL     OW25576   4.264   1.446   1.260  0.1483 -1.2098 -0.1257
 4647SOL    HW125577   4.261   1.531   1.217 -2.6450 -1.0573  0.3239
 4647SOL    HW225578   4.358   1.440   1.275  0.3910  2.0746 -0.2949
 4648SOL     OW25579   4.143   2.204   3.766 -0.3614  0.4372 -0.0672
 4648SOL    HW125580   4.167   2.292   3.738  2.1565  0.0351  0.8312
 4648SOL    HW225581   4.202   2.151   3.712  0.2433  0.3028  0.7286
 4649SOL     OW25582   4.381   0.183   8.880 -0.2922 -0.1354 -0.3645
 4649SOL    HW125583   4.368   0.270   8.918  0.4980 -1.6009  3.2824
 4649SOL    HW225584   4.401   0.193   8.787 -0.9573 -1.6927 -0.6895
 4650SOL     OW25585   2.415   1.337   4.880 -0.0964 -0.2604  0.3836
 4650SOL    HW125586   2.362   1.316   4.957 -0.6865  1.0041  0.3179
 4650SOL    HW225587   2.394   1.426   4.853  1.6095  0.4930  1.5264
 4651SOL     OW25588   2.965   0.884  12.054  0.1278 -0.0800 -0.3215
 4651SOL    HW125589   2.876   0.863  12.081 -0.0093  2.7495  1.5288
 4651SOL    HW225590   2.962   0.967  12.102  0.4255  0.1678 -0.7259
 4652SOL     OW25591   4.205   2.547  16.725 -0.1056  0.3945 -0.1867
 4652SOL    HW125592   4.167   2.524  16.810 -0.5891 -1.3011 -0.8801
 4652SOL    HW225593   4.257   2.472  16.697 -0.4420 -0.1877  0.7316
 4653SOL     OW25594   0.303   3.358   6.044 -0.3219 -0.0962  0.4315
 4653SOL    HW125595   0.397   3.339   6.049 -0.2929  1.2548  4.7925
 4653SOL    HW225596   0.258   3.277   6.066 -2.7365  1.7031  2.1086
 4654SOL     OW25597   0.152   4.178   2.361  0.7002  0.4792 -0.4542
 4654SOL    HW125598   0.134   4.269   2.339 -2.3152 -0.1295 -0.5183
 4654SOL    HW225599   0.159   4.177   2.457  0.8433 -0.8621 -0.4828
 4655SOL     OW25600   1.936   4.074   4.161 -0.4592  0.4450  0.3508
 4655SOL    HW125601   1.862   4.109   4.112  0.0063 -0.9390 -1.3083
 4655SOL    HW225602   1.996   4.055   4.090 -2.3017 -1.5485 -0.6581
 4656SOL     OW25603   4.699   0.915   6.964  0.0171 -0.4641  0.6078
 4656SOL    HW125604   0.050   0.942   6.999  0.7825 -1.6621 -0.3349
 4656SOL    HW225605   4.666   0.854   7.031 -2.8062 -1.9476 -2.1516
 4657SOL     OW25606   2.539   2.180   9.928  0.3916 -0.1374  0.2465
 4657SOL    HW125607   2.565   2.181  10.020  0.1671  1.6297  0.3040
 4657SOL    HW225608   2.601   2.116   9.893  1.7438  1.0857  0.3997
 4658SOL     OW25609   1.662   2.955   9.168  0.3817  0.5083  0.7090
 4658SOL    HW125610   1.752   2.948   9.200  0.8863  0.4724 -0.7127
 4658SOL    HW225611   1.633   3.024   9.228  0.0502  2.0922 -1.2511
 4659SOL     OW25612   3.544   1.020   8.102  0.3006  0.0514 -0.1987
 4659SOL    HW125613   3.612   1.087   8.096 -1.4099  1.6133 -1.9156
 4659SOL    HW225614   3.522   1.025   8.009 -1.1391  3.0271  0.2947
 4660SOL     OW25615   1.984   0.179   7.998 -0.3509  0.7367 -0.3270
 4660SOL    HW125616   1.974   0.157   7.906  0.9929 -0.8912 -0.0935
 4660SOL    HW225617   2.004   0.272   8.000 -1.2011  0.9409 -1.2984
 4661SOL     OW25618   2.857   4.025   5.040 -0.6700  0.1790 -0.2686
 4661SOL    HW125619   2.946   4.050   5.065 -0.7147  0.7362 -0.6611
 4661SOL    HW225620   2.824   4.100   4.991  0.9253  2.2756  1.8446
 4662SOL     OW25621   3.704   0.745   3.608  0.0464 -0.0708 -0.6721
 4662SOL    HW125622   3.734   0.673   3.665 -1.0090  0.2408  0.2587
 4662SOL    HW225623   3.670   0.693   3.535  0.3183 -0.5571 -0.4594
 4663SOL     OW25624   1.191   3.865  10.173  0.2010  0.0346 -0.6370
 4663SOL    HW125625   1.141   3.866  10.091 -0.6324  2.2853 -0.0721
 4663SOL    HW225626   1.262   3.920  10.140  1.9400 -1.2590  0.9606
 4664SOL     OW25627   1.938   3.312   3.801 -0.1613 -0.4788 -0.0835
 4664SOL    HW125628   1.880   3.315   3.724 -1.0000  0.7223  0.5924
 4664SOL    HW225629   1.875   3.326   3.871 -1.1183 -1.0616 -0.8183
 4665SOL     OW25630   0.192   2.467   2.615  0.2548 -0.2089 -0.8997
 4665SOL    HW125631   0.279   2.452   2.580  0.6069  3.2255 -1.4428
 4665SOL    HW225632   0.200   2.554   2.655  1.6331 -1.0075  0.5590
 4666SOL     OW25633   3.478   1.224   5.734  0.1336  0.1016 -0.1925
 4666SOL    HW125634   3.536   1.282   5.783  0.8238 -1.5009  0.8546
 4666SOL    HW225635   3.458   1.153   5.795  0.4925  1.7518  1.8562
 4667SOL     OW25636   3.711   2.320   0.593 -0.5943 -0.3173 -0.3517
 4667SOL    HW125637   3.679   2.347   0.507 -2.3081 -1.3442 -0.0273
 4667SOL    HW225638   3.804   2.342   0.596 -0.6136 -0.7660  4.0695
 4668SOL     OW25639   2.015   2.392  14.359 -0.3433 -0.7302  0.1076
 4668SOL    HW125640   2.094   2.429  14.319 -0.4656 -1.0893 -0.4632
 4668SOL    HW225641   1.979   2.469  14.403  0.0906 -0.1204 -0.6032
 4669SOL     OW25642   4.385   3.248   6.787 -0.3354 -0.1440 -0.1864
 4669SOL    HW125643   4.469   3.280   6.822 -0.0354 -3.1049  1.7839
 4669SOL    HW225644   4.319   3.313   6.810 -1.5193 -1.8109  1.0747
 4670SOL     OW25645   2.224   2.526  14.267  0.7073 -0.0568  0.2702
 4670SOL    HW125646   2.196   2.617  14.258  0.6883 -0.0371  0.5083
 4670SOL    HW225647   2.318   2.529  14.285  0.7091 -0.3472  0.3141
 4671SOL     OW25648   2.629   4.010  10.669  0.0465  0.4632  0.4357
 4671SOL    HW125649   2.679   3.939  10.709  1.3625  1.2016  0.1128
 4671SOL    HW225650   2.542   3.972  10.659  0.9825 -1.3192 -1.1091
 4672SOL     OW25651   3.686   2.681   5.309 -0.1173  0.6265 -0.2045
 4672SOL    HW125652   3.598   2.710   5.284  0.7219  2.4927 -0.9990
 4672SOL    HW225653   3.732   2.670   5.226 -0.9362 -1.4271 -0.3700
 4673SOL     OW25654   2.610   3.736   6.276 -0.1515  0.2764 -0.7210
 4673SOL    HW125655   2.520   3.704   6.265 -0.3282  1.6787 -3.5278
 4673SOL    HW225656   2.589   3.829   6.275 -0.3212  0.2353 -1.3634
 4674SOL     OW25657   2.635   4.314  15.902  0.1247 -0.0361  0.2443
 4674SOL    HW125658   2.651   4.253  15.830  1.6942  0.0682  0.4991
 4674SOL    HW225659   2.607   4.397  15.863 -0.3529 -0.2688  0.0862
 4675SOL     OW25660   2.930   4.157  10.983  0.5193 -0.7058 -0.4692
 4675SOL    HW125661   2.947   4.063  10.979  1.9639 -0.6158  3.0349
 4675SOL    HW225662   2.902   4.169  11.074  1.1456 -1.5308 -0.1616
 4676SOL     OW25663   2.624   2.012   2.246 -0.5353 -0.0700  0.2920
 4676SOL    HW125664   2.536   2.026   2.281 -0.7629 -0.2317 -0.2124
 4676SOL    HW225665   2.658   1.955   2.315 -0.5328 -0.0140  0.3376
 4677SOL     OW25666   2.516   2.898   0.733  0.2841  0.2770 -0.4007
 4677SOL    HW125667   2.570   2.962   0.779  0.3875 -1.2099  1.5401
 4677SOL    HW225668   2.482   2.857   0.813 -0.3825  1.3189 -0.1576
 4678SOL     OW25669   4.100   1.754   2.130  0.2361 -0.0625  0.1072
 4678SOL    HW125670   4.075   1.819   2.064  0.3706 -1.5973 -1.4691
 4678SOL    HW225671   4.170   1.804   2.172  1.4248 -3.2345  1.8641
 4679SOL     OW25672   0.158   0.964   7.380  0.5678  0.4808  0.5775
 4679SOL    HW125673   0.088   0.997   7.437  0.1489  0.7908 -0.1191
 4679SOL    HW225674   0.207   1.041   7.354  0.6485 -0.2975 -1.5480
 4680SOL     OW25675   4.170   4.019   5.625  0.1330  0.9890 -0.3670
 4680SOL    HW125676   4.097   4.051   5.573 -1.5810 -1.2431  0.6374
 4680SOL    HW225677   4.222   3.986   5.552  3.0631  0.9310  1.7254
 4681SOL     OW25678   3.081   2.941   3.775 -0.3427 -0.0264 -0.4311
 4681SOL    HW125679   3.076   2.903   3.862  0.8653 -2.7650 -1.5509
 4681SOL    HW225680   3.148   2.880   3.744  0.1801 -0.0339  0.7244
 4682SOL     OW25681   0.793   4.590   5.346 -0.3726  0.3531  0.1754
 4682SOL    HW125682   0.855   4.633   5.287  1.8812 -0.4967  1.8981
 4682SOL    HW225683   0.720   4.652   5.344 -0.8500 -0.2627 -1.3444
 4683SOL     OW25684   3.488   1.635   5.041 -0.1184 -0.1439 -0.1333
 4683SOL    HW125685   3.466   1.683   4.961  1.2003  2.1114  0.8510
 4683SOL    HW225686   3.581   1.622   5.029 -0.2356 -0.4730 -0.6523
 4684SOL     OW25687   0.584   3.089  11.163 -0.0222  0.5956 -0.1107
 4684SOL    HW125688   0.615   3.177  11.184  3.4342 -1.4849  3.3608
 4684SOL    HW225689   0.524   3.108  11.090  1.3605  0.3937 -1.3131
 4685SOL     OW25690   1.111   3.451   1.111 -0.1074  0.2768  0.2055
 4685SOL    HW125691   1.112   3.424   1.019 -0.5497 -0.1444  0.3204
 4685SOL    HW225692   1.016   3.448   1.128 -0.1462  1.9509  0.2395
 4686SOL     OW25693   2.426   4.371   9.452  0.3428  0.1541 -0.7576
 4686SOL    HW125694   2.521   4.381   9.464 -0.4183  4.2087  1.9299
 4686SOL    HW225695   2.403   4.303   9.514  2.2696 -2.4713 -2.9305
 4687SOL     OW25696   2.369   0.893  15.931  0.1696 -0.2118 -0.1005
 4687SOL    HW125697   2.300   0.831  15.910  0.1015  0.5184 -1.9664
 4687SOL    HW225698   2.317   0.972  15.921 -0.8401 -0.7453  1.0229
 4688SOL     OW25699   0.618   1.731   2.033 -0.2839  0.3400  0.8746
 4688SOL    HW125700   0.671   1.746   1.955  0.4260 -0.3217  1.2312
 4688SOL    HW225701   0.531   1.712   1.999 -1.2779  1.6238  2.7159
 4689SOL     OW25702   1.509   3.763   6.546  0.2786  0.7290 -0.2478
 4689SOL    HW125703   1.489   3.855   6.529  3.3147  1.7998  1.7818
 4689SOL    HW225704   1.490   3.728   6.460  1.5379  0.4261 -0.4098
 4690SOL     OW25705   3.895   2.675   6.154 -0.8031 -0.4119  0.4318
 4690SOL    HW125706   3.894   2.586   6.120 -0.3249  0.2792 -1.4062
 4690SOL    HW225707   3.925   2.726   6.078  2.3664 -1.6318  0.8536
 4691SOL     OW25708   3.293   0.564  16.683  0.7776  0.3656  0.3258
 4691SOL    HW125709   3.342   0.501  16.736 -0.3398 -0.6727  0.1319
 4691SOL    HW225710   3.347   0.642  16.691  1.1450  0.2370 -0.8488
 4692SOL     OW25711   1.414   4.222  15.555 -0.3828 -0.1565  0.3342
 4692SOL    HW125712   1.361   4.280  15.500  2.0112 -0.0055 -1.7797
 4692SOL    HW225713   1.472   4.166  15.505  0.1313 -0.4866  1.3176
 4693SOL     OW25714   3.108   2.842   3.013 -0.1566 -0.1687  0.3996
 4693SOL    HW125715   3.057   2.800   2.944  1.8490  0.4577 -1.4788
 4693SOL    HW225716   3.050   2.914   3.037 -0.8565  0.0671 -1.9412
 4694SOL     OW25717   2.964   1.425   7.345  0.0887 -0.2573  0.4635
 4694SOL    HW125718   2.917   1.502   7.313  0.6965 -0.9677 -2.1912
 4694SOL    HW225719   3.052   1.429   7.309 -0.2323  0.6427 -0.2028
 4695SOL     OW25720   0.090   0.271   5.491 -0.1510  0.1239 -0.6002
 4695SOL    HW125721   0.128   0.217   5.560  0.1248  0.7903 -0.2249
 4695SOL    HW225722   0.126   0.232   5.412 -1.3940  0.9905 -1.6102
 4696SOL     OW25723   2.276   0.378   7.733  0.1624 -0.1199  0.0153
 4696SOL    HW125724   2.275   0.299   7.788  1.3878  0.1380  0.4087
 4696SOL    HW225725   2.367   0.370   7.703 -0.2802 -2.4300 -0.7129
 4697SOL     OW25726   3.678   2.878   7.654  0.4940  0.7684 -0.2175
 4697SOL    HW125727   3.594   2.923   7.640 -0.3147 -1.0420 -1.1376
 4697SOL    HW225728   3.730   2.955   7.674 -1.1556  1.1119  2.6981
 4698SOL     OW25729   4.226   3.262  12.404  0.0982 -0.2060  0.0746
 4698SOL    HW125730   4.186   3.327  12.462 -0.0591 -0.5529  0.3500
 4698SOL    HW225731   4.164   3.255  12.332 -0.8119 -1.8992  1.0378
 4699SOL     OW25732   4.724   4.374   7.249  0.4991  0.3514 -0.7709
 4699SOL    HW125733   4.647   4.332   7.212 -0.8104  1.4228  0.7575
 4699SOL    HW225734   0.055   4.309   7.222 -0.0961 -1.0782  1.2105
 4700SOL     OW25735   1.912   2.938   5.020 -0.0768  0.0448 -0.2667
 4700SOL    HW125736   1.834   2.901   5.061 -0.8164  1.1135 -0.6954
 4700SOL    HW225737   1.916   3.026   5.057 -0.1724  0.5416 -1.4499
 4701SOL     OW25738   2.949   0.768   1.053 -0.2329  0.2581  0.2031
 4701SOL    HW125739   2.954   0.828   1.128  1.6236 -0.4620  0.6642
 4701SOL    HW225740   2.980   0.682   1.083  0.2370  0.6319  0.7930
 4702SOL     OW25741   2.676   2.352   7.155 -0.1399 -0.1311  0.5742
 4702SOL    HW125742   2.630   2.327   7.075 -1.3325  3.8069  0.0722
 4702SOL    HW225743   2.613   2.313   7.216 -0.9856  0.6265  0.1812
 4703SOL     OW25744   1.548   2.768   1.803  0.2503  0.6363  0.7131
 4703SOL    HW125745   1.484   2.840   1.799  1.8702  1.9657 -1.0175
 4703SOL    HW225746   1.544   2.737   1.713  1.7834 -0.3697  1.0043
 4704SOL     OW25747   1.108   0.173   4.618 -0.3454 -0.4472 -0.1220
 4704SOL    HW125748   1.108   0.081   4.590 -4.7295  0.5270 -3.4867
 4704SOL    HW225749   1.106   0.159   4.713 -0.4573  0.5808  0.0332
 4705SOL     OW25750   2.895   4.371   5.135 -0.3831  0.5769  0.3208
 4705SOL    HW125751   2.902   4.449   5.189 -1.1629  1.4748 -0.8769
 4705SOL    HW225752   2.959   4.307   5.167  1.2898  0.6569 -2.8548
 4706SOL     OW25753   3.856   2.705  14.628 -0.2177  0.5060 -0.6915
 4706SOL    HW125754   3.836   2.715  14.535  1.5301 -0.5676 -1.1903
 4706SOL    HW225755   3.806   2.632  14.665  1.5000 -0.5762 -0.5500
 4707SOL     OW25756   2.690   0.648   4.705 -0.8135 -0.5425 -0.5015
 4707SOL    HW125757   2.724   0.567   4.743  3.0811  1.1946 -0.3118
 4707SOL    HW225758   2.767   0.701   4.688  0.2467 -2.2282 -0.9530
 4708SOL     OW25759   2.665   2.811   7.398 -0.0269 -0.4465 -0.4315
 4708SOL    HW125760   2.696   2.753   7.328 -0.5193 -0.5790 -0.5423
 4708SOL    HW225761   2.742   2.819   7.454  0.4821  0.8042 -1.3200
 4709SOL     OW25762   3.983   1.801   6.295 -0.2787 -0.2214 -0.1644
 4709SOL    HW125763   4.035   1.841   6.365 -1.3632 -2.7159  2.0611
 4709SOL    HW225764   3.914   1.866   6.304 -1.0866 -1.0574 -0.3969
 4710SOL     OW25765   2.770   0.816  10.990 -0.7611  0.3822 -0.0580
 4710SOL    HW125766   2.741   0.727  10.969  0.3117  0.0705 -0.2503
 4710SOL    HW225767   2.762   0.867  10.910 -0.8440  1.1415  0.4369
 4711SOL     OW25768   1.624   3.072   9.404  0.0868 -0.5577  0.0346
 4711SOL    HW125769   1.599   3.160   9.376  1.8610 -0.1375 -0.2320
 4711SOL    HW225770   1.541   3.028   9.385  0.3875 -2.0929  2.3424
 4712SOL     OW25771   1.115   3.989   7.480 -0.1697 -0.1626 -0.0373
 4712SOL    HW125772   1.129   4.025   7.392 -3.5071  0.0028 -0.5096
 4712SOL    HW225773   1.075   3.908   7.449  2.0392 -1.3540  0.2946
 4713SOL     OW25774   2.858   1.637   8.226 -0.5386 -0.2454  0.0237
 4713SOL    HW125775   2.938   1.688   8.215  0.3030 -1.3504  1.0867
 4713SOL    HW225776   2.894   1.554   8.257 -0.4706 -0.4473 -0.5807
 4714SOL     OW25777   1.710   3.031   3.078 -0.2863 -0.0056 -0.5189
 4714SOL    HW125778   1.627   3.075   3.060 -0.1611  0.6479  0.5131
 4714SOL    HW225779   1.737   3.033   2.986 -1.8212 -1.5791 -1.0010
 4715SOL     OW25780   0.656   3.500   5.326 -0.2231  0.2253 -0.2928
 4715SOL    HW125781   0.577   3.520   5.274 -0.7573 -0.2602  0.3367
 4715SOL    HW225782   0.616   3.506   5.413 -0.1380 -0.6238 -0.2010
 4716SOL     OW25783   2.556   3.443   3.248 -0.4880  0.5201 -0.2833
 4716SOL    HW125784   2.549   3.430   3.343  2.0803  0.6056 -0.1012
 4716SOL    HW225785   2.486   3.382   3.224 -0.8961  1.1612 -0.7414
 4717SOL     OW25786   3.571   3.467  16.673  0.1454  0.4349  0.5736
 4717SOL    HW125787   3.664   3.456  16.693 -0.0553 -1.5694  0.4656
 4717SOL    HW225788   3.539   3.382  16.641  0.3520  0.0507  1.3692
 4718SOL     OW25789   0.766   0.179   9.539  0.1214 -0.8217 -0.0613
 4718SOL    HW125790   0.698   0.126   9.581 -0.7421 -0.5689 -1.1508
 4718SOL    HW225791   0.837   0.171   9.603  0.9870  2.7372 -0.5869
 4719SOL     OW25792   1.884   1.866   7.662 -0.3679  0.1144  0.0813
 4719SOL    HW125793   1.902   1.774   7.679 -3.0794 -0.8013 -1.8924
 4719SOL    HW225794   1.962   1.906   7.700  0.2676  0.2471 -1.3503
 4720SOL     OW25795   2.670   1.704  17.635 -0.4100  0.3300 -0.2464
 4720SOL    HW125796   2.666   1.789  17.591  1.0179 -0.8925 -2.6827
 4720SOL    HW225797   2.635   1.651  17.563 -1.0701 -2.1050  1.8748
 4721SOL     OW25798   4.202   0.531  15.317 -0.3629 -0.0308  0.0256
 4721SOL    HW125799   4.282   0.530  15.265  0.4592 -1.0045  1.3164
 4721SOL    HW225800   4.171   0.618  15.291 -1.2763 -0.1664  0.6557
 4722SOL     OW25801   2.656   2.843   6.888  0.2838  0.8306 -0.3606
 4722SOL    HW125802   2.615   2.824   6.972 -1.4590  0.2566 -1.3257
 4722SOL    HW225803   2.750   2.841   6.906  0.2994 -0.6652 -0.6303
 4723SOL     OW25804   2.861   4.700   6.132 -0.6774  0.1355 -0.0172
 4723SOL    HW125805   2.889   4.698   6.224 -0.7972 -0.9983 -0.0042
 4723SOL    HW225806   2.830   4.610   6.124  1.1681 -0.3479 -1.4461
 4724SOL     OW25807   4.530   2.571   9.304 -0.3577  0.4144 -0.6768
 4724SOL    HW125808   4.538   2.485   9.264 -0.2926  0.0588  0.0923
 4724SOL    HW225809   4.600   2.576   9.369 -1.6192  0.9753  0.6463
 4725SOL     OW25810   3.613   0.149  17.196  0.0860 -0.0001  0.2967
 4725SOL    HW125811   3.681   0.157  17.263 -0.6993  0.4436  1.0462
 4725SOL    HW225812   3.569   0.069  17.225 -0.7072  0.2797 -0.1410
 4726SOL     OW25813   3.912   2.820   0.150  0.1177 -0.1154 -0.3995
 4726SOL    HW125814   3.917   2.879   0.075  0.6294 -0.2007 -0.4323
 4726SOL    HW225815   4.007   2.818   0.147  0.1666 -2.5487  2.6859
 4727SOL     OW25816   0.090   0.795   4.765  0.3295  0.2169  0.2519
 4727SOL    HW125817   0.116   0.884   4.741  0.2500 -0.3598 -1.9879
 4727SOL    HW225818   0.002   0.813   4.796  0.1827  0.7132 -0.4521
 4728SOL     OW25819   2.505   1.946   7.588  0.0871 -0.3467  0.2629
 4728SOL    HW125820   2.595   1.918   7.600 -0.8836 -3.1760  0.9406
 4728SOL    HW225821   2.508   2.021   7.649 -0.1019 -2.4034  2.8085
 4729SOL     OW25822   2.548   0.060   8.882 -0.8009 -0.3030  0.4948
 4729SOL    HW125823   2.569   4.732   8.952  1.1077 -1.0767 -0.7559
 4729SOL    HW225824   2.460   0.030   8.861 -0.6804  0.7864 -1.5576
 4730SOL     OW25825   1.405   1.434  17.202  0.2005  0.3919  0.4873
 4730SOL    HW125826   1.429   1.454  17.293 -0.5987 -0.4191  0.8673
 4730SOL    HW225827   1.420   1.340  17.204 -1.9124  0.0308 -0.8370
 4731SOL     OW25828   4.269   0.193   9.751  0.1880 -0.0929 -0.4376
 4731SOL    HW125829   4.180   0.211   9.783 -0.1993 -3.0912  0.1545
 4731SOL    HW225830   4.308   0.155   9.829 -0.0415 -0.5893 -0.5582
 4732SOL     OW25831   2.905   3.824  15.029 -0.5990 -0.1448 -0.1957
 4732SOL    HW125832   2.998   3.845  15.020 -0.7099  0.1227 -0.7577
 4732SOL    HW225833   2.919   3.742  15.076  1.6301  1.7591  2.4226
 4733SOL     OW25834   2.149   2.743   9.137  0.1806  0.4431 -0.3385
 4733SOL    HW125835   2.098   2.693   9.200 -0.0272 -0.0008 -0.8643
 4733SOL    HW225836   2.105   2.730   9.053  1.6190 -1.2580 -0.8287
 4734SOL     OW25837   4.705   0.330   3.760 -0.4955 -0.1327 -0.0693
 4734SOL    HW125838   4.618   0.310   3.794 -0.3897  1.1848  0.9800
 4734SOL    HW225839   0.030   0.306   3.831  0.4078 -0.4095 -0.9195
 4735SOL     OW25840   4.457   4.670   7.183  0.3893 -0.2064 -0.0244
 4735SOL    HW125841   4.529   4.714   7.228  0.2146 -0.6330  0.6749
 4735SOL    HW225842   4.417   4.613   7.249  1.7743 -1.7017 -0.4901
 4736SOL     OW25843   4.512   0.409   9.249  0.0954 -0.0555 -0.3675
 4736SOL    HW125844   4.422   0.377   9.242  0.8940 -2.2277 -0.5197
 4736SOL    HW225845   4.541   0.391   9.339 -0.2120 -1.1263 -0.4908
 4737SOL     OW25846   0.836   4.142   2.231 -0.1068 -0.0196  0.5819
 4737SOL    HW125847   0.863   4.076   2.295 -0.5339 -0.3175  0.4535
 4737SOL    HW225848   0.909   4.199   2.255  1.9717 -2.5520  0.2978
 4738SOL     OW25849   4.663   3.928   3.971  0.3245 -0.0772  0.2210
 4738SOL    HW125850   4.707   3.888   4.047  1.1085 -1.7091 -1.0924
 4738SOL    HW225851   4.601   3.990   4.008 -1.1225 -0.4709 -1.5456
 4739SOL     OW25852   1.704   0.154   2.507  0.0497 -0.4802 -0.5073
 4739SOL    HW125853   1.746   0.096   2.570  0.7363 -1.0337 -1.4852
 4739SOL    HW225854   1.771   0.222   2.500  1.1796 -1.0743  4.2879
 4740SOL     OW25855   4.423   4.164  15.341  0.1598  0.2741  0.1723
 4740SOL    HW125856   4.359   4.142  15.274  0.6302 -1.3770  0.2418
 4740SOL    HW225857   4.467   4.236  15.295 -0.4850  1.2815  1.1512
 4741SOL     OW25858   2.389   3.882  15.036 -0.6513  0.3543 -0.5251
 4741SOL    HW125859   2.476   3.857  15.004 -0.1556  0.4578  0.7514
 4741SOL    HW225860   2.387   3.884  15.131 -0.0092  0.1910 -0.5079
 4742SOL     OW25861   1.463   2.891  15.096 -0.4835 -0.0656  0.2078
 4742SOL    HW125862   1.514   2.970  15.111  1.3067 -1.3239  0.6665
 4742SOL    HW225863   1.428   2.906  15.008 -1.9654  1.9534  1.1492
 4743SOL     OW25864   0.735   3.749   5.252 -0.2485 -0.5041  0.4177
 4743SOL    HW125865   0.734   3.657   5.279 -1.3996 -0.8681 -0.8223
 4743SOL    HW225866   0.708   3.747   5.160  2.3363  0.2517 -0.3742
 4744SOL     OW25867   3.359   0.925   4.546  0.1492  0.1633 -0.3050
 4744SOL    HW125868   3.359   0.856   4.612  0.1801  0.8253  0.3761
 4744SOL    HW225869   3.452   0.943   4.556  0.0380  0.4090  0.2561
 4745SOL     OW25870   3.216   1.217   3.197  0.6942 -0.2451 -0.2170
 4745SOL    HW125871   3.204   1.146   3.134 -0.8353  0.7241 -1.0293
 4745SOL    HW225872   3.163   1.279   3.148  0.3260  0.3940  0.9740
 4746SOL     OW25873   3.537   1.652   3.586  0.1397 -0.7911 -0.0947
 4746SOL    HW125874   3.577   1.724   3.537  1.3339  0.4699  2.7524
 4746SOL    HW225875   3.609   1.612   3.634  0.2773 -1.5544 -0.9392
 4747SOL     OW25876   3.297   4.150   4.045 -1.0444 -0.0192 -0.3109
 4747SOL    HW125877   3.360   4.134   3.974 -2.5950 -1.6625 -1.3066
 4747SOL    HW225878   3.342   4.221   4.091 -3.2356  0.8562  0.4522
 4748SOL     OW25879   0.072   3.884   6.610 -0.4439 -0.1154 -0.2085
 4748SOL    HW125880   0.042   3.973   6.624 -0.9242 -0.6300  1.9876
 4748SOL    HW225881   4.732   3.837   6.572 -0.3512  0.0254 -0.5634
 4749SOL     OW25882   0.679   0.915   2.623 -0.1151 -0.1495 -0.5382
 4749SOL    HW125883   0.761   0.892   2.578  0.4257 -0.3919  0.5876
 4749SOL    HW225884   0.651   0.996   2.578 -2.2431 -1.1390 -0.9973
 4750SOL     OW25885   2.196   3.247   5.462 -0.2059  0.6465  0.0011
 4750SOL    HW125886   2.256   3.241   5.537  3.3438 -0.0930 -2.8983
 4750SOL    HW225887   2.167   3.337   5.472  0.9907  0.8348  1.8280
 4751SOL     OW25888   0.567   0.695   8.421 -0.1296  0.0730 -0.5282
 4751SOL    HW125889   0.532   0.772   8.467 -2.3724 -0.9790 -0.5058
 4751SOL    HW225890   0.510   0.625   8.452 -0.3063  0.6332  0.4353
 4752SOL     OW25891   0.663   0.423   4.916  0.4335  0.2027 -0.5627
 4752SOL    HW125892   0.618   0.360   4.859  0.1015 -0.8855  0.9074
 4752SOL    HW225893   0.594   0.483   4.943  1.4965  0.5890  1.3302
 4753SOL     OW25894   3.485   4.701   4.862  0.5207 -0.3301 -0.2775
 4753SOL    HW125895   3.440   4.725   4.782  0.8432  1.8298  0.2023
 4753SOL    HW225896   3.570   0.007   4.846  0.3122  1.0721  2.1599
 4754SOL     OW25897   1.102   0.542   7.211 -0.2109 -0.1999  0.5573
 4754SOL    HW125898   1.100   0.637   7.221 -3.4403 -0.1815  0.0526
 4754SOL    HW225899   1.035   0.534   7.142  0.4823  1.9882 -0.3707
 4755SOL     OW25900   3.372   1.061   1.856  0.2940  0.5735 -0.3582
 4755SOL    HW125901   3.444   1.017   1.810  1.2970  1.5405  0.2873
 4755SOL    HW225902   3.426   1.111   1.918  1.3606 -2.6110  1.2896
 4756SOL     OW25903   3.272   1.954   1.548  0.1020 -0.2895  0.0539
 4756SOL    HW125904   3.293   1.862   1.533  2.2906  0.6080 -2.3133
 4756SOL    HW225905   3.177   1.950   1.533  0.4712 -2.3714 -1.6731
 4757SOL     OW25906   4.144   3.763   4.683 -0.1496 -0.3764  0.3596
 4757SOL    HW125907   4.222   3.799   4.726  1.1444 -1.4509 -1.0965
 4757SOL    HW225908   4.128   3.690   4.743  0.8104  0.4393  1.6335
 4758SOL     OW25909   4.257   1.390  14.686  0.1130 -0.0396 -0.3566
 4758SOL    HW125910   4.278   1.375  14.594  1.2722 -2.3292  0.2852
 4758SOL    HW225911   4.191   1.460  14.684 -1.0272 -1.1535 -1.2406
 4759SOL     OW25912   0.235   2.435   5.152  0.6084 -0.4275 -0.8210
 4759SOL    HW125913   0.222   2.519   5.107  1.1383 -0.4665 -1.0414
 4759SOL    HW225914   0.328   2.440   5.173  0.6073 -0.6499 -0.7622
 4760SOL     OW25915   3.639   1.571   3.324  0.0884 -0.2669 -0.0086
 4760SOL    HW125916   3.640   1.648   3.267 -3.0720 -0.5394 -0.4707
 4760SOL    HW225917   3.548   1.577   3.355 -0.4696  1.7231 -2.0256
 4761SOL     OW25918   3.594   0.577   3.435  1.1348  0.2806 -0.3993
 4761SOL    HW125919   3.605   0.627   3.354 -2.6615  0.9667 -0.4803
 4761SOL    HW225920   3.609   0.488   3.403 -0.3717  0.5062 -1.7163
 4762SOL     OW25921   2.178   2.727   3.677  0.3286 -0.3408  0.6500
 4762SOL    HW125922   2.140   2.643   3.703  2.5580 -0.8934  2.1062
 4762SOL    HW225923   2.125   2.785   3.732 -2.6552 -1.2263 -1.2898
 4763SOL     OW25924   1.083   2.242   3.868  0.0564  0.3309 -0.0744
 4763SOL    HW125925   1.172   2.208   3.864 -0.4905 -0.8955 -1.9638
 4763SOL    HW225926   1.068   2.281   3.782  1.1059 -0.5022 -0.6372
 4764SOL     OW25927   0.692   2.021   4.183 -0.0666 -0.8686  0.2894
 4764SOL    HW125928   0.735   2.104   4.162 -0.3963 -0.8500 -0.2916
 4764SOL    HW225929   0.598   2.034   4.185 -0.0346 -0.5285 -0.6501
 4765SOL     OW25930   4.170   2.892   6.518 -0.0473  0.5332 -0.4417
 4765SOL    HW125931   4.101   2.839   6.478  2.0022 -2.8970  0.6248
 4765SOL    HW225932   4.218   2.818   6.554 -3.3233 -0.5691  1.7322
 4766SOL     OW25933   0.409   4.192   8.735 -0.1520 -0.3933 -0.3523
 4766SOL    HW125934   0.446   4.267   8.780  2.3900 -1.4429 -0.6560
 4766SOL    HW225935   0.479   4.156   8.680  0.3257  0.9641 -0.6318
 4767SOL     OW25936   1.310   0.946   3.068  0.1174 -0.0726 -0.1241
 4767SOL    HW125937   1.228   0.899   3.083 -0.2921 -0.2329 -2.7147
 4767SOL    HW225938   1.363   0.866   3.059  0.3949 -0.0006  0.8652
 4768SOL     OW25939   1.913   0.045   2.933 -0.1087  0.3950 -0.4712
 4768SOL    HW125940   1.821   0.053   2.957 -0.2413 -0.1914 -0.7814
 4768SOL    HW225941   1.942   0.134   2.952  2.7518 -0.1787 -2.1480
 4769SOL     OW25942   3.564   0.077   8.071  0.2312  0.1889 -0.9020
 4769SOL    HW125943   3.503   0.089   8.144  1.7769 -0.7171  0.5256
 4769SOL    HW225944   3.583   4.718   8.073 -0.3759  0.1270  2.3413
 4770SOL     OW25945   1.674   2.077  11.389 -0.9615  0.2674 -0.3798
 4770SOL    HW125946   1.734   2.150  11.404 -0.6692 -0.0507 -0.0102
 4770SOL    HW225947   1.689   2.051  11.298  1.7585 -0.0980  0.1511
 4771SOL     OW25948   0.346   3.220   7.940  0.4547  0.3380 -0.0462
 4771SOL    HW125949   0.311   3.239   7.853 -0.3454  0.5046  0.3143
 4771SOL    HW225950   0.388   3.305   7.951  0.6652  0.6419 -3.1075
 4772SOL     OW25951   2.891   3.128   9.979  0.1485  0.2918  0.0050
 4772SOL    HW125952   2.856   3.183   9.909 -0.6270 -1.5525 -1.0306
 4772SOL    HW225953   2.962   3.081   9.937  0.0662  0.6916 -0.5768
 4773SOL     OW25954   1.813   4.449   3.860 -0.2001  0.3188  0.2131
 4773SOL    HW125955   1.738   4.413   3.908 -0.4804 -0.8163 -1.0594
 4773SOL    HW225956   1.811   4.403   3.775  1.8173  1.3437 -0.3745
 4774SOL     OW25957   1.670   2.293  10.424  0.0048 -0.2478  0.1293
 4774SOL    HW125958   1.620   2.358  10.474 -0.2080 -0.9175  0.8027
 4774SOL    HW225959   1.754   2.292  10.471  1.2671 -3.0014 -2.1882
 4775SOL     OW25960   3.637   4.298   3.958 -0.2078  0.2926 -0.2606
 4775SOL    HW125961   3.558   4.302   4.012 -0.3262 -1.1387 -0.3218
 4775SOL    HW225962   3.698   4.341   4.018  1.1223  0.3353 -1.6285
 4776SOL     OW25963   1.247   2.705   0.615 -0.2018  0.0538  0.1429
 4776SOL    HW125964   1.202   2.654   0.548  0.0251 -0.4261  0.3550
 4776SOL    HW225965   1.194   2.784   0.615 -0.3075 -0.0302 -1.9018
 4777SOL     OW25966   3.241   0.787  12.422  0.7751 -0.2386  0.7607
 4777SOL    HW125967   3.253   0.778  12.327 -1.4498  1.3999  0.3005
 4777SOL    HW225968   3.295   0.864  12.439  1.5103 -0.7350  0.6599
 4778SOL     OW25969   1.213   1.914   2.344  0.3307 -0.0819  0.2458
 4778SOL    HW125970   1.254   1.833   2.374 -2.4498 -2.2152 -1.7643
 4778SOL    HW225971   1.129   1.894   2.303 -0.0238 -1.7351  1.7642
 4779SOL     OW25972   2.968   4.357   6.024 -0.3226  0.1240 -0.1202
 4779SOL    HW125973   3.055   4.377   6.056 -0.5346  0.3921  0.2746
 4779SOL    HW225974   2.967   4.416   5.949  1.3898  3.5958  2.6397
 4780SOL     OW25975   0.358   4.719   7.055  0.7715  1.3023  0.0574
 4780SOL    HW125976   0.337   0.056   6.995  1.1071  0.5678 -0.9318
 4780SOL    HW225977   0.419   4.678   6.994 -1.1202 -0.0219 -0.9401
 4781SOL     OW25978   4.159   0.616   7.356  0.3357  0.3183  0.3930
 4781SOL    HW125979   4.233   0.646   7.408  1.2616 -0.7554 -0.3114
 4781SOL    HW225980   4.105   0.696   7.353 -0.8601 -0.3471  5.0366
 4782SOL     OW25981   3.172   3.440   5.579 -0.1056  0.2246 -0.0684
 4782SOL    HW125982   3.198   3.517   5.630 -1.0488  0.5782 -0.1349
 4782SOL    HW225983   3.163   3.471   5.489  1.2022 -0.2414 -0.3713
 4783SOL     OW25984   4.439   2.007   5.687  0.3908  0.0608  0.2782
 4783SOL    HW125985   4.383   1.951   5.634  0.8282  0.7557 -0.9458
 4783SOL    HW225986   4.511   2.031   5.628  0.6744 -0.7309  0.3060
 4784SOL     OW25987   4.271   2.638   6.878  0.8558  0.0651  0.0869
 4784SOL    HW125988   4.341   2.575   6.897  1.1385  0.5719  0.7397
 4784SOL    HW225989   4.259   2.685   6.960  0.1999  0.2031 -0.0906
 4785SOL     OW25990   4.034   4.482   2.142 -0.6827 -0.4149 -0.0742
 4785SOL    HW125991   3.956   4.428   2.152 -0.4037 -0.5683  1.2850
 4785SOL    HW225992   3.991   4.552   2.092  0.5719 -0.6005 -1.4237
 4786SOL     OW25993   3.271   1.988   7.589  0.0386 -0.6296 -0.5050
 4786SOL    HW125994   3.221   2.039   7.524 -0.0688  0.0821  0.1412
 4786SOL    HW225995   3.357   2.028   7.583 -0.5615  0.4308 -2.0140
 4787SOL     OW25996   1.741   0.357  12.708  0.6871 -0.2842  0.1555
 4787SOL    HW125997   1.727   0.346  12.614  0.9774 -0.2429  0.1085
 4787SOL    HW225998   1.695   0.441  12.715  0.2448 -0.5192  0.0496
 4788SOL     OW25999   3.153   0.173  15.323 -0.2973 -0.0203 -0.0994
 4788SOL    HW126000   3.143   0.107  15.255  0.1217  0.0125 -0.1923
 4788SOL    HW226001   3.112   0.245  15.275 -0.0751  1.2043  1.5782
 4789SOL     OW26002   1.182   4.304  13.342 -0.4035  0.0106  0.2360
 4789SOL    HW126003   1.209   4.227  13.291 -1.4499  0.7206 -1.3874
 4789SOL    HW226004   1.196   4.375  13.279 -0.6026  0.2235  0.4338
 4790SOL     OW26005   0.938   1.699   8.400  0.0542 -0.2967 -0.0463
 4790SOL    HW126006   1.033   1.700   8.406  0.1026  1.6096 -0.9191
 4790SOL    HW226007   0.903   1.726   8.485  0.3919  3.9919 -1.2510
 4791SOL     OW26008   0.444   2.793   7.800 -0.8728 -0.5194  0.1406
 4791SOL    HW126009   0.467   2.882   7.774  2.1132 -1.7367 -1.3867
 4791SOL    HW226010   0.392   2.808   7.879 -0.1624  1.2497  0.2650
 4792SOL     OW26011   2.805   4.286  12.489  0.5250  0.0604 -0.1169
 4792SOL    HW126012   2.801   4.243  12.404  2.3800 -0.8829  0.2890
 4792SOL    HW226013   2.716   4.320  12.500  0.0991 -1.5958  1.4661
 4793SOL     OW26014   1.279   2.138  13.422  0.4431  0.5652 -0.1310
 4793SOL    HW126015   1.333   2.215  13.440  1.8561 -0.9222  1.9653
 4793SOL    HW226016   1.341   2.069  13.446 -0.3122  0.9554  2.9613
 4794SOL     OW26017   2.376   0.691   9.900  0.2219 -0.5784 -0.2085
 4794SOL    HW126018   2.360   0.771   9.950  1.8791 -0.2337 -0.2302
 4794SOL    HW226019   2.469   0.691   9.877 -0.2984  1.1658 -2.2446
 4795SOL     OW26020   3.528   2.745   3.174  0.1958 -0.0295  1.0042
 4795SOL    HW126021   3.580   2.684   3.121 -1.9850 -0.2836 -0.8696
 4795SOL    HW226022   3.437   2.725   3.152  0.4520  0.4814 -0.5192
 4796SOL     OW26023   1.636   2.358  16.121  0.4215 -0.2117 -0.4574
 4796SOL    HW126024   1.717   2.307  16.118  0.4363 -0.2434  0.5532
 4796SOL    HW226025   1.650   2.432  16.062  0.4573 -0.8372 -1.2397
 4797SOL     OW26026   0.493   2.263   4.623 -0.3941  0.0271 -0.0627
 4797SOL    HW126027   0.539   2.253   4.540 -0.5730  1.0638 -0.2886
 4797SOL    HW226028   0.546   2.215   4.687  0.2008  2.0930  0.9910
 4798SOL     OW26029   2.248   3.832   3.279 -0.0329  0.6880 -0.0239
 4798SOL    HW126030   2.230   3.873   3.364  0.0848  1.4368 -0.3584
 4798SOL    HW226031   2.340   3.810   3.286 -0.6907 -1.4700  1.7894
 4799SOL     OW26032   2.120   3.511  16.809 -0.7149 -0.0673 -0.3696
 4799SOL    HW126033   2.089   3.597  16.779  0.5593  0.1958 -0.9322
 4799SOL    HW226034   2.114   3.530  16.903 -0.1376 -0.0156 -0.3449
 4800SOL     OW26035   4.260   2.220  16.895 -0.6849  0.5888 -0.3856
 4800SOL    HW126036   4.186   2.167  16.865  0.3269 -1.5573  0.9478
 4800SOL    HW226037   4.208   2.296  16.922 -2.4695 -1.0783  0.8603
 4801SOL     OW26038   1.545   0.467   5.005  0.5702  0.2592 -0.8873
 4801SOL    HW126039   1.577   0.453   4.915  0.1655 -0.0085 -0.9902
 4801SOL    HW226040   1.534   0.377   5.037  2.4860 -0.4121 -2.0590
 4802SOL     OW26041   2.581   1.655   7.327  0.5504 -0.1015  0.9936
 4802SOL    HW126042   2.598   1.587   7.392  4.0043 -1.1537 -1.0540
 4802SOL    HW226043   2.649   1.636   7.262 -0.1288  0.5324  0.1054
 4803SOL     OW26044   1.821   1.106  10.419  0.0354  0.0713  0.4605
 4803SOL    HW126045   1.753   1.167  10.448  0.7345  0.5841  1.0146
 4803SOL    HW226046   1.776   1.023  10.432  1.9332 -0.9927  0.3270
 4804SOL     OW26047   4.648   3.924   8.096  0.0433  0.3681  0.2094
 4804SOL    HW126048   4.645   3.973   8.178 -0.7973  0.5622  0.0677
 4804SOL    HW226049   4.729   3.876   8.112  1.1108  2.0936 -0.0727
 4805SOL     OW26050   0.342   2.898   3.675 -0.2507 -0.0062 -0.2978
 4805SOL    HW126051   0.431   2.921   3.700 -0.6953  0.3422  0.9802
 4805SOL    HW226052   0.353   2.816   3.628  0.4334 -0.5532  0.8078
 4806SOL     OW26053   1.840   0.614   2.350 -0.5164 -0.3914 -0.2025
 4806SOL    HW126054   1.852   0.694   2.401 -0.2397 -0.2190 -0.5401
 4806SOL    HW226055   1.843   0.636   2.257  1.7160 -0.4419 -0.1393
 4807SOL     OW26056   1.111   2.577   0.429  0.0836 -0.1493 -0.0386
 4807SOL    HW126057   1.107   2.579   0.333 -0.2071 -0.6518 -0.0366
 4807SOL    HW226058   1.024   2.561   0.465  0.4153  0.2543  0.9356
 4808SOL     OW26059   0.937   4.263   1.219 -0.2938 -0.2379  0.7703
 4808SOL    HW126060   0.972   4.247   1.132 -1.5952  0.9616  0.0394
 4808SOL    HW226061   0.972   4.349   1.240 -2.1241  0.6237  0.2718
 4809SOL     OW26062   0.699   3.489   8.436 -0.4749 -0.7795 -0.0481
 4809SOL    HW126063   0.680   3.452   8.523 -1.8679  1.5108  0.6285
 4809SOL    HW226064   0.717   3.411   8.383  1.1698  0.0399 -0.6810
 4810SOL     OW26065   2.425   4.133   3.007  0.1934 -0.4806 -1.0074
 4810SOL    HW126066   2.392   4.218   2.978 -1.1703 -0.6383  0.1137
 4810SOL    HW226067   2.498   4.117   2.947  0.8134  2.1571 -0.9676
 4811SOL     OW26068   2.799   0.956   5.453 -0.0061 -0.5802  0.1419
 4811SOL    HW126069   2.871   0.936   5.394  0.3991 -0.7177  0.6825
 4811SOL    HW226070   2.829   1.027   5.509  1.9383 -1.5646  0.3472
 4812SOL     OW26071   3.469   4.097   3.843  0.2703 -0.1224  0.1800
 4812SOL    HW126072   3.497   4.008   3.821 -0.3280 -0.3978  0.5398
 4812SOL    HW226073   3.547   4.144   3.871 -0.4594  0.2548  1.5703
 4813SOL     OW26074   2.393   2.166  14.271  0.1653  0.2972 -0.0643
 4813SOL    HW126075   2.317   2.184  14.327  0.7888 -1.0659  1.2165
 4813SOL    HW226076   2.465   2.182  14.333  1.3205 -1.6907 -0.8816
 4814SOL     OW26077   3.692   4.378   5.728 -0.8150 -0.1876 -0.1357
 4814SOL    HW126078   3.614   4.385   5.672 -1.6965  0.3922  1.1449
 4814SOL    HW226079   3.650   4.352   5.810 -0.3413 -0.3351  0.0562
 4815SOL     OW26080   0.198   3.769   6.333 -0.1595  0.1802 -0.3365
 4815SOL    HW126081   0.118   3.726   6.304  0.6515 -0.4251 -1.6722
 4815SOL    HW226082   0.174   3.809   6.416  2.0042  0.4730  0.1612
 4816SOL     OW26083   2.792   4.215  10.761 -0.6132 -0.0507 -0.4376
 4816SOL    HW126084   2.739   4.139  10.738  0.9641 -0.5591 -2.3870
 4816SOL    HW226085   2.851   4.183  10.830 -0.4193 -0.4894 -0.8016
 4817SOL     OW26086   4.114   4.051   2.854 -0.0358  0.1310  0.0101
 4817SOL    HW126087   4.079   4.004   2.930  1.1612 -1.9237 -0.7084
 4817SOL    HW226088   4.049   4.041   2.785 -0.9156  1.4049  0.6565
 4818SOL     OW26089   0.823   1.429  12.871  0.0871  0.1829 -0.4691
 4818SOL    HW126090   0.860   1.487  12.805 -2.5599  0.6874 -1.5492
 4818SOL    HW226091   0.813   1.494  12.940  0.8485 -1.7248  1.4371
 4819SOL     OW26092   0.046   3.412   3.874 -0.0978  0.0233 -0.0722
 4819SOL    HW126093   4.698   3.364   3.864 -0.3380  0.4660 -0.2288
 4819SOL    HW226094   0.027   3.487   3.929  0.5257 -2.0086  2.9049
 4820SOL     OW26095   1.265   3.624   2.540  0.2613  0.2412  0.2941
 4820SOL    HW126096   1.170   3.632   2.546  0.1363 -1.2607  0.2494
 4820SOL    HW226097   1.287   3.671   2.621  2.3615  0.6216 -0.5008
 4821SOL     OW26098   0.174   2.346  13.216  0.1139 -0.0118 -0.2156
 4821SOL    HW126099   0.216   2.424  13.179 -1.9485  0.7916 -0.8764
 4821SOL    HW226100   0.099   2.337  13.157  0.7543 -1.1914 -0.8513
 4822SOL     OW26101   1.988   4.609   4.907 -0.0869  0.1871 -0.4266
 4822SOL    HW126102   1.996   4.642   4.996 -0.6235  0.6167 -0.5405
 4822SOL    HW226103   1.907   4.655   4.884  0.9632  0.9987 -2.4934
 4823SOL     OW26104   3.681   0.197  12.237 -0.0793 -0.2205  0.4714
 4823SOL    HW126105   3.730   0.115  12.229  2.1996  1.1164  0.6633
 4823SOL    HW226106   3.734   0.263  12.193 -0.1887  0.2612  1.0619
 4824SOL     OW26107   3.091   3.027  15.162  0.3998  0.3084 -0.0324
 4824SOL    HW126108   3.079   2.934  15.180  1.3229 -0.2251 -2.2043
 4824SOL    HW226109   3.176   3.036  15.205 -0.1336  3.2568  0.4623
 4825SOL     OW26110   4.602   3.247  16.948 -0.0831 -0.4111 -0.2506
 4825SOL    HW126111   4.614   3.338  16.974 -0.0394 -0.6929  0.7128
 4825SOL    HW226112   4.685   3.201  16.966  0.0824 -0.3378 -0.8235
 4826SOL     OW26113   0.128   0.478   6.193 -0.5992 -0.1764 -0.2652
 4826SOL    HW126114   0.219   0.448   6.194 -1.0811 -1.5066  1.8950
 4826SOL    HW226115   0.087   0.414   6.136  0.3264  0.2340 -1.4011
 4827SOL     OW26116   2.309   3.822   5.544  0.2981  0.1698  0.1639
 4827SOL    HW126117   2.365   3.747   5.565  2.4400  1.4344 -1.0655
 4827SOL    HW226118   2.303   3.823   5.449 -0.8062  1.4872  0.2501
 4828SOL     OW26119   2.459   4.576  13.229 -0.2235  0.1384 -0.3419
 4828SOL    HW126120   2.382   4.619  13.192  0.8802  0.7611 -1.9099
 4828SOL    HW226121   2.536   4.621  13.194  0.4088 -0.9920 -0.4096
 4829SOL     OW26122   3.920   1.269   6.558 -0.3739 -0.4368  0.2708
 4829SOL    HW126123   4.015   1.258   6.564 -0.3953  0.3043  1.8124
 4829SOL    HW226124   3.913   1.351   6.509 -2.7526 -1.3326 -0.9419
 4830SOL     OW26125   2.497   2.415  15.545  0.4219  0.1887  0.5609
 4830SOL    HW126126   2.546   2.350  15.596  0.3947  1.8134  2.6013
 4830SOL    HW226127   2.562   2.485  15.541  1.0404 -0.5355 -2.7160
 4831SOL     OW26128   3.921   3.727  15.517  0.0319 -0.1990 -1.1770
 4831SOL    HW126129   3.849   3.663  15.514 -1.0556  0.9417  0.2302
 4831SOL    HW226130   3.936   3.716  15.611 -0.5576 -3.0105 -1.3861
 4832SOL     OW26131   0.331   4.443   3.343  0.0648 -0.0249 -0.0287
 4832SOL    HW126132   0.328   4.430   3.249  0.4493 -0.0216 -0.0424
 4832SOL    HW226133   0.335   4.537   3.364 -1.9092 -0.8661  4.1493
 4833SOL     OW26134   1.194   3.709   7.633  0.6643 -0.2378 -0.0248
 4833SOL    HW126135   1.137   3.633   7.648  1.2937 -0.6905  0.0672
 4833SOL    HW226136   1.161   3.736   7.547 -2.5211  0.7638  1.5132
 4834SOL     OW26137   1.460   2.598  12.700 -0.4266  0.1096 -0.5107
 4834SOL    HW126138   1.464   2.503  12.696  1.5561  0.2082 -0.6841
 4834SOL    HW226139   1.449   2.614  12.794  1.1197  4.0403 -1.0113
 4835SOL     OW26140   0.889   1.159  15.454  0.9022 -0.1112 -0.0717
 4835SOL    HW126141   0.839   1.080  15.430 -1.6897  1.6163 -0.3591
 4835SOL    HW226142   0.830   1.227  15.485 -1.7638 -1.5242 -1.9830
 4836SOL     OW26143   4.566   1.112   2.448 -0.7657  0.6962 -0.3420
 4836SOL    HW126144   4.538   1.196   2.411  0.0042  1.6217  1.1838
 4836SOL    HW226145   4.488   1.061   2.470  1.3988 -2.7971 -0.8156
 4837SOL     OW26146   1.326   3.514   4.487 -0.3417 -0.1216  0.1626
 4837SOL    HW126147   1.336   3.516   4.582 -1.5301 -2.9054  0.3532
 4837SOL    HW226148   1.378   3.589   4.459 -0.7700  0.0405 -0.1927
 4838SOL     OW26149   1.191   1.151  13.473 -0.1408  0.2087  0.4381
 4838SOL    HW126150   1.131   1.225  13.472  2.8845  2.6046 -0.1994
 4838SOL    HW226151   1.258   1.170  13.539  0.4319 -1.8769  0.4609
 4839SOL     OW26152   4.450   0.291   3.824  0.6012  0.1490  0.3425
 4839SOL    HW126153   4.389   0.281   3.897 -0.7777  0.0452 -0.8167
 4839SOL    HW226154   4.431   0.377   3.784  0.9118  0.4024  0.7390
 4840SOL     OW26155   4.629   0.260  14.936  0.4773 -0.1706  0.7392
 4840SOL    HW126156   4.681   0.183  14.918 -0.6418 -0.5095 -1.0904
 4840SOL    HW226157   4.545   0.226  14.906  0.9353 -2.0353  1.5852
 4841SOL     OW26158   2.955   3.208  11.367  0.6230 -0.3280 -0.6525
 4841SOL    HW126159   3.038   3.205  11.415  0.4226 -1.1250 -0.3673
 4841SOL    HW226160   2.975   3.280  11.307  0.9360 -0.0548 -0.2315
 4842SOL     OW26161   4.248   0.548   6.391 -0.4057 -0.3570 -0.1662
 4842SOL    HW126162   4.253   0.615   6.322  0.5970  1.0046  1.2170
 4842SOL    HW226163   4.154   0.555   6.404 -0.0331  0.1576  2.2504
 4843SOL     OW26164   0.519   2.724  15.735  0.1621 -0.3644  0.0311
 4843SOL    HW126165   0.572   2.796  15.701  0.4376  0.2950  1.8489
 4843SOL    HW226166   0.520   2.739  15.830 -1.4612 -0.6547  0.0878
 4844SOL     OW26167   0.924   3.202   2.916  0.4437 -0.2276  0.2867
 4844SOL    HW126168   0.876   3.284   2.928  1.5007  0.0918  2.3682
 4844SOL    HW226169   0.979   3.202   2.995  2.9366 -0.2277 -1.4380
 4845SOL     OW26170   3.496   4.322   1.449  0.2975 -0.0626 -0.2157
 4845SOL    HW126171   3.455   4.276   1.375 -0.6417 -0.1613  0.3560
 4845SOL    HW226172   3.462   4.410   1.430  0.4595  0.3170  1.2334
 4846SOL     OW26173   0.100   0.414  16.878 -0.4580 -0.4620 -0.0383
 4846SOL    HW126174   0.039   0.351  16.916 -1.7441  0.0451 -1.2223
 4846SOL    HW226175   0.081   0.402  16.785  1.5212 -1.6318 -0.2785
 4847SOL     OW26176   0.883   0.897   1.880 -0.6899 -0.4583 -0.3639
 4847SOL    HW126177   0.898   0.852   1.797 -1.1157 -1.0174 -0.1405
 4847SOL    HW226178   0.829   0.969   1.848  1.3705  1.4370  0.4018
 4848SOL     OW26179   0.368   4.400  12.721  0.1195 -0.2503 -0.1997
 4848SOL    HW126180   0.446   4.444  12.754  0.0274 -0.0864 -0.2042
 4848SOL    HW226181   0.319   4.469  12.677  0.2367  0.9687  1.6061
 4849SOL     OW26182   2.792   3.028   6.604  0.3409  0.0070 -0.4385
 4849SOL    HW126183   2.829   3.101   6.654 -0.5505 -0.9814  1.6287
 4849SOL    HW226184   2.724   2.991   6.660  0.5393  1.5559  0.7981
 4850SOL     OW26185   3.674   2.847   6.165  0.4538 -0.2328  0.8735
 4850SOL    HW126186   3.735   2.780   6.194  0.6139 -0.2446  0.5076
 4850SOL    HW226187   3.593   2.797   6.161  0.2624  0.0515  1.1667
 4851SOL     OW26188   1.370   1.228  13.660 -0.1974  0.4140 -0.2991
 4851SOL    HW126189   1.433   1.175  13.709  0.1523 -1.4652 -2.8483
 4851SOL    HW226190   1.422   1.309  13.658 -0.1892  0.4300  0.3421
 4852SOL     OW26191   0.054   2.535   0.916  0.3830  0.1990 -0.1946
 4852SOL    HW126192   0.099   2.504   0.995 -0.5241  2.8702  1.3613
 4852SOL    HW226193   0.130   2.565   0.865  0.3873 -0.1390 -0.3872
 4853SOL     OW26194   0.917   2.631   2.217  0.1326 -0.1211 -0.2475
 4853SOL    HW126195   0.835   2.583   2.224 -0.1729  0.6412  1.3863
 4853SOL    HW226196   0.937   2.610   2.126  1.1582 -1.0373  0.1839
 4854SOL     OW26197   3.606   2.759   1.154 -0.0626  0.0241  0.1473
 4854SOL    HW126198   3.668   2.821   1.116  0.3218 -1.3933 -1.5180
 4854SOL    HW226199   3.647   2.715   1.229  0.9167  0.9301  0.1478
 4855SOL     OW26200   0.457   0.093   4.381  0.0719  0.4380  0.3361
 4855SOL    HW126201   0.520   0.160   4.354  0.3133 -0.3920 -1.1997
 4855SOL    HW226202   0.514   0.037   4.434 -2.4575 -3.0086 -0.5644
 4856SOL     OW26203   0.096   3.720  16.003  0.5027  0.1786  0.1970
 4856SOL    HW126204   0.008   3.715  15.964  1.1482 -1.3538 -1.0668
 4856SOL    HW226205   0.087   3.807  16.041 -1.8209  0.4328 -0.8778
 4857SOL     OW26206   3.496   0.970   3.735  0.2501  0.3549  0.0406
 4857SOL    HW126207   3.415   1.017   3.717  0.9502  1.5907  0.1213
 4857SOL    HW226208   3.473   0.951   3.826 -0.9672 -0.0000 -0.3523
 4858SOL     OW26209   3.384   3.342   8.973 -0.5518 -0.2383 -0.4774
 4858SOL    HW126210   3.323   3.279   9.011  0.1439 -0.8884 -0.4363
 4858SOL    HW226211   3.458   3.285   8.951  0.1016 -0.2518  1.7866
 4859SOL     OW26212   4.169   0.096  16.776 -0.1905 -0.9340  0.4660
 4859SOL    HW126213   4.152   0.171  16.833 -1.7675 -1.1886  0.3309
 4859SOL    HW226214   4.254   0.066  16.809 -0.6041 -2.9799 -0.3266
 4860SOL     OW26215   0.516   1.581   1.460  0.6643 -1.0742 -0.5107
 4860SOL    HW126216   0.530   1.546   1.372  1.0534 -1.7119 -0.1954
 4860SOL    HW226217   0.456   1.655   1.449  2.0405  0.1339  0.1147
 4861SOL     OW26218   0.478   1.637   4.225  0.4108 -0.0084 -0.2375
 4861SOL    HW126219   0.444   1.678   4.146 -1.2395  2.0320  1.5674
 4861SOL    HW226220   0.460   1.700   4.295  1.8618 -0.6594  0.7239
 4862SOL     OW26221   3.107   3.272   9.649 -0.3183 -0.7484  0.1717
 4862SOL    HW126222   3.074   3.184   9.664  2.5795 -2.1438 -1.6344
 4862SOL    HW226223   3.196   3.251   9.621 -1.1551 -0.2791 -2.8057
 4863SOL     OW26224   0.049   3.037   5.876 -0.1316 -0.7380  0.3883
 4863SOL    HW126225   0.082   2.952   5.905  0.4000 -1.0508 -1.1003
 4863SOL    HW226226   4.689   3.020   5.871 -0.0955 -1.4946  2.2685
 4864SOL     OW26227   3.752   0.690   3.223 -0.1590 -0.0128  0.6342
 4864SOL    HW126228   3.779   0.763   3.278  2.0447 -3.0463  3.5847
 4864SOL    HW226229   3.790   0.699   3.135 -1.9584 -0.1841 -0.1603
 4865SOL     OW26230   1.631   2.969  13.652 -0.1203  0.1698 -0.1139
 4865SOL    HW126231   1.630   3.042  13.590  0.4835  1.2721  1.1647
 4865SOL    HW226232   1.550   2.978  13.702  0.6715  2.6452  0.7148
 4866SOL     OW26233   1.726   2.028  10.778  0.3784 -0.4285  0.6867
 4866SOL    HW126234   1.728   2.072  10.693  3.4842 -2.4699 -0.2891
 4866SOL    HW226235   1.812   2.042  10.818  0.3343 -1.7335  1.2200
 4867SOL     OW26236   4.597   0.757   9.592  0.3423 -0.6801  0.6187
 4867SOL    HW126237   4.648   0.707   9.528  1.2953 -0.6409  1.3594
 4867SOL    HW226238   4.511   0.725   9.564  0.5478  0.6875 -1.6024
 4868SOL     OW26239   0.999   0.018   5.196 -0.5909 -0.6512 -1.0849
 4868SOL    HW126240   1.039   4.692   5.132 -0.3102 -2.3547  0.6874
 4868SOL    HW226241   1.072   0.030   5.257 -0.8068 -0.4783 -0.8636
 4869SOL     OW26242   1.516   3.229   1.063  0.6168  0.4145  0.1844
 4869SOL    HW126243   1.457   3.207   1.135 -0.0733 -0.7348 -0.7314
 4869SOL    HW226244   1.556   3.145   1.041  0.5198  1.0110 -2.3503
 4870SOL     OW26245   2.898   2.183  11.094  0.5182  0.0203 -0.7983
 4870SOL    HW126246   2.805   2.181  11.119  0.6233 -0.1678 -0.4259
 4870SOL    HW226247   2.930   2.134  11.170  0.3196  0.1450 -0.6342
 4871SOL     OW26248   0.715   3.982  12.069 -0.2182 -0.0276  0.0949
 4871SOL    HW126249   0.793   4.031  12.093 -1.5773  1.4360  1.5192
 4871SOL    HW226250   0.640   4.040  12.084  0.5128  1.5527 -2.4247
 4872SOL     OW26251   3.845   1.006   2.828 -0.4482  0.3886 -0.3007
 4872SOL    HW126252   3.792   0.927   2.820 -1.0783  0.6161  1.7199
 4872SOL    HW226253   3.847   1.025   2.922 -2.5370  0.5874 -0.2920
 4873SOL     OW26254   3.178   0.351   2.006 -0.4829  0.0503  0.0603
 4873SOL    HW126255   3.177   0.258   1.984  0.8687  0.2491 -0.8290
 4873SOL    HW226256   3.268   0.361   2.035  0.1811 -0.0395 -1.9351
 4874SOL     OW26257   0.256   2.036   4.770  0.3281 -0.0649  0.0158
 4874SOL    HW126258   0.171   2.001   4.795  0.4511  0.1307  0.7276
 4874SOL    HW226259   0.244   2.125   4.803  1.7535  0.7932 -1.7792
 4875SOL     OW26260   1.579   0.574   6.819  0.4410 -0.2302 -0.6687
 4875SOL    HW126261   1.618   0.638   6.879  2.0762 -3.6244  1.8817
 4875SOL    HW226262   1.494   0.615   6.806  0.1604 -1.0882 -1.4522
 4876SOL     OW26263   2.164   0.357   7.121 -0.0735 -0.1602  0.3595
 4876SOL    HW126264   2.200   0.268   7.112 -0.7931 -0.3692 -0.4751
 4876SOL    HW226265   2.088   0.353   7.179  0.7976 -0.6897  1.4775
 4877SOL     OW26266   0.942   3.222  10.847  0.5545 -0.0405 -0.4269
 4877SOL    HW126267   0.961   3.139  10.804  1.8972 -0.0322  0.1354
 4877SOL    HW226268   1.024   3.267  10.824  0.3530  0.8633  0.6222
 4878SOL     OW26269   1.933   3.801  12.024  0.6126 -0.0041  0.0366
 4878SOL    HW126270   2.017   3.831  12.060 -0.1468  0.3007  1.5464
 4878SOL    HW226271   1.935   3.864  11.952  1.4535 -1.8822 -1.6155
 4879SOL     OW26272   4.499   2.348   9.157  0.0413 -0.0704 -0.2997
 4879SOL    HW126273   4.479   2.261   9.190 -0.7001  0.9985  2.1085
 4879SOL    HW226274   4.435   2.358   9.087  0.2781  0.8752 -0.3826
 4880SOL     OW26275   3.787   0.662   0.469 -0.0567  0.4776 -0.1452
 4880SOL    HW126276   3.763   0.570   0.484 -1.0666  0.6880 -0.4141
 4880SOL    HW226277   3.851   0.656   0.399 -0.9939  0.8487 -1.0252
 4881SOL     OW26278   0.676   1.884   3.936  0.2877  0.0413 -0.2988
 4881SOL    HW126279   0.598   1.920   3.978  1.5296  0.0274  2.0188
 4881SOL    HW226280   0.750   1.935   3.968 -2.3347  2.2574  2.1855
 4882SOL     OW26281   2.440   0.002   7.027  0.3088  0.1274 -0.1930
 4882SOL    HW126282   2.484   4.652   7.012  1.2060  0.1106  2.5389
 4882SOL    HW226283   2.363   4.695   7.066 -0.5706  1.0992 -0.9163
 4883SOL     OW26284   2.398   3.839   5.245  0.4411  0.2017 -0.4292
 4883SOL    HW126285   2.487   3.822   5.215  1.0392 -0.7477  1.9423
 4883SOL    HW226286   2.410   3.907   5.310  2.6942 -2.2084  1.6680
 4884SOL     OW26287   1.921   3.286  10.417 -0.2290 -0.1285 -0.3148
 4884SOL    HW126288   1.944   3.242  10.499  1.6003  0.9077 -0.2712
 4884SOL    HW226289   1.992   3.350  10.408  1.2079 -1.5538  0.9038
 4885SOL     OW26290   4.155   3.683   7.564  0.2689 -0.4602  0.0171
 4885SOL    HW126291   4.188   3.661   7.477 -0.2722  0.3706 -0.4058
 4885SOL    HW226292   4.231   3.674   7.621 -0.2448  0.2317  0.8236
 4886SOL     OW26293   3.144   0.061   4.781 -0.1529  0.2867 -0.1071
 4886SOL    HW126294   3.173   0.104   4.700  1.4313 -0.7125 -0.0881
 4886SOL    HW226295   3.050   0.047   4.786 -0.5248  2.9499  0.1710
 4887SOL     OW26296   1.683   1.819   8.825 -0.4106  0.1214 -0.5412
 4887SOL    HW126297   1.758   1.789   8.774  0.6678  0.9550  0.5402
 4887SOL    HW226298   1.609   1.776   8.782  1.1314 -1.3331 -1.7204
 4888SOL     OW26299   1.458   0.386   8.921 -0.0219  0.0482 -0.6213
 4888SOL    HW126300   1.532   0.434   8.958  0.6426 -1.0270 -0.5713
 4888SOL    HW226301   1.490   0.376   8.831  0.1167  0.7352 -0.6505
 4889SOL     OW26302   2.247   4.352   2.894 -0.0817 -0.2330  0.1664
 4889SOL    HW126303   2.179   4.400   2.940 -0.3947 -0.1885 -0.3377
 4889SOL    HW226304   2.209   4.336   2.807 -1.4443  1.6721  0.4113
 4890SOL     OW26305   0.143   4.157   2.655 -0.1895  0.1305 -0.1571
 4890SOL    HW126306   0.056   4.173   2.693 -0.3005 -0.8629  0.0265
 4890SOL    HW226307   0.163   4.071   2.692 -3.6137  0.0608  1.5691
 4891SOL     OW26308   3.995   1.662   6.063  0.0550 -0.1258 -0.3275
 4891SOL    HW126309   3.907   1.697   6.050 -0.5469 -1.4123  0.2965
 4891SOL    HW226310   4.009   1.700   6.150  2.2307  0.4764 -0.9255
 4892SOL     OW26311   1.491   4.462  16.360  0.1885  0.1569  0.1677
 4892SOL    HW126312   1.404   4.445  16.321 -0.7298  1.6890  1.5784
 4892SOL    HW226313   1.520   4.545  16.322 -0.4221  0.5349  0.5181
 4893SOL     OW26314   1.783   2.534   4.062 -0.0793 -0.1187 -0.6513
 4893SOL    HW126315   1.821   2.524   4.150 -1.0036  3.7539  0.1922
 4893SOL    HW226316   1.847   2.594   4.024 -1.4224  1.1979 -0.8620
 4894SOL     OW26317   4.436   3.357  12.759 -0.2935  0.3014  0.2888
 4894SOL    HW126318   4.419   3.449  12.740  1.0457  0.8570  1.8263
 4894SOL    HW226319   4.526   3.349  12.727 -0.8376  1.3518 -1.5264
 4895SOL     OW26320   0.360   1.171   8.333  0.3731  0.3841  0.3186
 4895SOL    HW126321   0.402   1.156   8.418 -1.2182 -1.3070  0.8101
 4895SOL    HW226322   0.300   1.097   8.338  0.2873  0.4416  0.1029
 4896SOL     OW26323   4.523   3.979   2.023  0.5754  0.3603 -0.0647
 4896SOL    HW126324   4.590   4.045   2.043 -1.4084  1.7312  2.1255
 4896SOL    HW226325   4.456   3.984   2.092  0.5942  1.4977 -0.1298
 4897SOL     OW26326   0.906   0.899   3.874  0.1996 -0.3225 -0.7877
 4897SOL    HW126327   0.916   0.991   3.898  0.4568  0.3435 -3.3908
 4897SOL    HW226328   0.823   0.879   3.917  1.8438 -1.5763  1.8033
 4898SOL     OW26329   0.596   0.841   5.381  0.3267 -0.0836  0.2096
 4898SOL    HW126330   0.677   0.889   5.367 -0.0398  0.4453 -0.1214
 4898SOL    HW226331   0.629   0.757   5.412 -0.6882 -1.5321 -2.5562
 4899SOL     OW26332   1.450   0.538  12.783 -0.0904  0.1018  0.5696
 4899SOL    HW126333   1.421   0.615  12.831  0.0092  1.1118 -1.0045
 4899SOL    HW226334   1.483   0.576  12.701 -0.5920  0.1921  0.4078
 4900SOL     OW26335   2.547   0.250   5.215  0.1673  0.1144  0.9363
 4900SOL    HW126336   2.584   0.186   5.154  0.7944  1.1432  0.2413
 4900SOL    HW226337   2.539   0.190   5.289 -0.7128  0.6115  1.2433
 4901SOL     OW26338   1.083   1.044   5.981  0.3612  0.3981 -0.8815
 4901SOL    HW126339   1.022   0.971   5.971  0.0002  0.5295  0.2925
 4901SOL    HW226340   1.118   1.060   5.893  1.2975 -0.4202 -0.6513
 4902SOL     OW26341   2.228   4.101   2.012 -0.2842  0.5614 -0.0774
 4902SOL    HW126342   2.206   4.192   2.029 -1.3977  0.0627  1.2175
 4902SOL    HW226343   2.135   4.077   2.021 -0.2753  0.0984 -1.2915
 4903SOL     OW26344   0.048   0.979  15.596 -0.1038 -0.2487 -0.4786
 4903SOL    HW126345   0.137   1.013  15.598 -0.0593 -0.3189 -1.1804
 4903SOL    HW226346   0.022   0.982  15.503 -1.6472  0.8001 -0.0189
 4904SOL     OW26347   4.616   4.659   6.910  0.1247 -0.2868  0.4258
 4904SOL    HW126348   4.550   4.609   6.958  0.0279  0.0052  0.5944
 4904SOL    HW226349   4.679   4.676   6.980 -2.3199  0.9655  2.3083
 4905SOL     OW26350   4.143   1.719   4.774  0.0954 -0.1956  0.3833
 4905SOL    HW126351   4.099   1.670   4.844  0.3450 -0.7443  0.1639
 4905SOL    HW226352   4.111   1.807   4.788 -0.1719 -0.4402  1.3206
 4906SOL     OW26353   3.134   4.455   1.768 -0.2016 -1.2159  0.1543
 4906SOL    HW126354   3.099   4.482   1.853  0.7695  2.4229 -0.6173
 4906SOL    HW226355   3.215   4.504   1.756 -0.0886 -1.3602  0.3357
 4907SOL     OW26356   1.867   0.069   3.621  0.0551 -0.6110 -0.2814
 4907SOL    HW126357   1.791   0.076   3.563 -0.1117  0.1370  0.0388
 4907SOL    HW226358   1.843   0.050   3.711  0.1853 -3.4331 -0.8349
 4908SOL     OW26359   0.010   0.834   0.567 -0.4054  0.2011 -0.5551
 4908SOL    HW126360   4.658   0.865   0.539 -0.5853  0.0459 -0.1713
 4908SOL    HW226361   0.037   0.808   0.479 -0.4552 -0.2770 -0.4272
 4909SOL     OW26362   4.211   0.031  12.608 -0.0229 -0.2343 -0.1149
 4909SOL    HW126363   4.135   0.028  12.666  1.6194  1.2524  2.0894
 4909SOL    HW226364   4.271   4.706  12.653  0.9778  0.5722 -0.4017
 4910SOL     OW26365   4.352   0.316   3.020  0.2175 -0.0047  0.4239
 4910SOL    HW126366   4.442   0.316   2.990  0.1422  1.7562  0.1890
 4910SOL    HW226367   4.360   0.278   3.107  0.2304 -0.8503  0.0566
 4911SOL     OW26368   2.536   1.179   6.391  0.0039 -0.5398 -0.2956
 4911SOL    HW126369   2.531   1.097   6.440  0.9129  0.7185  1.8723
 4911SOL    HW226370   2.618   1.173   6.342 -0.1091  0.8980 -0.6530
 4912SOL     OW26371   3.199   0.248  16.478 -0.4773 -0.6423  0.1884
 4912SOL    HW126372   3.271   0.310  16.466  1.3848 -2.4177  1.9676
 4912SOL    HW226373   3.168   0.270  16.566  0.0610 -0.6177  0.3751
 4913SOL     OW26374   1.737   3.784  11.694 -0.1067  0.3028  0.2441
 4913SOL    HW126375   1.748   3.690  11.713  0.9159  0.0343 -1.7050
 4913SOL    HW226376   1.712   3.805  11.784  1.8343 -0.7450  1.0256
 4914SOL     OW26377   3.117   1.974   5.556  0.0008 -0.0696  0.5485
 4914SOL    HW126378   3.173   2.022   5.493  0.2425 -3.3854 -1.7498
 4914SOL    HW226379   3.097   2.047   5.615  0.1089 -0.4158  1.0065
 4915SOL     OW26380   0.415   2.220  14.401 -0.6217  0.2932  0.0964
 4915SOL    HW126381   0.469   2.210  14.322 -0.4001 -2.2770  0.5658
 4915SOL    HW226382   0.476   2.183  14.465  0.6724  1.4983 -0.4512
 4916SOL     OW26383   2.374   0.927   8.044 -0.2530  0.8787  0.5262
 4916SOL    HW126384   2.355   0.836   8.067 -0.4365  0.7970  0.0425
 4916SOL    HW226385   2.465   0.933   8.072  1.0390 -0.9830 -3.3055
 4917SOL     OW26386   1.320   1.151   1.979  0.0842  0.2211 -0.0276
 4917SOL    HW126387   1.350   1.228   2.027  1.5258  1.8807 -3.5357
 4917SOL    HW226388   1.392   1.145   1.916  0.5485 -0.7604  0.5947
 4918SOL     OW26389   3.424   3.502   8.751 -0.7378 -0.3757  0.0618
 4918SOL    HW126390   3.378   3.586   8.758 -0.7141 -0.2505 -1.2701
 4918SOL    HW226391   3.389   3.446   8.820 -0.6906  0.9702  1.1711
 4919SOL     OW26392   1.889   1.488   1.559 -0.1593  0.0585  0.1495
 4919SOL    HW126393   1.929   1.540   1.489 -0.3343 -0.7243 -0.5248
 4919SOL    HW226394   1.968   1.463   1.607 -0.4499  0.5552  0.8844
 4920SOL     OW26395   0.018   1.502  11.081  0.0125  0.7627 -0.5415
 4920SOL    HW126396   4.669   1.549  11.086 -1.0248 -0.9643 -1.8377
 4920SOL    HW226397   4.719   1.428  11.132 -0.0886  0.5306 -0.9513
 4921SOL     OW26398   3.404   4.266   2.520  0.8873 -0.0867 -0.4375
 4921SOL    HW126399   3.311   4.246   2.517  0.6912  0.4721  2.0540
 4921SOL    HW226400   3.431   4.201   2.584  0.6269 -0.5289 -0.7797
 4922SOL     OW26401   3.536   0.685  13.408 -0.4964  0.2291  0.3038
 4922SOL    HW126402   3.476   0.714  13.340  0.0739  0.6115 -0.0449
 4922SOL    HW226403   3.611   0.740  13.384 -0.4707  0.6961  1.4480
 4923SOL     OW26404   1.999   3.640   4.233 -0.2565 -0.6960 -0.8131
 4923SOL    HW126405   2.021   3.621   4.325  1.6572  1.7453 -0.7731
 4923SOL    HW226406   2.004   3.734   4.248 -2.8783 -0.9599  1.6973
 4924SOL     OW26407   1.056   0.743   6.587 -0.6917 -0.1866 -0.6568
 4924SOL    HW126408   1.137   0.713   6.545  0.8907 -0.6304  2.7365
 4924SOL    HW226409   1.011   0.663   6.614 -2.5736  1.3432  0.7067
 4925SOL     OW26410   4.184   0.953   8.127 -0.6709  0.4265  0.2349
 4925SOL    HW126411   4.098   0.930   8.091  0.4570 -0.1646 -2.0260
 4925SOL    HW226412   4.238   0.942   8.049  0.2861  1.7600  0.7102
 4926SOL     OW26413   2.574   1.116  10.130 -0.3502  0.3048 -0.8958
 4926SOL    HW126414   2.576   1.093  10.038 -0.6328 -0.3235 -0.7470
 4926SOL    HW226415   2.566   1.028  10.168 -1.6866  0.2056 -1.4040
 4927SOL     OW26416   1.697   4.114   8.983 -0.3678  0.4230 -0.0870
 4927SOL    HW126417   1.632   4.082   8.920 -1.3747  1.7598  0.2767
 4927SOL    HW226418   1.635   4.167   9.033  0.1405  0.7709  0.1694
 4928SOL     OW26419   4.273   4.018   6.781  0.5810  0.5726  0.1150
 4928SOL    HW126420   4.202   4.048   6.724 -1.2767 -1.9985  1.0925
 4928SOL    HW226421   4.332   3.991   6.711  0.4350  2.8174 -0.8774
 4929SOL     OW26422   2.490   2.021   4.975 -0.0122 -0.0392  0.0874
 4929SOL    HW126423   2.530   1.944   5.017  1.7940  0.6616 -0.3326
 4929SOL    HW226424   2.559   2.087   4.966  0.2849 -0.3249  0.2621
 4930SOL     OW26425   4.198   0.921   4.671 -0.2632 -0.0529 -0.0002
 4930SOL    HW126426   4.252   0.971   4.732  0.5586 -0.6636 -0.2376
 4930SOL    HW226427   4.216   0.962   4.587  2.4645 -0.1616  0.5317
 4931SOL     OW26428   2.713   0.400   2.600 -0.3943 -0.7188  0.2478
 4931SOL    HW126429   2.737   0.483   2.640  0.6410  0.3625 -2.6492
 4931SOL    HW226430   2.618   0.410   2.595 -0.2959  0.9782  1.9037
 4932SOL     OW26431   2.426   1.641  15.922 -0.0272  0.7173 -0.4942
 4932SOL    HW126432   2.333   1.627  15.942  0.1217 -0.7838 -0.8706
 4932SOL    HW226433   2.423   1.733  15.897 -2.2423 -0.0307 -3.0061
 4933SOL     OW26434   2.504   1.607  10.868  0.6589 -0.1525  0.2659
 4933SOL    HW126435   2.485   1.691  10.909  0.9443 -0.0002  0.0887
 4933SOL    HW226436   2.541   1.637  10.785  1.7940 -0.8316  0.5269
 4934SOL     OW26437   4.693   4.668  12.220  0.5379 -0.7662 -0.4630
 4934SOL    HW126438   4.687   4.689  12.313  1.7302  0.7412 -0.7285
 4934SOL    HW226439   4.615   4.616  12.199 -0.4242  0.6975 -0.4762
 4935SOL     OW26440   3.889   1.379   3.366  0.5080 -0.1952 -0.4056
 4935SOL    HW126441   3.839   1.453   3.402  1.4172  0.3939 -0.3572
 4935SOL    HW226442   3.904   1.420   3.281 -0.6064 -1.0013 -1.0014
 4936SOL     OW26443   0.771   1.437   1.233 -0.2421  0.0388  0.6233
 4936SOL    HW126444   0.828   1.379   1.183 -0.0237  1.2635 -0.5481
 4936SOL    HW226445   0.778   1.409   1.324 -5.2585 -0.7444  0.7924
 4937SOL     OW26446   2.714   3.321   5.531  0.4707  0.0029 -0.4400
 4937SOL    HW126447   2.664   3.397   5.500  0.4177  0.2143  0.1641
 4937SOL    HW226448   2.786   3.307   5.470  1.7218 -0.9593  1.2603
 4938SOL     OW26449   0.930   2.875   3.123  0.5113 -0.5965 -0.4124
 4938SOL    HW126450   0.971   2.911   3.044 -0.8433  1.5955 -0.1340
 4938SOL    HW226451   0.972   2.918   3.198  1.9793  0.8043 -2.0264
 4939SOL     OW26452   3.248   4.582   3.184  0.0495 -0.0070 -0.4342
 4939SOL    HW126453   3.294   4.620   3.259  1.3868  2.0376 -2.3140
 4939SOL    HW226454   3.157   4.599   3.207 -0.1673 -2.5720  0.6069
 4940SOL     OW26455   0.606   0.874  13.226  0.2401  0.3494 -0.0700
 4940SOL    HW126456   0.678   0.874  13.163  0.8388 -0.8999  0.6022
 4940SOL    HW226457   0.583   0.967  13.228  1.2865  0.5821  1.5525
 4941SOL     OW26458   1.099   3.749   5.134 -0.2866 -0.7925  0.1787
 4941SOL    HW126459   1.085   3.820   5.196  0.2873 -1.2921  0.8846
 4941SOL    HW226460   1.009   3.722   5.115 -1.0821 -0.3606  3.3008
 4942SOL     OW26461   0.467   1.474   3.769  0.1880 -0.4158  0.8217
 4942SOL    HW126462   0.551   1.454   3.808  1.1410  2.3125  0.1756
 4942SOL    HW226463   0.483   1.566   3.746 -1.9639 -0.4348 -0.7519
 4943SOL     OW26464   2.616   3.048   9.684 -0.2911  0.5882 -1.0287
 4943SOL    HW126465   2.691   3.104   9.702 -1.0460  0.9519  1.0248
 4943SOL    HW226466   2.551   3.053   9.754  1.8353  1.6065  0.8726
 4944SOL     OW26467   1.837   3.694   4.627 -0.1321  0.2999  0.2496
 4944SOL    HW126468   1.753   3.665   4.663 -0.6455 -0.4812 -1.5485
 4944SOL    HW226469   1.863   3.760   4.691  4.6357 -1.8582  0.5409
 4945SOL     OW26470   4.601   2.992   8.727  0.1990 -0.2426 -0.3627
 4945SOL    HW126471   4.691   3.001   8.760  0.7765 -4.4215 -0.7278
 4945SOL    HW226472   4.577   3.084   8.720  1.7367  0.3039  1.3537
 4946SOL     OW26473   3.990   3.928   6.258  0.2191 -0.2161 -0.1342
 4946SOL    HW126474   3.960   3.934   6.168 -0.2391 -1.1175 -0.0431
 4946SOL    HW226475   4.084   3.919   6.242  0.7198  1.3948  1.8169
 4947SOL     OW26476   2.002   0.189   7.324  0.2467 -0.4703 -0.3800
 4947SOL    HW126477   1.978   0.114   7.379 -0.2182  0.5371  0.7796
 4947SOL    HW226478   1.928   0.248   7.337  0.3181 -0.7767  1.4760
 4948SOL     OW26479   0.000   2.116   9.262 -0.1375  0.2240  0.4560
 4948SOL    HW126480   4.639   2.119   9.252  0.1392  2.8184 -1.3831
 4948SOL    HW226481   0.017   2.024   9.279 -2.5117 -0.6731 -2.1144
 4949SOL     OW26482   0.898   0.281   5.685  0.2757  0.3005  0.1256
 4949SOL    HW126483   0.869   0.202   5.731 -0.1200  0.3563 -0.0303
 4949SOL    HW226484   0.905   0.252   5.594 -1.5190  0.0675  0.0568
 4950SOL     OW26485   1.511   4.277   4.246  0.2665  0.4773 -0.0221
 4950SOL    HW126486   1.582   4.327   4.206 -1.1900  2.7624  0.2531
 4950SOL    HW226487   1.443   4.269   4.180 -0.8978  0.3350  1.2151
 4951SOL     OW26488   2.354   3.748   2.379 -0.1279 -0.1036  0.3722
 4951SOL    HW126489   2.376   3.715   2.292  1.2378  3.1216 -0.4980
 4951SOL    HW226490   2.366   3.842   2.367  3.4615 -0.4258  1.4614
 4952SOL     OW26491   4.668   2.846   4.695 -0.2704  0.2915 -0.2361
 4952SOL    HW126492   4.629   2.796   4.622  1.9598 -1.2188 -0.3965
 4952SOL    HW226493   4.732   2.782   4.727 -1.4941 -1.6079 -1.5582
 4953SOL     OW26494   0.430   0.521   0.121 -0.3635 -0.5381  0.1505
 4953SOL    HW126495   0.450   0.612   0.102  1.7263 -0.8558  0.8845
 4953SOL    HW226496   0.515   0.490   0.153 -0.7222 -3.1154 -1.3821
 4954SOL     OW26497   2.091   1.833  15.838  0.6841 -0.2775  0.1739
 4954SOL    HW126498   2.065   1.875  15.756 -1.6078 -1.7162  0.1640
 4954SOL    HW226499   2.184   1.855  15.828  0.5209  0.2817 -0.1050
 4955SOL     OW26500   2.548   0.244  15.144  0.4869  0.2439 -0.0534
 4955SOL    HW126501   2.624   0.191  15.119  0.6644  1.6490 -2.4123
 4955SOL    HW226502   2.489   0.220  15.073  0.1185  3.0121 -0.6660
 4956SOL     OW26503   0.939   0.695   6.268  0.1213 -0.2644  0.2113
 4956SOL    HW126504   0.858   0.664   6.308  0.1489 -0.7006 -0.0684
 4956SOL    HW226505   0.954   0.773   6.321 -0.0613 -0.3218  0.3434
 4957SOL     OW26506   2.783   1.834   1.546  0.4570  0.0336 -0.1643
 4957SOL    HW126507   2.746   1.802   1.628  2.3325  1.3453  1.1804
 4957SOL    HW226508   2.779   1.749   1.502  0.4634 -2.2383  4.2800
 4958SOL     OW26509   1.640   2.405   3.355 -0.1407 -0.3666 -0.3661
 4958SOL    HW126510   1.733   2.408   3.374 -0.2025  1.1438 -0.3388
 4958SOL    HW226511   1.608   2.410   3.445 -1.2328  1.0255 -0.8171
 4959SOL     OW26512   3.937   1.576   3.795 -0.1723  0.8614  0.5416
 4959SOL    HW126513   4.016   1.528   3.818 -0.1461 -0.6252 -2.6856
 4959SOL    HW226514   3.975   1.662   3.776  0.9444  0.5988  1.5796
 4960SOL     OW26515   1.794   0.534   2.997  0.0728 -0.1073 -0.4227
 4960SOL    HW126516   1.729   0.469   3.025 -0.4276 -0.2419 -1.8775
 4960SOL    HW226517   1.753   0.580   2.923 -1.4074 -1.3029 -0.3473
 4961SOL     OW26518   4.336   0.491  11.902  0.0221  0.1879 -0.1530
 4961SOL    HW126519   4.248   0.495  11.940 -0.0269  0.3420 -0.2791
 4961SOL    HW226520   4.317   0.517  11.811 -0.7249  1.9395  0.5095
 4962SOL     OW26521   2.737   0.415  10.433 -0.4371  0.4468  0.4309
 4962SOL    HW126522   2.670   0.471  10.393 -2.8015 -1.9251  1.0885
 4962SOL    HW226523   2.693   0.331  10.442 -1.2359  1.1148  2.8304
 4963SOL     OW26524   1.275   0.350  13.702  0.9738 -0.2709 -0.2394
 4963SOL    HW126525   1.204   0.314  13.755  0.4936  0.4106 -0.4265
 4963SOL    HW226526   1.230   0.361  13.618 -1.4347 -3.0923  0.6934
 4964SOL     OW26527   1.830   2.364   5.235  0.8640 -0.8573 -0.2484
 4964SOL    HW126528   1.768   2.300   5.271 -0.7630  2.1166  2.2761
 4964SOL    HW226529   1.865   2.322   5.157 -0.2149 -1.1581 -0.5721
 4965SOL     OW26530   1.358   3.193   3.375 -0.1940  0.8258  0.2554
 4965SOL    HW126531   1.357   3.121   3.312 -0.5474 -0.0939  1.3123
 4965SOL    HW226532   1.272   3.196   3.418 -0.7879 -0.9891 -0.8132
 4966SOL     OW26533   3.535   1.430   0.356  0.1744  0.2980  0.0359
 4966SOL    HW126534   3.509   1.522   0.356 -0.9250 -0.0345 -2.6980
 4966SOL    HW226535   3.457   1.382   0.330  1.0699 -0.8214 -0.5585
 4967SOL     OW26536   2.001   0.609   8.682 -0.2471 -0.2815 -0.7125
 4967SOL    HW126537   2.047   0.692   8.694  0.4197 -0.8587  0.7321
 4967SOL    HW226538   2.075   0.556   8.651  0.3417 -1.1871  2.3132
 4968SOL     OW26539   2.762   4.328   8.077 -0.1052 -0.3202 -0.6354
 4968SOL    HW126540   2.815   4.406   8.090 -1.8353  0.4959  1.5716
 4968SOL    HW226541   2.688   4.356   8.131  0.8047  2.0574 -0.6538
 4969SOL     OW26542   3.382   3.041   6.173  0.1681  0.3423 -0.0953
 4969SOL    HW126543   3.398   3.130   6.143 -0.9571  0.5063 -0.2010
 4969SOL    HW226544   3.287   3.038   6.183  0.2068 -0.1949  0.1131
 4970SOL     OW26545   4.703   0.582  15.384  0.3609 -0.3788  0.0847
 4970SOL    HW126546   4.687   0.626  15.467  0.0790  1.7863 -1.1159
 4970SOL    HW226547   4.730   0.493  15.407 -0.4884 -0.5730  0.3546
 4971SOL     OW26548   3.521   2.550   2.959 -0.5315 -0.7595 -0.0590
 4971SOL    HW126549   3.428   2.530   2.951 -0.4108 -0.3040 -2.7281
 4971SOL    HW226550   3.530   2.616   2.890 -0.2555  0.3559  1.0320
 4972SOL     OW26551   3.669   0.082   5.738  0.0181  0.5013 -0.6176
 4972SOL    HW126552   3.718   0.024   5.680 -0.5587 -0.9923  0.3755
 4972SOL    HW226553   3.637   0.020   5.804 -1.3824  0.2886 -1.4936
 4973SOL     OW26554   4.390   2.372  11.947 -0.1098 -0.5374  0.1742
 4973SOL    HW126555   4.357   2.453  11.986 -1.9121  1.0096 -4.6288
 4973SOL    HW226556   4.431   2.404  11.867 -3.0045 -2.5369 -2.0989
 4974SOL     OW26557   4.327   0.840  11.371 -0.1284  0.3226  0.0879
 4974SOL    HW126558   4.254   0.845  11.309  1.3368  3.9944 -1.3308
 4974SOL    HW226559   4.403   0.816  11.318  0.1634 -0.5554  0.8890
 4975SOL     OW26560   0.187   2.658  17.537  0.0492 -0.1999  0.0192
 4975SOL    HW126561   0.206   2.621  17.450  1.6151  1.1049 -0.1824
 4975SOL    HW226562   0.201   2.583  17.595  1.5412  1.3652  1.6336
 4976SOL     OW26563   4.017   2.676  11.683 -0.3196  0.4867 -0.2620
 4976SOL    HW126564   3.930   2.645  11.704  0.1563 -0.8495 -0.2545
 4976SOL    HW226565   4.031   2.636  11.597  1.1158 -0.4199  0.3902
 4977SOL     OW26566   0.438   4.415   8.348  0.5266  1.1477  0.0043
 4977SOL    HW126567   0.386   4.429   8.427 -0.1567  0.5793 -0.3502
 4977SOL    HW226568   0.476   4.328   8.359  1.5200  1.5049 -0.6383
 4978SOL     OW26569   2.003   0.310   9.417 -0.6719 -0.2188  0.2977
 4978SOL    HW126570   2.006   0.249   9.343 -3.6502 -2.8851  2.4013
 4978SOL    HW226571   1.932   0.266   9.463  0.2929 -2.6884 -0.5774
 4979SOL     OW26572   0.285   2.517   1.995  0.6950  0.0847  0.3975
 4979SOL    HW126573   0.207   2.523   1.941 -0.1656  1.8511  1.8213
 4979SOL    HW226574   0.224   2.505   2.067 -1.1738  0.1187 -1.1968
 4980SOL     OW26575   2.527   4.423   2.891  0.1890 -0.0487 -0.2378
 4980SOL    HW126576   2.451   4.380   2.851 -0.9357  3.9155 -2.3814
 4980SOL    HW226577   2.546   4.500   2.837  1.0669  0.0671  0.2442
 4981SOL     OW26578   3.368   0.250  12.349  0.4245  0.0490  0.1077
 4981SOL    HW126579   3.331   0.333  12.317 -0.5057 -0.0921  0.8204
 4981SOL    HW226580   3.435   0.232  12.283 -1.7089 -2.5967 -1.3899
 4982SOL     OW26581   2.287   0.577   0.151  0.0227 -0.0557 -0.1613
 4982SOL    HW126582   2.371   0.568   0.194 -0.8484  2.0364  2.0137
 4982SOL    HW226583   2.231   0.561   0.227  2.4708  1.8099  2.0668
 4983SOL     OW26584   1.176   1.279  15.224 -0.1301  0.1679  0.1147
 4983SOL    HW126585   1.126   1.297  15.145  1.0922 -1.1011 -0.9556
 4983SOL    HW226586   1.173   1.366  15.263 -0.2209 -0.1404  0.8023
 4984SOL     OW26587   3.409   3.499   7.752 -0.0670  0.1191 -0.1911
 4984SOL    HW126588   3.500   3.514   7.727  0.0008 -1.6364 -0.9891
 4984SOL    HW226589   3.377   3.461   7.670 -0.5586  1.5897 -0.6802
 4985SOL     OW26590   3.504   0.951  14.438  0.3889  0.2713 -0.8248
 4985SOL    HW126591   3.554   1.033  14.441  0.1129  0.4495 -1.2156
 4985SOL    HW226592   3.413   0.975  14.453  0.1401 -1.5228  0.5479
 4986SOL     OW26593   2.891   3.400   0.641  0.3700  0.0722 -0.2528
 4986SOL    HW126594   2.885   3.416   0.735 -1.2687  2.0706 -0.6990
 4986SOL    HW226595   2.977   3.441   0.629  1.2277 -1.6577  0.0715
 4987SOL     OW26596   0.530   0.515   9.659 -0.2687 -0.1500  0.5819
 4987SOL    HW126597   0.489   0.499   9.744  0.5337 -0.8161  0.8418
 4987SOL    HW226598   0.497   0.441   9.608 -3.0953  2.2832 -1.1494
 4988SOL     OW26599   2.885   2.814   7.589  0.1959 -0.1846  0.0943
 4988SOL    HW126600   2.881   2.752   7.661  3.6719 -0.4638  0.0167
 4988SOL    HW226601   2.863   2.895   7.636  1.4652 -0.3284  0.9224
 4989SOL     OW26602   2.274   1.098   8.516  0.6670  0.2110  0.2950
 4989SOL    HW126603   2.292   1.135   8.602 -0.6446 -1.9964  1.5227
 4989SOL    HW226604   2.197   1.151   8.494 -0.4390 -0.9587  1.3022
 4990SOL     OW26605   3.506   4.015   7.826  0.5029 -0.5439 -0.4127
 4990SOL    HW126606   3.529   4.020   7.734 -1.1730  2.7612 -0.6505
 4990SOL    HW226607   3.475   3.926   7.846 -0.2875  0.5459  3.2298
 4991SOL     OW26608   3.377   1.801  13.322 -0.0001 -0.1660 -0.3645
 4991SOL    HW126609   3.465   1.765  13.332  0.1999  0.1972 -0.8444
 4991SOL    HW226610   3.330   1.772  13.400  1.6744 -0.6866  0.4547
 4992SOL     OW26611   4.310   4.475   7.331 -0.6720  0.2188 -0.2732
 4992SOL    HW126612   4.297   4.390   7.289 -1.6692  0.3082 -0.1380
 4992SOL    HW226613   4.338   4.433   7.412  1.0503  2.9041  0.5114
 4993SOL     OW26614   2.056   2.438   8.133 -0.1454 -0.3364 -0.2521
 4993SOL    HW126615   2.116   2.488   8.188 -0.5072  0.1651 -0.3097
 4993SOL    HW226616   2.062   2.362   8.192  2.1392  0.8369  1.0194
 4994SOL     OW26617   2.862   1.053   4.403  0.6646 -0.7326  0.1665
 4994SOL    HW126618   2.816   0.971   4.387  0.9384 -0.9172  0.3190
 4994SOL    HW226619   2.953   1.031   4.424  0.5718 -1.2386  0.0468
 4995SOL     OW26620   4.541   2.626   5.930 -0.0455 -0.9781 -0.2254
 4995SOL    HW126621   4.533   2.609   6.024  0.6030  0.4188  0.0730
 4995SOL    HW226622   4.456   2.592   5.900 -0.6293 -1.0040  1.4584
 4996SOL     OW26623   3.416   2.123   3.052 -0.6389  0.0408  0.0767
 4996SOL    HW126624   3.488   2.184   3.036 -0.6161  0.4820  1.8993
 4996SOL    HW226625   3.431   2.110   3.145  0.9171  3.5209  0.3222
 4997SOL     OW26626   1.787   0.698   8.001 -0.0034  0.8067  0.2410
 4997SOL    HW126627   1.728   0.694   7.925 -0.1416  1.9656  0.2837
 4997SOL    HW226628   1.797   0.793   8.010  1.2606  0.5530  1.5226
 4998SOL     OW26629   1.428   0.982   1.465 -0.5830  0.1027 -0.1244
 4998SOL    HW126630   1.401   1.034   1.540 -0.8080  0.2693 -0.3201
 4998SOL    HW226631   1.459   1.049   1.403 -2.1670 -0.9007 -2.0123
 4999SOL     OW26632   2.291   0.510   9.122 -0.3158  0.1223 -0.2055
 4999SOL    HW126633   2.299   0.495   9.027  2.0549  0.4858 -0.0645
 4999SOL    HW226634   2.260   0.424   9.150 -0.3584  1.1116  2.7742
 5000SOL     OW26635   4.052   2.194  13.692 -0.6166 -0.1744 -0.2743
 5000SOL    HW126636   4.084   2.230  13.775 -0.5662 -0.4352 -0.1825
 5000SOL    HW226637   4.063   2.269  13.633  0.4457  1.2092  1.6910
 5001SOL     OW26638   1.139   0.697  15.856  0.4301 -0.5405 -0.0038
 5001SOL    HW126639   1.198   0.689  15.782  0.0978  3.2579 -0.6778
 5001SOL    HW226640   1.118   0.791  15.857 -0.1950 -0.6751 -0.0943
 5002SOL     OW26641   0.336   3.701  11.278 -0.4135  0.1088  0.3409
 5002SOL    HW126642   0.399   3.767  11.248 -0.2880  0.0920  0.5670
 5002SOL    HW226643   0.377   3.683  11.362 -0.9097  0.4641  0.6587
 5003SOL     OW26644   2.763   2.397   4.942  0.2535  0.3448  0.3079
 5003SOL    HW126645   2.784   2.446   5.021 -2.6199  0.6121  0.9197
 5003SOL    HW226646   2.723   2.465   4.888  2.5971  1.2221 -0.3298
 5004SOL     OW26647   1.227   1.898   8.660 -0.4645 -0.0804 -0.2156
 5004SOL    HW126648   1.304   1.856   8.698 -1.3306 -1.0344  0.4834
 5004SOL    HW226649   1.158   1.840   8.691  0.5215 -0.5698  1.0434
 5005SOL     OW26650   0.400   1.022  10.402 -0.3712 -0.6062  0.1678
 5005SOL    HW126651   0.360   0.949  10.355  1.6141 -0.5898 -1.5379
 5005SOL    HW226652   0.435   0.978  10.480 -0.9780  1.7984  1.8201
 5006SOL     OW26653   2.079   0.963  10.481 -0.0091 -0.3644  0.3147
 5006SOL    HW126654   1.999   1.015  10.490  1.5691  2.2467 -1.0875
 5006SOL    HW226655   2.108   0.970  10.572 -3.1414  1.6199  1.1756
 5007SOL     OW26656   3.747   2.925  17.412 -0.2174 -0.1145  0.5769
 5007SOL    HW126657   3.689   3.001  17.408 -0.6868 -0.6090 -1.8496
 5007SOL    HW226658   3.691   2.860  17.454 -1.7816  0.6735 -0.2850
 5008SOL     OW26659   1.740   2.253   4.424  0.1633  0.0364 -0.6018
 5008SOL    HW126660   1.677   2.295   4.365 -0.9991  1.9105  1.9213
 5008SOL    HW226661   1.781   2.188   4.368  0.0757 -1.2659  0.8437
 5009SOL     OW26662   3.310   2.080   8.905  0.2083  0.6171  0.2000
 5009SOL    HW126663   3.240   2.144   8.891  1.3698  2.0708  1.0014
 5009SOL    HW226664   3.299   2.066   8.999  1.2792  0.4719  0.3016
 5010SOL     OW26665   0.128   0.647   7.887  0.0412  0.6825 -0.0589
 5010SOL    HW126666   0.201   0.704   7.911  0.6235 -1.2975  2.8162
 5010SOL    HW226667   0.107   0.697   7.808 -1.8651  0.4486  0.2932
 5011SOL     OW26668   2.674   3.525   5.899 -0.0893 -0.9344 -0.5168
 5011SOL    HW126669   2.614   3.596   5.876 -0.4771 -1.7596 -2.1018
 5011SOL    HW226670   2.626   3.448   5.868  1.1956 -1.1107 -2.0998
 5012SOL     OW26671   3.149   0.469  13.318  0.4508 -0.3440  0.1039
 5012SOL    HW126672   3.196   0.387  13.337  0.4019 -0.4948 -0.4276
 5012SOL    HW226673   3.175   0.488  13.228  1.6894 -0.6088  0.4048
 5013SOL     OW26674   3.458   4.288   7.987  0.1868  0.0430 -0.2846
 5013SOL    HW126675   3.507   4.216   7.949 -3.0215 -0.5031 -3.3225
 5013SOL    HW226676   3.377   4.248   8.019  0.1039 -0.3890 -1.0647
 5014SOL     OW26677   4.269   3.521   6.838 -0.1173 -0.2181  0.0099
 5014SOL    HW126678   4.191   3.505   6.785  0.2443 -0.1478 -0.5419
 5014SOL    HW226679   4.239   3.599   6.884 -0.8032 -0.2358 -0.4054
 5015SOL     OW26680   4.076   4.398   8.749  0.3549 -0.1836 -0.4752
 5015SOL    HW126681   4.008   4.342   8.787 -0.9481  1.3422 -0.5480
 5015SOL    HW226682   4.154   4.351   8.779  0.5332  0.4640  0.0844
 5016SOL     OW26683   2.632   3.535   6.943 -0.2770 -0.1756 -0.4813
 5016SOL    HW126684   2.618   3.444   6.918 -1.5412  0.6119 -2.6728
 5016SOL    HW226685   2.703   3.525   7.006 -1.9691  1.3545  1.6456
 5017SOL     OW26686   1.506   3.025   2.070  0.6561 -0.0306  0.2626
 5017SOL    HW126687   1.435   2.987   2.122 -1.2215  2.6778 -0.3335
 5017SOL    HW226688   1.533   3.109   2.108  1.0915 -0.3351  0.6212
 5018SOL     OW26689   1.958   1.780   6.955 -0.1174 -0.2712 -0.2257
 5018SOL    HW126690   1.896   1.804   7.024 -0.3870  0.2395 -0.6465
 5018SOL    HW226691   2.041   1.779   7.002  1.3387  1.0699 -2.8021
 5019SOL     OW26692   3.110   3.429   6.567  0.4896  0.0948  0.0611
 5019SOL    HW126693   3.021   3.427   6.531  0.8588 -0.2353 -0.8430
 5019SOL    HW226694   3.146   3.495   6.509 -4.1078  2.3763 -0.2010
 5020SOL     OW26695   2.523   2.763   1.620 -0.3779 -0.4565  0.0985
 5020SOL    HW126696   2.550   2.677   1.653  2.1508 -0.1268 -1.0695
 5020SOL    HW226697   2.581   2.766   1.543 -0.1295  1.7190  0.3668
 5021SOL     OW26698   2.856   2.637   4.082 -0.6215 -0.3938 -0.4629
 5021SOL    HW126699   2.888   2.607   3.996 -0.6797  0.0415 -0.6349
 5021SOL    HW226700   2.901   2.721   4.084  0.4106 -0.8964 -2.0137
 5022SOL     OW26701   2.174   1.980   3.512  0.4577 -0.2452  0.3480
 5022SOL    HW126702   2.171   2.073   3.537  2.7771 -0.5600  1.8659
 5022SOL    HW226703   2.185   1.982   3.417 -1.3371 -0.6666  0.1327
 5023SOL     OW26704   1.688   2.139   9.700  0.3253  0.5618 -0.3655
 5023SOL    HW126705   1.704   2.218   9.752 -0.2665 -1.6327  3.1565
 5023SOL    HW226706   1.773   2.132   9.656  0.9493 -0.0414  0.9352
 5024SOL     OW26707   0.800   4.286   7.637  0.3412 -0.0065 -0.0695
 5024SOL    HW126708   0.721   4.339   7.653  1.0576  0.4175  2.0150
 5024SOL    HW226709   0.800   4.292   7.541  1.8973  0.9172 -0.0009
 5025SOL     OW26710   1.569   3.338   2.683  0.2616  0.1861 -0.1092
 5025SOL    HW126711   1.529   3.261   2.642 -1.6231  0.7988  0.5760
 5025SOL    HW226712   1.556   3.404   2.615 -2.7459 -0.1987  0.0839
 5026SOL     OW26713   3.435   1.529   4.604  0.3137 -0.4224  0.1581
 5026SOL    HW126714   3.527   1.507   4.617  0.5211  0.4776  0.1992
 5026SOL    HW226715   3.390   1.446   4.584  0.9640 -0.7755  0.1736
 5027SOL     OW26716   0.017   2.377   4.495 -0.3814  0.1301 -0.2460
 5027SOL    HW126717   4.714   2.312   4.554  0.7691  0.2519  0.6026
 5027SOL    HW226718   4.703   2.453   4.525 -1.3433 -0.9140  0.8308
 5028SOL     OW26719   0.461   0.980   6.944 -0.2037 -0.5868 -0.2937
 5028SOL    HW126720   0.487   1.062   6.985  0.2265 -1.5423  1.3347
 5028SOL    HW226721   0.388   0.947   6.997  0.9519  1.1034  2.3633
 5029SOL     OW26722   0.865   0.080   8.042  0.0346 -0.0341  0.0120
 5029SOL    HW126723   0.770   0.087   8.035  0.1095  0.6299 -0.3198
 5029SOL    HW226724   0.870   0.051   8.133  2.1314 -3.3497 -1.1323
 5030SOL     OW26725   3.137   2.558   4.477  0.3194 -0.2281 -0.1565
 5030SOL    HW126726   3.053   2.548   4.522  0.8589  0.3005  0.9746
 5030SOL    HW226727   3.171   2.603   4.554  2.2769 -0.1254 -1.0789
 5031SOL     OW26728   3.776   1.005   3.695  0.3971 -0.0399  0.7077
 5031SOL    HW126729   3.682   0.987   3.695  0.3356  0.2849  1.9274
 5031SOL    HW226730   3.798   0.913   3.705  2.1199 -0.0825 -3.6055
 5032SOL     OW26731   3.273   0.099  12.119  0.1755 -0.3118 -0.1785
 5032SOL    HW126732   3.224   0.080  12.199  0.8897  0.1040  0.3612
 5032SOL    HW226733   3.203   0.089  12.056  1.1871 -0.9664 -1.1931
 5033SOL     OW26734   2.884   3.655   6.665  0.0545  0.0159  0.5687
 5033SOL    HW126735   2.808   3.601   6.642  1.7660 -3.4090  2.8597
 5033SOL    HW226736   2.902   3.680   6.574 -0.4333  1.4260  0.8740
 5034SOL     OW26737   1.323   4.120   8.306 -0.0441 -0.3677 -0.5162
 5034SOL    HW126738   1.344   4.097   8.397  1.4965  0.8393 -0.5808
 5034SOL    HW226739   1.348   4.212   8.314 -0.9516 -0.1784  0.1389
 5035SOL     OW26740   3.208   3.097   4.073  0.2360 -0.1502  0.2283
 5035SOL    HW126741   3.300   3.104   4.097  0.4785 -1.8037 -0.1780
 5035SOL    HW226742   3.170   3.097   4.161  2.3000 -0.4649  1.1094
 5036SOL     OW26743   2.487   3.070   7.440  0.6203 -0.3147  0.6000
 5036SOL    HW126744   2.533   2.986   7.437  0.8866 -0.0769 -1.8299
 5036SOL    HW226745   2.470   3.101   7.351  2.6378 -0.5515  0.1101
 5037SOL     OW26746   1.276   0.472   1.548 -0.3200 -0.3905 -0.8503
 5037SOL    HW126747   1.197   0.474   1.602  2.3128 -2.1951  3.1005
 5037SOL    HW226748   1.291   0.566   1.545 -0.1252 -0.3594  1.1517
 5038SOL     OW26749   2.358   4.212   4.246  0.2189 -0.1114  0.0090
 5038SOL    HW126750   2.332   4.125   4.276 -3.1863  0.6074 -0.8810
 5038SOL    HW226751   2.447   4.194   4.214  1.2307  4.3990  0.2947
 5039SOL     OW26752   3.405   0.357   4.599 -0.4671  0.0320  0.0073
 5039SOL    HW126753   3.496   0.363   4.568 -0.6190 -0.3411 -0.5142
 5039SOL    HW226754   3.358   0.398   4.526 -1.6699  0.0110  0.7633
 5040SOL     OW26755   3.754   1.350   7.979 -1.0078  0.0957 -0.3433
 5040SOL    HW126756   3.760   1.439   8.014  1.1604  0.3712 -1.4390
 5040SOL    HW226757   3.699   1.366   7.902 -1.3603 -1.3011 -0.3804
 5041SOL     OW26758   2.931   0.526  12.224 -0.2511 -0.1657 -0.3528
 5041SOL    HW126759   2.941   0.434  12.202  0.8725  0.1998 -1.4127
 5041SOL    HW226760   2.999   0.548  12.288 -0.5290  0.5331 -0.2993
 5042SOL     OW26761   3.890   3.798  14.768 -0.2223  0.2862 -0.6188
 5042SOL    HW126762   3.904   3.810  14.862  1.8477 -1.5274 -0.6932
 5042SOL    HW226763   3.975   3.821  14.730  0.0712 -1.5169 -1.0169
 5043SOL     OW26764   0.016   2.155   8.893  0.5558 -0.4699  0.7497
 5043SOL    HW126765   0.009   2.060   8.883 -2.6083 -0.3197  1.4891
 5043SOL    HW226766   4.679   2.167   8.955 -0.6556  0.8393 -0.8800
 5044SOL     OW26767   1.823   4.618   1.959  0.0021 -0.0250  0.2074
 5044SOL    HW126768   1.915   4.637   1.942  0.1662 -0.2050  0.8727
 5044SOL    HW226769   1.797   4.687   2.021 -0.4056 -0.2944  0.3345
 5045SOL     OW26770   1.337   3.324  11.077  0.3457 -0.9138  0.1001
 5045SOL    HW126771   1.414   3.305  11.131  1.9051  1.9519 -1.1089
 5045SOL    HW226772   1.306   3.235  11.063  0.9103 -0.9774 -0.7497
 5046SOL     OW26773   4.082   4.370   5.125 -0.1332 -0.1446 -0.5996
 5046SOL    HW126774   4.038   4.365   5.041  0.3971  1.8896 -1.0005
 5046SOL    HW226775   4.086   4.466   5.124 -0.4075 -0.1298  0.0499
 5047SOL     OW26776   4.659   2.851   9.478  0.3457  0.3803 -0.0037
 5047SOL    HW126777   4.574   2.832   9.517 -1.1562  2.8341 -2.0168
 5047SOL    HW226778   4.697   2.763   9.479  0.3022  0.3716  0.8490
 5048SOL     OW26779   0.659   2.897  12.185 -0.3822 -0.6518 -0.5923
 5048SOL    HW126780   0.619   2.817  12.219 -0.5783 -0.1403  0.3777
 5048SOL    HW226781   0.611   2.961  12.236  0.2931 -0.0571 -0.7008
 5049SOL     OW26782   3.726   4.587  12.348 -0.5363  0.0439  0.6248
 5049SOL    HW126783   3.636   4.598  12.318 -0.9134  1.2874  2.2535
 5049SOL    HW226784   3.776   4.624  12.275  0.1834  0.0447  1.1265
 5050SOL     OW26785   4.017   4.684   5.837 -0.6567  0.1030  0.0058
 5050SOL    HW126786   3.997   4.692   5.930 -0.2990  0.1541  0.0777
 5050SOL    HW226787   4.106   4.649   5.836  0.0596  1.9498  0.7439
 5051SOL     OW26788   0.910   0.497   6.602  0.1860  0.3317  0.0927
 5051SOL    HW126789   0.881   0.438   6.532  1.6018  0.5703 -0.6973
 5051SOL    HW226790   0.987   0.450   6.634  0.3896 -0.2361 -1.2122
 5052SOL     OW26791   2.514   0.014   9.812 -0.2368 -0.2380 -0.6652
 5052SOL    HW126792   2.482   0.039   9.898  0.9364  1.0420 -0.6003
 5052SOL    HW226793   2.428   0.004   9.771 -0.9496  0.9244  0.5826
 5053SOL     OW26794   1.789   0.427   4.120  0.4078 -0.0487 -0.1445
 5053SOL    HW126795   1.764   0.518   4.102 -0.6279 -0.5994 -1.5379
 5053SOL    HW226796   1.758   0.385   4.040 -0.6656 -0.0832  0.2771
 5054SOL     OW26797   4.277   4.626   5.834  0.1912  0.2280  0.0079
 5054SOL    HW126798   4.360   4.626   5.882  1.9765  1.3876 -3.1593
 5054SOL    HW226799   4.304   4.570   5.762  2.8797  0.9821  0.4414
 5055SOL     OW26800   2.215   2.571   8.283 -0.3072 -0.0683 -0.4264
 5055SOL    HW126801   2.195   2.561   8.376  2.3987 -1.3684  0.0052
 5055SOL    HW226802   2.287   2.635   8.284  0.4149 -0.8906  1.1738
 5056SOL     OW26803   1.407   3.808   7.231  0.1358 -0.4395  0.2473
 5056SOL    HW126804   1.409   3.903   7.215 -1.6134 -0.5026 -0.2929
 5056SOL    HW226805   1.496   3.787   7.259  1.2463  2.8461 -0.8483
 5057SOL     OW26806   4.490   2.032   3.392 -0.1670  0.1757 -0.1510
 5057SOL    HW126807   4.574   2.076   3.403  0.1698 -0.1735 -1.2657
 5057SOL    HW226808   4.507   1.971   3.319 -1.6876 -1.7852  1.1143
 5058SOL     OW26809   0.844   1.270   7.422 -0.0214  0.2200 -0.4138
 5058SOL    HW126810   0.843   1.329   7.497  1.6944 -0.1340 -0.1091
 5058SOL    HW226811   0.780   1.201   7.441 -1.7804  1.6911 -1.0708
 5059SOL     OW26812   3.162   0.110   9.968 -0.0564 -0.3700 -0.0874
 5059SOL    HW126813   3.164   0.048  10.041  0.8384  1.6076  1.6088
 5059SOL    HW226814   3.072   0.134   9.991 -1.1271 -1.6331 -3.1063
 5060SOL     OW26815   1.666   3.445   5.808 -0.2205 -0.3849 -0.4274
 5060SOL    HW126816   1.658   3.366   5.861  0.8137 -1.4861 -1.9093
 5060SOL    HW226817   1.604   3.415   5.742  1.7749 -0.1390 -2.4010
 5061SOL     OW26818   2.319   2.221   7.642  0.2839  0.3763 -0.5575
 5061SOL    HW126819   2.338   2.268   7.561 -2.1560  0.7036 -0.9269
 5061SOL    HW226820   2.408   2.222   7.676 -0.8875  0.7720  2.4832
 5062SOL     OW26821   1.790   0.125   8.733  0.2251  0.0198 -0.3327
 5062SOL    HW126822   1.793   0.183   8.656  4.6453  0.1479 -0.0779
 5062SOL    HW226823   1.735   0.050   8.710  0.8900 -0.1272 -1.4599
 5063SOL     OW26824   2.694   1.500  13.121  0.0784  0.0488  0.0895
 5063SOL    HW126825   2.726   1.587  13.099 -1.6462  0.5631 -0.3873
 5063SOL    HW226826   2.724   1.480  13.210  0.8304  2.1050  0.3080
 5064SOL     OW26827   3.230   1.149   3.468  0.2026 -0.2298 -0.5942
 5064SOL    HW126828   3.232   1.058   3.439 -0.5998 -0.5944  0.5018
 5064SOL    HW226829   3.248   1.196   3.387 -0.5419 -0.1544 -0.7124
 5065SOL     OW26830   4.508   4.634   5.973  0.4375 -0.5495  0.2857
 5065SOL    HW126831   4.570   4.572   5.934  2.0477  2.1592 -1.4081
 5065SOL    HW226832   4.499   4.604   6.064  0.7971 -1.0696  0.1520
 5066SOL     OW26833   4.263   1.247   1.045  0.0959  0.4416 -0.5392
 5066SOL    HW126834   4.304   1.319   1.092 -1.0319  0.0571  1.0187
 5066SOL    HW226835   4.248   1.189   1.119 -1.1496 -0.1733 -1.2678
 5067SOL     OW26836   2.535   3.059   6.777 -0.1851  0.1222 -0.5587
 5067SOL    HW126837   2.565   2.981   6.823 -1.1817 -0.7870 -1.4205
 5067SOL    HW226838   2.445   3.027   6.767  0.8180 -3.0945  0.9645
 5068SOL     OW26839   1.427   3.168   5.673  0.4991  0.1068  0.1151
 5068SOL    HW126840   1.335   3.142   5.678  0.8957 -1.6559 -2.0666
 5068SOL    HW226841   1.436   3.204   5.585  0.3516 -1.4517 -0.5378
 5069SOL     OW26842   0.375   0.862   9.024 -0.2477 -0.1629 -0.1321
 5069SOL    HW126843   0.354   0.774   9.056  0.6754 -0.6374 -0.8451
 5069SOL    HW226844   0.391   0.899   9.111  2.4875 -0.6046 -0.4695
 5070SOL     OW26845   1.707   4.623   7.459 -0.0285  0.1803  0.0644
 5070SOL    HW126846   1.678   4.632   7.368  0.4415  1.1019  0.0068
 5070SOL    HW226847   1.648   4.558   7.495 -0.3712  0.8613  0.7320
 5071SOL     OW26848   3.242   1.332   5.649  0.3252 -0.0665 -0.6170
 5071SOL    HW126849   3.281   1.371   5.571 -0.2027 -0.5127 -1.0996
 5071SOL    HW226850   3.312   1.269   5.669  0.2591  0.1044  0.1726
 5072SOL     OW26851   0.455   2.213  11.468 -0.3761  0.0052 -0.0282
 5072SOL    HW126852   0.439   2.170  11.552  2.3279  0.2153  0.6025
 5072SOL    HW226853   0.376   2.267  11.472  0.1639  0.7079  1.1933
 5073SOL     OW26854   3.382   1.744   6.690 -0.3676 -0.1133  0.0941
 5073SOL    HW126855   3.296   1.745   6.649 -1.1226 -1.4611  1.6612
 5073SOL    HW226856   3.353   1.796   6.765  0.5171 -0.2751  0.5507
 5074SOL     OW26857   4.217   0.314   6.703 -0.6336 -0.3216  0.2716
 5074SOL    HW126858   4.125   0.341   6.698 -0.6215 -0.1297  1.1705
 5074SOL    HW226859   4.218   0.294   6.797 -2.5320 -1.2856  0.0949
 5075SOL     OW26860   2.511   1.209   2.535 -0.3365  0.0932  0.5010
 5075SOL    HW126861   2.426   1.219   2.577  0.1961 -0.0047  1.6175
 5075SOL    HW226862   2.550   1.136   2.584  1.7458  1.0190  0.2004
 5076SOL     OW26863   3.563   3.426   9.165  0.0542 -0.5268 -0.6649
 5076SOL    HW126864   3.506   3.423   9.088  3.3780  0.7426 -3.1719
 5076SOL    HW226865   3.496   3.428   9.234 -3.0748  0.0827 -3.7093
 5077SOL     OW26866   3.042   1.894  17.556  0.4487  0.4693 -0.6402
 5077SOL    HW126867   3.047   1.832  17.484  0.4646 -0.1385 -0.1092
 5077SOL    HW226868   2.976   1.954  17.520  1.3779  1.7351 -0.2279
 5078SOL     OW26869   4.572   2.148  13.155 -0.7690 -0.4669 -0.5356
 5078SOL    HW126870   4.644   2.096  13.191  1.1371  1.7517 -1.1436
 5078SOL    HW226871   4.626   2.204  13.099 -1.4779  0.7031 -0.0509
 5079SOL     OW26872   0.058   3.479   7.912  0.0761  0.1697 -0.1433
 5079SOL    HW126873   0.113   3.500   7.988 -1.3838 -0.2233  1.0246
 5079SOL    HW226874   0.123   3.466   7.843 -1.2522 -1.3300 -1.1225
 5080SOL     OW26875   1.035   0.193   5.906  0.0976 -0.1565  0.3785
 5080SOL    HW126876   1.037   0.209   5.812  1.6265 -2.7409 -0.0471
 5080SOL    HW226877   1.040   0.097   5.900 -0.2457 -0.0195 -1.8201
 5081SOL     OW26878   4.260   4.426   1.974  0.0901 -0.3621  0.0175
 5081SOL    HW126879   4.321   4.356   1.949  0.3426 -0.6753  1.5268
 5081SOL    HW226880   4.188   4.377   2.013 -0.3351  0.0932 -0.1907
 5082SOL     OW26881   2.693   2.903   0.489 -0.1260  0.2892 -0.2267
 5082SOL    HW126882   2.772   2.939   0.529 -0.3410  1.4671 -0.8909
 5082SOL    HW226883   2.641   2.889   0.569 -2.0922 -0.7410 -1.6715
 5083SOL     OW26884   1.046   1.539   6.842 -0.7758 -0.3440  0.1932
 5083SOL    HW126885   1.113   1.534   6.774  0.0513 -3.0277  1.2122
 5083SOL    HW226886   0.975   1.501   6.790 -0.5931 -0.8884  0.3322
 5084SOL     OW26887   2.920   3.926  16.664 -0.0958  0.2912 -0.9033
 5084SOL    HW126888   2.975   3.960  16.593  1.2000  0.4591  0.1839
 5084SOL    HW226889   2.862   4.002  16.666 -0.0930  0.2620  0.6617
 5085SOL     OW26890   3.785   1.118  15.988  0.4957 -0.2883  0.2412
 5085SOL    HW126891   3.708   1.174  16.000 -0.9693 -2.1162 -0.6004
 5085SOL    HW226892   3.843   1.181  15.945  0.2549 -0.0047  0.3288
 5086SOL     OW26893   2.710   4.595   9.714  0.1318 -0.3857  0.2987
 5086SOL    HW126894   2.636   4.653   9.732 -0.5543 -0.6184 -1.7653
 5086SOL    HW226895   2.778   4.646   9.671  0.7486 -1.0195  0.5240
 5087SOL     OW26896   2.449   2.294   3.895  0.3579  1.1542  0.1813
 5087SOL    HW126897   2.534   2.251   3.905  0.3606  1.2305  0.4797
 5087SOL    HW226898   2.448   2.342   3.978 -1.0427  1.3274  0.0563
 5088SOL     OW26899   1.393   2.550   8.373  0.8098  0.1694  0.5303
 5088SOL    HW126900   1.447   2.611   8.323 -0.0260  1.5208  1.2628
 5088SOL    HW226901   1.427   2.578   8.458  0.2688 -1.8507  1.4231
 5089SOL     OW26902   1.418   2.133  16.160 -0.1374 -0.3752 -0.0314
 5089SOL    HW126903   1.464   2.216  16.171  0.1396 -0.3129 -1.7021
 5089SOL    HW226904   1.482   2.072  16.197 -1.9257 -2.2833 -0.0238
 5090SOL     OW26905   2.463   0.525   3.924  0.8253 -0.0426  0.1228
 5090SOL    HW126906   2.389   0.519   3.864 -1.2185 -0.1631  2.6556
 5090SOL    HW226907   2.433   0.572   4.002 -0.2717  0.8457 -0.8252
 5091SOL     OW26908   1.401   2.919   9.428 -0.2175  0.1084  0.3905
 5091SOL    HW126909   1.390   2.958   9.515  0.9963  0.8620  0.2089
 5091SOL    HW226910   1.429   2.831   9.453  0.1467 -0.7193 -3.0350
 5092SOL     OW26911   0.875   1.232  17.289 -0.1675  0.0691 -0.3099
 5092SOL    HW126912   0.959   1.197  17.257  0.0357  1.2746 -1.1089
 5092SOL    HW226913   0.830   1.249  17.206  1.2699 -0.0491 -1.1143
 5093SOL     OW26914   2.715   4.322   3.976 -0.2280  0.4095 -0.0394
 5093SOL    HW126915   2.696   4.322   3.882 -1.2703  0.1367  0.1699
 5093SOL    HW226916   2.773   4.394   3.997  0.2458 -0.1675  0.6145
 5094SOL     OW26917   0.626   0.992   7.700 -0.2923 -0.3179  0.3533
 5094SOL    HW126918   0.582   0.939   7.766 -0.0707 -2.0292 -0.8899
 5094SOL    HW226919   0.684   1.039   7.762 -0.4097 -2.0286  1.7557
 5095SOL     OW26920   1.692   2.053   4.641 -0.5447  0.1615  0.7454
 5095SOL    HW126921   1.767   2.106   4.614 -1.3404 -0.0141 -1.7327
 5095SOL    HW226922   1.611   2.104   4.643 -1.3660 -1.1560  0.7620
 5096SOL     OW26923   0.951   1.279   1.070 -0.1672  0.4223  0.1105
 5096SOL    HW126924   0.907   1.214   1.015  1.5064 -0.8033  0.2467
 5096SOL    HW226925   0.976   1.217   1.138  1.7916  2.3961  1.1792
 5097SOL     OW26926   2.089   1.077   5.815  0.5071  0.6973 -0.3239
 5097SOL    HW126927   2.046   1.005   5.769  2.0951 -0.4673 -0.0042
 5097SOL    HW226928   2.045   1.081   5.900  1.6055 -3.7861  0.4842
 5098SOL     OW26929   0.424   2.052   7.953  0.4616  0.6524 -0.3508
 5098SOL    HW126930   0.366   2.084   8.022 -0.5026  2.1128 -1.8507
 5098SOL    HW226931   0.415   1.957   7.965 -2.0332  0.8938 -0.3445
 5099SOL     OW26932   0.625   1.063   6.005 -0.8087 -0.0908  0.3811
 5099SOL    HW126933   0.606   1.079   5.913  0.0180 -0.9551  0.0661
 5099SOL    HW226934   0.537   1.068   6.042 -0.9266 -0.6046  0.1612
 5100SOL     OW26935   2.787   3.022   7.212  0.0147 -0.0464 -0.4872
 5100SOL    HW126936   2.710   2.967   7.222  0.1118 -0.0468  0.3167
 5100SOL    HW226937   2.813   3.021   7.120  3.6724 -1.9625  0.5555
 5101SOL     OW26938   4.396   1.298  11.948 -0.0355  0.3513 -0.1969
 5101SOL    HW126939   4.334   1.307  12.021  0.0596 -1.3318  0.0901
 5101SOL    HW226940   4.469   1.265  12.000 -0.8122  1.2645  1.5141
 5102SOL     OW26941   1.399   0.158   2.867  0.4280  0.4576 -0.2047
 5102SOL    HW126942   1.304   0.164   2.878  0.3933 -3.9714  1.8246
 5102SOL    HW226943   1.395   0.128   2.777  2.7843 -0.1236 -0.1347
 5103SOL     OW26944   0.203   0.479   3.595 -0.4637  0.6035 -0.4131
 5103SOL    HW126945   0.281   0.512   3.639 -1.7581  0.7598  1.7623
 5103SOL    HW226946   0.140   0.483   3.667 -0.6855 -0.1900 -0.5691
 5104SOL     OW26947   4.688   0.701  15.645  0.0540 -0.5182  0.2534
 5104SOL    HW126948   4.723   0.789  15.657 -0.3668 -0.2192 -0.7703
 5104SOL    HW226949   4.635   0.692  15.725  1.0867 -1.0464  0.8731
 5105SOL     OW26950   2.328   1.752  11.075  0.0172 -0.3260 -0.0262
 5105SOL    HW126951   2.303   1.681  11.134  0.9266 -0.2846  0.4136
 5105SOL    HW226952   2.282   1.732  10.993 -2.4970  1.3847  0.9936
 5106SOL     OW26953   2.936   2.466   7.515  0.3878  0.0210  0.0217
 5106SOL    HW126954   2.930   2.482   7.421  2.0193 -0.3797 -0.1497
 5106SOL    HW226955   3.020   2.510   7.530  0.2864  0.8370 -1.7998
 5107SOL     OW26956   3.279   1.765   7.455 -0.2867 -0.3410  0.2972
 5107SOL    HW126957   3.193   1.752   7.417 -0.2745  3.3308 -0.9923
 5107SOL    HW226958   3.268   1.843   7.510  1.8732  0.8962 -1.0358
 5108SOL     OW26959   4.572   1.866   7.655  0.6707  0.3694 -0.0162
 5108SOL    HW126960   4.623   1.887   7.577  0.2738  3.3298  0.5155
 5108SOL    HW226961   4.645   1.876   7.715 -1.3437 -0.3865  2.5388
 5109SOL     OW26962   2.080   2.636   5.847  0.4481 -0.6411 -0.0888
 5109SOL    HW126963   2.144   2.627   5.777  1.0366  0.1195  0.3480
 5109SOL    HW226964   2.131   2.688   5.909 -2.3732  0.7542  1.0759
 5110SOL     OW26965   0.876   4.430   2.668  0.3961  0.1774  0.0790
 5110SOL    HW126966   0.862   4.346   2.623 -2.2078  0.8169 -0.2906
 5110SOL    HW226967   0.967   4.438   2.638  0.9436 -4.2372  0.6069
 5111SOL     OW26968   2.971   3.345  17.488  0.4739  0.1812  0.1073
 5111SOL    HW126969   2.988   3.251  17.494 -0.0426  0.1689  1.5403
 5111SOL    HW226970   3.064   3.366  17.495  0.3909  0.6851 -0.3208
 5112SOL     OW26971   0.261   3.231  11.999  0.6333 -0.5080  0.4152
 5112SOL    HW126972   0.234   3.259  12.086 -3.7501 -0.4430 -0.9725
 5112SOL    HW226973   0.240   3.305  11.943  0.8778  1.6695  3.2072
 5113SOL     OW26974   3.155   4.189   4.553 -0.3316 -0.0635 -0.3338
 5113SOL    HW126975   3.141   4.095   4.565  1.6517 -0.4354 -0.9095
 5113SOL    HW226976   3.202   4.189   4.469  0.2102 -2.0814 -0.0476
 5114SOL     OW26977   3.255   3.635   8.955  0.4565 -0.3071  0.5412
 5114SOL    HW126978   3.274   3.589   9.037 -3.2323 -2.3489  0.2498
 5114SOL    HW226979   3.215   3.715   8.988  0.4935 -0.0867  0.0468
 5115SOL     OW26980   2.628   0.311   3.912 -0.3878  0.4960  0.0616
 5115SOL    HW126981   2.558   0.270   3.963  1.2345 -1.7421  0.4931
 5115SOL    HW226982   2.584   0.386   3.872  0.1011  2.2089  2.6848
 5116SOL     OW26983   3.501   2.851   6.528  0.4165 -0.2386 -0.2302
 5116SOL    HW126984   3.428   2.793   6.553  1.0535 -0.5649  0.8720
 5116SOL    HW226985   3.453   2.934   6.523  0.5386 -0.0811  1.1867
 5117SOL     OW26986   4.121   0.263   2.876  0.4348 -0.7831 -0.0161
 5117SOL    HW126987   4.105   0.171   2.854  0.9655 -0.7525 -0.5205
 5117SOL    HW226988   4.213   0.269   2.904 -0.1022  1.0867  1.3175
 5118SOL     OW26989   2.157   2.827   7.265  0.0896  0.2643 -0.1631
 5118SOL    HW126990   2.226   2.821   7.331  1.0162  2.7729 -0.9249
 5118SOL    HW226991   2.201   2.880   7.198  0.9593 -0.1480  0.0764
 5119SOL     OW26992   4.646   4.144   5.317  0.2648  0.0823 -0.7611
 5119SOL    HW126993   4.657   4.131   5.223 -0.4241 -1.2801 -0.6534
 5119SOL    HW226994   4.599   4.062   5.333 -1.9438  1.3911 -0.5243
 5120SOL     OW26995   1.002   4.081   5.076 -0.0374  0.3553 -0.2768
 5120SOL    HW126996   0.935   4.052   5.138 -1.8983 -1.3287 -3.0435
 5120SOL    HW226997   0.972   4.170   5.060 -2.9563 -0.7339 -0.8778
 5121SOL     OW26998   2.528   0.068   6.444  0.1753 -1.0207  0.9317
 5121SOL    HW126999   2.531   4.720   6.493 -0.3320 -0.0507  2.6227
 5121SOL    HW227000   2.570   0.049   6.361 -0.8839 -1.7421  0.5738
 5122SOL     OW27001   3.495   0.193  10.452 -0.1856 -0.1363  0.1242
 5122SOL    HW127002   3.469   0.249  10.379  0.3002  0.2202  0.2204
 5122SOL    HW227003   3.444   0.234  10.522 -0.5109  3.8210 -2.4417
 5123SOL     OW27004   1.123   0.794   1.962  0.0079 -0.0903  0.3744
 5123SOL    HW127005   1.049   0.852   1.946  0.8113  0.7239 -0.3962
 5123SOL    HW227006   1.076   0.718   1.929 -1.5009  1.3731 -0.8411
 5124SOL     OW27007   1.219   3.227   7.418 -0.0371 -0.7604  0.2241
 5124SOL    HW127008   1.267   3.244   7.499 -1.0697  2.3335  0.2279
 5124SOL    HW227009   1.162   3.152   7.435  0.2832 -0.9358  0.5231
 5125SOL     OW27010   3.859   2.476   5.335  0.4042 -0.2643  0.3931
 5125SOL    HW127011   3.804   2.555   5.338  0.5200 -0.1901  0.5761
 5125SOL    HW227012   3.802   2.400   5.328  0.7898 -0.4677 -0.5388
 5126SOL     OW27013   3.572   0.881  12.575 -0.1784  0.3677 -0.0172
 5126SOL    HW127014   3.496   0.928  12.540 -1.0114  0.5513  2.0460
 5126SOL    HW227015   3.532   0.821  12.638  1.1293  0.5960  1.0374
 5127SOL     OW27016   3.243   1.243  14.831 -0.1193  0.3503 -0.4604
 5127SOL    HW127017   3.299   1.321  14.837 -1.5848  1.5172 -1.8284
 5127SOL    HW227018   3.293   1.189  14.771  0.3065  2.2151 -1.7819
 5128SOL     OW27019   4.557   0.881   4.645  0.0293 -0.1767 -0.2204
 5128SOL    HW127020   4.528   0.791   4.662 -1.4957  1.2785  4.8294
 5128SOL    HW227021   4.491   0.942   4.676  0.7166  0.3765  0.1492
 5129SOL     OW27022   2.676   2.038   2.651  0.0333 -0.4352  0.4345
 5129SOL    HW127023   2.675   1.950   2.614  0.5682  0.4751 -1.8068
 5129SOL    HW227024   2.613   2.089   2.599  2.5729  2.0860 -0.2202
 5130SOL     OW27025   0.127   0.683  16.852 -0.6320 -0.3264  0.4031
 5130SOL    HW127026   0.109   0.695  16.945 -0.3903 -3.7510  0.8994
 5130SOL    HW227027   0.123   0.589  16.837 -1.3561  0.1168 -2.2084
 5131SOL     OW27028   4.280   0.197   4.563 -0.0738  0.5504 -0.3894
 5131SOL    HW127029   4.224   0.139   4.511  1.1921 -0.1378 -0.9973
 5131SOL    HW227030   4.339   0.233   4.497  3.3287 -2.4537  0.9786
 5132SOL     OW27031   1.122   2.216   0.781 -0.1332 -0.1157 -0.7536
 5132SOL    HW127032   1.189   2.179   0.723 -1.9091 -1.5673 -1.8778
 5132SOL    HW227033   1.107   2.301   0.740 -2.3560 -0.7054 -1.1958
 5133SOL     OW27034   0.521   4.096  17.283  0.0700  0.2411 -0.8145
 5133SOL    HW127035   0.577   4.136  17.216  0.7279  1.8261  0.6626
 5133SOL    HW227036   0.520   4.012  17.238 -1.2757 -1.8026  2.9946
 5134SOL     OW27037   0.622   3.879   7.565 -0.3374 -0.5453 -0.0329
 5134SOL    HW127038   0.593   3.966   7.594 -3.1725 -1.6025  0.3441
 5134SOL    HW227039   0.598   3.833   7.646  1.0113  1.2777  1.4264
 5135SOL     OW27040   4.676   3.813   9.140 -0.7582 -0.6073  0.3218
 5135SOL    HW127041   4.615   3.740   9.153 -0.8124 -0.6938 -0.4354
 5135SOL    HW227042   0.017   3.759   9.117 -0.9322  0.0017 -1.6127
 5136SOL     OW27043   2.589   0.904   7.082 -0.4373 -0.2828 -0.5967
 5136SOL    HW127044   2.599   0.975   7.018 -2.6682  0.0773 -0.5463
 5136SOL    HW227045   2.533   0.951   7.143 -1.4344 -1.3164 -0.7254
 5137SOL     OW27046   1.300   2.299   4.362  0.0730  0.1362  0.3008
 5137SOL    HW127047   1.320   2.205   4.369  0.7687  0.2345 -0.3275
 5137SOL    HW227048   1.210   2.296   4.331 -0.0323 -1.2135  0.7488
 5138SOL     OW27049   3.607   3.722  12.135  0.2402 -0.3662  0.0963
 5138SOL    HW127050   3.661   3.707  12.213 -0.5965 -0.2069  0.7113
 5138SOL    HW227051   3.575   3.633  12.124  0.3793 -0.0366 -2.8563
 5139SOL     OW27052   4.332   1.579   8.537  0.2343  0.3541 -0.4508
 5139SOL    HW127053   4.344   1.558   8.445  1.5717  1.6758 -0.5702
 5139SOL    HW227054   4.317   1.673   8.537  0.9438  0.4685  0.5009
 5140SOL     OW27055   1.611   1.066  15.779 -0.4135 -0.2166 -0.9269
 5140SOL    HW127056   1.620   1.090  15.687 -0.9265  0.4580 -0.7955
 5140SOL    HW227057   1.696   1.078  15.821 -0.1087 -0.7836 -1.3779
 5141SOL     OW27058   2.344   2.590   3.911 -0.0786 -0.4524 -0.4376
 5141SOL    HW127059   2.347   2.579   4.006  0.1925 -0.1827 -0.4163
 5141SOL    HW227060   2.341   2.497   3.888  2.0831 -0.1347 -2.0834
 5142SOL     OW27061   1.535   0.829   2.310 -0.3591 -0.1406 -0.1891
 5142SOL    HW127062   1.496   0.912   2.339 -2.2357 -1.8130  1.9630
 5142SOL    HW227063   1.575   0.802   2.393 -1.2213 -3.2985 -0.8146
 5143SOL     OW27064   0.034   0.317   6.012  0.1906  0.6707  0.2436
 5143SOL    HW127065   4.679   0.290   5.991  0.1062  1.7586 -0.7871
 5143SOL    HW227066   0.077   0.232   6.004  1.2648  1.0851  1.7794
 5144SOL     OW27067   1.184   2.313   7.110  0.5626  0.1226 -0.4071
 5144SOL    HW127068   1.175   2.314   7.015  0.3838  0.1182 -0.3899
 5144SOL    HW227069   1.172   2.404   7.137  0.0103 -1.0401  3.3282
 5145SOL     OW27070   4.341   0.429  14.439 -0.2559  0.4933  0.1217
 5145SOL    HW127071   4.332   0.466  14.527  0.6471  3.0990 -0.8894
 5145SOL    HW227072   4.436   0.438  14.430 -0.0355 -1.2455  0.6091
 5146SOL     OW27073   4.547   3.140  12.549 -0.1181 -0.8629  0.6364
 5146SOL    HW127074   4.601   3.169  12.623 -1.2674  1.1136  0.7035
 5146SOL    HW227075   4.466   3.119  12.596 -0.4685  2.7618  1.6454
 5147SOL     OW27076   1.877   3.471  11.305 -0.0007  0.2764  0.2892
 5147SOL    HW127077   1.860   3.426  11.222  3.9721  2.5222 -1.7260
 5147SOL    HW227078   1.959   3.515  11.282  1.3177 -1.9027  0.8176
 5148SOL     OW27079   0.984   3.155   7.697  0.2367 -0.0289  0.4728
 5148SOL    HW127080   1.022   3.080   7.743 -0.0237  1.2119  2.7206
 5148SOL    HW227081   0.904   3.171   7.747  0.0590 -1.1491  0.5445
 5149SOL     OW27082   1.642   2.098   7.332 -0.0197  0.2542  0.3700
 5149SOL    HW127083   1.642   2.147   7.250 -0.9688  0.2457  0.3693
 5149SOL    HW227084   1.577   2.156   7.372 -1.2942 -1.9447  1.4661
 5150SOL     OW27085   1.972   1.024  15.473 -0.1225  0.0550 -0.0280
 5150SOL    HW127086   1.924   1.089  15.421 -0.3092 -0.2922 -0.2827
 5150SOL    HW227087   1.964   1.067  15.558 -0.0627  0.2279 -0.1085
 5151SOL     OW27088   1.541   2.326   4.252  0.2900  0.1106 -0.0994
 5151SOL    HW127089   1.460   2.302   4.297 -0.6912 -1.1707 -2.5674
 5151SOL    HW227090   1.509   2.390   4.189 -2.6390 -0.0113  1.2642
 5152SOL     OW27091   2.192   1.306   1.402 -0.2430  0.3458  0.0264
 5152SOL    HW127092   2.201   1.250   1.479 -2.1471 -0.6757 -0.4981
 5152SOL    HW227093   2.103   1.280   1.377 -0.5810  1.5519 -0.0315
 5153SOL     OW27094   2.612   0.099   7.756 -0.3512  0.1527 -0.0868
 5153SOL    HW127095   2.698   0.070   7.724 -0.4738 -0.3361  0.0326
 5153SOL    HW227096   2.561   0.107   7.676 -1.2144  1.3763  0.5819
 5154SOL     OW27097   3.708   0.264  17.458  0.8835 -0.3277  0.1969
 5154SOL    HW127098   3.614   0.244  17.464  1.3546 -1.7197  2.8432
 5154SOL    HW227099   3.711   0.349  17.415  0.9470  0.1580  1.1514
 5155SOL     OW27100   1.942   0.847   4.788  0.0324  0.0804 -0.2704
 5155SOL    HW127101   1.848   0.867   4.788  0.1682  0.7302 -1.7128
 5155SOL    HW227102   1.964   0.879   4.875 -1.4871  2.0314 -0.5997
 5156SOL     OW27103   0.400   1.104   4.210 -0.2907  0.3268 -0.0948
 5156SOL    HW127104   0.318   1.144   4.179 -0.7927  0.7478  1.7825
 5156SOL    HW227105   0.395   1.113   4.305  1.6802 -0.4633  0.0820
 5157SOL     OW27106   0.944   0.756  13.223  0.1779  0.0413  0.5214
 5157SOL    HW127107   0.964   0.834  13.276 -0.3625  0.7099 -0.2526
 5157SOL    HW227108   0.885   0.790  13.156  1.6525  2.6145  0.5225
 5158SOL     OW27109   2.600   2.197  10.200 -0.2904  0.0637  0.2882
 5158SOL    HW127110   2.571   2.247  10.276 -2.1138  1.0942 -1.0886
 5158SOL    HW227111   2.605   2.109  10.238 -1.6433 -1.0650 -2.2074
 5159SOL     OW27112   4.094   0.177   2.545  0.2470  0.2697  0.2103
 5159SOL    HW127113   4.065   0.143   2.630 -0.2775 -0.3111 -0.1960
 5159SOL    HW227114   4.160   0.110   2.529  0.3376  0.1624  1.0247
 5160SOL     OW27115   0.488   3.854   2.658 -0.5895  0.6001 -0.7025
 5160SOL    HW127116   0.571   3.899   2.671  1.1615 -2.0206 -2.6353
 5160SOL    HW227117   0.479   3.856   2.562  0.4659  0.7445 -0.7998
 5161SOL     OW27118   3.739   4.623   4.493 -0.7598  0.2550  0.4348
 5161SOL    HW127119   3.690   4.673   4.428 -2.0057 -1.7240 -0.1444
 5161SOL    HW227120   3.824   4.614   4.450 -1.0261 -0.8424  0.1430
 5162SOL     OW27121   4.416   3.258   1.109  0.0890  0.2219  0.1696
 5162SOL    HW127122   4.376   3.292   1.189 -1.7029  0.3844 -0.7829
 5162SOL    HW227123   4.380   3.169   1.100 -1.2455  0.6788  0.8924
 5163SOL     OW27124   2.972   3.098   8.219  0.4774  0.0127 -0.0723
 5163SOL    HW127125   3.017   3.164   8.165 -0.5296  0.7887  0.0273
 5163SOL    HW227126   3.036   3.029   8.233  0.6067  0.2256  0.4017
 5164SOL     OW27127   2.126   1.760   2.678 -0.0758 -0.6465  0.2298
 5164SOL    HW127128   2.170   1.700   2.738 -1.1995  1.9472  3.6740
 5164SOL    HW227129   2.100   1.827   2.742  0.1494  0.0786 -0.4329
 5165SOL     OW27130   4.517   3.784   6.809 -0.2240  0.3276  0.1834
 5165SOL    HW127131   4.559   3.863   6.842 -1.2241  1.2873 -0.8468
 5165SOL    HW227132   4.425   3.788   6.835 -0.1888  0.5846  0.2685
 5166SOL     OW27133   4.439   4.068   9.650 -0.3402  0.5124 -0.2677
 5166SOL    HW127134   4.515   4.039   9.600 -1.2721  3.0419 -3.1766
 5166SOL    HW227135   4.371   4.014   9.608 -1.5119  1.4709  0.3860
 5167SOL     OW27136   1.355   3.478   3.201 -0.4101 -0.1445 -0.0415
 5167SOL    HW127137   1.341   3.384   3.208  0.9583 -0.3813 -0.4719
 5167SOL    HW227138   1.358   3.513   3.290 -0.1786 -1.9426  0.6523
 5168SOL     OW27139   3.350   0.515  12.816 -0.5821 -0.2677  0.1295
 5168SOL    HW127140   3.421   0.451  12.814 -1.2920 -0.9267 -3.2995
 5168SOL    HW227141   3.308   0.490  12.734 -0.0504  0.7144 -0.4336
 5169SOL     OW27142   4.482   1.351   2.859  0.0105 -0.2617  0.0777
 5169SOL    HW127143   4.443   1.430   2.898  0.1109  0.0939 -0.5268
 5169SOL    HW227144   4.412   1.306   2.811 -1.2543  1.3525  0.3886
 5170SOL     OW27145   4.124   2.258   9.677 -0.6021  0.0676 -0.5546
 5170SOL    HW127146   4.175   2.203   9.617  0.0914 -1.4155  1.3889
 5170SOL    HW227147   4.039   2.218   9.659 -0.0332 -1.9405  1.2306
 5171SOL     OW27148   4.269   1.059   4.418  0.0591  0.4894  0.7244
 5171SOL    HW127149   4.360   1.090   4.419 -0.2028  1.3118 -0.4220
 5171SOL    HW227150   4.235   1.137   4.374  0.9680 -0.2633 -1.2680
 5172SOL     OW27151   3.323   2.047  12.878  0.4864 -0.0895  0.1434
 5172SOL    HW127152   3.315   2.000  12.961  0.9037  1.0552  0.8312
 5172SOL    HW227153   3.236   2.084  12.866  0.6922  0.3628  0.0504
 5173SOL     OW27154   1.118   1.634   3.831 -0.0549 -0.2757  0.2001
 5173SOL    HW127155   1.033   1.662   3.864  0.2265 -2.3433  2.6496
 5173SOL    HW227156   1.103   1.539   3.827  0.3540 -0.3063 -0.6431
 5174SOL     OW27157   2.958   3.872  10.978  0.6486 -0.5339  0.5987
 5174SOL    HW127158   2.932   3.864  11.070 -0.3808 -1.2018  0.2490
 5174SOL    HW227159   2.967   3.782  10.948  0.3032  0.3708 -2.1956
 5175SOL     OW27160   1.377   3.098   8.387  0.2419 -0.0603  0.0897
 5175SOL    HW127161   1.304   3.150   8.354  1.0610  0.3623 -1.0829
 5175SOL    HW227162   1.400   3.044   8.312  1.8212 -0.6910  1.0237
 5176SOL     OW27163   0.853   2.931  10.120 -0.1812  0.5409  0.1128
 5176SOL    HW127164   0.778   2.962  10.069 -0.4837  1.6754  1.2618
 5176SOL    HW227165   0.900   2.881  10.052  0.5824  2.1273 -0.5122
 5177SOL     OW27166   1.217   2.553   5.073 -0.6736 -0.4172  0.5377
 5177SOL    HW127167   1.244   2.586   4.987 -3.3458  0.7835  0.1512
 5177SOL    HW227168   1.184   2.636   5.107 -0.9154  0.3296 -1.5206
 5178SOL     OW27169   2.211   3.584   3.016  0.1794 -0.1604  0.0973
 5178SOL    HW127170   2.272   3.656   3.000 -0.6243  0.8968  1.9000
 5178SOL    HW227171   2.163   3.621   3.090 -1.3496  1.6624 -1.7787
 5179SOL     OW27172   0.456   1.316   0.663  0.8127 -0.2099  0.3597
 5179SOL    HW127173   0.375   1.358   0.693  0.2263 -1.2368  0.1933
 5179SOL    HW227174   0.524   1.326   0.729  0.0603 -1.6309  1.3381
 5180SOL     OW27175   1.343   0.881   1.785 -0.4394 -0.7247 -0.2957
 5180SOL    HW127176   1.432   0.904   1.811 -1.4762  2.3232  0.6530
 5180SOL    HW227177   1.299   0.861   1.868  0.2237 -2.5469 -0.3875
 5181SOL     OW27178   1.469   0.813   7.163 -0.6972  0.0502 -0.5282
 5181SOL    HW127179   1.510   0.811   7.076  0.6005 -0.5284  0.1120
 5181SOL    HW227180   1.415   0.890   7.142 -0.9444  0.7646  2.6948
 5182SOL     OW27181   2.198   1.931   3.225 -0.2433 -0.3902 -0.2037
 5182SOL    HW127182   2.108   1.902   3.243 -0.1854 -1.1154 -1.0733
 5182SOL    HW227183   2.179   2.003   3.164  0.5913  0.3684  0.4373
 5183SOL     OW27184   3.694   3.967   4.727  0.0124  0.3193 -0.0191
 5183SOL    HW127185   3.665   3.890   4.775  1.2965 -0.9211 -1.2343
 5183SOL    HW227186   3.613   4.017   4.726  0.1199  0.4849 -0.3266
 5184SOL     OW27187   3.982   3.508   6.332  0.5467 -0.0926  0.3226
 5184SOL    HW127188   4.060   3.499   6.385  1.3445  1.5159 -0.5597
 5184SOL    HW227189   4.021   3.511   6.244  0.5197 -2.5979  0.2379
 5185SOL     OW27190   4.157   2.124   4.038  0.0001  0.6902 -0.2454
 5185SOL    HW127191   4.132   2.032   4.046  0.9365  0.3523 -1.2666
 5185SOL    HW227192   4.125   2.136   3.949  0.8465 -1.2166 -0.8142
 5186SOL     OW27193   2.594   1.455   3.044  0.1441 -0.1182  0.3277
 5186SOL    HW127194   2.571   1.410   3.125  1.3514 -0.6628  0.3650
 5186SOL    HW227195   2.639   1.537   3.064  2.6414 -1.4590  0.1848
 5187SOL     OW27196   3.680   1.881   5.517  0.7309  0.0530 -0.1668
 5187SOL    HW127197   3.698   1.791   5.544  3.1846  0.7990  0.6584
 5187SOL    HW227198   3.618   1.864   5.447 -0.7876  0.7265  1.0047
 5188SOL     OW27199   0.669   2.371   4.987  0.2820 -1.0654  0.5400
 5188SOL    HW127200   0.654   2.294   4.932  0.2452 -0.3217 -0.5082
 5188SOL    HW227201   0.651   2.342   5.076  0.3623  1.1192  1.2623
 5189SOL     OW27202   1.595   0.598   1.955  0.2193 -0.4273  0.1990
 5189SOL    HW127203   1.682   0.557   1.958 -0.3412 -1.6316  0.0906
 5189SOL    HW227204   1.570   0.589   2.047 -2.3226  1.1417 -0.3414
 5190SOL     OW27205   3.659   4.495   6.732  0.4549  0.7148 -0.3300
 5190SOL    HW127206   3.644   4.543   6.814 -3.7739 -0.2828 -0.5117
 5190SOL    HW227207   3.682   4.574   6.683 -1.1195  1.2762 -0.1911
 5191SOL     OW27208   2.377   1.737   3.126 -0.1875  0.0402 -0.3691
 5191SOL    HW127209   2.413   1.738   3.037 -1.2204 -0.7504 -0.8074
 5191SOL    HW227210   2.358   1.829   3.143  0.3773  0.1076 -0.1111
 5192SOL     OW27211   2.443   2.376   5.839 -0.1146 -0.0095  0.5106
 5192SOL    HW127212   2.404   2.289   5.830  0.8446 -0.4537  0.6103
 5192SOL    HW227213   2.383   2.420   5.899  0.5118  0.9961  0.3982
 5193SOL     OW27214   0.522   3.515   2.103  0.0820  0.1792 -0.0715
 5193SOL    HW127215   0.443   3.462   2.099 -0.2207  0.6671 -0.5905
 5193SOL    HW227216   0.477   3.598   2.116 -1.4479 -0.9874  1.9287
 5194SOL     OW27217   4.649   4.719   8.829  0.3144  0.3074  0.2403
 5194SOL    HW127218   4.564   4.732   8.786  0.9442  0.0304 -1.0970
 5194SOL    HW227219   4.619   4.701   8.918 -2.4817  0.7713 -0.5805
 5195SOL     OW27220   3.536   1.289   4.026  0.0326  0.5177  0.2748
 5195SOL    HW127221   3.553   1.362   4.085  3.2551  0.5428 -0.6833
 5195SOL    HW227222   3.622   1.246   4.027  0.3378  1.1465  1.0848
 5196SOL     OW27223   3.367   4.449   3.629 -0.4192 -0.5388  0.5176
 5196SOL    HW127224   3.305   4.497   3.575 -1.6846 -0.4339  2.0686
 5196SOL    HW227225   3.344   4.358   3.609  2.1038 -1.2507  0.8530
 5197SOL     OW27226   1.565   2.479   6.391  0.4774  0.4074  0.1318
 5197SOL    HW127227   1.525   2.409   6.443 -1.4487  0.4953 -1.2295
 5197SOL    HW227228   1.657   2.454   6.393  0.8113  1.7664  1.6637
 5198SOL     OW27229   0.754   4.256   3.775 -0.1369 -0.3088 -0.3489
 5198SOL    HW127230   0.767   4.175   3.726 -0.5126 -0.1896 -0.6513
 5198SOL    HW227231   0.791   4.304   3.701  1.6134 -0.3650  0.4953
 5199SOL     OW27232   1.729   1.561   9.394 -1.0912  0.3979  0.4332
 5199SOL    HW127233   1.666   1.544   9.324 -0.7365 -0.0434  0.2179
 5199SOL    HW227234   1.750   1.654   9.405 -0.2259  0.2500  0.0273
 5200SOL     OW27235   3.871   0.425   2.418 -0.6433  0.2551 -0.1591
 5200SOL    HW127236   3.866   0.508   2.466 -0.0701 -0.9359  1.9536
 5200SOL    HW227237   3.966   0.425   2.404 -0.4347  0.7959  1.2426
 5201SOL     OW27238   1.819   2.378  10.837 -0.2163 -0.0315  0.0986
 5201SOL    HW127239   1.912   2.361  10.855 -0.3005 -0.0617  0.5171
 5201SOL    HW227240   1.816   2.360  10.743 -0.2514  1.4522 -0.1835
 5202SOL     OW27241   0.782   4.213   1.446  0.1384  0.3831 -0.8853
 5202SOL    HW127242   0.778   4.118   1.435  1.2249  0.1776  0.5142
 5202SOL    HW227243   0.827   4.246   1.368  1.3549  1.8087  0.4270
 5203SOL     OW27244   2.098   1.327  10.524  0.8042 -0.1345 -0.3311
 5203SOL    HW127245   2.153   1.249  10.514  0.0340 -1.0181  2.3707
 5203SOL    HW227246   2.043   1.327  10.445  0.2299  0.9852  0.0731
 5204SOL     OW27247   1.319   1.835   9.139  0.1262 -0.4645 -0.8838
 5204SOL    HW127248   1.300   1.803   9.227  2.8089  1.6521  0.4492
 5204SOL    HW227249   1.411   1.808   9.135  0.1084 -0.4841 -1.1881
 5205SOL     OW27250   4.645   4.727   4.012 -0.3972  0.0159  0.0744
 5205SOL    HW127251   4.665   0.013   4.104 -0.9586  0.0667  0.1847
 5205SOL    HW227252   4.653   4.631   4.010 -0.4271 -0.0095  1.1088
 5206SOL     OW27253   4.201   1.336  14.429 -0.0196  0.0600  0.1510
 5206SOL    HW127254   4.191   1.242  14.442 -2.0412  0.2805  0.3013
 5206SOL    HW227255   4.242   1.338  14.342 -2.1596  1.1549 -0.8519
 5207SOL     OW27256   1.857   0.253   4.530  0.3211  0.0043  0.3268
 5207SOL    HW127257   1.939   0.300   4.522  0.2845  0.3029  1.6672
 5207SOL    HW227258   1.785   0.316   4.533  1.2550  1.0507  0.8098
 5208SOL     OW27259   3.031   2.187   6.459 -0.2314 -0.0507  0.1167
 5208SOL    HW127260   3.063   2.123   6.523  2.7992  2.0398  0.6489
 5208SOL    HW227261   3.033   2.139   6.376 -3.1547  0.6589 -0.3768
 5209SOL     OW27262   4.361   3.441   4.839 -0.1858  0.0007  0.3663
 5209SOL    HW127263   4.334   3.387   4.765  0.2265 -0.3445  0.4642
 5209SOL    HW227264   4.456   3.450   4.829 -0.2112  0.7921  0.8690
 5210SOL     OW27265   2.573   1.828   5.172 -0.0094  0.0293  0.2732
 5210SOL    HW127266   2.619   1.785   5.244  0.8012 -3.4317 -2.2975
 5210SOL    HW227267   2.526   1.889   5.228 -0.3096 -1.1086  1.2569
 5211SOL     OW27268   0.653   0.561   6.365  0.4184 -0.2355 -0.5421
 5211SOL    HW127269   0.694   0.612   6.435  1.7639  1.8509 -2.8473
 5211SOL    HW227270   0.573   0.608   6.339  0.7354  0.1320 -0.8670
 5212SOL     OW27271   0.871   0.459   1.519  0.1733  0.0160 -0.0615
 5212SOL    HW127272   0.825   0.390   1.470  0.8276  0.0359 -0.6922
 5212SOL    HW227273   0.907   0.505   1.443  1.2412 -0.3617  0.2219
 5213SOL     OW27274   3.912   2.492  15.368 -0.8633 -0.1150  0.0230
 5213SOL    HW127275   3.887   2.438  15.443  0.8947  1.3541  1.6907
 5213SOL    HW227276   3.865   2.455  15.294 -0.1699 -2.8810  0.9853
 5214SOL     OW27277   3.988   4.317   7.184  0.2611 -0.1291  0.3776
 5214SOL    HW127278   3.974   4.411   7.196 -0.1917 -0.3025  1.2066
 5214SOL    HW227279   3.955   4.297   7.097  0.8542 -0.1601  0.1577
 5215SOL     OW27280   1.585   2.037   4.948  0.0776 -0.1334  0.2878
 5215SOL    HW127281   1.643   1.998   5.013  0.1586  1.7134  1.3232
 5215SOL    HW227282   1.561   1.965   4.889  1.1416  0.0736 -0.4036
 5216SOL     OW27283   1.341   3.080   7.964 -0.3450  0.3853  0.5578
 5216SOL    HW127284   1.373   3.169   7.977  3.2458 -0.6626 -0.9886
 5216SOL    HW227285   1.256   3.084   8.007 -0.4562  1.7728  0.1861
 5217SOL     OW27286   2.611   4.511   3.162 -0.2418 -0.4069 -0.5420
 5217SOL    HW127287   2.594   4.485   3.071  1.4397 -0.2185 -0.9132
 5217SOL    HW227288   2.705   4.530   3.159 -0.7361  1.9361 -0.8849
 5218SOL     OW27289   2.156   2.114   3.021 -0.7065  0.3949  0.0175
 5218SOL    HW127290   2.158   2.196   3.071 -0.3045 -0.1340  0.8644
 5218SOL    HW227291   2.086   2.138   2.960 -1.9958  0.4010  1.5117
 5219SOL     OW27292   3.146   1.648   3.511  0.0987  0.2670 -0.1532
 5219SOL    HW127293   3.197   1.711   3.561 -0.5150  0.9031 -0.3308
 5219SOL    HW227294   3.220   1.596   3.480 -1.7307 -1.7835 -1.1344
 5220SOL     OW27295   2.089   4.457   4.462  0.2397  0.2594 -0.2312
 5220SOL    HW127296   2.040   4.419   4.389  0.3584  1.7134 -1.0637
 5220SOL    HW227297   2.027   4.469   4.534 -2.9119  1.0139 -3.0703
 5221SOL     OW27298   2.790   4.249  10.491 -0.7915 -0.1806  0.4132
 5221SOL    HW127299   2.816   4.240  10.583 -1.3136  1.0035  0.6718
 5221SOL    HW227300   2.784   4.342  10.472 -0.6427 -0.1596  0.4693
 5222SOL     OW27301   4.307   3.964   5.407  0.7083  0.4370 -0.2510
 5222SOL    HW127302   4.395   3.972   5.370  0.7681 -1.4444 -0.5184
 5222SOL    HW227303   4.287   3.877   5.374  0.8748 -0.2924  1.6046
 5223SOL     OW27304   2.857   2.033   2.868  0.4116  0.0445  0.1306
 5223SOL    HW127305   2.821   2.051   2.781  0.8444 -0.1346 -0.0873
 5223SOL    HW227306   2.818   1.947   2.884 -0.4989  0.1043 -1.8160
 5224SOL     OW27307   2.396   3.094  17.695  0.3693 -0.4237 -0.0810
 5224SOL    HW127308   2.477   3.110  17.646 -0.0728 -1.1576 -1.0686
 5224SOL    HW227309   2.339   3.156  17.650  1.6355  0.9848  0.2714
 5225SOL     OW27310   0.920   3.519  10.953  0.1685 -0.4926  0.5639
 5225SOL    HW127311   0.994   3.463  10.929 -1.9297 -2.6622 -0.8515
 5225SOL    HW227312   0.938   3.524  11.047 -0.0531  2.1193  0.4542
 5226SOL     OW27313   1.189   1.469  14.665 -0.2535  0.0086  0.0758
 5226SOL    HW127314   1.250   1.458  14.738  0.2606  1.5283 -0.1301
 5226SOL    HW227315   1.192   1.385  14.619 -2.2841  0.1488 -0.3242
 5227SOL     OW27316   4.320   2.251   8.470  0.6368 -0.0001 -0.4279
 5227SOL    HW127317   4.269   2.320   8.428  2.2751  0.6673 -1.3398
 5227SOL    HW227318   4.341   2.199   8.392 -1.5183 -0.4785 -0.6931
 5228SOL     OW27319   0.482   0.021   9.801 -0.2133  0.1953  0.6287
 5228SOL    HW127320   0.402   0.063   9.771  0.0375 -0.5493 -1.0416
 5228SOL    HW227321   0.512   4.714   9.720 -1.3314  0.2949  0.1747
 5229SOL     OW27322   2.613   1.127   7.527 -0.1256 -0.0512  0.2947
 5229SOL    HW127323   2.651   1.185   7.593  1.3582  1.6374 -2.0854
 5229SOL    HW227324   2.537   1.180   7.502  1.6524  2.5590  0.4467
 5230SOL     OW27325   1.521   0.529   6.418  0.0903  0.0541 -0.6691
 5230SOL    HW127326   1.611   0.519   6.388 -0.1466 -2.2081 -0.6245
 5230SOL    HW227327   1.475   0.556   6.339  1.9289  0.9674 -1.4185
 5231SOL     OW27328   0.978   2.791   9.929  0.1502 -0.0307 -0.0966
 5231SOL    HW127329   1.048   2.831   9.878  0.6578  1.1392  1.5318
 5231SOL    HW227330   0.998   2.699   9.911  1.9772  0.0038  1.8547
 5232SOL     OW27331   3.470   0.139  12.564 -0.2680 -0.3762 -0.4801
 5232SOL    HW127332   3.450   0.180  12.480 -3.0507  1.3451  1.0303
 5232SOL    HW227333   3.387   0.121  12.608 -0.5167 -2.6385 -1.8573
 5233SOL     OW27334   1.147   1.925   5.392 -0.0166  0.2645 -0.3218
 5233SOL    HW127335   1.103   1.992   5.340 -2.6724 -0.9457  0.3196
 5233SOL    HW227336   1.159   1.857   5.326 -0.3417  1.7980 -1.9328
 5234SOL     OW27337   0.568   4.100   7.696  0.3643 -0.2007  0.1719
 5234SOL    HW127338   0.623   4.082   7.772 -0.3399  1.4233  1.0716
 5234SOL    HW227339   0.532   4.182   7.730  1.0246  1.1241 -2.2796
 5235SOL     OW27340   0.507   4.163  16.939 -0.2242 -0.4669  0.2942
 5235SOL    HW127341   0.595   4.138  16.913 -1.4535 -3.1652 -1.3112
 5235SOL    HW227342   0.453   4.092  16.903  1.3108 -1.3225 -0.3162
 5236SOL     OW27343   3.719   1.867   3.549  1.0255 -0.4132  0.1937
 5236SOL    HW127344   3.717   1.937   3.484  0.7645 -0.3054  0.3194
 5236SOL    HW227345   3.810   1.839   3.538  1.5244  0.7189  1.4379
 5237SOL     OW27346   3.034   1.195   8.689 -0.0795 -0.1258  0.5577
 5237SOL    HW127347   2.941   1.205   8.708  0.4537  0.5122  2.8721
 5237SOL    HW227348   3.047   1.197   8.594  0.2887  0.1310  0.6112
 5238SOL     OW27349   3.462   1.108   0.051 -0.1073 -0.0373  0.3043
 5238SOL    HW127350   3.449   1.171   0.121 -1.6930  0.6350 -0.5949
 5238SOL    HW227351   3.442   1.024   0.092 -0.4201  0.7011  1.6523
 5239SOL     OW27352   1.292   4.455   5.466 -0.7475 -0.1516 -0.1605
 5239SOL    HW127353   1.359   4.387   5.471 -0.6625 -0.2240 -2.1266
 5239SOL    HW227354   1.223   4.403   5.426 -3.5936  1.8176  2.1484
 5240SOL     OW27355   1.626   0.831   0.573 -0.1227  0.7041  0.1315
 5240SOL    HW127356   1.565   0.855   0.503  1.2382  1.8510 -0.6811
 5240SOL    HW227357   1.680   0.910   0.562  0.3496  0.6783  2.1899
 5241SOL     OW27358   4.677   0.007   3.509 -0.0767 -0.1393  0.1992
 5241SOL    HW127359   4.687   0.101   3.525  2.1827 -0.2242 -0.8235
 5241SOL    HW227360   4.655   4.719   3.599 -0.6480 -2.1294 -0.4202
 5242SOL     OW27361   3.258   3.368   4.171  0.6285  0.6212 -0.5370
 5242SOL    HW127362   3.196   3.417   4.117  1.7594  2.3926 -0.2331
 5242SOL    HW227363   3.338   3.369   4.118 -0.2754  2.8067 -1.8639
 5243SOL     OW27364   2.016   1.224   8.505 -0.0286  0.5239  0.0802
 5243SOL    HW127365   1.979   1.230   8.593  0.1820 -2.2987  0.3526
 5243SOL    HW227366   1.939   1.223   8.449  0.4467  0.1793 -0.5582
 5244SOL     OW27367   0.786   3.147   4.863 -0.1459  0.1733  0.4207
 5244SOL    HW127368   0.723   3.194   4.918  0.5526  1.0797  0.4358
 5244SOL    HW227369   0.741   3.067   4.835 -0.8373 -0.1140  2.3312
 5245SOL     OW27370   2.448   0.397   1.146 -0.1406  0.1012 -0.5055
 5245SOL    HW127371   2.389   0.472   1.156  1.1827  0.9085  1.4988
 5245SOL    HW227372   2.428   0.357   1.231 -1.2961 -0.2577 -0.9478
 5246SOL     OW27373   2.315   0.668   8.120  0.2748 -0.7210 -0.1610
 5246SOL    HW127374   2.327   0.579   8.155  2.1225 -0.9717 -1.4385
 5246SOL    HW227375   2.303   0.711   8.205 -3.0037  0.3207 -1.1661
 5247SOL     OW27376   2.264   3.486   3.396 -0.4595  0.0800 -0.1425
 5247SOL    HW127377   2.222   3.402   3.379  3.4595 -1.5729 -1.5830
 5247SOL    HW227378   2.203   3.531   3.454 -0.1915  0.4094 -0.1162
 5248SOL     OW27379   3.957   4.699   6.135 -0.3604  0.1694 -0.0406
 5248SOL    HW127380   3.988   0.013   6.212 -0.2481  1.2224 -0.7418
 5248SOL    HW227381   4.001   4.617   6.157 -1.6045 -1.3143 -3.1772
 5249SOL     OW27382   1.569   2.595   2.571  0.0497 -0.7100  0.1458
 5249SOL    HW127383   1.495   2.610   2.512  2.8489 -0.5612 -3.3163
 5249SOL    HW227384   1.558   2.510   2.613 -0.2517 -1.4556 -1.4358
 5250SOL     OW27385   2.635   3.263   6.914  0.3137  0.4579  0.3112
 5250SOL    HW127386   2.602   3.255   7.003 -3.7625 -2.7055 -1.4937
 5250SOL    HW227387   2.609   3.190   6.858 -1.7688  0.8491  0.7843
 5251SOL     OW27388   0.538   4.180   9.351  0.1042  0.4270  0.5465
 5251SOL    HW127389   0.522   4.228   9.431  1.1103 -0.7217  1.4346
 5251SOL    HW227390   0.549   4.090   9.383  0.5580  0.7500  1.2928
 5252SOL     OW27391   3.829   0.700   9.603 -0.3123  0.1281  0.5833
 5252SOL    HW127392   3.907   0.677   9.552 -0.3132  0.2575  0.5224
 5252SOL    HW227393   3.852   0.787   9.635 -0.4599  0.5206 -0.3883
 5253SOL     OW27394   2.939   0.485   2.022 -0.1621  0.3370  0.5071
 5253SOL    HW127395   3.016   0.431   2.041 -2.4615 -2.6838  1.3297
 5253SOL    HW227396   2.978   0.572   2.027  1.9718 -0.5955  0.2685
 5254SOL     OW27397   1.444   0.618   6.179  0.0192  0.1645  0.0977
 5254SOL    HW127398   1.431   0.608   6.085  1.1312 -0.6068  0.0302
 5254SOL    HW227399   1.499   0.695   6.170  1.8969 -1.3299 -1.1830
 5255SOL     OW27400   0.601   0.789   3.690  0.5680  0.3604  0.8437
 5255SOL    HW127401   0.601   0.881   3.717  3.4200  1.2366 -2.1889
 5255SOL    HW227402   0.685   0.776   3.646 -1.2701 -1.7244 -2.1187
 5256SOL     OW27403   4.525   2.376   5.176  0.6438  0.1559  0.7381
 5256SOL    HW127404   4.504   2.368   5.082  0.6119  2.0408  0.5905
 5256SOL    HW227405   4.532   2.281   5.189  1.6982 -0.0389 -1.1288
 5257SOL     OW27406   1.942   2.274   9.411 -0.8610 -0.7375 -0.0768
 5257SOL    HW127407   1.865   2.313   9.452 -0.0820  2.6140 -1.8117
 5257SOL    HW227408   1.973   2.222   9.485 -0.4400  0.2709  0.4584
 5258SOL     OW27409   2.728   2.923   5.961 -0.5706  0.2721  0.2293
 5258SOL    HW127410   2.797   2.984   5.986 -0.3888  1.0742 -2.2002
 5258SOL    HW227411   2.770   2.863   5.900  1.1659  2.3977 -0.6917
 5259SOL     OW27412   0.841   3.227  10.532  0.3442  0.4574  0.3112
 5259SOL    HW127413   0.877   3.310  10.501  0.5394  0.1946 -0.1647
 5259SOL    HW227414   0.879   3.164  10.471 -0.9021 -0.0316  0.0460
 5260SOL     OW27415   0.589   2.709   5.950  0.5106  0.3270  0.4261
 5260SOL    HW127416   0.650   2.776   5.978  1.0406 -0.3952  0.9872
 5260SOL    HW227417   0.512   2.759   5.977  0.3364 -0.8674  2.1566
 5261SOL     OW27418   0.734   0.106   0.215 -0.1811  0.1767  0.6485
 5261SOL    HW127419   0.676   0.074   0.147  3.2735 -0.9643 -1.7942
 5261SOL    HW227420   0.770   0.028   0.259  0.8595 -0.7152 -1.7809
 5262SOL     OW27421   3.473   0.069   3.066  0.6145  0.4447 -0.5196
 5262SOL    HW127422   3.390   0.062   3.114  1.0850  1.2260  0.4215
 5262SOL    HW227423   3.539   0.058   3.134 -2.0492  0.1080  1.9944
 5263SOL     OW27424   1.728   1.312  17.388  0.3671 -0.4961 -0.3440
 5263SOL    HW127425   1.753   1.247  17.453  2.1634 -0.5888 -1.1328
 5263SOL    HW227426   1.657   1.267  17.342  0.0914 -1.1426  0.7102
 5264SOL     OW27427   0.862   4.288  10.783  0.1203  0.3168 -0.0644
 5264SOL    HW127428   0.931   4.353  10.799 -1.7671  1.9270  1.4735
 5264SOL    HW227429   0.784   4.331  10.817 -0.1891 -0.2643 -0.0340
 5265SOL     OW27430   0.136   3.813   0.755 -0.2838  0.2125  0.4865
 5265SOL    HW127431   0.187   3.835   0.833 -0.1503 -0.6794  0.6480
 5265SOL    HW227432   0.090   3.739   0.793  0.6857  0.2725  1.7627
 5266SOL     OW27433   1.765   3.598  13.039  0.2822  0.6042 -0.2446
 5266SOL    HW127434   1.673   3.591  13.016  0.2909  0.6252 -0.2864
 5266SOL    HW227435   1.776   3.688  13.071  2.3489  0.1919  0.2248
 5267SOL     OW27436   2.746   1.556   1.944  0.3575 -0.3935 -0.2228
 5267SOL    HW127437   2.765   1.462   1.947 -1.1241 -0.6634  0.4032
 5267SOL    HW227438   2.813   1.583   2.007  0.0607  1.0988 -0.5323
 5268SOL     OW27439   2.526   3.198  16.991 -0.3758  0.0043  0.1641
 5268SOL    HW127440   2.456   3.254  16.957 -2.3472 -0.6712  3.1422
 5268SOL    HW227441   2.522   3.121  16.934 -1.3866  0.7208 -0.7357
 5269SOL     OW27442   1.950   3.587   7.528  0.5157 -0.2030 -0.2461
 5269SOL    HW127443   1.868   3.579   7.480 -1.3421  2.4847  2.5465
 5269SOL    HW227444   2.007   3.623   7.460  1.8501  0.3046  1.1435
 5270SOL     OW27445   2.813   4.506  10.386 -0.0322 -0.3193 -0.4680
 5270SOL    HW127446   2.772   4.565  10.323  0.5822 -0.9183 -1.4452
 5270SOL    HW227447   2.907   4.516  10.368  0.1680  2.4961  2.2761
 5271SOL     OW27448   2.874   1.295   1.409  0.4592  0.0582  0.2187
 5271SOL    HW127449   2.866   1.202   1.430  0.6781 -0.4535 -1.9209
 5271SOL    HW227450   2.952   1.292   1.353 -1.1038 -1.4483 -1.8792
 5272SOL     OW27451   2.990   3.245  16.923 -0.2107 -1.0550 -1.0029
 5272SOL    HW127452   3.027   3.215  16.839 -0.2415  1.2076 -1.8127
 5272SOL    HW227453   3.076   3.249  16.964 -0.5526  1.0740 -0.5397
 5273SOL     OW27454   3.710   0.044  17.659  0.4389  0.4796 -0.5537
 5273SOL    HW127455   3.744   0.006  17.578  1.3557  0.4033 -0.1365
 5273SOL    HW227456   3.784   0.098  17.686  0.9616 -0.1784 -0.6727
 5274SOL     OW27457   2.848   1.576   5.908 -0.1271  0.2576  0.0869
 5274SOL    HW127458   2.812   1.496   5.948 -0.6747  0.1549 -0.6143
 5274SOL    HW227459   2.928   1.538   5.870 -1.1547 -1.7876 -0.0704
 5275SOL     OW27460   0.754   3.676   6.925  0.1962 -0.1385  0.2305
 5275SOL    HW127461   0.676   3.710   6.881  0.2753 -1.4792 -0.9533
 5275SOL    HW227462   0.819   3.728   6.878  0.4794  0.0798  0.8790
 5276SOL     OW27463   3.084   0.494   6.762 -0.0404 -0.5054  0.5613
 5276SOL    HW127464   3.140   0.418   6.774  0.9783  0.0145 -0.8671
 5276SOL    HW227465   3.007   0.463   6.714  0.8227  0.3108 -1.3474
 5277SOL     OW27466   0.840   2.484   6.018  0.2939  0.0338 -0.3529
 5277SOL    HW127467   0.917   2.465   5.965 -0.1200 -0.3724 -0.8024
 5277SOL    HW227468   0.880   2.462   6.102 -2.2479  0.0484  0.8727
 5278SOL     OW27469   2.541   4.354   5.986  0.0803 -0.6357  0.1627
 5278SOL    HW127470   2.623   4.366   6.035  0.2330 -1.1973  0.0426
 5278SOL    HW227471   2.519   4.262   6.000 -2.0797  0.0436  1.2228
 5279SOL     OW27472   1.726   1.570   6.900 -0.0907  0.2290  0.6191
 5279SOL    HW127473   1.805   1.603   6.858  0.2192  0.6376  1.5050
 5279SOL    HW227474   1.680   1.649   6.928 -0.0846  0.9404 -1.4248
 5280SOL     OW27475   0.765   3.709   7.400  0.0931 -0.0631  0.5208
 5280SOL    HW127476   0.710   3.760   7.460 -0.0085  0.1493  0.2443
 5280SOL    HW227477   0.704   3.682   7.332 -0.3032  1.6500  0.1872
 5281SOL     OW27478   4.695   0.667   4.364  0.1233  0.8613  0.6041
 5281SOL    HW127479   4.680   0.756   4.393 -1.2210  1.0792 -0.7566
 5281SOL    HW227480   0.053   0.666   4.391  0.0332  0.3252  0.8989
 5282SOL     OW27481   1.753   0.338   6.957  0.5331 -0.2499  0.4825
 5282SOL    HW127482   1.696   0.369   7.027  0.6540  1.9357 -0.4123
 5282SOL    HW227483   1.822   0.402   6.943  0.0487  0.5105  1.5455
 5283SOL     OW27484   4.627   4.549   7.617 -0.0808  0.4633 -0.5140
 5283SOL    HW127485   4.544   4.524   7.659  0.3665  0.0524  0.1122
 5283SOL    HW227486   4.690   4.520   7.682 -0.1293  1.3138 -0.0910
 5284SOL     OW27487   1.975   1.869   7.396  0.4970  0.0941 -0.3274
 5284SOL    HW127488   1.955   1.857   7.488  0.5133 -1.3002 -0.5048
 5284SOL    HW227489   1.999   1.962   7.400  0.6166  0.0345  0.3754
 5285SOL     OW27490   0.265   1.036   9.725 -0.4754  0.2159 -0.2375
 5285SOL    HW127491   0.191   1.091   9.752 -0.3434  1.0888 -1.6480
 5285SOL    HW227492   0.218   0.953   9.719  1.0916 -0.5587 -1.8296
 5286SOL     OW27493   4.629   2.825   2.262 -0.0743  0.2998  0.1404
 5286SOL    HW127494   4.579   2.906   2.270 -0.9858 -0.3423  0.8461
 5286SOL    HW227495   4.562   2.766   2.226 -0.5150 -0.3252  1.9733
 5287SOL     OW27496   1.911   1.306   1.273  0.0806 -0.4874 -0.1086
 5287SOL    HW127497   1.827   1.335   1.308  1.2039  0.3698  1.8908
 5287SOL    HW227498   1.902   1.337   1.183  2.6358  2.2255  0.5626
 5288SOL     OW27499   0.468   1.824   1.732 -0.2914 -0.3747 -0.0129
 5288SOL    HW127500   0.533   1.820   1.661 -0.2744 -0.3764  0.0028
 5288SOL    HW227501   0.465   1.728   1.731  2.9371 -0.4986 -1.5053
 5289SOL     OW27502   0.986   1.290   9.329  0.5046  0.3964 -0.2636
 5289SOL    HW127503   1.066   1.340   9.344  0.9203 -0.5153  0.5676
 5289SOL    HW227504   0.945   1.306   9.414  0.4078  1.0826 -0.4345
 5290SOL     OW27505   0.515   3.882  13.401  0.3858 -0.6774 -0.0423
 5290SOL    HW127506   0.583   3.823  13.433  0.1865 -0.9954 -0.2064
 5290SOL    HW227507   0.549   3.972  13.405 -0.5649 -0.4618  3.6199
 5291SOL     OW27508   2.130   0.827   1.386 -0.4125  0.5918 -0.4509
 5291SOL    HW127509   2.081   0.745   1.395  0.7829  0.0835  1.5305
 5291SOL    HW227510   2.178   0.836   1.469  0.0572  2.8012 -0.9438
 5292SOL     OW27511   2.618   4.676   4.672  0.0358 -0.1995 -0.4070
 5292SOL    HW127512   2.578   4.600   4.716 -2.6266  1.7908  0.6122
 5292SOL    HW227513   2.612   4.655   4.579  2.1136 -0.0577 -0.5732
 5293SOL     OW27514   3.814   4.334   3.395  0.7188 -0.2901 -0.4519
 5293SOL    HW127515   3.813   4.428   3.410 -0.4819 -0.4884  0.6956
 5293SOL    HW227516   3.900   4.319   3.354  2.5575  2.4900  2.4188
 5294SOL     OW27517   4.253   0.075   5.332  0.2241 -0.0203  0.1955
 5294SOL    HW127518   4.171   0.070   5.382  0.2938 -2.3482  0.1148
 5294SOL    HW227519   4.296   0.147   5.378 -0.7941  0.9926 -0.4429
 5295SOL     OW27520   1.101   2.467   0.709  0.0623  0.1361  0.1578
 5295SOL    HW127521   1.155   2.545   0.699 -0.4760  0.1392 -2.6160
 5295SOL    HW227522   1.035   2.502   0.769  0.2670  0.4672  0.1882
 5296SOL     OW27523   0.522   2.438   0.934 -0.5926  0.7461 -0.0881
 5296SOL    HW127524   0.473   2.434   1.016 -0.8431 -2.6496 -0.3997
 5296SOL    HW227525   0.601   2.393   0.963 -0.0932  0.7627 -1.3888
 5297SOL     OW27526   2.078   2.258  11.148  0.6028 -0.0306  0.3649
 5297SOL    HW127527   2.160   2.214  11.172  0.6012  0.4791  1.3234
 5297SOL    HW227528   2.110   2.289  11.064  2.1919  0.9519  1.3210
 5298SOL     OW27529   4.537   2.532   6.183 -0.0568  0.4752 -0.6772
 5298SOL    HW127530   4.612   2.493   6.229 -1.3479 -2.8291 -1.3543
 5298SOL    HW227531   4.470   2.464   6.185  0.1603  0.2838 -0.0627
 5299SOL     OW27532   2.233   1.418   7.218 -0.0070 -0.1544 -0.4942
 5299SOL    HW127533   2.233   1.473   7.296 -1.2845  2.1660 -2.1328
 5299SOL    HW227534   2.175   1.470   7.162 -0.0651  0.8139  0.4675
 5300SOL     OW27535   4.642   3.968   6.968 -0.9408  0.2975 -0.5815
 5300SOL    HW127536   4.582   3.925   7.029 -1.1026  1.2669 -0.0483
 5300SOL    HW227537   4.730   3.956   7.002 -0.9870  0.4319 -0.4153
 5301SOL     OW27538   3.199   1.911   2.947  0.1966 -0.0874  0.0380
 5301SOL    HW127539   3.274   1.966   2.974  1.2239 -1.5438  0.1644
 5301SOL    HW227540   3.197   1.921   2.852 -0.1609 -0.5731 -0.0040
 5302SOL     OW27541   0.397   0.241   6.675  0.5571 -0.1898  0.3468
 5302SOL    HW127542   0.468   0.302   6.690  1.7481 -1.7451  1.0783
 5302SOL    HW227543   0.369   0.231   6.766  1.0391 -1.3281  0.3800
 5303SOL     OW27544   0.625   1.542   2.310  0.0174  0.6968 -0.1019
 5303SOL    HW127545   0.713   1.578   2.293  1.6207 -2.0548  2.4021
 5303SOL    HW227546   0.604   1.515   2.220 -1.9366  1.1391  0.2288
 5304SOL     OW27547   3.756   1.429   7.289 -0.5104 -0.2743  0.5671
 5304SOL    HW127548   3.783   1.518   7.307  1.2960 -0.7241  0.0362
 5304SOL    HW227549   3.837   1.379   7.280  0.3838  1.5182 -1.2825
 5305SOL     OW27550   3.423   0.694   8.988  0.3120 -0.0447  0.0227
 5305SOL    HW127551   3.466   0.647   9.059  1.9898 -0.1023 -1.0237
 5305SOL    HW227552   3.491   0.751   8.953 -1.7171  2.0596 -0.4288
 5306SOL     OW27553   0.701   3.518   6.443 -0.0431  0.0112  0.3216
 5306SOL    HW127554   0.754   3.540   6.367 -0.7604 -0.1953 -0.2306
 5306SOL    HW227555   0.755   3.455   6.492  0.1807  0.2028  0.3224
 5307SOL     OW27556   4.126   4.108  13.600 -0.0253  0.0241  0.3199
 5307SOL    HW127557   4.055   4.171  13.614 -1.7709 -1.9853  0.3396
 5307SOL    HW227558   4.183   4.132  13.673  1.1648 -0.9053 -0.3066
 5308SOL     OW27559   4.374   4.309  14.899  0.4238 -0.1113 -0.2581
 5308SOL    HW127560   4.310   4.315  14.828  0.2420 -0.2543 -0.1043
 5308SOL    HW227561   4.454   4.274  14.859 -0.0308 -0.4574 -0.8564
 5309SOL     OW27562   2.287   3.854   7.655  0.0741  0.6708 -0.3027
 5309SOL    HW127563   2.307   3.859   7.749 -2.4316 -0.0917  0.2824
 5309SOL    HW227564   2.289   3.758   7.655 -0.0060  0.6695 -0.5638
 5310SOL     OW27565   4.618   3.750   6.466  0.1560  0.1424 -0.3335
 5310SOL    HW127566   4.614   3.811   6.392 -1.1524  0.6626  0.1649
 5310SOL    HW227567   4.657   3.679   6.415 -1.2539 -0.8159 -0.0456
 5311SOL     OW27568   1.780   1.162   4.799  0.0568 -0.3368  0.1794
 5311SOL    HW127569   1.850   1.186   4.859  0.6101 -2.7716  0.5041
 5311SOL    HW227570   1.757   1.071   4.819  0.5126  0.0602  2.4280
 5312SOL     OW27571   2.907   1.301  15.502  0.2832 -0.2301  0.0177
 5312SOL    HW127572   2.909   1.276  15.409 -1.9638 -0.6298  0.0724
 5312SOL    HW227573   2.902   1.214  15.541 -0.3201 -0.8198 -1.3943
 5313SOL     OW27574   0.673   4.140   7.017 -0.2078 -0.1680  0.4729
 5313SOL    HW127575   0.666   4.051   7.051 -0.8541 -0.0195  0.7348
 5313SOL    HW227576   0.606   4.143   6.949 -0.5374  1.0187  0.8494
 5314SOL     OW27577   2.457   3.265   0.684  0.3308  0.6656  0.0496
 5314SOL    HW127578   2.485   3.352   0.657  3.1025 -0.1420  0.2696
 5314SOL    HW227579   2.546   3.229   0.680 -1.9620 -5.1964  1.3661
 5315SOL     OW27580   1.966   0.456  13.153  0.5340 -1.0904  0.5992
 5315SOL    HW127581   2.023   0.514  13.103 -0.6532 -1.6970 -1.4424
 5315SOL    HW227582   1.884   0.504  13.148  0.7290 -0.7921  0.2591
 5316SOL     OW27583   1.265   2.298   8.932  0.1817 -0.0973  0.3395
 5316SOL    HW127584   1.293   2.344   9.011  1.9932 -2.4808  1.0738
 5316SOL    HW227585   1.238   2.212   8.964 -0.0443 -0.2625 -0.3041
 5317SOL     OW27586   0.348   4.308   2.542  0.0542 -0.1725 -0.2823
 5317SOL    HW127587   0.273   4.261   2.578  0.0725  1.0083  1.3003
 5317SOL    HW227588   0.415   4.239   2.546 -0.0866 -0.2833  0.1377
 5318SOL     OW27589   2.770   1.427   2.806  0.9852  0.7199 -0.3749
 5318SOL    HW127590   2.783   1.334   2.790  1.1261  0.5743  0.6023
 5318SOL    HW227591   2.762   1.432   2.901  1.4263 -0.4810 -0.2730
 5319SOL     OW27592   0.351   4.630   3.832  0.0303  0.2589  0.3203
 5319SOL    HW127593   0.390   4.575   3.900 -1.3524  1.8394  2.4057
 5319SOL    HW227594   0.367   4.713   3.876  0.0176  0.2310  0.3769
 5320SOL     OW27595   3.432   2.911   1.593  0.3748 -0.5983 -0.6185
 5320SOL    HW127596   3.423   3.005   1.612  0.8250 -0.9269  1.2534
 5320SOL    HW227597   3.356   2.863   1.624  0.9953  1.2519  3.7388
 5321SOL     OW27598   3.723   2.653   7.510 -0.4089 -0.6152 -0.7296
 5321SOL    HW127599   3.650   2.592   7.521  0.3204 -1.2764  0.3810
 5321SOL    HW227600   3.692   2.721   7.569  1.8113 -1.6816  1.6935
 5322SOL     OW27601   3.933   3.319   2.730  0.1398 -0.2675 -0.5538
 5322SOL    HW127602   4.019   3.289   2.701  0.7724 -0.0141  1.0876
 5322SOL    HW227603   3.940   3.278   2.816  2.7806  1.6868  0.1697
 5323SOL     OW27604   0.432   0.903   2.310  0.0028 -0.0619 -0.7618
 5323SOL    HW127605   0.485   0.951   2.246 -0.4918 -1.7484 -2.4628
 5323SOL    HW227606   0.343   0.932   2.290 -0.0134  0.0283 -0.5516
 5324SOL     OW27607   4.197   0.966   6.396 -0.0695 -0.0414  0.2641
 5324SOL    HW127608   4.256   0.943   6.324  1.6049  0.3542  1.5174
 5324SOL    HW227609   4.120   0.922   6.360  0.2937 -0.3722 -0.1114
 5325SOL     OW27610   1.346   0.121  15.301  0.1553  0.5755 -0.3861
 5325SOL    HW127611   1.373   0.031  15.289 -0.5906  0.3734 -0.5224
 5325SOL    HW227612   1.286   0.122  15.227  0.8100  1.6250 -0.9038
 5326SOL     OW27613   1.032   1.309   8.567 -0.1918 -0.0660  0.0599
 5326SOL    HW127614   1.118   1.351   8.566 -0.3841  0.3981  2.5482
 5326SOL    HW227615   1.016   1.307   8.473 -1.5700 -1.2461  0.3153
 5327SOL     OW27616   4.475   3.762   3.187  0.0696 -0.3431 -0.2589
 5327SOL    HW127617   4.524   3.716   3.255  0.1469  1.1491  0.7000
 5327SOL    HW227618   4.393   3.762   3.236 -0.6992 -0.0985 -1.5458
 5328SOL     OW27619   2.429   4.318   2.156  0.1458 -0.2963  0.1771
 5328SOL    HW127620   2.391   4.267   2.228  0.0549 -0.3781  0.0706
 5328SOL    HW227621   2.347   4.342   2.112 -0.1661 -2.3376 -0.3569
 5329SOL     OW27622   4.562   1.929   0.497 -0.4045 -0.6238  0.6261
 5329SOL    HW127623   4.541   1.982   0.420 -0.2897 -0.0798  0.9650
 5329SOL    HW227624   4.575   1.840   0.464  1.4459 -0.3753  0.6826
 5330SOL     OW27625   0.722   2.672   6.938 -0.2952 -0.0889 -0.2590
 5330SOL    HW127626   0.771   2.609   6.992 -1.0137 -1.2133 -0.9147
 5330SOL    HW227627   0.700   2.746   6.995  0.3245  1.4225 -2.0077
 5331SOL     OW27628   1.256   3.831   8.612 -0.3466  0.7862  0.6166
 5331SOL    HW127629   1.306   3.753   8.635 -1.1228  0.0491 -0.2049
 5331SOL    HW227630   1.330   3.888   8.590  0.8883 -0.8536  0.5762
 5332SOL     OW27631   3.180   1.385   8.001  0.3811  0.0898  0.1792
 5332SOL    HW127632   3.176   1.480   7.998  0.2579  0.1167  1.4040
 5332SOL    HW227633   3.260   1.376   8.053  1.9514  0.2066 -2.2031
 5333SOL     OW27634   0.954   2.873   7.039 -0.0420 -0.2992  0.4598
 5333SOL    HW127635   1.046   2.854   7.061  0.6232  0.9568 -1.2176
 5333SOL    HW227636   0.926   2.790   7.002  0.4223 -0.3219  0.1543
 5334SOL     OW27637   2.248   3.910   7.933 -0.5921  0.2061  0.3535
 5334SOL    HW127638   2.328   3.860   7.918 -0.7388 -0.4665  1.8488
 5334SOL    HW227639   2.188   3.847   7.973 -0.1129  0.3692  1.3277
 5335SOL     OW27640   4.156   1.682   9.414 -0.1067  0.1563  0.5181
 5335SOL    HW127641   4.103   1.711   9.488 -1.5008 -0.7824 -0.1280
 5335SOL    HW227642   4.247   1.700   9.440  0.6023 -1.3974 -0.8588
 5336SOL     OW27643   1.329   3.899   9.853 -0.0742 -0.2956 -0.1667
 5336SOL    HW127644   1.236   3.915   9.867 -0.3223 -0.8535 -1.1782
 5336SOL    HW227645   1.335   3.806   9.834 -0.9089 -0.2479 -0.6617
 5337SOL     OW27646   3.596   4.441  15.304  0.6394 -0.3315 -0.1194
 5337SOL    HW127647   3.637   4.358  15.331 -0.4947 -0.5736  0.8371
 5337SOL    HW227648   3.575   4.490  15.383  0.2884 -1.3592  0.4203
 5338SOL     OW27649   0.610   2.972   5.723  0.2652  0.3497  0.0663
 5338SOL    HW127650   0.528   3.002   5.761  0.4289  1.0825 -0.1689
 5338SOL    HW227651   0.578   2.908   5.660 -2.0864  0.6976  0.9259
 5339SOL     OW27652   3.633   1.471   5.503  1.6716 -0.2829  0.6511
 5339SOL    HW127653   3.638   1.491   5.410 -0.4327  0.6682  0.7366
 5339SOL    HW227654   3.625   1.376   5.494  0.5640 -0.2141  0.7960
 5340SOL     OW27655   3.093   4.229   2.935 -0.3009  0.3165  0.0821
 5340SOL    HW127656   3.073   4.190   3.021  2.2894 -0.8830  0.1297
 5340SOL    HW227657   3.161   4.292   2.959 -0.1205  0.4986 -0.9052
 5341SOL     OW27658   3.767   0.966  17.704  0.0496  0.0377 -0.2025
 5341SOL    HW127659   3.757   0.976  17.609  0.5202 -1.7314 -0.4365
 5341SOL    HW227660   3.713   1.040  17.732  1.1252  0.9282 -0.4926
 5342SOL     OW27661   1.986   2.687   6.685 -0.0732  0.5452  0.0968
 5342SOL    HW127662   1.990   2.724   6.597 -0.1564  0.4117  0.0358
 5342SOL    HW227663   1.988   2.594   6.661 -0.5406  0.9274 -1.4226
 5343SOL     OW27664   2.872   1.048  15.588 -0.1284 -0.4132  0.1134
 5343SOL    HW127665   2.794   1.044  15.644  0.7267  1.8362  1.4193
 5343SOL    HW227666   2.840   1.008  15.507  0.2061 -0.2682 -0.0904
 5344SOL     OW27667   0.318   1.099  16.217 -0.3167 -0.8570 -0.1424
 5344SOL    HW127668   0.385   1.166  16.210  0.3551 -1.5156 -0.0615
 5344SOL    HW227669   0.242   1.147  16.182  0.1824  1.8432  2.5276
 5345SOL     OW27670   3.048   0.575   0.608  0.1339  0.5545 -0.3757
 5345SOL    HW127671   2.991   0.579   0.685 -1.0244  0.0408 -1.2169
 5345SOL    HW227672   2.999   0.510   0.557  0.8312  0.1824 -0.5739
 5346SOL     OW27673   3.247   2.751  16.534  0.2478 -0.2968  0.0005
 5346SOL    HW127674   3.297   2.670  16.530  1.1700  0.2341  0.8836
 5346SOL    HW227675   3.177   2.718  16.478  1.3987 -2.5851 -0.0934
 5347SOL     OW27676   1.454   4.076   8.798  0.1740  0.1614 -0.6994
 5347SOL    HW127677   1.423   3.998   8.844 -2.0474  0.6962 -1.2881
 5347SOL    HW227678   1.378   4.135   8.795 -0.0385 -0.0660  0.0896
 5348SOL     OW27679   1.905   2.690   9.318 -0.6793 -0.2800  0.5791
 5348SOL    HW127680   1.890   2.772   9.270  0.8614 -0.6097 -0.4690
 5348SOL    HW227681   1.850   2.702   9.395  0.6925 -0.6165  1.6141
 5349SOL     OW27682   2.391   1.658   5.050  0.6357  0.3063  0.2036
 5349SOL    HW127683   2.450   1.726   5.084  0.3533  0.9307 -0.5314
 5349SOL    HW227684   2.314   1.710   5.025  1.6018  0.6204 -2.1628
 5350SOL     OW27685   4.647   0.500   4.104 -0.0327  0.1824  0.1628
 5350SOL    HW127686   4.664   0.577   4.157  2.2506  0.6357 -1.2227
 5350SOL    HW227687   4.728   0.450   4.120 -0.3557  0.1135  1.5085
 5351SOL     OW27688   0.982   2.918   5.946 -0.1623 -0.0087  0.3526
 5351SOL    HW127689   1.066   2.915   5.990  0.7869 -0.8060 -1.5070
 5351SOL    HW227690   1.002   3.000   5.901  4.5005 -1.5228 -0.2325
 5352SOL     OW27691   0.027   0.224   6.380  0.1566  0.2002 -0.0713
 5352SOL    HW127692   0.097   0.217   6.315  0.2810  1.9463 -0.1244
 5352SOL    HW227693   4.727   0.135   6.374  3.1904 -0.8459 -1.8330
 5353SOL     OW27694   1.020   4.499  12.383  0.2607 -0.5364  0.6312
 5353SOL    HW127695   1.007   4.565  12.451  1.3022  1.5249 -1.1753
 5353SOL    HW227696   1.099   4.453  12.411 -0.3511 -1.7801  0.3316
 5354SOL     OW27697   2.120   3.700   8.057  0.2412  0.8073 -1.0119
 5354SOL    HW127698   2.209   3.681   8.087 -0.3533 -0.3277  0.0128
 5354SOL    HW227699   2.064   3.651   8.117  0.3277  0.1996 -1.4232
 5355SOL     OW27700   2.032   1.217   8.991  0.0824  0.1604 -0.2077
 5355SOL    HW127701   2.009   1.190   9.081 -1.8330  0.0670 -0.7176
 5355SOL    HW227702   2.125   1.226   9.009 -0.2745  2.1418  0.5996
 5356SOL     OW27703   4.533   3.954   5.638  0.1502  0.2726 -0.5304
 5356SOL    HW127704   4.518   3.913   5.553 -2.1550 -1.4539  0.7011
 5356SOL    HW227705   4.628   3.953   5.630  0.5196  0.1765  3.5794
 5357SOL     OW27706   0.747   0.529   8.295  0.3650 -0.9215 -0.1052
 5357SOL    HW127707   0.824   0.585   8.286 -0.5084  0.2399 -0.3393
 5357SOL    HW227708   0.685   0.594   8.328  1.6511  0.3751 -0.2490
 5358SOL     OW27709   2.575   3.865   4.654 -0.2728 -0.1551  0.3648
 5358SOL    HW127710   2.559   3.770   4.661  0.8069 -0.2970  0.9987
 5358SOL    HW227711   2.636   3.874   4.581 -0.0817 -0.7003  0.4524
 5359SOL     OW27712   2.522   0.452   9.284 -0.2137  0.6129 -0.0159
 5359SOL    HW127713   2.594   0.457   9.221 -1.0783  1.8539 -0.8974
 5359SOL    HW227714   2.442   0.468   9.234  0.0645 -0.8107 -0.9022
 5360SOL     OW27715   3.035   2.624  16.409  0.6037  0.0484  0.0357
 5360SOL    HW127716   3.077   2.564  16.348  1.1779  1.5479 -1.0577
 5360SOL    HW227717   2.941   2.609  16.399  0.2856  1.4414  0.9426
 5361SOL     OW27718   4.146   3.242  14.196  0.4231 -0.1431  0.1190
 5361SOL    HW127719   4.204   3.277  14.264  0.5322 -1.2780  0.6147
 5361SOL    HW227720   4.083   3.201  14.256 -1.4085  2.5416  0.0038
 5362SOL     OW27721   3.319   2.978   0.787  0.4195  0.3130  0.5053
 5362SOL    HW127722   3.378   2.915   0.830 -0.6495 -1.4312 -0.5859
 5362SOL    HW227723   3.240   2.924   0.787  0.8637 -0.3293 -1.0392
 5363SOL     OW27724   0.366   2.662   1.623 -0.0612  0.6505  0.0157
 5363SOL    HW127725   0.408   2.624   1.701 -0.2593 -1.3277 -0.8437
 5363SOL    HW227726   0.372   2.755   1.647 -1.7475  0.3965  1.3990
 5364SOL     OW27727   4.301   0.034   9.221 -0.2417 -0.2324  0.0997
 5364SOL    HW127728   4.211   0.027   9.189 -0.1167  1.9974 -0.7171
 5364SOL    HW227729   4.298   0.126   9.250 -0.2821  0.6216 -2.6531
 5365SOL     OW27730   3.900   1.950   4.160  0.2571  0.3386 -0.0362
 5365SOL    HW127731   3.895   1.984   4.249 -0.2274 -2.1503  0.8840
 5365SOL    HW227732   3.824   1.999   4.130 -0.4217 -2.1688 -2.4517
 5366SOL     OW27733   0.362   1.631   1.986 -0.2685  0.0964  0.4385
 5366SOL    HW127734   0.314   1.714   1.974  2.1053  1.4450  0.3654
 5366SOL    HW227735   0.288   1.571   1.995  0.4610 -0.9414 -0.5556
 5367SOL     OW27736   2.048   1.413   7.577  0.2323 -0.5382 -0.1258
 5367SOL    HW127737   2.084   1.468   7.508  0.4906 -0.0167  0.4221
 5367SOL    HW227738   1.957   1.395   7.552  0.3422  0.0424 -0.9299
 5368SOL     OW27739   1.921   0.683   2.084 -0.0209 -0.2186 -0.0453
 5368SOL    HW127740   1.916   0.647   1.995 -1.4874 -0.3195  0.0810
 5368SOL    HW227741   1.995   0.743   2.071 -0.1661 -0.2879 -1.1693
 5369SOL     OW27742   2.416   2.457  17.667  0.1786 -0.5009  0.0827
 5369SOL    HW127743   2.448   2.392  17.604  0.0083  0.1435 -0.6565
 5369SOL    HW227744   2.485   2.446  17.733  0.6967  1.7430 -0.1034
 5370SOL     OW27745   3.501   4.073  17.033 -0.8046  0.4914  0.4101
 5370SOL    HW127746   3.450   4.109  16.961  0.9105  0.6090 -0.7264
 5370SOL    HW227747   3.541   3.997  16.990  0.2274  0.7999  0.8137
 5371SOL     OW27748   2.448   1.661   3.661  0.0768  0.3261 -0.3940
 5371SOL    HW127749   2.516   1.605   3.696  0.3044  0.7885 -0.1018
 5371SOL    HW227750   2.454   1.666   3.565 -1.6291 -1.0784 -0.5680
 5372SOL     OW27751   0.646   3.460  14.009  0.7296  0.2298  0.6446
 5372SOL    HW127752   0.565   3.474  14.057 -0.2116 -0.1289 -0.8544
 5372SOL    HW227753   0.639   3.370  13.975  0.7127 -0.3685  2.2396
 5373SOL     OW27754   0.969   4.364   9.327  0.3682  0.2803 -0.3846
 5373SOL    HW127755   0.971   4.448   9.373 -3.6112  0.0304  0.2518
 5373SOL    HW227756   0.885   4.352   9.284  2.2071 -1.2590 -3.5732
 5374SOL     OW27757   3.648   4.634   6.302  0.0025  1.0225 -0.7513
 5374SOL    HW127758   3.706   4.600   6.233  2.0529  1.3018  0.8408
 5374SOL    HW227759   3.619   4.710   6.252  0.0333 -0.3356 -2.8774
 5375SOL     OW27760   0.270   1.265   4.497 -0.0393  0.2314  0.0479
 5375SOL    HW127761   0.182   1.238   4.473  0.4799 -2.1243  0.8103
 5375SOL    HW227762   0.297   1.315   4.419 -0.0094  0.6415  0.3178
 5376SOL     OW27763   1.636   2.048   1.198 -0.2510 -0.0711 -0.0574
 5376SOL    HW127764   1.705   2.046   1.132  0.7515  0.9127  0.9517
 5376SOL    HW227765   1.668   2.096   1.274  0.9278 -1.0004  0.0377
 5377SOL     OW27766   1.922   4.512   8.518 -0.4578 -0.1122  0.0396
 5377SOL    HW127767   1.956   4.521   8.608  3.0545 -2.7193 -1.0444
 5377SOL    HW227768   1.831   4.541   8.528 -0.5020  0.0180 -0.7771
 5378SOL     OW27769   3.936   0.357   5.065 -0.1741  0.3440 -0.1508
 5378SOL    HW127770   4.019   0.327   5.102 -1.5835 -1.2747  1.6801
 5378SOL    HW227771   3.930   0.436   5.120  0.5814  1.4140 -1.6033
 5379SOL     OW27772   0.945   4.166   3.350 -0.1985 -0.1523  0.4444
 5379SOL    HW127773   0.887   4.134   3.281  1.2446 -2.0151  0.0572
 5379SOL    HW227774   1.028   4.132   3.315 -0.5843  0.4406 -1.0222
 5380SOL     OW27775   1.710   2.124  17.388 -0.2822  0.5386  0.4706
 5380SOL    HW127776   1.711   2.176  17.469  0.2957 -0.6449  1.2307
 5380SOL    HW227777   1.661   2.179  17.327 -1.4539  0.2712  1.1565
 5381SOL     OW27778   1.988   3.104  11.420 -0.3435 -0.2209 -0.3359
 5381SOL    HW127779   1.945   3.180  11.380 -0.8529 -0.4956 -0.3223
 5381SOL    HW227780   2.050   3.139  11.483  2.3615  2.5213 -4.5660
 5382SOL     OW27781   1.103   1.431   6.148  0.1105  0.3014  0.3249
 5382SOL    HW127782   1.138   1.453   6.235 -1.4283 -0.3960  1.1045
 5382SOL    HW227783   1.170   1.474   6.095  0.3055 -2.9762 -2.0464
 5383SOL     OW27784   2.769   0.960  15.352  0.6106  0.3667 -0.1091
 5383SOL    HW127785   2.748   1.029  15.290  1.5703 -0.5930 -1.4993
 5383SOL    HW227786   2.728   0.883  15.311  0.5953  0.6548 -0.6358
 5384SOL     OW27787   3.583   3.100   9.994  0.7613  0.6824 -0.4355
 5384SOL    HW127788   3.526   3.105  10.071  2.3482  0.2002  0.7896
 5384SOL    HW227789   3.527   3.112   9.918  0.7096  1.4969 -0.2646
 5385SOL     OW27790   1.742   3.451   0.795  0.3549 -0.3656 -0.7394
 5385SOL    HW127791   1.777   3.363   0.813  1.7736  0.0237 -1.6645
 5385SOL    HW227792   1.648   3.431   0.801  0.5026 -0.9071 -0.2166
 5386SOL     OW27793   0.197   1.446   9.690  0.0298  0.0761 -0.0168
 5386SOL    HW127794   0.151   1.516   9.736  1.0143 -0.6824  2.0987
 5386SOL    HW227795   0.129   1.379   9.703 -1.2835  1.0937 -1.6814
 5387SOL     OW27796   2.451   3.623   6.516  0.0673  0.1818 -0.3157
 5387SOL    HW127797   2.492   3.709   6.523  1.9163 -0.6425 -0.8861
 5387SOL    HW227798   2.434   3.615   6.422  1.6939 -3.1958 -0.3446
 5388SOL     OW27799   3.289   3.436  17.179  0.1248  0.5940  0.3482
 5388SOL    HW127800   3.211   3.491  17.171 -1.6584 -1.8947  0.6258
 5388SOL    HW227801   3.281   3.369  17.111 -3.2454  0.6805  0.6695
 5389SOL     OW27802   4.163   0.637   5.615 -0.0407 -0.0039  0.1515
 5389SOL    HW127803   4.186   0.712   5.561  1.8262 -0.6710  0.0326
 5389SOL    HW227804   4.230   0.653   5.681  0.6355  2.3243 -1.0945
 5390SOL     OW27805   2.248   2.923  11.786 -0.8080 -0.6250 -0.9683
 5390SOL    HW127806   2.330   2.875  11.773 -0.4969 -0.1814 -0.6348
 5390SOL    HW227807   2.285   3.007  11.812  0.1265 -1.8337  1.5931
 5391SOL     OW27808   2.021   4.258   1.034 -0.2448  0.4001  0.1161
 5391SOL    HW127809   1.975   4.341   1.019  1.1553  1.2875  0.6650
 5391SOL    HW227810   1.989   4.208   0.959 -0.2706  2.2888 -1.1344
 5392SOL     OW27811   1.767   4.066   7.630 -0.0527 -0.1266 -0.2314
 5392SOL    HW127812   1.858   4.039   7.646 -0.0339  0.1105  0.0551
 5392SOL    HW227813   1.754   4.114   7.711 -0.5916  0.0985 -0.4523
 5393SOL     OW27814   3.026   0.941   8.275 -0.7033 -0.0012 -0.4507
 5393SOL    HW127815   3.021   0.953   8.180  2.1578 -1.2909 -0.7506
 5393SOL    HW227816   2.983   0.855   8.280 -1.3195  0.4208  1.7480
 5394SOL     OW27817   1.992   2.170   8.793  0.3656  0.4414  0.1825
 5394SOL    HW127818   1.976   2.263   8.812 -0.5234  0.0587  1.2555
 5394SOL    HW227819   1.902   2.144   8.811  0.1844 -0.1041 -1.5082
 5395SOL     OW27820   4.697   2.327   9.563 -0.3288 -0.1814  0.5057
 5395SOL    HW127821   0.049   2.287   9.558 -0.5624 -0.4000 -2.0298
 5395SOL    HW227822   4.643   2.255   9.531  0.3396  0.0359 -1.1306
 5396SOL     OW27823   1.039   1.914   6.256 -0.0060  0.4969 -0.1803
 5396SOL    HW127824   1.078   1.854   6.193 -1.2063 -1.2260  0.6959
 5396SOL    HW227825   1.066   1.882   6.342  0.2416 -0.6144 -0.6617
 5397SOL     OW27826   3.863   2.317   5.626 -0.9623 -0.0042 -0.7206
 5397SOL    HW127827   3.900   2.405   5.629  0.0686 -0.4947  0.6679
 5397SOL    HW227828   3.770   2.333   5.647 -0.5916  2.3593 -0.8618
 5398SOL     OW27829   2.413   4.279   8.741  0.0865  0.0727 -0.3596
 5398SOL    HW127830   2.378   4.191   8.748  0.3939  0.0104  0.3027
 5398SOL    HW227831   2.404   4.294   8.646  2.5489  2.7057 -0.1761
 5399SOL     OW27832   4.402   1.148   6.678  0.3490  0.3900 -0.8405
 5399SOL    HW127833   4.397   1.055   6.655  2.5328  0.4132 -1.4170
 5399SOL    HW227834   4.439   1.132   6.765  3.7350  1.8220 -2.0068
 5400SOL     OW27835   3.254   4.060  15.740 -0.3130 -0.1446 -0.2227
 5400SOL    HW127836   3.254   4.136  15.798 -0.5818  1.0787 -1.8552
 5400SOL    HW227837   3.184   4.088  15.681 -2.1320  1.1411  2.5674
 5401SOL     OW27838   0.861   4.152   9.939 -0.4161 -0.3918  0.3340
 5401SOL    HW127839   0.815   4.143   9.856 -0.2465 -1.2037  0.3191
 5401SOL    HW227840   0.788   4.198   9.980 -0.7823  0.3126 -1.1312
 5402SOL     OW27841   1.128   2.075  15.805  0.8188  0.3440  0.2022
 5402SOL    HW127842   1.063   2.145  15.803 -0.6730 -1.0579 -0.0183
 5402SOL    HW227843   1.170   2.085  15.890  0.0243 -2.0163  0.8683
 5403SOL     OW27844   1.864   4.226   8.736 -0.2572 -0.0352  0.0467
 5403SOL    HW127845   1.954   4.240   8.705 -0.9001 -0.4463 -1.9929
 5403SOL    HW227846   1.876   4.148   8.790 -1.3795  0.6445  1.2851
 5404SOL     OW27847   1.755   0.477  10.138  0.4497  0.3122  0.2866
 5404SOL    HW127848   1.717   0.563  10.154  1.2835  0.4954  1.2817
 5404SOL    HW227849   1.756   0.473  10.043  2.3714  0.9914  0.2601
 5405SOL     OW27850   0.182   2.341  14.439  0.3670 -0.4224 -0.2822
 5405SOL    HW127851   0.266   2.294  14.438  0.7589  0.2994 -1.6884
 5405SOL    HW227852   0.184   2.364  14.346  0.3701 -2.0752 -0.7053
 5406SOL     OW27853   2.013   3.430  12.649  0.3270  0.1076 -0.3187
 5406SOL    HW127854   1.953   3.356  12.646  0.7999 -0.2712 -0.4703
 5406SOL    HW227855   2.034   3.419  12.742  1.4695  0.2417 -0.5582
 5407SOL     OW27856   3.598   0.832   2.699  0.0233 -0.1060 -0.0581
 5407SOL    HW127857   3.550   0.771   2.755 -1.7712  0.5430 -0.8740
 5407SOL    HW227858   3.678   0.781   2.688 -0.3970 -0.5091 -1.1959
 5408SOL     OW27859   4.620   3.425   4.718 -0.4993 -0.1747  0.0737
 5408SOL    HW127860   4.581   3.372   4.649 -1.1574  0.7543 -0.2745
 5408SOL    HW227861   4.711   3.397   4.721 -0.3769  0.1695 -0.4276
 5409SOL     OW27862   4.244   1.978   6.146  0.0038 -0.2601 -0.0588
 5409SOL    HW127863   4.314   1.989   6.082 -0.3435 -1.6846 -0.6813
 5409SOL    HW227864   4.164   2.014   6.106  1.3635 -0.4204 -2.8589
 5410SOL     OW27865   2.121   0.923   7.959  0.2969 -0.1329 -0.4627
 5410SOL    HW127866   2.203   0.951   7.999 -0.6786  0.3176  1.2384
 5410SOL    HW227867   2.055   0.979   8.001  0.9765  0.9397 -0.8167
 5411SOL     OW27868   3.538   3.594   3.366 -0.0381 -0.1665  0.0846
 5411SOL    HW127869   3.557   3.680   3.328  1.5013 -0.1742  0.8340
 5411SOL    HW227870   3.571   3.615   3.453  0.0806 -3.1700  0.7560
 5412SOL     OW27871   4.468   2.446  16.635 -0.7613  0.2986 -0.9053
 5412SOL    HW127872   4.486   2.536  16.610  1.6862  0.8504  2.8700
 5412SOL    HW227873   4.517   2.433  16.716 -0.9864  2.9137 -0.3566
 5413SOL     OW27874   0.650   3.588   7.824  0.1937 -0.3817  0.7229
 5413SOL    HW127875   0.586   3.649   7.789 -0.9025 -1.2845  1.1471
 5413SOL    HW227876   0.667   3.619   7.913  0.3677 -0.7964  0.8373
 5414SOL     OW27877   2.509   2.450   4.121  0.0496  0.0011  0.3881
 5414SOL    HW127878   2.602   2.432   4.140  1.0728  4.5239 -0.3018
 5414SOL    HW227879   2.516   2.545   4.133  1.3032 -0.1687  1.0943
 5415SOL     OW27880   4.220   0.240   6.957  0.7341 -0.7077  0.2166
 5415SOL    HW127881   4.224   0.315   7.017  0.3240  0.6920 -1.4961
 5415SOL    HW227882   4.247   0.166   7.012 -0.8612 -0.3156  1.5466
 5416SOL     OW27883   4.449   1.535   7.216 -0.5322  0.4676 -0.4230
 5416SOL    HW127884   4.463   1.480   7.294  0.6860 -0.4929 -1.3208
 5416SOL    HW227885   4.509   1.605   7.239 -0.5939  0.1847  0.5965
 5417SOL     OW27886   3.651   0.854   8.952 -0.0368 -0.4074  0.0497
 5417SOL    HW127887   3.614   0.914   8.888 -1.1837 -1.7591 -0.5593
 5417SOL    HW227888   3.722   0.818   8.899 -0.0511 -0.7737  0.2724
 5418SOL     OW27889   0.390   3.007   3.952 -0.1194 -0.1151  0.0482
 5418SOL    HW127890   0.452   2.983   3.883 -0.0762 -1.0291  0.3981
 5418SOL    HW227891   0.379   2.921   3.992  1.2748 -0.9632 -1.3841
 5419SOL     OW27892   2.024   0.637   6.678 -0.0309  0.0640 -0.2499
 5419SOL    HW127893   2.084   0.711   6.684 -0.5311  0.5716 -1.3798
 5419SOL    HW227894   1.976   0.657   6.597 -0.6526 -0.7739 -0.0879
 5420SOL     OW27895   0.655   1.144   4.147  0.5442 -0.1818  0.4029
 5420SOL    HW127896   0.561   1.139   4.162  0.2328  2.3927 -0.8387
 5420SOL    HW227897   0.663   1.234   4.178 -0.8956  0.1746 -0.2644
 5421SOL     OW27898   0.144   0.369   5.188 -0.3329 -0.0915  0.3503
 5421SOL    HW127899   0.078   0.300   5.183 -0.1956 -0.2403  0.6204
 5421SOL    HW227900   0.089   0.447   5.176 -1.1716 -0.9000 -1.0764
 5422SOL     OW27901   2.225   4.474  16.067  0.1066  0.1619  0.3619
 5422SOL    HW127902   2.259   4.385  16.062 -0.1841  0.1402 -1.3013
 5422SOL    HW227903   2.278   4.514  15.998 -0.0101 -0.0626  0.1436
 5423SOL     OW27904   1.487   2.268  15.288 -0.0642 -0.1477  0.3462
 5423SOL    HW127905   1.558   2.205  15.280 -0.2540 -0.4126  0.7221
 5423SOL    HW227906   1.421   2.213  15.332  0.7454 -1.5651 -0.2353
 5424SOL     OW27907   4.619   2.917   6.379 -0.0187  0.1919  0.2189
 5424SOL    HW127908   4.694   2.905   6.436 -0.8404 -2.0316  0.8521
 5424SOL    HW227909   4.570   2.838   6.404  0.5985  0.1525  1.2601
 5425SOL     OW27910   2.559   2.219   2.852 -0.0929 -0.4588  0.3112
 5425SOL    HW127911   2.644   2.176   2.838  0.3541  0.5749 -0.2239
 5425SOL    HW227912   2.502   2.149   2.882 -1.8269  0.6192 -0.4522
 5426SOL     OW27913   4.466   1.895   1.786 -0.4064 -0.7418  0.6103
 5426SOL    HW127914   4.382   1.940   1.792 -0.2518 -0.8979  3.9204
 5426SOL    HW227915   4.443   1.832   1.854 -0.9301  0.8713  1.9071
 5427SOL     OW27916   1.528   4.570   2.973 -0.4585 -0.3680 -0.2916
 5427SOL    HW127917   1.525   4.654   2.928  0.1120  0.3257  0.9705
 5427SOL    HW227918   1.569   4.583   3.059 -0.6752 -0.2574 -0.2053
 5428SOL     OW27919   3.403   0.067   6.724  0.1666  0.5994 -0.4367
 5428SOL    HW127920   3.483   0.119   6.719 -0.1324  1.2328  1.4475
 5428SOL    HW227921   3.392   0.011   6.801  3.4837  0.1761 -0.2807
 5429SOL     OW27922   3.617   0.077   6.106  0.5192  0.1888 -0.1555
 5429SOL    HW127923   3.704   0.095   6.072  0.8913 -1.4306 -0.0123
 5429SOL    HW227924   3.583   0.022   6.036 -1.0950  2.4319 -1.1719
 5430SOL     OW27925   0.570   4.206   5.340 -0.1611 -0.1556 -0.0188
 5430SOL    HW127926   0.547   4.114   5.331 -0.0062  0.0606 -2.5984
 5430SOL    HW227927   0.509   4.248   5.280  0.4450  0.5002 -0.1863
 5431SOL     OW27928   1.577   2.391   2.924  0.2852  0.1803  0.1457
 5431SOL    HW127929   1.531   2.365   3.005 -0.1477 -0.8287 -0.4209
 5431SOL    HW227930   1.496   2.419   2.881  0.9950  2.5696  0.4115
 5432SOL     OW27931   2.436   0.543   9.528 -0.2570 -0.0984  0.2091
 5432SOL    HW127932   2.445   0.513   9.437 -0.8394  1.4884 -0.3718
 5432SOL    HW227933   2.402   0.467   9.573 -2.8966  0.4471 -0.9011
 5433SOL     OW27934   0.293   1.016   6.445  0.7727 -0.0518 -0.4184
 5433SOL    HW127935   0.340   0.967   6.376  0.0485 -0.2584 -0.7635
 5433SOL    HW227936   0.295   0.946   6.510  0.5472  0.4228  0.0845
 5434SOL     OW27937   0.080   2.669   1.490  0.6758  0.4775 -0.2292
 5434SOL    HW127938   0.160   2.722   1.487  0.1914  1.2170 -0.1837
 5434SOL    HW227939   0.107   2.577   1.492 -1.2362 -0.0546  0.2840
 5435SOL     OW27940   0.177   2.135  10.316  0.2271 -0.5737 -0.0614
 5435SOL    HW127941   0.153   2.046  10.343  1.7383 -0.8091  0.5298
 5435SOL    HW227942   0.165   2.114  10.223 -0.9889 -0.5399  0.0891
 5436SOL     OW27943   2.689   0.901   3.521  0.1295  0.0511 -0.6506
 5436SOL    HW127944   2.625   0.846   3.565 -0.8983  1.0162 -0.9333
 5436SOL    HW227945   2.714   0.959   3.593  2.0875  0.8831 -2.0032
 5437SOL     OW27946   3.339   1.879   0.523 -0.6896  0.8293 -0.0817
 5437SOL    HW127947   3.316   1.810   0.460  0.0797 -1.7003  2.3831
 5437SOL    HW227948   3.330   1.953   0.464  0.2439  0.1271 -1.1179
 5438SOL     OW27949   0.276   3.879  13.534 -0.1304 -0.1588  1.1019
 5438SOL    HW127950   0.360   3.868  13.490 -0.6388  1.8902 -0.3558
 5438SOL    HW227951   0.232   3.805  13.493  1.3420  0.4967 -1.6770
 5439SOL     OW27952   3.894   0.402   2.838  0.1611  0.0998 -0.0826
 5439SOL    HW127953   3.967   0.343   2.857 -1.6020 -2.3633 -0.9960
 5439SOL    HW227954   3.815   0.350   2.849 -0.8762  1.4460 -1.1119
 5440SOL     OW27955   3.609   4.167   7.260 -0.6034 -0.4489  0.5049
 5440SOL    HW127956   3.614   4.241   7.200 -1.9923  0.2308  1.2258
 5440SOL    HW227957   3.518   4.146   7.243 -0.7928  0.1595  0.7567
 5441SOL     OW27958   4.226   4.593   3.522  0.3186  0.1754  0.5744
 5441SOL    HW127959   4.185   4.509   3.502 -1.1469  0.8844  0.6602
 5441SOL    HW227960   4.319   4.571   3.511 -0.1098 -1.8460  0.9529
 5442SOL     OW27961   3.406   4.504   3.909  0.7668 -0.0143  0.1276
 5442SOL    HW127962   3.488   4.546   3.935  0.8409 -0.7990  1.1863
 5442SOL    HW227963   3.430   4.475   3.821 -0.1691  0.3263 -0.2411
 5443SOL     OW27964   2.098   1.465   6.585  0.5202 -0.0014 -0.5042
 5443SOL    HW127965   2.128   1.376   6.602  1.3624  0.5656  1.0307
 5443SOL    HW227966   2.162   1.518   6.633  0.3012  0.6648 -0.9489
 5444SOL     OW27967   3.748   0.275   8.189 -0.7181 -0.1154 -0.3816
 5444SOL    HW127968   3.680   0.227   8.142 -0.3385  0.5873 -1.6518
 5444SOL    HW227969   3.825   0.218   8.181  0.4917  1.6399 -1.4705
 5445SOL     OW27970   2.540   4.722   7.982 -0.2148 -0.3450  0.2012
 5445SOL    HW127971   2.576   0.028   7.904 -0.3528  2.1933  1.4582
 5445SOL    HW227972   2.576   0.040   8.053  0.8796  0.5424 -1.0183
 5446SOL     OW27973   3.213   1.831   0.900  0.1175  0.4990  0.0525
 5446SOL    HW127974   3.169   1.886   0.835 -0.2976  0.4095  0.2548
 5446SOL    HW227975   3.296   1.835   0.853 -0.9661  0.3568 -1.8697
 5447SOL     OW27976   3.343   0.124   9.738  0.2041  0.3255  0.3584
 5447SOL    HW127977   3.405   0.192   9.764 -0.0551  1.0464 -0.9552
 5447SOL    HW227978   3.279   0.126   9.810 -0.2451  0.5992 -0.0490
 5448SOL     OW27979   3.910   1.940  14.186  0.0748 -0.5634 -0.1009
 5448SOL    HW127980   3.842   1.875  14.166  1.1501 -2.3920  2.2150
 5448SOL    HW227981   3.978   1.892  14.233 -1.1702 -2.1076  0.1018
 5449SOL     OW27982   1.580   4.023   9.865 -0.6339 -0.5898  0.4475
 5449SOL    HW127983   1.504   3.965   9.868  0.5963 -2.2879 -1.2370
 5449SOL    HW227984   1.635   3.975   9.803  1.6509  1.7566  0.6558
 5450SOL     OW27985   0.505   0.919  16.498  0.1960  0.5259  0.6075
 5450SOL    HW127986   0.568   0.847  16.509 -0.1369  0.2743  0.8370
 5450SOL    HW227987   0.441   0.895  16.565 -0.4679  1.3407  0.2592
 5451SOL     OW27988   0.964   2.198   2.344  0.6743 -0.3038 -0.1029
 5451SOL    HW127989   0.890   2.142   2.322  0.5833 -0.1951 -0.0691
 5451SOL    HW227990   0.925   2.247   2.416 -1.0958 -2.1174  0.1775
 5452SOL     OW27991   4.312   4.004   9.167 -0.2695 -0.2955  0.1416
 5452SOL    HW127992   4.385   4.004   9.106  0.2979  0.8560  0.8253
 5452SOL    HW227993   4.252   3.937   9.134  1.5962 -1.7488 -0.2892
 5453SOL     OW27994   0.104   2.592   3.924 -0.3610 -0.2286  0.3499
 5453SOL    HW127995   0.180   2.549   3.883 -3.2916 -3.0417 -2.0988
 5453SOL    HW227996   0.047   2.521   3.953 -1.0312  0.6123  1.0852
 5454SOL     OW27997   1.188   0.407   6.509  0.3904 -0.1137  0.0666
 5454SOL    HW127998   1.192   0.501   6.494  1.4112  0.0135  1.1410
 5454SOL    HW227999   1.162   0.374   6.423  1.0613  0.3819 -0.3237
 5455SOL     OW28000   0.078   2.819  17.024  0.3547  0.8433 -0.3090
 5455SOL    HW128001   0.065   2.824  16.929 -1.2624 -1.2274 -0.1995
 5455SOL    HW228002   0.088   2.726  17.041  0.6057  0.8499 -0.4270
 5456SOL     OW28003   1.131   3.903  16.603  0.0491  0.3207 -0.6706
 5456SOL    HW128004   1.194   3.832  16.616  0.1109  0.5973  0.5392
 5456SOL    HW228005   1.049   3.860  16.629  0.8160 -0.1773  0.9252
 5457SOL     OW28006   0.867   2.789   7.687  0.6103 -0.4041 -0.6721
 5457SOL    HW128007   0.927   2.835   7.746 -0.0030  0.6014 -0.8319
 5457SOL    HW228008   0.924   2.725   7.644  2.8448  1.0342  0.1035
 5458SOL     OW28009   1.491   1.058   4.270  0.4418 -0.1023 -0.4234
 5458SOL    HW128010   1.428   0.988   4.285 -0.8646  1.1834  0.1809
 5458SOL    HW228011   1.572   1.010   4.283  0.8440  0.8000  0.3560
 5459SOL     OW28012   3.884   0.620   0.722 -0.1520 -0.0898 -0.7163
 5459SOL    HW128013   3.853   0.610   0.632  0.2003 -0.8022 -0.7568
 5459SOL    HW228014   3.967   0.573   0.723  0.7525  1.4894 -0.9038
 5460SOL     OW28015   2.326   4.335   6.604  0.2746 -0.5835  0.4190
 5460SOL    HW128016   2.281   4.286   6.672 -0.0972 -0.3806  0.3193
 5460SOL    HW228017   2.266   4.313   6.533  1.3097 -1.4446 -0.1885
 5461SOL     OW28018   2.238   1.128  15.851  0.1242 -0.2266  0.1330
 5461SOL    HW128019   2.201   1.163  15.932  0.0658 -0.9898  0.4405
 5461SOL    HW228020   2.300   1.197  15.826 -1.3615  1.1237  0.1692
 5462SOL     OW28021   0.111   3.006   2.301 -1.0420  0.5370 -0.4794
 5462SOL    HW128022   0.075   3.051   2.377 -1.4785  0.9683 -0.9438
 5462SOL    HW228023   0.042   2.979   2.240 -0.2878 -1.4806 -0.4470
 5463SOL     OW28024   1.687   2.888   6.755 -0.0909 -0.2102 -0.7987
 5463SOL    HW128025   1.620   2.945   6.716 -0.5826 -0.6705 -0.6281
 5463SOL    HW228026   1.686   2.910   6.848  0.9566 -0.9915 -0.6166
 5464SOL     OW28027   0.607   0.293   9.367 -0.5095  0.3183 -0.1500
 5464SOL    HW128028   0.661   0.228   9.412 -1.8060  1.0645  2.5048
 5464SOL    HW228029   0.659   0.373   9.372  0.2914 -0.1172 -1.6141
 5465SOL     OW28030   2.011   3.443  17.524 -0.0864 -0.6051  0.1334
 5465SOL    HW128031   2.091   3.390  17.533 -0.9170 -1.8468  0.1452
 5465SOL    HW228032   2.034   3.512  17.587 -1.1499  0.2407 -0.4290
 5466SOL     OW28033   0.891   1.858  13.495  0.1647 -0.2500 -0.0585
 5466SOL    HW128034   0.806   1.897  13.514 -0.3192 -0.6741 -1.3308
 5466SOL    HW228035   0.945   1.877  13.572 -1.2732  1.0575  0.6286
 5467SOL     OW28036   2.349   0.972   3.073 -0.2884  0.3397  0.1685
 5467SOL    HW128037   2.327   0.931   3.157 -0.8975  0.8469  0.2554
 5467SOL    HW228038   2.422   0.914   3.049  1.6837  2.3803  1.1678
 5468SOL     OW28039   1.839   4.072   6.555 -0.2845 -0.2549  0.1840
 5468SOL    HW128040   1.876   4.088   6.468 -1.6827  0.5287 -0.2779
 5468SOL    HW228041   1.846   3.977   6.559 -0.7024 -0.3715 -2.0054
 5469SOL     OW28042   4.051   2.876  15.069 -0.1389  0.0562 -0.0777
 5469SOL    HW128043   4.045   2.852  14.977 -1.3619 -0.1862  0.0651
 5469SOL    HW228044   3.972   2.837  15.106 -0.7048  2.6012  1.4688
 5470SOL     OW28045   1.118   2.182   1.055 -0.4467 -0.3548 -0.2778
 5470SOL    HW128046   1.137   2.210   0.965 -1.1311 -1.1132 -0.6596
 5470SOL    HW228047   1.204   2.174   1.097  0.1899 -0.6359 -1.6180
 5471SOL     OW28048   0.102   3.853  11.197  0.2921  0.0654  0.5391
 5471SOL    HW128049   0.141   3.775  11.237  0.9419  0.0082 -0.1951
 5471SOL    HW228050   0.137   3.842  11.108  2.7647 -0.4591  1.5744
 5472SOL     OW28051   4.320   3.634   8.461  0.5714  0.7739  0.5654
 5472SOL    HW128052   4.281   3.720   8.475 -1.5349 -0.3007  1.4578
 5472SOL    HW228053   4.331   3.640   8.366 -1.5489  0.5214  0.2923
 5473SOL     OW28054   1.847   3.663   5.834  0.8427 -0.1813 -0.0603
 5473SOL    HW128055   1.884   3.578   5.809 -1.2530 -0.2269 -3.0151
 5473SOL    HW228056   1.793   3.637   5.909  2.3599 -0.2995  1.0000
 5474SOL     OW28057   3.732   2.335   9.967 -0.4323  0.1395 -0.5929
 5474SOL    HW128058   3.644   2.315   9.997 -0.8593  0.9704 -1.3252
 5474SOL    HW228059   3.764   2.394  10.035  0.7801  0.6792 -1.6318
 5475SOL     OW28060   1.717   0.288   3.862  0.2533 -0.7969  0.0461
 5475SOL    HW128061   1.743   0.206   3.819 -1.3244 -0.7563 -0.9601
 5475SOL    HW228062   1.623   0.299   3.854  0.0344 -0.8073  2.6462
 5476SOL     OW28063   4.626   1.817   4.119  0.2370  0.1436 -0.8214
 5476SOL    HW128064   4.614   1.778   4.206 -0.5359 -0.5289 -1.2234
 5476SOL    HW228065   4.604   1.736   4.072 -1.1857  0.3003 -0.4280
 5477SOL     OW28066   2.927   1.550   3.648 -0.6084 -0.1090 -0.3121
 5477SOL    HW128067   3.018   1.574   3.630 -0.9927  1.6336  0.0493
 5477SOL    HW228068   2.921   1.486   3.577  0.9519  0.0330 -0.5735
 5478SOL     OW28069   3.877   0.195   8.984 -0.4374 -0.7709 -0.1906
 5478SOL    HW128070   3.894   0.165   8.894  0.9958 -0.3069 -0.0765
 5478SOL    HW228071   3.814   0.262   8.960  0.5198 -0.7575 -2.7445
 5479SOL     OW28072   3.847   0.837  13.348 -0.2462  0.1599  0.5826
 5479SOL    HW128073   3.831   0.892  13.425  0.6963  1.2894 -0.0235
 5479SOL    HW228074   3.869   0.905  13.284  1.4980  0.7126  1.7448
 5480SOL     OW28075   1.282   3.686  11.323  0.4747  0.2420 -0.4990
 5480SOL    HW128076   1.320   3.764  11.281  2.6458 -0.8256 -0.5242
 5480SOL    HW228077   1.358   3.627  11.324  0.0262 -0.3159  0.2377
 5481SOL     OW28078   2.562   4.671   4.380  0.5662 -0.1280 -1.0908
 5481SOL    HW128079   2.499   4.603   4.358 -0.1478  0.8749 -2.1996
 5481SOL    HW228080   2.504   0.012   4.364 -0.1672 -1.1117 -3.0299
 5482SOL     OW28081   0.893   4.607   4.681 -0.0257 -0.7090 -0.6073
 5482SOL    HW128082   0.820   4.546   4.673 -0.6014  0.2230 -2.5139
 5482SOL    HW228083   0.971   4.556   4.658  0.1494  0.1638 -1.9365
 5483SOL     OW28084   1.175   3.679   7.154  0.6913 -0.0083  0.4184
 5483SOL    HW128085   1.263   3.711   7.171  1.0356  0.2753 -1.9531
 5483SOL    HW228086   1.165   3.662   7.060  0.9825 -0.2169  0.4267
 5484SOL     OW28087   0.977   2.733   5.303  0.3371 -0.4747 -0.4813
 5484SOL    HW128088   0.944   2.785   5.376 -0.2125  1.0979 -1.8721
 5484SOL    HW228089   0.944   2.776   5.224 -0.6823  1.7901  1.1717
 5485SOL     OW28090   2.619   4.607   2.675  0.2063 -0.0510  0.2871
 5485SOL    HW128091   2.676   4.670   2.721 -0.3912  1.1623 -0.6518
 5485SOL    HW228092   2.684   4.550   2.634  0.2431  1.1551 -1.3025
 5486SOL     OW28093   4.330   0.958   2.456 -0.0128 -0.6265  0.2650
 5486SOL    HW128094   4.263   0.927   2.395  0.4477  0.2063 -0.6623
 5486SOL    HW228095   4.392   0.885   2.465  3.0505  2.0710  0.7953
 5487SOL     OW28096   2.459   0.510   1.812 -0.4332  1.1840 -0.4372
 5487SOL    HW128097   2.457   0.606   1.811  0.1387  1.2305  2.3345
 5487SOL    HW228098   2.513   0.485   1.887  0.9114  0.4936 -1.6348
 5488SOL     OW28099   1.363   4.342   9.996 -0.1600 -0.1684  0.5549
 5488SOL    HW128100   1.388   4.379  10.080 -0.4340  3.3732 -0.9494
 5488SOL    HW228101   1.447   4.298   9.978 -1.8693 -2.8382 -0.9777
 5489SOL     OW28102   1.315   2.541   5.882 -0.1301  0.4276 -0.6081
 5489SOL    HW128103   1.302   2.447   5.896 -2.0566  0.4387 -2.2476
 5489SOL    HW228104   1.320   2.572   5.973  1.1531  0.5454 -0.7202
 5490SOL     OW28105   4.667   1.580   3.906  0.4193 -0.3456 -0.0458
 5490SOL    HW128106   4.627   1.550   3.824  1.3976 -3.7139  0.7315
 5490SOL    HW228107   0.019   1.609   3.877 -0.7617  0.4955 -2.7685
 5491SOL     OW28108   4.474   2.549   8.542  0.5459  0.5543 -0.9429
 5491SOL    HW128109   4.529   2.495   8.486  0.0677 -2.0491  1.0984
 5491SOL    HW228110   4.537   2.589   8.602 -0.1521 -1.8695  1.4100
 5492SOL     OW28111   0.063   1.233   8.270 -0.3060  0.6598 -0.0409
 5492SOL    HW128112   0.039   1.235   8.362 -1.0411 -1.7624 -0.1830
 5492SOL    HW228113   4.715   1.243   8.223 -1.1701  2.4052  1.8407
 5493SOL     OW28114   2.216   0.019  12.326 -0.4373  0.0786 -0.3326
 5493SOL    HW128115   2.222   4.698  12.249 -1.4213 -1.5646  0.7656
 5493SOL    HW228116   2.209   4.688  12.396 -0.0851 -1.6173 -1.8901
 5494SOL     OW28117   2.227   1.485   3.957  0.2520  0.2449 -0.6085
 5494SOL    HW128118   2.243   1.571   3.996 -0.8825  0.2606 -0.1665
 5494SOL    HW228119   2.144   1.501   3.911  0.0403  1.5493  0.2211
 5495SOL     OW28120   0.517   1.012   5.714 -0.1476 -0.0475 -0.4807
 5495SOL    HW128121   0.431   1.052   5.705  0.5324  1.9455  1.8518
 5495SOL    HW228122   0.563   1.044   5.636 -0.6746  1.2985 -0.2330
 5496SOL     OW28123   2.935   2.751   2.824  0.4147 -0.5377  0.2638
 5496SOL    HW128124   2.850   2.718   2.853  1.2535  0.9338  4.4358
 5496SOL    HW228125   2.913   2.764   2.732  0.5411 -3.0496 -0.1231
 5497SOL     OW28126   4.385   1.602   4.802  0.5163 -0.0042 -0.1205
 5497SOL    HW128127   4.310   1.652   4.770  0.6527  0.5374  0.4077
 5497SOL    HW228128   4.404   1.661   4.875  1.5633  0.3552 -0.6769
 5498SOL     OW28129   3.953   0.221   3.174 -0.4055  0.1984 -0.4674
 5498SOL    HW128130   4.043   0.220   3.141 -1.3314 -1.3141 -2.9574
 5498SOL    HW228131   3.933   0.130   3.152  1.8113 -0.8413  1.7465
 5499SOL     OW28132   1.796   2.888   2.427  0.9090 -0.1996 -0.1371
 5499SOL    HW128133   1.720   2.862   2.374  0.1458  0.5790  0.5829
 5499SOL    HW228134   1.870   2.902   2.368  1.3227  0.7730  0.6213
 5500SOL     OW28135   2.040   1.654   7.705  0.2245 -0.1968 -0.0967
 5500SOL    HW128136   2.030   1.559   7.712 -1.7892  0.1415  1.5398
 5500SOL    HW228137   2.104   1.660   7.634  0.1144  4.3435  0.1668
 5501SOL     OW28138   0.530   0.419   5.546 -0.0550 -0.4802 -0.0573
 5501SOL    HW128139   0.460   0.382   5.600  1.3633 -0.9937  1.4157
 5501SOL    HW228140   0.573   0.487   5.598  1.7017 -1.7337  0.1342
 5502SOL     OW28141   2.623   4.670  11.477 -0.4836 -0.6553 -0.2558
 5502SOL    HW128142   2.569   4.599  11.513  0.1644 -0.9610  0.1157
 5502SOL    HW228143   2.708   4.668  11.519 -0.3372  1.1196 -0.4798
 5503SOL     OW28144   3.350   2.733   3.488  0.2213 -0.2824  0.0854
 5503SOL    HW128145   3.266   2.771   3.462 -0.5347 -0.2122  2.6675
 5503SOL    HW228146   3.338   2.647   3.448 -0.1272  0.8129 -2.1864
 5504SOL     OW28147   2.182   1.313   7.832  0.3102 -0.0183 -0.3545
 5504SOL    HW128148   2.247   1.262   7.879 -2.1805 -2.5648  0.3333
 5504SOL    HW228149   2.242   1.362   7.775 -0.8972 -0.2185 -1.8022
 5505SOL     OW28150   3.405   3.092   6.501  0.7835  0.0898 -0.6969
 5505SOL    HW128151   3.364   3.097   6.415  0.2342 -1.2087 -0.5093
 5505SOL    HW228152   3.346   3.147   6.553 -0.9712 -1.5330 -0.9829
 5506SOL     OW28153   3.863   2.847   7.052  0.2424  0.5317 -0.2367
 5506SOL    HW128154   3.921   2.894   7.111  0.3999 -1.0618  0.8640
 5506SOL    HW228155   3.854   2.766   7.102  2.4395  0.7592  0.5113
 5507SOL     OW28156   1.802   1.262   5.491 -0.1689  0.4599 -0.0058
 5507SOL    HW128157   1.834   1.336   5.439  1.0915  0.3616  0.6271
 5507SOL    HW228158   1.857   1.272   5.568  3.0365  0.4789 -2.2676
 5508SOL     OW28159   3.034   1.255  14.672 -0.0971 -0.3251 -0.7738
 5508SOL    HW128160   3.079   1.272  14.755 -0.9204 -2.3405  0.0897
 5508SOL    HW228161   3.030   1.159  14.673 -2.2920 -0.2087  2.2338
 5509SOL     OW28162   3.369   3.920   8.352 -0.5219  0.6521  0.2968
 5509SOL    HW128163   3.359   3.864   8.429 -0.5985  0.4007  0.1006
 5509SOL    HW228164   3.326   3.874   8.281 -0.8643 -0.5996  1.3102
 5510SOL     OW28165   1.088   3.157   5.898 -0.1294  0.0497  0.5383
 5510SOL    HW128166   1.124   3.105   5.826 -0.7117  0.1549  0.1766
 5510SOL    HW228167   1.171   3.204   5.913 -1.1572  1.9253  0.3232
 5511SOL     OW28168   1.018   2.994  10.711 -0.4221  0.2018 -0.6806
 5511SOL    HW128169   1.012   2.901  10.734  1.2077  0.6752  1.6971
 5511SOL    HW228170   1.014   2.992  10.615 -0.4546 -1.0571 -0.6434
 5512SOL     OW28171   3.694   2.169   6.815 -0.3378  0.0471  0.2074
 5512SOL    HW128172   3.682   2.080   6.846  0.5835  0.3099  1.3295
 5512SOL    HW228173   3.723   2.210   6.896  1.2038 -1.5124  0.4333
 5513SOL     OW28174   2.533   2.013   5.360 -0.3272 -0.8894 -0.1070
 5513SOL    HW128175   2.602   2.059   5.406  0.7512 -1.9669 -0.6644
 5513SOL    HW228176   2.467   2.081   5.345  1.9724  1.3614 -0.0113
 5514SOL     OW28177   2.413   4.238   3.450 -0.4540 -0.4604  0.0614
 5514SOL    HW128178   2.452   4.246   3.537  0.1612  1.9756 -0.4242
 5514SOL    HW228179   2.337   4.187   3.477 -1.2481 -0.4662 -2.1686
 5515SOL     OW28180   0.312   1.365   8.894 -0.4215 -0.0681  0.3361
 5515SOL    HW128181   0.332   1.274   8.913  1.0503  0.0170 -0.7769
 5515SOL    HW228182   0.400   1.402   8.908 -0.9390  0.8145  1.2922
 5516SOL     OW28183   0.988   3.213  10.284  0.3813 -0.2897 -0.3641
 5516SOL    HW128184   1.079   3.191  10.267 -0.2338 -1.0841 -2.5973
 5516SOL    HW228185   0.955   3.249  10.202  0.1682  1.1117  0.3444
 5517SOL     OW28186   0.554   3.149   4.148  0.0506  0.2291 -0.4336
 5517SOL    HW128187   0.479   3.207   4.162  1.2865  1.5304  0.7674
 5517SOL    HW228188   0.521   3.098   4.074  1.6950  0.8540 -1.5894
 5518SOL     OW28189   3.078   2.684   1.890 -0.0558  0.5216  0.3273
 5518SOL    HW128190   3.059   2.591   1.872 -1.7066  0.6768  1.3170
 5518SOL    HW228191   3.031   2.701   1.971 -0.7464 -2.1116  0.4877
 5519SOL     OW28192   3.051   2.829   6.603  0.5941  0.0275 -0.0599
 5519SOL    HW128193   3.070   2.801   6.692 -0.9598  1.4645  0.7169
 5519SOL    HW228194   2.964   2.861   6.626  0.5847 -0.6538  0.8525
 5520SOL     OW28195   4.510   0.707   9.238  0.1280 -0.0867 -0.4867
 5520SOL    HW128196   4.543   0.709   9.148  1.0973  2.9860 -0.0807
 5520SOL    HW228197   4.545   0.629   9.281 -0.9289  0.5833  1.5997
 5521SOL     OW28198   3.148   2.146  17.592  0.1038  0.4201 -0.0560
 5521SOL    HW128199   3.146   2.072  17.532  1.4792  0.3539 -0.0134
 5521SOL    HW228200   3.219   2.201  17.559  0.2471 -0.5059 -1.2924
 5522SOL     OW28201   1.118   0.042   0.206  0.1071  0.1754  0.4985
 5522SOL    HW128202   1.055   0.111   0.223  0.6916  1.3715 -2.1907
 5522SOL    HW228203   1.159   0.047   0.292 -1.0822  0.6153  1.0398
 5523SOL     OW28204   3.483   1.242   2.029  0.3901 -0.1831 -0.4661
 5523SOL    HW128205   3.551   1.304   2.054  0.6302 -0.9359  0.7189
 5523SOL    HW228206   3.408   1.284   2.071  0.5051  0.2288 -0.6683
 5524SOL     OW28207   1.320   0.295  12.537  0.3568 -0.1642 -0.2841
 5524SOL    HW128208   1.234   0.267  12.506  1.6507 -3.6723 -0.7815
 5524SOL    HW228209   1.318   0.388  12.517  0.8313 -0.1647 -0.3410
 5525SOL     OW28210   3.154   0.205   4.510  0.2841  0.1561  0.4935
 5525SOL    HW128211   3.173   0.294   4.539  1.2094  0.1447 -0.0678
 5525SOL    HW228212   3.161   0.224   4.416  3.2605 -0.8746  0.5053
 5526SOL     OW28213   1.294   4.026   4.964  0.4139 -0.1583 -0.7868
 5526SOL    HW128214   1.366   4.088   4.979  0.4628 -0.2702 -0.5623
 5526SOL    HW228215   1.219   4.079   4.991  0.6247 -1.0327  1.5042
 5527SOL     OW28216   4.538   2.431   7.381  0.6138 -0.6888  0.0224
 5527SOL    HW128217   4.630   2.429   7.409 -0.1437  0.7372  2.5487
 5527SOL    HW228218   4.540   2.474   7.295  0.4682 -0.8737 -0.0750
 5528SOL     OW28219   2.480   2.236   7.363  0.2496  0.5454 -0.6950
 5528SOL    HW128220   2.546   2.182   7.406 -0.1813 -0.1484 -0.9176
 5528SOL    HW228221   2.433   2.169   7.314 -0.4720  0.2042  0.4501
 5529SOL     OW28222   4.393   1.578   2.215  0.3145 -0.3899  0.2316
 5529SOL    HW128223   4.433   1.500   2.252  1.6538 -0.2221 -0.8650
 5529SOL    HW228224   4.388   1.635   2.292  0.8509 -2.2871  1.6614
 5530SOL     OW28225   0.169   2.842  12.699  0.3391  0.0672 -0.0350
 5530SOL    HW128226   0.113   2.881  12.767 -2.3882  0.1250 -2.3137
 5530SOL    HW228227   0.181   2.750  12.724 -0.0603 -0.3065 -1.2392
 5531SOL     OW28228   3.960   3.989   2.640 -0.0235  0.6442  0.0392
 5531SOL    HW128229   4.020   3.957   2.572 -0.4231  1.8014 -0.8728
 5531SOL    HW228230   3.873   3.964   2.609 -0.2753  1.6762 -0.0908
 5532SOL     OW28231   4.162   4.459   1.400 -0.2958 -0.4381 -0.4347
 5532SOL    HW128232   4.143   4.467   1.493  1.0396  2.1920 -0.3771
 5532SOL    HW228233   4.160   4.364   1.384 -3.8708 -0.4388  0.0340
 5533SOL     OW28234   3.479   1.238   8.634  0.1168  0.3721 -0.0012
 5533SOL    HW128235   3.465   1.240   8.540 -0.1091 -1.7341 -0.0000
 5533SOL    HW228236   3.503   1.327   8.660  0.4131 -0.4450  2.5193
 5534SOL     OW28237   2.260   0.971  10.269  0.6128  0.0847  0.3609
 5534SOL    HW128238   2.209   0.953  10.348 -0.1392 -0.7951 -0.3334
 5534SOL    HW228239   2.262   1.067  10.272  1.0448  0.1074 -0.6226
 5535SOL     OW28240   0.154   4.370  10.322 -0.5715  0.4015  0.7381
 5535SOL    HW128241   0.096   4.433  10.364 -0.3175  0.2329  1.3327
 5535SOL    HW228242   0.138   4.293  10.376  0.8789 -1.5568 -1.6064
 5536SOL     OW28243   2.413   0.671   4.724 -0.2413 -0.3076 -0.2524
 5536SOL    HW128244   2.399   0.701   4.813 -1.1488 -2.7494  0.4237
 5536SOL    HW228245   2.508   0.679   4.726 -0.0575 -2.4882  0.3584
 5537SOL     OW28246   3.575   0.994   0.659 -0.2584 -0.2839  0.1348
 5537SOL    HW128247   3.490   1.034   0.640  0.8081  1.8319 -0.2504
 5537SOL    HW228248   3.618   0.984   0.574 -2.3067 -0.9586 -0.8150
 5538SOL     OW28249   1.384   0.966  15.523  0.0273 -0.4276  0.0554
 5538SOL    HW128250   1.295   0.981  15.490 -0.4589 -0.0399  1.5280
 5538SOL    HW228251   1.385   0.874  15.549  4.1324 -0.1280  0.8821
 5539SOL     OW28252   0.460   1.455  14.852  0.1546  0.6412 -0.1444
 5539SOL    HW128253   0.404   1.512  14.905  0.3626  0.9329 -0.2373
 5539SOL    HW228254   0.397   1.395  14.813 -0.3597  0.3454  1.1247
 5540SOL     OW28255   4.069   1.261   8.107 -0.3023  0.2921  0.4770
 5540SOL    HW128256   4.069   1.166   8.098 -0.1991  0.4195 -0.9997
 5540SOL    HW228257   4.132   1.289   8.040 -1.5637  0.3066 -0.7212
 5541SOL     OW28258   1.410   4.700   6.963  0.3652 -0.0404  0.5507
 5541SOL    HW128259   1.344   4.663   6.904  0.7635 -0.4885  0.3899
 5541SOL    HW228260   1.357   0.015   7.026  0.0268  1.0845 -0.5795
 5542SOL     OW28261   0.438   2.120   3.522  0.5920 -0.1193  0.1174
 5542SOL    HW128262   0.483   2.158   3.598 -0.3810  1.7986 -0.2490
 5542SOL    HW228263   0.493   2.138   3.446 -0.0527  0.0344 -0.3116
 5543SOL     OW28264   4.413   0.546  11.407  0.3920  0.0305  0.3680
 5543SOL    HW128265   4.475   0.618  11.396 -0.5760  0.9532  0.9730
 5543SOL    HW228266   4.352   0.558  11.333 -1.1291  1.4693  1.8571
 5544SOL     OW28267   3.632   2.937   3.683 -0.3591 -0.1269 -0.5215
 5544SOL    HW128268   3.651   2.904   3.595  0.6167 -0.7412 -0.0762
 5544SOL    HW228269   3.574   2.866   3.710 -0.9770  0.1810 -1.0349
 5545SOL     OW28270   0.235   0.607   8.617  0.1704 -0.0791 -0.0282
 5545SOL    HW128271   0.308   0.545   8.612  0.3485  0.1316 -0.0918
 5545SOL    HW228272   0.196   0.605   8.530  0.3150  1.9089 -0.1561
 5546SOL     OW28273   3.739   0.934  10.013 -0.4963  0.4458 -0.4771
 5546SOL    HW128274   3.704   0.891  10.091 -0.7227 -1.7632 -1.8010
 5546SOL    HW228275   3.825   0.895   9.996 -0.9520 -1.0829  0.7211
 5547SOL     OW28276   1.910   1.773  10.627  0.7385 -0.0413  0.1954
 5547SOL    HW128277   1.969   1.829  10.575  1.3072 -1.1340 -0.3280
 5547SOL    HW228278   1.849   1.842  10.654  1.3001  0.3286  0.5387
 5548SOL     OW28279   2.573   1.184  16.034  0.0822 -0.7612 -0.5401
 5548SOL    HW128280   2.638   1.235  16.083 -2.6315  1.4480  0.7246
 5548SOL    HW228281   2.498   1.241  16.047  0.5582 -0.7848  2.4184
 5549SOL     OW28282   2.676   0.623  12.235  0.0129  1.0560  0.0369
 5549SOL    HW128283   2.622   0.567  12.290 -0.9452  0.9672 -0.9872
 5549SOL    HW228284   2.762   0.586  12.254 -0.1560  0.5670 -0.1510
 5550SOL     OW28285   1.845   2.250   1.719 -0.5764 -0.1420 -0.0105
 5550SOL    HW128286   1.909   2.196   1.765 -0.0800  0.5751  0.1338
 5550SOL    HW228287   1.893   2.327   1.691 -0.0322 -0.9437 -1.3043
 5551SOL     OW28288   3.051   1.497  15.600 -0.0313 -0.2928  0.1822
 5551SOL    HW128289   3.127   1.446  15.628  1.0677  0.8078 -0.8277
 5551SOL    HW228290   2.991   1.428  15.570 -0.0575 -0.4620  0.6229
 5552SOL     OW28291   4.468   0.880  15.853 -0.0571  0.1786  0.0488
 5552SOL    HW128292   4.417   0.865  15.774  1.4696  1.1882 -1.1287
 5552SOL    HW228293   4.517   0.957  15.822  0.3727 -0.1470 -0.0833
 5553SOL     OW28294   3.203   3.585   6.090 -0.0675 -0.5476 -0.1822
 5553SOL    HW128295   3.246   3.515   6.041  0.1440 -0.5080 -0.0532
 5553SOL    HW228296   3.156   3.550   6.166  1.1282 -1.3296  0.1928
 5554SOL     OW28297   1.838   0.385   4.852  0.0062 -0.7207  0.1540
 5554SOL    HW128298   1.855   0.430   4.769 -1.9890 -0.0444  0.1078
 5554SOL    HW228299   1.854   0.461   4.908 -1.6236 -1.1340  1.1748
 5555SOL     OW28300   2.797   1.779   1.218 -0.6704 -0.1209  0.2336
 5555SOL    HW128301   2.706   1.760   1.199 -0.4518  0.5069 -1.4321
 5555SOL    HW228302   2.798   1.871   1.191 -2.2887 -0.1704 -0.0006
 5556SOL     OW28303   1.051   3.094   6.900  0.0375 -0.2803 -0.2008
 5556SOL    HW128304   1.114   3.047   6.845  0.2327  1.4537 -1.4545
 5556SOL    HW228305   1.012   3.015   6.936  0.1534 -1.0023 -1.6698
 5557SOL     OW28306   2.870   4.255   8.706 -0.1866  0.5343  0.4739
 5557SOL    HW128307   2.797   4.229   8.762  0.4578  0.2852  1.1962
 5557SOL    HW228308   2.930   4.291   8.771 -1.0870  0.7244  1.1953
 5558SOL     OW28309   0.456   2.208   1.544  0.0785  0.0558 -0.1561
 5558SOL    HW128310   0.380   2.176   1.592 -1.9720  4.6352 -0.3565
 5558SOL    HW228311   0.500   2.123   1.534  1.1762  0.3830  1.8767
 5559SOL     OW28312   1.172   3.460   8.667 -0.5966  0.6555  0.8130
 5559SOL    HW128313   1.245   3.399   8.674 -1.5194 -0.4825  0.4230
 5559SOL    HW228314   1.217   3.535   8.708  1.4200  0.4891 -1.1123
 5560SOL     OW28315   3.667   1.348   5.912 -0.2760  0.2852  0.1453
 5560SOL    HW128316   3.637   1.412   5.976  0.1731  0.6671 -0.0216
 5560SOL    HW228317   3.656   1.272   5.969 -1.2526  0.5114  0.2501
 5561SOL     OW28318   1.205   4.128  13.115  0.4189  0.3311  0.5546
 5561SOL    HW128319   1.210   4.032  13.120 -1.5411  0.2525  0.9330
 5561SOL    HW228320   1.296   4.147  13.094  0.1065  0.7333 -0.3932
 5562SOL     OW28321   2.057   0.089   2.262 -0.1875 -0.4170  0.0958
 5562SOL    HW128322   2.145   0.052   2.255 -1.9189 -4.2566 -1.2876
 5562SOL    HW228323   2.081   0.166   2.210 -1.0355  0.7266  1.3807
 5563SOL     OW28324   4.387   4.503   6.481 -0.1922 -0.2653 -0.6750
 5563SOL    HW128325   4.408   4.412   6.502 -1.0858  0.2598  2.5100
 5563SOL    HW228326   4.379   4.548   6.565 -0.1223 -2.7990  0.6804
 5564SOL     OW28327   4.488   4.230   5.754  0.6150  0.1998 -0.4507
 5564SOL    HW128328   4.486   4.161   5.688 -2.0070 -1.0123  0.8450
 5564SOL    HW228329   4.397   4.239   5.783  1.1048  1.2384  0.7759
 5565SOL     OW28330   0.868   3.041  13.256 -0.5369 -0.1374  0.5447
 5565SOL    HW128331   0.794   3.062  13.200  0.4633  0.9841 -0.3535
 5565SOL    HW228332   0.938   3.024  13.192 -2.9469 -1.8147 -1.6599
 5566SOL     OW28333   0.056   2.941  11.785 -0.3208  0.3239 -0.0441
 5566SOL    HW128334   0.056   2.915  11.693  0.4969  0.2120 -0.0138
 5566SOL    HW228335   4.713   2.997  11.792 -0.3880  0.7177 -4.1357
 5567SOL     OW28336   4.388   1.392   4.455 -0.5821  0.0677  0.1568
 5567SOL    HW128337   4.460   1.355   4.405  0.2654  2.5812 -0.4963
 5567SOL    HW228338   4.438   1.446   4.517 -1.1083 -0.2341  0.8430
 5568SOL     OW28339   0.615   1.170   2.515 -0.0197 -0.7283  0.2926
 5568SOL    HW128340   0.671   1.162   2.438 -1.2431 -2.7862 -0.3621
 5568SOL    HW228341   0.575   1.255   2.496 -0.6577 -0.8043  1.2832
 5569SOL     OW28342   2.844   1.621   4.293  0.6394  0.0432  0.1637
 5569SOL    HW128343   2.787   1.691   4.262  1.1978 -0.9499 -3.0571
 5569SOL    HW228344   2.909   1.618   4.223 -0.6613 -1.3218 -0.9928
 5570SOL     OW28345   0.702   2.594   4.301 -0.0861  0.6538 -0.2900
 5570SOL    HW128346   0.781   2.590   4.246  0.7278 -1.2622  1.0369
 5570SOL    HW228347   0.689   2.689   4.293 -0.9013  0.3831 -2.2105
 5571SOL     OW28348   0.788   1.727   3.290 -0.4520  0.3439  0.4932
 5571SOL    HW128349   0.798   1.817   3.259 -1.8794 -0.1428 -1.3899
 5571SOL    HW228350   0.693   1.721   3.292 -0.6094  2.2959 -1.1686
 5572SOL     OW28351   0.528   1.421   9.589 -0.4868  0.6468  0.2259
 5572SOL    HW128352   0.586   1.461   9.654  0.0244 -0.6578  0.5552
 5572SOL    HW228353   0.583   1.406   9.512 -2.5653 -0.1432 -1.0883
 5573SOL     OW28354   4.080   0.518   9.157  0.6061 -0.4427  0.3399
 5573SOL    HW128355   4.016   0.523   9.086 -0.6116  1.3473  1.5862
 5573SOL    HW228356   4.164   0.533   9.112 -0.2439  0.0847 -1.0862
 5574SOL     OW28357   1.521   2.547  17.429  0.2342  0.2362  0.5040
 5574SOL    HW128358   1.489   2.514  17.513  0.6023  0.3547  0.6903
 5574SOL    HW228359   1.530   2.641  17.443  2.1674 -0.0593  1.2704
 5575SOL     OW28360   1.947   2.043  10.283 -0.3591  0.6173  0.3468
 5575SOL    HW128361   2.031   2.015  10.319 -0.1726  1.6825  0.7368
 5575SOL    HW228362   1.882   2.027  10.351  0.6325 -0.6982  0.9888
 5576SOL     OW28363   4.392   1.075   4.800 -0.4405  0.2515  0.3835
 5576SOL    HW128364   4.407   1.087   4.894 -2.0996 -0.1259  0.6914
 5576SOL    HW228365   4.388   1.167   4.774 -0.5461  0.8487  2.4789
 5577SOL     OW28366   4.155   4.203   1.285  0.2530 -0.5190 -0.1961
 5577SOL    HW128367   4.187   4.234   1.200 -1.0540  2.3129  0.3740
 5577SOL    HW228368   4.217   4.130   1.296  0.2683 -0.5684 -0.5963
 5578SOL     OW28369   2.130   0.512  14.319  0.4271 -0.4307 -0.0273
 5578SOL    HW128370   2.036   0.529  14.322  0.3194 -0.8267 -1.0068
 5578SOL    HW228371   2.150   0.558  14.237 -0.7730 -1.5893 -0.9574
 5579SOL     OW28372   1.459   0.412   1.349  0.6854  0.2497 -0.0153
 5579SOL    HW128373   1.406   0.462   1.411  0.4338 -0.6688  0.5135
 5579SOL    HW228374   1.511   0.481   1.310  0.0138  0.0586 -1.2501
 5580SOL     OW28375   0.266   2.313   6.728 -0.0025 -0.2984  0.3940
 5580SOL    HW128376   0.228   2.380   6.784 -2.2896 -0.5711 -0.8140
 5580SOL    HW228377   0.359   2.336   6.734 -0.8363  2.7415  1.5544
 5581SOL     OW28378   2.492   1.690   2.879  0.6762  0.2469  0.1294
 5581SOL    HW128379   2.557   1.694   2.949 -0.6470  0.1072  1.3519
 5581SOL    HW228380   2.543   1.661   2.803  0.3033 -3.3562  1.2883
 5582SOL     OW28381   3.114   1.217   7.788  0.2591 -0.1248  0.3000
 5582SOL    HW128382   3.128   1.280   7.859  0.4393  1.1039 -0.8228
 5582SOL    HW228383   3.109   1.282   7.718  1.0666  0.0134  0.3802
 5583SOL     OW28384   2.538   3.708  17.536  0.7201  0.1525  0.6231
 5583SOL    HW128385   2.555   3.800  17.555  0.9654  0.4743 -1.1672
 5583SOL    HW228386   2.625   3.677  17.561  0.2503 -0.7642  1.1208
 5584SOL     OW28387   0.432   1.435   7.275 -0.2675 -0.3541 -0.6368
 5584SOL    HW128388   0.524   1.411   7.261  0.0793  0.3391  0.4757
 5584SOL    HW228389   0.419   1.511   7.218  2.3034  1.3724  1.0829
 5585SOL     OW28390   2.030   4.082   2.313 -0.2337 -0.6531  0.1491
 5585SOL    HW128391   2.051   4.175   2.300 -2.1640 -0.2579 -0.0851
 5585SOL    HW228392   2.077   4.062   2.394 -1.4375 -2.3245  0.4265
 5586SOL     OW28393   1.287   3.899  10.430  0.3169 -0.5161  0.2794
 5586SOL    HW128394   1.225   3.873  10.363  0.4785 -0.2089  0.0097
 5586SOL    HW228395   1.362   3.851  10.395  1.1837  0.1039  1.2616
 5587SOL     OW28396   1.415   2.998   1.810  0.4134 -0.4002 -0.0968
 5587SOL    HW128397   1.323   3.026   1.803  0.8199  1.1933  0.7880
 5587SOL    HW228398   1.445   3.020   1.898 -0.7919 -1.8815  0.6721
 5588SOL     OW28399   4.155   1.360   9.916 -0.1487  0.5894  0.3896
 5588SOL    HW128400   4.210   1.412   9.975  0.7818  0.7224 -0.5917
 5588SOL    HW228401   4.072   1.361   9.964 -0.6383  1.4377 -0.4560
 5589SOL     OW28402   2.404   2.025   2.912  0.7516  0.0300 -0.2167
 5589SOL    HW128403   2.363   1.958   2.857  2.9101 -0.1854 -1.5314
 5589SOL    HW228404   2.326   2.072   2.943  0.3182 -1.0849  0.3879
 5590SOL     OW28405   3.944   2.505   9.626  0.1445 -0.4618 -0.0447
 5590SOL    HW128406   3.978   2.585   9.667  0.5415 -0.2635 -0.7565
 5590SOL    HW228407   4.018   2.455   9.591 -0.6730 -0.4000 -1.8319
 5591SOL     OW28408   0.199   4.633   7.712 -0.2247  0.1068 -0.6810
 5591SOL    HW128409   0.162   4.560   7.763  0.2428 -0.6652 -1.4553
 5591SOL    HW228410   0.285   4.610   7.747 -0.2158 -1.2827 -1.6219
 5592SOL     OW28411   4.130   1.846  16.142  0.0342  0.0031  0.1871
 5592SOL    HW128412   4.102   1.937  16.149 -1.4076 -0.4108 -0.2007
 5592SOL    HW228413   4.207   1.857  16.198  1.5465 -0.0031 -1.8926
 5593SOL     OW28414   2.239   1.057   4.433 -0.0975 -0.6832 -0.3654
 5593SOL    HW128415   2.268   0.966   4.440  0.4095 -0.5357 -0.5561
 5593SOL    HW228416   2.153   1.046   4.475 -1.4868 -2.1279 -3.5918
 5594SOL     OW28417   2.404   4.172   0.675  0.1848 -0.5832 -0.4548
 5594SOL    HW128418   2.320   4.216   0.672  0.4885  0.0724  0.4707
 5594SOL    HW228419   2.411   4.145   0.767 -2.5216 -2.0158 -0.6955
 5595SOL     OW28420   3.394   1.188   0.643  0.0791 -0.7255  0.0949
 5595SOL    HW128421   3.329   1.228   0.585  1.2658 -1.1784 -1.5438
 5595SOL    HW228422   3.472   1.234   0.612 -0.9748 -1.1112 -3.0941
 5596SOL     OW28423   1.010   1.928   3.320  0.1755 -0.0275 -0.2776
 5596SOL    HW128424   0.936   1.978   3.287 -0.9143 -0.5668  1.3582
 5596SOL    HW228425   0.972   1.902   3.404  0.2926 -0.1944 -0.2760
 5597SOL     OW28426   4.135   1.338   4.533  0.1001  0.1976 -0.4189
 5597SOL    HW128427   4.117   1.279   4.460  0.4935 -1.0874  0.5221
 5597SOL    HW228428   4.227   1.354   4.512 -0.1818 -2.1332 -3.2658
 5598SOL     OW28429   0.088   2.910  10.474 -0.1168 -0.4518 -0.2359
 5598SOL    HW128430   0.018   2.847  10.489  1.1453 -2.0700 -1.1946
 5598SOL    HW228431   0.164   2.851  10.476  1.5073  1.6852  2.1685
 5599SOL     OW28432   4.463   0.719   7.816  0.2320 -0.0038 -0.0328
 5599SOL    HW128433   4.524   0.784   7.781  1.0745  0.0557  1.5440
 5599SOL    HW228434   4.508   0.687   7.894  2.0673  1.8904 -0.2934
 5600SOL     OW28435   1.214   2.488   7.762 -0.0101 -0.2186  0.1031
 5600SOL    HW128436   1.290   2.537   7.793  0.2690 -1.3595  1.2471
 5600SOL    HW228437   1.221   2.421   7.830 -2.3404 -0.0393  0.5078
 5601SOL     OW28438   4.528   4.012   9.003  0.6212 -0.4695 -0.3969
 5601SOL    HW128439   4.587   3.951   9.046  1.4903  0.0144 -0.9073
 5601SOL    HW228440   4.565   4.096   9.028  1.5336 -0.9068 -0.2940
 5602SOL     OW28441   0.025   0.515  10.615  0.1952 -0.3987 -0.1805
 5602SOL    HW128442   0.064   0.582  10.559  0.7863 -0.5217  0.0868
 5602SOL    HW228443   4.712   0.565  10.682 -0.5905 -0.1460 -0.9194
 5603SOL     OW28444   0.795   4.356   5.482 -0.0813  0.0961 -0.2344
 5603SOL    HW128445   0.785   4.437   5.432 -2.2845 -1.1839 -1.9052
 5603SOL    HW228446   0.722   4.309   5.441 -1.7601  0.5389  2.2601
 5604SOL     OW28447   0.200   4.573   1.462  0.0696  0.1405  0.0395
 5604SOL    HW128448   0.121   4.623   1.442  0.6856  0.4517 -1.5591
 5604SOL    HW228449   0.174   4.538   1.548  1.0191 -0.0258  0.2593
 5605SOL     OW28450   0.050   3.756   2.980  0.1500  0.0273 -0.3007
 5605SOL    HW128451   0.044   3.849   2.959  0.8163  0.2397  0.4464
 5605SOL    HW228452   4.721   3.718   2.919  2.6876 -0.4448 -2.6199
 5606SOL     OW28453   2.282   2.358   1.602  0.0561 -0.2624 -0.4764
 5606SOL    HW128454   2.316   2.274   1.573  0.3587  0.3730 -1.9947
 5606SOL    HW228455   2.201   2.373   1.552  0.3445  3.0971  0.0486
 5607SOL     OW28456   1.696   1.073  12.534 -0.3022 -0.4108  0.7486
 5607SOL    HW128457   1.733   0.985  12.520 -0.8822 -0.7085  1.0926
 5607SOL    HW228458   1.660   1.063  12.622 -0.7388  1.6149  0.7925
 5608SOL     OW28459   2.842   2.843   2.596  0.0847  0.3958  0.1447
 5608SOL    HW128460   2.817   2.934   2.580 -1.8267 -0.2501 -0.5537
 5608SOL    HW228461   2.773   2.796   2.549  1.6306  0.3549 -2.0773
 5609SOL     OW28462   2.539   2.205   0.418  0.2845 -0.2397  0.1260
 5609SOL    HW128463   2.445   2.190   0.431  0.2810  0.5093  1.0016
 5609SOL    HW228464   2.562   2.280   0.473 -1.4657  0.9905 -0.8069
 5610SOL     OW28465   1.316   0.165   9.111 -0.0019  0.0127 -0.3833
 5610SOL    HW128466   1.318   0.089   9.053 -0.6827  0.2290 -0.6900
 5610SOL    HW228467   1.340   0.237   9.052  1.1496  0.0192  0.0993
 5611SOL     OW28468   2.569   0.219   4.637 -0.0837 -0.3174  0.0569
 5611SOL    HW128469   2.658   0.230   4.603 -1.1182  1.4334 -2.1149
 5611SOL    HW228470   2.577   0.124   4.639  0.7192 -0.1750  3.8251
 5612SOL     OW28471   2.283   1.179  16.224  0.0013 -0.3318 -0.7957
 5612SOL    HW128472   2.348   1.246  16.207 -1.6790  0.7056 -3.0435
 5612SOL    HW228473   2.295   1.159  16.317 -1.4800 -0.1976 -0.5834
 5613SOL     OW28474   2.833   1.758   2.889  0.2621  0.0318 -0.3552
 5613SOL    HW128475   2.928   1.762   2.902  0.4519 -2.0733 -1.2075
 5613SOL    HW228476   2.832   1.727   2.798 -1.3316  0.7146 -0.5656
 5614SOL     OW28477   1.077   2.705  10.213 -0.1423  0.1467  0.2216
 5614SOL    HW128478   1.003   2.677  10.159 -0.3149 -0.1453  0.6077
 5614SOL    HW228479   1.151   2.692  10.153  0.7744  3.4544  0.5947
 5615SOL     OW28480   3.047   3.789   2.867 -0.3231  0.0184 -0.0127
 5615SOL    HW128481   3.095   3.743   2.936 -2.5786 -0.7624  1.0447
 5615SOL    HW228482   2.960   3.753   2.880 -1.3343  3.1293  1.8839
 5616SOL     OW28483   1.729   3.247   6.175 -0.7173  0.1851 -0.1612
 5616SOL    HW128484   1.772   3.187   6.114  0.2298 -1.4671  2.1292
 5616SOL    HW228485   1.778   3.222   6.253  1.8270  3.8651 -0.5605
 5617SOL     OW28486   1.497   3.066   6.691  0.3518 -0.5234 -0.1328
 5617SOL    HW128487   1.457   3.128   6.752 -0.2729  1.3723 -2.4891
 5617SOL    HW228488   1.491   3.110   6.606  0.8644 -0.9926 -0.4173
 5618SOL     OW28489   0.069   2.224   3.906  0.5045 -0.3034  0.2038
 5618SOL    HW128490   0.029   2.261   3.984  1.2853 -0.1361  0.5170
 5618SOL    HW228491   0.021   2.141   3.899  0.5711 -0.1367 -2.3777
 5619SOL     OW28492   4.523   0.685   3.800 -0.4803  0.0703 -0.5009
 5619SOL    HW128493   4.535   0.777   3.823 -1.3939  0.2412 -0.6960
 5619SOL    HW228494   4.521   0.686   3.705 -2.2874  4.3492 -0.4298
 5620SOL     OW28495   0.050   2.855  17.309 -0.5189 -0.7378  0.5545
 5620SOL    HW128496   0.028   2.833  17.218  1.0212 -1.7205  0.4048
 5620SOL    HW228497   0.067   2.767  17.342 -1.6924 -0.3942  2.0609
 5621SOL     OW28498   3.095   0.335   5.143  0.0035  0.4059 -0.1399
 5621SOL    HW128499   3.039   0.261   5.166  0.0496  0.6690  0.8090
 5621SOL    HW228500   3.185   0.303   5.150 -1.5024 -3.4220  1.8872
 5622SOL     OW28501   1.051   2.881  12.102 -0.2144  0.1619 -0.0893
 5622SOL    HW128502   0.992   2.805  12.102  1.7742 -1.3939  0.9894
 5622SOL    HW228503   1.088   2.873  12.190  0.8940  0.3822 -0.5347
 5623SOL     OW28504   4.661   3.583  10.911  0.5778 -0.6908 -0.5564
 5623SOL    HW128505   4.687   3.527  10.838  0.7865 -1.9201  0.4514
 5623SOL    HW228506   4.659   3.511  10.975 -1.1078  1.3303  1.6633
 5624SOL     OW28507   2.524   2.962   8.555 -0.7324 -0.0624 -0.4474
 5624SOL    HW128508   2.551   2.904   8.626 -1.6488  1.1148  0.8871
 5624SOL    HW228509   2.606   3.011   8.545  0.2732 -1.5805  0.3888
 5625SOL     OW28510   0.351   2.858   8.944 -0.1330  0.3985  0.1726
 5625SOL    HW128511   0.384   2.946   8.927  0.6666 -0.3897 -2.3011
 5625SOL    HW228512   0.431   2.805   8.949  1.9599  3.5108 -0.0650
 5626SOL     OW28513   0.297   2.471   3.801  0.3269  0.2021  0.2021
 5626SOL    HW128514   0.345   2.407   3.852  0.6323 -0.5054 -0.9687
 5626SOL    HW228515   0.369   2.512   3.753  0.5818 -0.6955 -0.1637
 5627SOL     OW28516   0.788   2.374   0.976  0.6144 -0.3595 -0.2627
 5627SOL    HW128517   0.800   2.321   0.897  0.3291 -0.2222 -0.3990
 5627SOL    HW228518   0.797   2.459   0.932  2.0953  0.5065  1.7004
 5628SOL     OW28519   1.823   3.066  11.665 -0.1822 -0.3121 -0.1227
 5628SOL    HW128520   1.741   3.076  11.713 -0.5337  0.8105 -0.9596
 5628SOL    HW228521   1.815   3.137  11.602 -0.4454 -0.1646  0.0791
 5629SOL     OW28522   0.703   1.374   8.463 -0.1287 -0.3795  0.0820
 5629SOL    HW128523   0.779   1.377   8.404 -1.3753  3.3411 -1.3338
 5629SOL    HW228524   0.625   1.379   8.407 -0.2280 -2.6297  0.0216
 5630SOL     OW28525   1.185   1.837   3.107 -0.1498 -0.0855  0.6759
 5630SOL    HW128526   1.138   1.756   3.124  0.2920  0.1609  3.0447
 5630SOL    HW228527   1.155   1.887   3.183  0.2691  2.0531 -0.5687
 5631SOL     OW28528   2.598   3.359  13.685  0.7684  0.3432 -0.4052
 5631SOL    HW128529   2.670   3.307  13.647 -1.9998 -2.9290 -1.2170
 5631SOL    HW228530   2.539   3.285  13.702  1.2072  0.2547  0.8042
 5632SOL     OW28531   1.902   1.686   3.554 -0.0493  0.0154 -0.3686
 5632SOL    HW128532   1.930   1.630   3.481 -0.4969 -1.1035  0.3205
 5632SOL    HW228533   1.809   1.664   3.564  0.1036  0.8963  2.7731
 5633SOL     OW28534   2.454   2.258   5.316 -0.4988  0.3022  0.5263
 5633SOL    HW128535   2.471   2.320   5.388 -1.2922 -0.7387  1.6065
 5633SOL    HW228536   2.469   2.306   5.235  0.5746 -0.8610  0.0462
 5634SOL     OW28537   3.236   1.208   4.036 -0.2421  0.0791  0.3053
 5634SOL    HW128538   3.184   1.128   4.041 -1.4277  0.9938  2.5294
 5634SOL    HW228539   3.247   1.218   3.942 -2.8406 -0.9091 -0.1162
 5635SOL     OW28540   2.612   1.529   6.180  0.0166 -0.6281  0.0959
 5635SOL    HW128541   2.562   1.540   6.099  2.6709  1.3314 -1.2863
 5635SOL    HW228542   2.536   1.562   6.227 -1.2522 -0.7205 -1.8714
 5636SOL     OW28543   1.410   4.108  17.403 -0.5726  0.1859  0.3921
 5636SOL    HW128544   1.473   4.176  17.425  0.2152 -0.9094  1.5750
 5636SOL    HW228545   1.324   4.145  17.420 -0.2502  1.1155  0.0054
 5637SOL     OW28546   1.687   2.121  15.207 -0.2320  0.0658  0.2172
 5637SOL    HW128547   1.691   2.046  15.148 -1.7615  1.0685 -1.1696
 5637SOL    HW228548   1.757   2.176  15.171  0.3827 -1.5623 -1.0914
 5638SOL     OW28549   3.947   4.269  12.186  0.2754 -0.3837  0.1378
 5638SOL    HW128550   3.999   4.310  12.116  1.3777  0.2188  1.3121
 5638SOL    HW228551   4.017   4.247  12.248  0.4239 -0.9872 -0.2391
 5639SOL     OW28552   2.691   3.765   2.727  0.7340  0.6043 -0.6685
 5639SOL    HW128553   2.621   3.708   2.694  1.2841 -1.3513  1.5745
 5639SOL    HW228554   2.685   3.828   2.655 -1.4220  0.8367 -0.2723
 5640SOL     OW28555   4.554   0.983   2.860 -0.2702 -0.1777  0.7360
 5640SOL    HW128556   4.472   1.005   2.905 -1.3799  0.4556 -1.5948
 5640SOL    HW228557   4.621   1.040   2.898 -0.1838 -0.1045  0.4688
 5641SOL     OW28558   0.133   2.402   4.250 -0.2110 -0.6247  0.2408
 5641SOL    HW128559   0.072   2.379   4.320  1.5663 -0.3489  1.8622
 5641SOL    HW228560   0.074   2.375   4.180 -0.6973  0.4182  0.2511
 5642SOL     OW28561   2.117   0.694   2.624  0.0033  0.4078 -0.2137
 5642SOL    HW128562   2.188   0.757   2.634 -0.6405  0.9834  0.8065
 5642SOL    HW228563   2.045   0.740   2.667  1.2596  0.5439  1.7712
 5643SOL     OW28564   4.430   3.940   7.641 -0.1875  0.0723  0.4857
 5643SOL    HW128565   4.487   4.016   7.649  1.2245 -0.8457 -0.8551
 5643SOL    HW228566   4.466   3.877   7.704 -0.4995 -0.5334  0.0590
 5644SOL     OW28567   2.979   2.222   7.586  0.4250  0.1526 -0.8202
 5644SOL    HW128568   3.037   2.218   7.662 -0.2439 -0.6349 -0.3492
 5644SOL    HW228569   2.967   2.316   7.576  2.3811  0.3775 -1.1779
 5645SOL     OW28570   1.796   4.226  13.231  0.0021  0.2052 -0.1799
 5645SOL    HW128571   1.856   4.167  13.277 -2.2020 -1.1797  0.9522
 5645SOL    HW228572   1.787   4.171  13.153 -1.2143 -0.1796  0.2236
 5646SOL     OW28573   2.863   3.931   9.076 -1.1260  0.3608  0.1597
 5646SOL    HW128574   2.779   3.920   9.031  1.4492  2.2108 -5.1628
 5646SOL    HW228575   2.834   3.984   9.150  1.5280  1.2931  0.5224
 5647SOL     OW28576   4.089   3.141   5.730  0.1373 -0.1021 -0.1026
 5647SOL    HW128577   4.102   3.172   5.820 -1.6405 -0.3262  0.2321
 5647SOL    HW228578   4.145   3.201   5.682  0.0740  1.1724  1.3993
 5648SOL     OW28579   3.156   2.870   4.920  0.1116 -0.3532  0.0092
 5648SOL    HW128580   3.188   2.959   4.933  2.4507 -0.7380 -2.9414
 5648SOL    HW228581   3.159   2.872   4.824  0.6511 -2.7670 -0.0168
 5649SOL     OW28582   3.782   2.823  15.171 -0.2103  0.0221  0.5248
 5649SOL    HW128583   3.811   2.902  15.217  1.0646 -0.1527  0.0269
 5649SOL    HW228584   3.764   2.778  15.254  0.8229  0.3817  0.9404
 5650SOL     OW28585   1.433   4.482   7.851 -0.1819  0.0442 -0.0369
 5650SOL    HW128586   1.472   4.452   7.933  3.0033  1.2042 -1.1297
 5650SOL    HW228587   1.417   4.400   7.803 -0.7575 -0.2574  0.6846
 5651SOL     OW28588   2.413   3.486   3.880  0.1462 -0.4059 -0.2625
 5651SOL    HW128589   2.322   3.497   3.853  0.7235  3.2193 -0.7687
 5651SOL    HW228590   2.435   3.418   3.817 -2.2180  0.6412 -2.2278
 5652SOL     OW28591   2.105   3.376   1.158  0.8011  0.3494 -0.5041
 5652SOL    HW128592   2.104   3.396   1.064  1.6623  0.4696 -0.4931
 5652SOL    HW228593   2.034   3.312   1.156  1.7417 -0.6885 -1.3518
 5653SOL     OW28594   2.949   4.715   8.549 -0.3963 -0.6659  0.3273
 5653SOL    HW128595   2.914   4.637   8.507 -2.0930  0.2001  0.1494
 5653SOL    HW228596   2.951   4.682   8.639 -0.1578  0.0222  0.5752
 5654SOL     OW28597   0.198   3.642   5.615 -0.2228  0.0707 -0.0079
 5654SOL    HW128598   0.258   3.577   5.650  0.1437 -0.0561 -0.8730
 5654SOL    HW228599   0.119   3.589   5.618  0.0538 -0.3579 -0.3586
 5655SOL     OW28600   3.861   3.481   8.277  0.3621  0.1788  0.5612
 5655SOL    HW128601   3.779   3.444   8.306 -1.0832  0.9904 -2.4675
 5655SOL    HW228602   3.914   3.405   8.252  0.4022 -0.4136  2.4503
 5656SOL     OW28603   3.291   0.514   5.721 -0.4902 -0.0864 -0.1810
 5656SOL    HW128604   3.264   0.431   5.761  2.3053 -2.2632 -2.8338
 5656SOL    HW228605   3.290   0.571   5.798 -0.3896 -0.6771  0.2645
 5657SOL     OW28606   4.630   1.037  14.356 -0.4522  0.1577  0.0013
 5657SOL    HW128607   4.722   1.065  14.353 -0.1634 -0.9519 -1.3155
 5657SOL    HW228608   4.607   1.084  14.276 -0.1091 -1.0699 -0.8239
 5658SOL     OW28609   4.531   4.525  13.482 -0.1278 -0.0154  0.1253
 5658SOL    HW128610   4.495   4.540  13.570  0.9430  0.9175  0.3932
 5658SOL    HW228611   4.512   4.610  13.442 -1.0108  0.8906  2.4586
 5659SOL     OW28612   0.277   1.356   5.010  0.4378  0.1543  0.2571
 5659SOL    HW128613   0.290   1.274   5.057  0.5062 -2.2060 -3.8828
 5659SOL    HW228614   0.308   1.331   4.923  1.1006  1.3772  0.1472
 5660SOL     OW28615   3.809   1.662  12.432  0.0976  0.1375  0.2248
 5660SOL    HW128616   3.895   1.620  12.438  1.0703  2.2234  0.9707
 5660SOL    HW228617   3.792   1.687  12.523 -2.1790 -0.8014  0.0507
 5661SOL     OW28618   1.123   4.298   7.516  0.4543  0.0374 -0.4980
 5661SOL    HW128619   1.073   4.283   7.435 -0.2381 -2.1971  0.3638
 5661SOL    HW228620   1.086   4.384   7.537 -1.1271 -0.1406 -2.4542
 5662SOL     OW28621   1.111   2.927   7.807  0.0673 -0.6013 -0.7627
 5662SOL    HW128622   1.189   2.900   7.759  0.7450  0.3240 -0.1871
 5662SOL    HW228623   1.121   2.867   7.881 -0.8500 -0.1796 -0.2974
 5663SOL     OW28624   3.203   0.099   8.495 -0.2632  0.2280  0.6131
 5663SOL    HW128625   3.243   0.160   8.558 -0.8815  0.5126  0.7269
 5663SOL    HW228626   3.112   0.096   8.523  0.4034 -1.5796  2.6828
 5664SOL     OW28627   2.351   3.271  16.748  0.2851  0.3130 -0.0267
 5664SOL    HW128628   2.392   3.356  16.764  1.1948 -0.4110  1.4641
 5664SOL    HW228629   2.260   3.282  16.778 -0.2129  0.5855 -1.6260
 5665SOL     OW28630   2.682   4.028   3.613  0.3551 -0.2620 -0.1222
 5665SOL    HW128631   2.688   4.122   3.627 -0.0452 -0.0540 -1.3248
 5665SOL    HW228632   2.774   4.006   3.599  0.7202  1.5114 -0.5203
 5666SOL     OW28633   3.611   0.089   2.374 -0.2784  0.0453 -0.7626
 5666SOL    HW128634   3.575   0.175   2.353  1.6832  0.9621 -0.3701
 5666SOL    HW228635   3.669   0.102   2.449 -0.4038 -0.2532 -0.6140
 5667SOL     OW28636   2.494   1.927   6.261 -0.0865  0.1748  0.2895
 5667SOL    HW128637   2.544   2.007   6.275 -0.0081 -0.3069  2.7689
 5667SOL    HW228638   2.515   1.912   6.169 -0.7450 -0.3182  0.2191
 5668SOL     OW28639   1.426   0.702   4.688  0.2146 -0.1879 -0.1171
 5668SOL    HW128640   1.340   0.704   4.646  0.4547  2.7485 -0.5022
 5668SOL    HW228641   1.452   0.611   4.678 -2.2602 -0.8441 -0.4601
 5669SOL     OW28642   3.685   3.573   8.594 -0.3631 -0.3201  0.5043
 5669SOL    HW128643   3.636   3.559   8.675 -1.2255  0.5492  0.1273
 5669SOL    HW228644   3.755   3.512   8.618  1.1288  1.7718  1.4577
 5670SOL     OW28645   0.208   2.222   3.445  0.5211  0.6418 -0.7967
 5670SOL    HW128646   0.277   2.186   3.499  0.9782  0.1343 -1.7147
 5670SOL    HW228647   0.174   2.272   3.519 -0.8159 -0.9448 -0.3298
 5671SOL     OW28648   0.728   3.376   5.800  0.1915  0.5894  0.0613
 5671SOL    HW128649   0.703   3.373   5.893  1.5337 -1.8696  0.3477
 5671SOL    HW228650   0.800   3.438   5.792  1.0794 -0.3495  0.9356
 5672SOL     OW28651   2.191   3.971   6.641 -0.0054  0.1728  0.3235
 5672SOL    HW128652   2.183   3.906   6.710  0.4777 -0.2989 -0.0704
 5672SOL    HW228653   2.122   3.949   6.578 -0.0841 -1.5243  1.0247
 5673SOL     OW28654   1.047   0.660   3.925  0.7864 -0.4374 -0.1808
 5673SOL    HW128655   0.992   0.663   4.003 -0.0183  1.4104 -0.8236
 5673SOL    HW228656   1.018   0.742   3.886 -0.3614  0.4765  2.6151
 5674SOL     OW28657   2.721   4.217   1.125 -0.6089  0.5358  0.2200
 5674SOL    HW128658   2.685   4.302   1.100  1.3694  0.3835 -3.1812
 5674SOL    HW228659   2.702   4.198   1.217  1.8433 -0.0773  0.5979
 5675SOL     OW28660   0.191   3.781   5.339  0.0139  0.0926 -0.6986
 5675SOL    HW128661   0.174   3.758   5.431 -0.2930 -1.9264 -1.2650
 5675SOL    HW228662   0.240   3.863   5.348 -0.6437  0.5701 -1.5437
 5676SOL     OW28663   1.238   2.883  14.362  0.6276  0.2828  0.0221
 5676SOL    HW128664   1.262   2.942  14.434  1.7345  1.1603 -1.0660
 5676SOL    HW228665   1.275   2.928  14.286 -0.1419  0.1231 -0.4489
 5677SOL     OW28666   1.861   1.268   6.371 -0.1110 -0.3979  0.4200
 5677SOL    HW128667   1.954   1.246   6.374 -0.2340 -1.0234 -0.3273
 5677SOL    HW228668   1.818   1.209   6.433 -1.8610  0.2198 -0.2162
 5678SOL     OW28669   2.686   3.567   3.882 -0.3159  0.3268  0.1586
 5678SOL    HW128670   2.653   3.644   3.836 -0.1541 -0.3133 -1.0134
 5678SOL    HW228671   2.602   3.535   3.915  0.7904 -1.0031  1.6671
 5679SOL     OW28672   1.028   1.535  11.046  0.3915  0.1156  0.3816
 5679SOL    HW128673   1.013   1.628  11.066  3.0086  1.5769 -4.4287
 5679SOL    HW228674   0.951   1.522  10.991 -0.1679  0.9975  0.9487
 5680SOL     OW28675   1.169   2.443  11.992 -0.4287  0.2262 -0.3143
 5680SOL    HW128676   1.247   2.491  11.965 -0.1992  0.1471  0.1963
 5680SOL    HW228677   1.107   2.504  11.953 -1.0277  1.3290  2.3287
 5681SOL     OW28678   2.500   3.133  11.027  0.0417 -0.2336 -0.4187
 5681SOL    HW128679   2.553   3.095  11.097 -0.8604 -0.1668  0.2960
 5681SOL    HW228680   2.419   3.142  11.077 -0.6083 -0.5923 -1.4146
 5682SOL     OW28681   2.245   1.623   6.742  0.3913 -0.1644 -0.2516
 5682SOL    HW128682   2.336   1.612   6.715 -0.1154  0.8614 -2.4081
 5682SOL    HW228683   2.269   1.648   6.831  0.3113  2.7549 -1.0459
 5683SOL     OW28684   4.578   2.880  13.473 -0.3882  0.1848  0.1849
 5683SOL    HW128685   4.615   2.806  13.425  0.2662  0.8756 -0.3668
 5683SOL    HW228686   4.485   2.870  13.451 -0.6875  2.2297  0.5088
 5684SOL     OW28687   4.223   0.614   1.556 -0.7969  0.0470 -0.1016
 5684SOL    HW128688   4.200   0.573   1.473  3.7045  1.1879 -1.9119
 5684SOL    HW228689   4.194   0.704   1.540  2.0024  0.6165 -1.8486
 5685SOL     OW28690   3.729   2.106   8.783 -0.0267  0.1747  0.3261
 5685SOL    HW128691   3.752   2.066   8.867  2.6424  0.5755 -0.2361
 5685SOL    HW228692   3.713   2.032   8.725  0.2579  0.7644 -0.4978
 5686SOL     OW28693   1.382   2.986   4.495  0.0947  0.8009  0.2275
 5686SOL    HW128694   1.309   2.933   4.529 -0.3842 -0.4683 -2.8105
 5686SOL    HW228695   1.339   3.071   4.479 -0.3610  0.4299 -0.4931
 5687SOL     OW28696   1.042   2.742  16.368 -0.3646 -1.1458  0.4679
 5687SOL    HW128697   1.006   2.724  16.455  0.5908  1.7884  1.4708
 5687SOL    HW228698   1.063   2.654  16.338  1.1088 -0.3881 -0.7330
 5688SOL     OW28699   1.965   4.630   8.777 -0.2965 -0.0383 -0.0896
 5688SOL    HW128700   1.880   4.603   8.811 -0.0869 -0.2912  0.2293
 5688SOL    HW228701   1.946   4.712   8.731 -1.4284 -0.5335 -0.4847
 5689SOL     OW28702   3.776   3.088   5.213 -0.1411 -0.5175  0.2087
 5689SOL    HW128703   3.764   3.063   5.305  1.3840  2.1018  1.1250
 5689SOL    HW228704   3.817   3.173   5.225  0.1206 -0.3672 -1.8654
 5690SOL     OW28705   3.195   1.414  11.598 -0.1757  0.0457  0.4572
 5690SOL    HW128706   3.201   1.478  11.527 -1.4108 -0.3634 -0.0169
 5690SOL    HW228707   3.126   1.355  11.568 -0.4827  0.4906  0.2750
 5691SOL     OW28708   3.097   2.027   7.337  0.7262  0.2254 -0.3702
 5691SOL    HW128709   3.080   2.116   7.368  0.4552  0.8635 -2.3157
 5691SOL    HW228710   3.016   1.997   7.297 -0.4202  1.3258  1.1368
 5692SOL     OW28711   1.615   2.254  17.645 -0.2902 -0.0046  0.5980
 5692SOL    HW128712   1.649   2.283  17.730 -0.4556 -0.9985  1.0083
 5692SOL    HW228713   1.545   2.319  17.636 -0.1106 -0.1277 -1.6479
 5693SOL     OW28714   4.609   3.690   9.887  0.2030  0.1082  0.5624
 5693SOL    HW128715   4.541   3.704   9.820  0.9585 -1.1096 -0.4658
 5693SOL    HW228716   4.644   3.779   9.899  2.0855 -0.5453 -0.1118
 5694SOL     OW28717   1.061   2.987   7.468 -0.1035 -0.2517 -0.2858
 5694SOL    HW128718   1.032   3.001   7.558 -0.3905 -1.6785 -0.1511
 5694SOL    HW228719   0.979   2.963   7.424 -0.2724  1.9543 -1.1743
 5695SOL     OW28720   1.284   1.185   7.942 -0.1938 -0.1489 -0.1751
 5695SOL    HW128721   1.231   1.260   7.915  0.3815  1.1883  2.3446
 5695SOL    HW228722   1.369   1.218   7.912 -0.3710 -0.9409 -1.5229
 5696SOL     OW28723   1.130   0.703  17.424 -0.2025 -0.5462 -0.5413
 5696SOL    HW128724   1.118   0.772  17.359  3.7440  0.4167 -0.2739
 5696SOL    HW228725   1.127   0.626  17.368 -0.8348 -0.9491  0.0409
 5697SOL     OW28726   0.861   1.129   4.448  0.1779 -0.5852 -0.3841
 5697SOL    HW128727   0.776   1.091   4.425 -1.1785  2.2105  0.0657
 5697SOL    HW228728   0.919   1.053   4.460 -0.1401 -0.8657 -0.6022
 5698SOL     OW28729   4.061   1.162   6.793  0.1255 -0.4356  0.4672
 5698SOL    HW128730   4.026   1.139   6.879  0.5193  1.1553  1.0461
 5698SOL    HW228731   4.000   1.121   6.731 -0.4943 -0.0708  0.8286
 5699SOL     OW28732   2.073   3.925  12.401 -0.3563 -0.3952 -0.6171
 5699SOL    HW128733   2.071   3.845  12.453  1.4228  0.4114  0.6697
 5699SOL    HW228734   2.105   3.891  12.317  0.4450  0.4748 -0.6597
 5700SOL     OW28735   0.691   1.549   4.509  0.1144 -0.1048 -0.0897
 5700SOL    HW128736   0.678   1.613   4.439 -2.2269  0.1663  0.5795
 5700SOL    HW228737   0.779   1.575   4.537  0.0326 -1.6437  1.5607
 5701SOL     OW28738   0.935   0.102  14.844  0.1783 -0.0443 -0.4245
 5701SOL    HW128739   0.928   0.074  14.753  0.1228  3.2617 -1.4159
 5701SOL    HW228740   0.936   0.191  14.810 -0.4844  1.3237  3.1298
 5702SOL     OW28741   2.693   4.638   9.064 -0.7535 -0.3984  0.1123
 5702SOL    HW128742   2.784   4.640   9.093 -0.9216 -1.6085  0.7058
 5702SOL    HW228743   2.661   4.560   9.108  1.5163 -0.4036  1.6956
 5703SOL     OW28744   1.114   1.120   5.030  0.1892 -0.4739 -0.4016
 5703SOL    HW128745   1.048   1.061   5.067  1.3703 -1.2949  0.4146
 5703SOL    HW228746   1.074   1.206   5.038 -3.3149 -2.0596 -0.8447
 5704SOL     OW28747   0.219   4.594   3.025 -0.1002 -0.4934 -0.6152
 5704SOL    HW128748   0.272   4.517   3.007 -0.8120 -0.9910 -0.5883
 5704SOL    HW228749   0.219   4.630   2.936 -3.2711 -0.8719 -0.7844
 5705SOL     OW28750   3.132   1.598   2.549 -0.2575  0.0159 -0.0418
 5705SOL    HW128751   3.160   1.522   2.499 -1.3093 -0.1564 -0.3669
 5705SOL    HW228752   3.136   1.666   2.482  0.1688  0.1419  0.1132
 5706SOL     OW28753   3.353   2.387   4.421 -0.5434  0.2803  0.6115
 5706SOL    HW128754   3.266   2.423   4.433 -1.3896 -0.4908 -3.1367
 5706SOL    HW228755   3.347   2.326   4.494 -1.0640 -0.1584  0.2033
 5707SOL     OW28756   1.465   1.250   9.321  0.5486 -0.3021  0.2047
 5707SOL    HW128757   1.494   1.342   9.321 -1.9315  0.4815 -0.5123
 5707SOL    HW228758   1.451   1.237   9.414 -1.1544  0.1075 -0.0012
 5708SOL     OW28759   1.558   4.654   9.046 -0.2639 -0.2097 -0.6870
 5708SOL    HW128760   1.606   0.002   9.060  1.4965 -1.0822 -1.6639
 5708SOL    HW228761   1.632   4.593   9.040 -1.4269 -1.7272  0.5797
 5709SOL     OW28762   4.246   0.768   9.559 -0.3949 -0.1305  0.3612
 5709SOL    HW128763   4.226   0.759   9.653 -0.6751 -1.4626  0.1792
 5709SOL    HW228764   4.181   0.704   9.528  0.4943 -0.2343 -1.2688
 5710SOL     OW28765   4.200   4.694   1.855  0.1283 -0.0527  0.1048
 5710SOL    HW128766   4.230   4.619   1.906  1.3880 -0.3962 -1.1373
 5710SOL    HW228767   4.106   4.677   1.853 -0.0084  0.8432 -0.8854
 5711SOL     OW28768   0.002   4.678  11.826  0.2881  0.5006 -0.1542
 5711SOL    HW128769   4.661   4.699  11.772 -0.7988  0.3752  1.2937
 5711SOL    HW228770   0.013   0.022  11.880  1.0184  0.3503 -0.0757
 5712SOL     OW28771   3.665   1.392   4.838  0.0919  0.3153 -0.5332
 5712SOL    HW128772   3.712   1.408   4.920  1.9913  0.6625 -1.7073
 5712SOL    HW228773   3.704   1.305   4.824  1.3932  0.9732 -1.0102
 5713SOL     OW28774   3.628   0.743   5.918 -0.5083  0.4230 -0.1623
 5713SOL    HW128775   3.534   0.737   5.898 -0.4173 -0.3894 -0.3569
 5713SOL    HW228776   3.617   0.804   5.991  2.6889 -0.1765  0.7908
 5714SOL     OW28777   2.219   0.204   5.174  0.6157 -0.2492 -0.0047
 5714SOL    HW128778   2.240   0.296   5.159  4.2370 -1.2430 -1.1647
 5714SOL    HW228779   2.237   0.195   5.267 -0.4392 -1.7852  0.0635
 5715SOL     OW28780   4.427   2.515   4.769 -0.8501  0.4173 -0.7150
 5715SOL    HW128781   4.497   2.537   4.708  0.6873 -0.1089  0.8554
 5715SOL    HW228782   4.413   2.599   4.812  0.7071  0.6598 -0.6891
 5716SOL     OW28783   4.687   1.981   3.900 -0.2180  0.4390  0.1132
 5716SOL    HW128784   4.654   1.945   3.982  1.7927 -0.2156  0.6214
 5716SOL    HW228785   4.640   1.936   3.830 -1.4386 -1.8419  2.4215
 5717SOL     OW28786   3.721   1.481  15.685 -0.3892 -0.1029  0.1397
 5717SOL    HW128787   3.707   1.573  15.663 -2.6638 -1.3265 -3.4618
 5717SOL    HW228788   3.662   1.450  15.753 -0.5688  0.2094  0.1244
 5718SOL     OW28789   2.115   0.013   3.551  0.4010 -0.0343  0.0826
 5718SOL    HW128790   2.030   0.043   3.583  1.4289  1.8233  1.0550
 5718SOL    HW228791   2.155   4.685   3.612 -0.5475  1.0261  1.7792
 5719SOL     OW28792   2.088   4.497   1.655 -0.1674 -0.0252  0.1840
 5719SOL    HW128793   2.061   4.534   1.571 -0.2631  0.1797  0.3083
 5719SOL    HW228794   2.169   4.451   1.631  1.3895  1.5575  2.3949
 5720SOL     OW28795   1.846   1.362   3.347 -0.8567  0.1147 -0.2266
 5720SOL    HW128796   1.752   1.345   3.337 -1.0797  3.1006 -3.3214
 5720SOL    HW228797   1.869   1.294   3.410 -1.7642  0.2120  0.2059
 5721SOL     OW28798   1.366   0.225   3.558  0.2929  0.7276 -0.2466
 5721SOL    HW128799   1.343   0.156   3.619  0.2637 -0.4530 -1.5848
 5721SOL    HW228800   1.306   0.207   3.486  0.8329  2.8229 -1.2297
 5722SOL     OW28801   2.878   0.607   0.818  0.4440 -0.2526 -0.3270
 5722SOL    HW128802   2.834   0.530   0.854 -0.7349  0.1020 -1.0199
 5722SOL    HW228803   2.871   0.672   0.887  0.3566  2.6708 -3.0680
 5723SOL     OW28804   0.761   1.476   1.714  0.4272  0.1466 -0.1597
 5723SOL    HW128805   0.682   1.422   1.720  0.0113  0.7406 -0.3276
 5723SOL    HW228806   0.795   1.458   1.626  1.0085 -0.9717  0.2819
 5724SOL     OW28807   0.047   1.965   4.416 -0.1223  0.3837  0.4754
 5724SOL    HW128808   0.003   1.935   4.496 -1.3557  0.8024 -0.0398
 5724SOL    HW228809   0.105   2.031   4.453  0.1857  0.1057  0.4888
 5725SOL     OW28810   0.301   0.050   4.602 -0.6364 -0.0261 -0.0580
 5725SOL    HW128811   0.288   0.139   4.636  0.2387 -0.6661  1.9361
 5725SOL    HW228812   0.337   0.065   4.514 -0.8847  1.9888  0.1726
 5726SOL     OW28813   3.949   4.512  16.425  0.4850  0.4582 -0.3574
 5726SOL    HW128814   3.948   4.504  16.330 -1.2726 -1.0924 -0.1931
 5726SOL    HW228815   3.858   4.534  16.448  0.3931 -1.1559  0.8092
 5727SOL     OW28816   3.985   3.761   7.299  0.0189 -0.0169 -0.5535
 5727SOL    HW128817   4.071   3.747   7.340  0.2117  2.1454 -0.2487
 5727SOL    HW228818   3.941   3.812   7.368  1.2886  0.5955 -0.1955
 5728SOL     OW28819   1.154   4.448   3.614  0.0414 -0.4880  0.3606
 5728SOL    HW128820   1.232   4.394   3.602  2.2778  3.3278 -2.2482
 5728SOL    HW228821   1.148   4.492   3.529 -0.1192 -0.1729  0.5329
 5729SOL     OW28822   0.514   3.034  11.778 -0.1008 -0.1933  0.3811
 5729SOL    HW128823   0.595   2.992  11.808 -0.7364 -0.8941  1.1557
 5729SOL    HW228824   0.446   2.983  11.823 -2.7391  2.0226 -1.0442
 5730SOL     OW28825   2.221   4.307   1.391 -0.1286 -0.0342 -0.3564
 5730SOL    HW128826   2.157   4.247   1.430  0.6309  0.0112  0.9239
 5730SOL    HW228827   2.288   4.318   1.457  1.9758 -3.3433 -1.9272
 5731SOL     OW28828   4.455   4.039   3.159 -0.4730 -0.1127 -0.3093
 5731SOL    HW128829   4.501   4.085   3.088  0.4500  0.3694  0.6098
 5731SOL    HW228830   4.481   3.950   3.138  2.5685  0.9841 -1.1165
 5732SOL     OW28831   2.970   3.184   6.306  0.4805 -0.3291 -0.3532
 5732SOL    HW128832   2.950   3.244   6.378 -1.2558 -1.0450 -0.2462
 5732SOL    HW228833   2.882   3.154   6.285 -0.7131  1.9961  1.2834
 5733SOL     OW28834   3.866   4.045   6.013  0.4917  0.0017  0.4296
 5733SOL    HW128835   3.957   4.047   5.982  0.2854  1.8254 -0.0374
 5733SOL    HW228836   3.858   4.139   6.029 -0.7234 -0.4665  2.5646
 5734SOL     OW28837   1.547   0.042   0.597 -0.4354 -0.2324 -0.1099
 5734SOL    HW128838   1.577   4.689   0.623  0.3918 -0.1197 -0.7121
 5734SOL    HW228839   1.455   0.038   0.623 -0.9077  0.4837 -1.6973
 5735SOL     OW28840   4.185   0.103   4.925  0.0979  0.3570 -0.1085
 5735SOL    HW128841   4.171   0.028   4.867  0.3953  1.2623 -1.3508
 5735SOL    HW228842   4.181   0.055   5.008 -0.3055  0.7147  0.0803
 5736SOL     OW28843   2.522   4.151  15.071  0.5615 -0.1791  0.0796
 5736SOL    HW128844   2.563   4.211  15.135  1.8035  0.1316 -1.0010
 5736SOL    HW228845   2.591   4.085  15.078  1.5639  0.7971 -0.3722
 5737SOL     OW28846   0.986   2.384  14.289  0.1743 -0.3132 -0.1527
 5737SOL    HW128847   1.057   2.372  14.226  2.4736  0.2930  2.3113
 5737SOL    HW228848   1.018   2.401  14.377 -0.1297 -0.1960 -0.0643
 5738SOL     OW28849   3.992   4.347  15.126  0.3707  0.1315  0.8006
 5738SOL    HW128850   4.036   4.427  15.157 -1.5592  1.9555 -1.1017
 5738SOL    HW228851   4.023   4.280  15.186 -1.2058  0.2161  1.7157
 5739SOL     OW28852   1.257   1.838   4.708 -0.1648 -0.3931 -0.1168
 5739SOL    HW128853   1.198   1.909   4.683 -1.7111 -1.6309 -0.0035
 5739SOL    HW228854   1.279   1.787   4.630 -1.5907  1.3870 -1.6627
 5740SOL     OW28855   1.217   0.432   2.114  0.2930  0.3359  0.3206
 5740SOL    HW128856   1.303   0.437   2.073  1.0107  1.0267  1.9351
 5740SOL    HW228857   1.153   0.445   2.044 -0.2450 -0.4898  0.6488
 5741SOL     OW28858   4.165   3.165   0.306  0.1500 -0.5221 -0.6980
 5741SOL    HW128859   4.243   3.211   0.275  0.5579 -0.6065  0.1924
 5741SOL    HW228860   4.111   3.171   0.228 -1.6959 -2.9864  0.3733
 5742SOL     OW28861   0.262   2.900  12.469 -0.0661  0.3563 -0.0847
 5742SOL    HW128862   0.185   2.921  12.416 -0.9424 -1.3517  0.5077
 5742SOL    HW228863   0.221   2.905  12.555  1.5564 -1.3499  0.7870
 5743SOL     OW28864   2.150   0.024  10.116 -0.3992  0.1684 -0.2669
 5743SOL    HW128865   2.105   0.011  10.033  0.0094 -0.2944 -0.4186
 5743SOL    HW228866   2.079   0.027  10.180  0.2034  0.4460  0.4044
 5744SOL     OW28867   2.726   1.272   4.336  0.2956  0.2087  0.0703
 5744SOL    HW128868   2.644   1.239   4.373  1.9130 -1.5143  2.1306
 5744SOL    HW228869   2.789   1.205   4.362  1.2212  2.0830  2.8111
 5745SOL     OW28870   4.179   1.567   8.759 -0.0681  0.1779 -0.0738
 5745SOL    HW128871   4.214   1.576   8.671 -0.2521  0.2847 -0.1352
 5745SOL    HW228872   4.252   1.515   8.793  0.0426 -0.2661 -1.0045
 5746SOL     OW28873   4.080   2.796   4.681  0.2617 -0.1738  0.4033
 5746SOL    HW128874   4.045   2.727   4.738 -0.1746  2.0452  2.7844
 5746SOL    HW228875   4.116   2.861   4.740  1.2676 -0.1143 -0.2816
 5747SOL     OW28876   3.359   0.242   5.139 -0.1562 -0.7863  0.1884
 5747SOL    HW128877   3.444   0.199   5.126 -0.6453 -1.7953  0.3091
 5747SOL    HW228878   3.354   0.305   5.067  1.9504  0.7343  1.3818
 5748SOL     OW28879   4.051   2.942   2.588 -0.7990 -0.3389  0.2986
 5748SOL    HW128880   4.070   2.909   2.500  1.4708  1.3206  0.1716
 5748SOL    HW228881   3.964   2.903   2.600 -2.0709  1.3933 -3.2059
 5749SOL     OW28882   1.948   1.109   4.165  0.1986  0.0401 -0.0130
 5749SOL    HW128883   1.992   1.107   4.081 -1.3147 -0.0542 -0.8034
 5749SOL    HW228884   1.999   1.175   4.212  0.6109  1.7260 -2.8546
 5750SOL     OW28885   2.670   0.797   6.422 -0.1617  0.4041 -0.1926
 5750SOL    HW128886   2.644   0.874   6.472  2.9061  1.0369  0.4730
 5750SOL    HW228887   2.765   0.793   6.410 -0.0870  1.5224 -0.0046
 5751SOL     OW28888   0.127   4.210  12.786  0.8089 -0.1436  0.0646
 5751SOL    HW128889   0.165   4.147  12.847  0.8295 -2.1244 -1.9911
 5751SOL    HW228890   0.165   4.293  12.813  0.7448 -0.7032  1.8824
 5752SOL     OW28891   1.209   1.873   3.656 -0.3720  0.3026 -0.2170
 5752SOL    HW128892   1.122   1.842   3.630  0.2430  0.7576 -2.8231
 5752SOL    HW228893   1.194   1.931   3.731  2.1604 -2.3809  2.3945
 5753SOL     OW28894   3.273   0.953  17.427 -0.0203  0.4218  0.1193
 5753SOL    HW128895   3.317   1.035  17.453 -0.4822  0.0152  2.1465
 5753SOL    HW228896   3.274   0.967  17.332 -3.7577  3.8348  0.5755
 5754SOL     OW28897   1.106   3.598   8.246 -0.3206 -0.2000  0.1548
 5754SOL    HW128898   1.193   3.567   8.270  0.3951  2.4090  0.8871
 5754SOL    HW228899   1.112   3.611   8.152  1.2844  1.1194  0.4443
 5755SOL     OW28900   1.023   0.927   4.523 -0.1449  0.1445  0.3969
 5755SOL    HW128901   1.007   0.866   4.596 -1.7607  0.8024  0.5786
 5755SOL    HW228902   1.115   0.950   4.540  1.0326 -3.4316 -1.0984
 5756SOL     OW28903   4.673   1.307   5.932 -0.3210 -0.0684  0.2220
 5756SOL    HW128904   4.673   1.273   5.842 -1.7456 -0.9747  0.5598
 5756SOL    HW228905   0.005   1.375   5.919 -1.3239  0.3486 -2.8512
 5757SOL     OW28906   3.270   0.120   3.933 -0.6573  0.0488 -0.3523
 5757SOL    HW128907   3.280   0.080   3.846  1.6069 -2.4525  1.0511
 5757SOL    HW228908   3.330   0.063   3.982 -2.5643  0.3796  2.3324
 5758SOL     OW28909   0.762   3.682  10.795  0.2114  0.0811  0.0107
 5758SOL    HW128910   0.818   3.663  10.720 -0.3362  0.5458 -0.5119
 5758SOL    HW228911   0.801   3.622  10.859  1.0035  0.0031 -0.5447
 5759SOL     OW28912   0.964   0.252   0.286 -0.0734 -0.5805 -0.0983
 5759SOL    HW128913   0.879   0.217   0.263 -1.1018  0.7268  1.7219
 5759SOL    HW228914   0.938   0.324   0.345 -0.4704 -1.1467  0.4140
 5760SOL     OW28915   3.785   2.159   0.040  0.2963  0.0035  0.1215
 5760SOL    HW128916   3.850   2.204  17.721 -0.1393 -1.8176 -1.9389
 5760SOL    HW228917   3.823   2.159   0.128 -1.9424  1.5668  1.0714
 5761SOL     OW28918   1.822   2.843   8.791  0.0377 -0.5688 -0.1093
 5761SOL    HW128919   1.763   2.895   8.845  3.0754  2.5322  0.2016
 5761SOL    HW228920   1.766   2.823   8.717  1.0361  0.1877 -1.0629
 5762SOL     OW28921   0.114   4.231  16.919 -0.3328  0.1844 -0.0604
 5762SOL    HW128922   0.150   4.284  16.990 -1.8758  2.8828 -1.2960
 5762SOL    HW228923   0.176   4.160  16.902 -0.6811 -0.3024  0.6864
 5763SOL     OW28924   2.392   0.178  14.910 -0.1766  0.4558 -0.8170
 5763SOL    HW128925   2.306   0.136  14.913 -0.9652  2.0166 -1.3216
 5763SOL    HW228926   2.365   0.246  14.849  1.5832  0.2894 -1.7875
 5764SOL     OW28927   0.271   2.874  13.354 -0.1688 -0.7501  0.3066
 5764SOL    HW128928   0.257   2.783  13.383 -0.1040 -0.3045  1.7368
 5764SOL    HW228929   0.362   2.866  13.326 -0.1247 -0.1005  0.2767
 5765SOL     OW28930   0.475   3.962   3.872 -0.1720 -0.5541 -0.0724
 5765SOL    HW128931   0.408   3.953   3.804  1.8229  0.6440 -2.1587
 5765SOL    HW228932   0.533   4.025   3.831 -1.4947  1.3994  1.0467
 5766SOL     OW28933   1.340   2.067   7.189 -0.2842  0.0476 -0.3908
 5766SOL    HW128934   1.372   2.143   7.139  0.8911 -0.5747 -0.5886
 5766SOL    HW228935   1.250   2.093   7.208  0.1842  1.6015 -0.3004
 5767SOL     OW28936   2.913   2.897   6.965  0.7018 -0.1526  0.2610
 5767SOL    HW128937   2.955   2.970   6.921 -0.4029 -0.3845 -1.1519
 5767SOL    HW228938   2.986   2.839   6.944 -0.3454 -0.7815 -1.5572
 5768SOL     OW28939   3.783   3.684   2.376 -0.0837 -0.1848  0.5052
 5768SOL    HW128940   3.745   3.700   2.463 -2.5082  2.2424 -0.9946
 5768SOL    HW228941   3.703   3.684   2.323 -0.0760  1.8542  0.4713
 5769SOL     OW28942   1.569   0.885   7.403  0.0477 -0.4795  0.8238
 5769SOL    HW128943   1.527   0.875   7.318  1.0275 -0.8258  0.3909
 5769SOL    HW228944   1.657   0.868   7.370 -0.7257 -0.1734 -1.3921
 5770SOL     OW28945   3.891   3.790   4.911 -0.4914  0.3855 -0.1202
 5770SOL    HW128946   3.975   3.827   4.882  0.6606 -0.0624  2.6672
 5770SOL    HW228947   3.874   3.844   4.988 -1.1478 -0.9812  0.6906
 5771SOL     OW28948   3.293   0.242   0.393  0.2631  0.6721  0.5984
 5771SOL    HW128949   3.286   0.332   0.425  0.0672  1.7645 -2.5135
 5771SOL    HW228950   3.315   0.193   0.472  1.6735  0.0192 -0.2023
 5772SOL     OW28951   3.621   4.652   3.996  0.1109 -0.1707 -0.2644
 5772SOL    HW128952   3.631   0.004   3.955 -0.0965  0.8649  1.8784
 5772SOL    HW228953   3.608   4.671   4.089 -0.0626 -0.6038 -0.2021
 5773SOL     OW28954   2.277   2.972   0.600  0.3704 -0.8746 -0.3645
 5773SOL    HW128955   2.286   2.882   0.631 -2.8833  0.1576  3.5399
 5773SOL    HW228956   2.369   3.000   0.607  0.0374  0.0762  0.1655
 5774SOL     OW28957   4.340   3.885  14.898  0.7952 -0.2963 -0.3397
 5774SOL    HW128958   4.308   3.797  14.920 -1.1523  0.0396 -1.7919
 5774SOL    HW228959   4.415   3.902  14.954  0.3964 -1.8041  0.6472
 5775SOL     OW28960   0.775   3.549  13.806 -0.2721 -0.0615  0.4239
 5775SOL    HW128961   0.784   3.641  13.829  0.4592  0.2070 -0.9348
 5775SOL    HW228962   0.746   3.515  13.890 -1.5377 -0.7004 -0.2705
 5776SOL     OW28963   3.249   4.342   2.087 -0.1434  0.0705  0.0663
 5776SOL    HW128964   3.173   4.394   2.060 -0.3542  0.0025  0.5191
 5776SOL    HW228965   3.273   4.389   2.167  1.5714 -0.9889  0.1708
 5777SOL     OW28966   1.557   2.637  13.940  0.1129 -0.4208 -0.1435
 5777SOL    HW128967   1.486   2.576  13.960 -1.6405  2.7548  3.1127
 5777SOL    HW228968   1.576   2.681  14.022 -3.8568  0.9097  0.0268
 5778SOL     OW28969   4.314   3.777   5.729 -0.3389  0.1192 -0.0176
 5778SOL    HW128970   4.400   3.764   5.771 -0.5593 -0.9891  0.0833
 5778SOL    HW228971   4.310   3.871   5.709 -1.0942  0.4162  1.5499
 5779SOL     OW28972   1.944   2.986   7.031  0.6836 -0.1796 -0.0691
 5779SOL    HW128973   1.917   3.019   7.117 -0.5568 -1.8470  0.1859
 5779SOL    HW228974   1.940   3.070   6.985 -2.6445  0.2372  0.9846
 5780SOL     OW28975   1.560   0.367   3.131 -0.0711  0.2460 -0.2327
 5780SOL    HW128976   1.493   0.428   3.100 -1.2278 -1.2862 -0.7088
 5780SOL    HW228977   1.573   0.392   3.223  0.6449 -0.6534 -0.0896
 5781SOL     OW28978   2.313   0.153   7.377  0.0384  1.1397  0.0507
 5781SOL    HW128979   2.241   0.215   7.384 -1.0516  0.0057 -1.0585
 5781SOL    HW228980   2.280   0.106   7.300  0.7102 -2.2153  1.8437
 5782SOL     OW28981   0.122   0.801   9.714 -0.3461 -0.2879 -0.1377
 5782SOL    HW128982   0.181   0.748   9.661 -0.5243  1.2299 -1.8512
 5782SOL    HW228983   0.034   0.787   9.681  1.0329 -1.5062 -3.2884
 5783SOL     OW28984   0.947   4.314   4.914  0.1760 -0.2686 -0.3214
 5783SOL    HW128985   1.025   4.306   4.859  0.7711 -0.5835  0.5758
 5783SOL    HW228986   0.880   4.252   4.884 -1.2901 -0.4352  3.3146
 5784SOL     OW28987   0.093   3.393   2.205 -0.3272 -0.1247 -0.1625
 5784SOL    HW128988   0.004   3.395   2.240  0.1234 -1.1110  1.0459
 5784SOL    HW228989   0.152   3.405   2.280 -0.4749  0.8528 -0.2022
 5785SOL     OW28990   4.412   2.056  12.893 -0.2041 -0.0891  0.0410
 5785SOL    HW128991   4.432   2.059  12.986  3.3725  2.7229 -0.8251
 5785SOL    HW228992   4.347   2.124  12.876 -0.8680 -0.2662  1.9705
 5786SOL     OW28993   4.069   0.141  12.390  0.0545 -0.1373  0.1740
 5786SOL    HW128994   3.984   0.105  12.415  0.8617 -1.8966  0.4313
 5786SOL    HW228995   4.127   0.093  12.450 -0.0736  0.8018  1.0433
 5787SOL     OW28996   2.253   3.412   7.384 -0.0344 -0.3769  0.7640
 5787SOL    HW128997   2.246   3.507   7.383 -0.8921 -0.4276  1.5211
 5787SOL    HW228998   2.321   3.399   7.450 -0.6264  0.3423  1.5034
 5788SOL     OW28999   2.501   2.585   8.508  0.8105 -0.9914  0.6314
 5788SOL    HW129000   2.486   2.495   8.537 -0.4435 -0.6083  1.1767
 5788SOL    HW229001   2.461   2.633   8.580  1.0693  0.7438 -0.4008
 5789SOL     OW29002   1.793   2.276   1.048  0.2603 -0.6280 -0.0439
 5789SOL    HW129003   1.792   2.196   0.995 -1.1445 -0.8005  0.2498
 5789SOL    HW229004   1.877   2.250   1.087 -0.5442 -1.2572  1.2473
 5790SOL     OW29005   4.064   4.043   6.639  0.1385  0.0895  0.5818
 5790SOL    HW129006   4.088   3.966   6.588 -3.2064 -0.8917  0.4563
 5790SOL    HW229007   3.970   4.028   6.632  0.3225 -0.5043 -0.6695
 5791SOL     OW29008   3.575   2.098   4.683 -0.3467  0.1910  0.2687
 5791SOL    HW129009   3.481   2.083   4.685 -0.2609 -0.2222  0.8299
 5791SOL    HW229010   3.580   2.193   4.693 -1.3043  0.0179  2.1954
 5792SOL     OW29011   4.332   0.876  11.644 -0.7331  0.0546  0.1423
 5792SOL    HW129012   4.296   0.835  11.566 -1.1241 -1.1756  0.9759
 5792SOL    HW229013   4.420   0.840  11.632 -1.8595 -2.2416 -1.2555
 5793SOL     OW29014   2.914   1.885  15.380  0.4045 -0.0049 -0.6438
 5793SOL    HW129015   2.992   1.842  15.417  0.5794 -1.2173 -2.4076
 5793SOL    HW229016   2.918   1.859  15.288  0.2282  0.4597 -0.7798
 5794SOL     OW29017   0.052   2.007   7.042 -0.3673  0.0880  0.0584
 5794SOL    HW129018   0.104   2.087   7.047  0.9001 -0.6460 -1.3968
 5794SOL    HW229019   0.020   2.010   7.132  1.7255  1.0926  0.7677
 5795SOL     OW29020   3.259   4.138   3.658 -0.5976 -0.0868  0.1334
 5795SOL    HW129021   3.346   4.142   3.697  0.5364  0.0514 -2.3943
 5795SOL    HW229022   3.204   4.135   3.736  0.8814 -1.5699  1.1137
 5796SOL     OW29023   0.864   2.685  12.082 -0.3681  0.0435 -0.1144
 5796SOL    HW129024   0.840   2.594  12.099 -0.7208  0.1572 -0.0032
 5796SOL    HW229025   0.804   2.743  12.128  1.0856  1.3042  0.1972
 5797SOL     OW29026   0.159   1.289   9.437  0.0262  0.3790 -0.0954
 5797SOL    HW129027   0.241   1.287   9.388  0.1821  0.6533  0.1537
 5797SOL    HW229028   0.199   1.330   9.514  3.8954  0.2200 -2.0031
 5798SOL     OW29029   4.544   3.335   5.768  0.1464 -0.5610  0.4312
 5798SOL    HW129030   4.506   3.276   5.833  1.6230 -0.8105  1.0601
 5798SOL    HW229031   4.481   3.329   5.696 -1.0361  0.6571  1.3681
 5799SOL     OW29032   0.520   1.214   7.053 -0.1646 -0.6112 -0.1561
 5799SOL    HW129033   0.504   1.296   7.008 -1.5807 -1.3715 -1.0328
 5799SOL    HW229034   0.584   1.242   7.118 -1.1509 -0.4180  0.7245
 5800SOL     OW29035   1.934   1.158   8.748  0.5539  0.5017  0.0247
 5800SOL    HW129036   1.969   1.192   8.830 -0.2995 -0.2023  0.6755
 5800SOL    HW229037   1.847   1.126   8.771  0.1171  0.3622 -1.8242
 5801SOL     OW29038   0.974   3.454   3.144  0.3878 -0.4080 -0.1175
 5801SOL    HW129039   0.979   3.373   3.195  2.3905  0.0220  0.3549
 5801SOL    HW229040   0.881   3.472   3.158 -0.2185 -2.9874 -0.7486
 5802SOL     OW29041   0.867   2.487   7.122 -0.4474 -0.0745 -0.8379
 5802SOL    HW129042   0.859   2.409   7.066 -1.3492 -0.8867  0.4145
 5802SOL    HW229043   0.779   2.488   7.160  0.7915 -0.3835  2.0266
 5803SOL     OW29044   0.392   2.843   5.616  0.3021  0.2320  0.1622
 5803SOL    HW129045   0.298   2.852   5.631  0.0587 -0.3532 -1.0589
 5803SOL    HW229046   0.408   2.754   5.646  0.7891  0.5902  0.9818
 5804SOL     OW29047   0.197   1.168   4.039  0.0622  0.0830  0.3027
 5804SOL    HW129048   0.230   1.251   4.005  1.0771  0.5105  2.2905
 5804SOL    HW229049   0.110   1.178   4.001  0.3358  0.1298 -0.3024
 5805SOL     OW29050   0.477   3.053  12.335 -0.4990 -0.2453  0.0906
 5805SOL    HW129051   0.441   3.129  12.381  0.4114  0.0744  0.2899
 5805SOL    HW229052   0.413   2.987  12.362  0.5663 -0.8515  1.1455
 5806SOL     OW29053   2.913   2.832   8.451  0.6120  0.0560 -0.3810
 5806SOL    HW129054   2.923   2.852   8.544  0.0310 -1.7721  0.0611
 5806SOL    HW229055   2.992   2.876   8.419  0.2398  0.0203 -1.3464
 5807SOL     OW29056   1.688   4.535   7.014 -0.1065  0.1826  0.0732
 5807SOL    HW129057   1.692   4.454   6.964  0.2260  1.6894 -2.3195
 5807SOL    HW229058   1.597   4.565   7.022 -0.8308 -2.2223  0.8308
 5808SOL     OW29059   1.504   4.142   5.025  0.4871 -0.1479  0.0408
 5808SOL    HW129060   1.585   4.109   5.063  0.1498 -0.2837  0.6454
 5808SOL    HW229061   1.482   4.208   5.092  0.6327 -1.6520  1.5715
 5809SOL     OW29062   1.720   0.053   9.899  0.2436 -0.0857  0.0876
 5809SOL    HW129063   1.687   4.728   9.967  0.1117 -1.5448 -1.2290
 5809SOL    HW229064   1.682   0.134   9.930 -3.0168 -0.7994 -2.1146
 5810SOL     OW29065   0.533   2.847   6.610  0.0080  0.2825 -0.6800
 5810SOL    HW129066   0.449   2.877   6.644  0.7160 -0.0945  1.3858
 5810SOL    HW229067   0.590   2.909   6.656 -0.0428  1.3805 -2.0872
 5811SOL     OW29068   3.478   1.451   1.337  0.3823 -0.3104  0.8887
 5811SOL    HW129069   3.408   1.396   1.300  1.7716 -1.3664 -0.1807
 5811SOL    HW229070   3.481   1.434   1.431  2.7314 -1.4272  0.6106
 5812SOL     OW29071   2.672   4.469   7.134  0.3572 -0.1052 -0.0224
 5812SOL    HW129072   2.716   4.553   7.147  1.1687 -0.5052 -0.1918
 5812SOL    HW229073   2.618   4.449   7.211  1.1949  0.4877  0.7101
 5813SOL     OW29074   3.347   0.831   7.854  0.1546 -0.3089  0.2847
 5813SOL    HW129075   3.289   0.879   7.913  0.1101 -1.6806  1.3682
 5813SOL    HW229076   3.404   0.902   7.826  2.5148 -3.1099 -2.0026
 5814SOL     OW29077   3.314   2.388   1.193  0.5194 -0.7431 -0.1206
 5814SOL    HW129078   3.264   2.307   1.195  0.0898 -0.5223 -1.6155
 5814SOL    HW229079   3.388   2.364   1.137  2.4068 -0.9648  2.4928
 5815SOL     OW29080   3.871   2.030   8.127  0.3256 -0.0803 -0.2920
 5815SOL    HW129081   3.965   2.042   8.144  0.0153 -0.1206  1.4307
 5815SOL    HW229082   3.821   2.079   8.192  1.3461 -1.2245  1.3364
 5816SOL     OW29083   1.894   0.741   3.737  0.1328  0.0660 -0.2011
 5816SOL    HW129084   1.889   0.835   3.756  0.7014  0.4955 -2.1825
 5816SOL    HW229085   1.988   0.741   3.717 -0.5266 -0.6059 -3.3440
 5817SOL     OW29086   3.619   0.405   3.921 -0.4262 -0.1043 -0.0316
 5817SOL    HW129087   3.707   0.416   3.887 -0.2240  0.9139  0.8249
 5817SOL    HW229088   3.576   0.487   3.894  1.6414  0.3177 -2.0564
 5818SOL     OW29089   4.466   3.216   3.481  0.3950  0.0213 -0.0484
 5818SOL    HW129090   4.533   3.276   3.513  0.8297 -0.8775  0.7155
 5818SOL    HW229091   4.510   3.184   3.403 -1.1072 -0.0297 -0.8762
 5819SOL     OW29092   2.775   1.651  11.281  0.1047 -0.0639  0.5550
 5819SOL    HW129093   2.723   1.624  11.357  1.2359  1.3709  1.8311
 5819SOL    HW229094   2.819   1.567  11.263 -1.2158 -1.0805  2.0781
 5820SOL     OW29095   0.615   2.534   7.205  0.2340  0.5843 -0.6009
 5820SOL    HW129096   0.575   2.489   7.131 -0.1028 -0.3965  0.1782
 5820SOL    HW229097   0.582   2.485   7.280 -0.2446  1.1064 -0.4778
 5821SOL     OW29098   1.288   1.036   6.987 -0.2303  0.2823 -0.0519
 5821SOL    HW129099   1.224   0.981   6.942 -0.9929 -0.1247  1.5413
 5821SOL    HW229100   1.344   1.079   6.923 -0.1615 -0.7797 -0.7084
 5822SOL     OW29101   2.489   0.187  16.655 -0.2018  0.1763  0.0591
 5822SOL    HW129102   2.575   0.157  16.627  0.1928  0.6550  0.7613
 5822SOL    HW229103   2.497   0.173  16.750 -0.7416 -0.2595  0.0405
 5823SOL     OW29104   3.605   4.037  12.316  0.1300 -0.7926 -0.0012
 5823SOL    HW129105   3.624   4.130  12.305 -1.1189 -0.4653  0.6785
 5823SOL    HW229106   3.673   3.999  12.259 -0.0439  2.3241 -2.2706
 5824SOL     OW29107   0.505   0.643   7.152  0.2120 -0.1367 -0.1939
 5824SOL    HW129108   0.490   0.724   7.201  2.8135  0.4385 -0.3574
 5824SOL    HW229109   0.590   0.612   7.183 -1.3478 -2.2689  1.9116
 5825SOL     OW29110   0.891   1.637   3.981 -0.3706 -0.1912 -0.0473
 5825SOL    HW129111   0.896   1.730   3.958 -1.2825 -0.1589 -0.1310
 5825SOL    HW229112   0.899   1.640   4.077  1.1958 -0.5145 -0.1821
 5826SOL     OW29113   2.782   2.377   2.678  0.1292 -0.8842 -0.1416
 5826SOL    HW129114   2.738   2.423   2.607 -1.6180  0.8176  2.0498
 5826SOL    HW229115   2.706   2.373   2.737  0.6298  2.8049  0.7535
 5827SOL     OW29116   1.295   0.292   8.192 -0.6019 -0.3396  0.0042
 5827SOL    HW129117   1.341   0.241   8.126 -0.7556 -0.8522  0.2913
 5827SOL    HW229118   1.322   0.250   8.274 -3.6893 -0.6075  0.8911
 5828SOL     OW29119   3.794   2.253   1.193  0.2112 -0.0686  0.0413
 5828SOL    HW129120   3.755   2.246   1.280 -0.6828 -1.2817 -0.4583
 5828SOL    HW229121   3.771   2.344   1.172 -1.4021 -0.9266 -2.0100
 5829SOL     OW29122   2.508   4.450  12.075 -0.4948  0.2142 -0.5401
 5829SOL    HW129123   2.569   4.497  12.019 -2.3336  1.2004 -1.6852
 5829SOL    HW229124   2.558   4.464  12.156 -0.5356 -0.0849 -0.4625
 5830SOL     OW29125   4.086   4.331  16.633 -0.1723  0.2067  0.0916
 5830SOL    HW129126   4.102   4.415  16.676 -2.8146  1.4022 -1.1911
 5830SOL    HW229127   4.133   4.272  16.691 -2.1076 -1.7959 -0.3722
 5831SOL     OW29128   0.393   0.677  13.653 -0.5526 -0.9186  0.0877
 5831SOL    HW129129   0.356   0.676  13.742  0.1270  0.6946  0.3877
 5831SOL    HW229130   0.485   0.699  13.670 -0.7718 -2.5288  3.2828
 5832SOL     OW29131   1.422   4.256  11.965 -0.1564 -0.1277 -0.5702
 5832SOL    HW129132   1.498   4.273  11.909 -0.5395  0.9501 -0.7612
 5832SOL    HW229133   1.423   4.160  11.969 -0.4939 -0.0960  0.3989
 5833SOL     OW29134   1.692   1.786   8.131  0.4453  0.3158  0.1167
 5833SOL    HW129135   1.719   1.715   8.189  2.2795  0.5918 -0.4137
 5833SOL    HW229136   1.772   1.835   8.114  2.6781 -2.5511  2.4780
 5834SOL     OW29137   3.829   4.390  10.785  0.7767 -0.1203  0.1344
 5834SOL    HW129138   3.882   4.390  10.705 -0.5537 -0.7890 -0.7762
 5834SOL    HW229139   3.785   4.306  10.771 -0.1832  0.4402 -0.2551
 5835SOL     OW29140   0.262   4.456   9.488 -0.1168  0.3554 -0.5159
 5835SOL    HW129141   0.254   4.416   9.575 -1.5513  0.0758 -0.7847
 5835SOL    HW229142   0.172   4.479   9.465 -0.2040  0.2867 -0.2419
 5836SOL     OW29143   4.623   1.942   8.084  0.0247  0.2169  0.4109
 5836SOL    HW129144   4.531   1.938   8.108  0.1819 -2.3234  0.6053
 5836SOL    HW229145   4.650   2.005   8.150  1.6765  2.0468 -2.0235
 5837SOL     OW29146   0.526   2.753  17.546  0.3367  0.1090 -0.2421
 5837SOL    HW129147   0.541   2.710  17.462  1.5088  0.3478 -0.1619
 5837SOL    HW229148   0.496   2.839  17.517  0.5769  0.1624 -0.3374
 5838SOL     OW29149   1.203   1.106   7.232  0.5221 -0.0096 -0.1289
 5838SOL    HW129150   1.118   1.142   7.209  1.0418  1.6465  0.5383
 5838SOL    HW229151   1.241   1.081   7.148 -1.1987  0.0235 -0.9065
 5839SOL     OW29152   3.049   0.982  14.664  0.0669  0.0801  0.0082
 5839SOL    HW129153   3.129   0.955  14.709  0.6674  3.7301  1.1101
 5839SOL    HW229154   2.999   0.901  14.672 -1.0810  0.5257 -2.8274
 5840SOL     OW29155   0.392   1.593   3.086  0.9817 -0.4471 -0.3583
 5840SOL    HW129156   0.310   1.570   3.130 -0.3168  2.5134 -1.2923
 5840SOL    HW229157   0.451   1.535   3.135  0.7606 -2.1843 -2.1385
 5841SOL     OW29158   1.950   2.398   2.126  0.1233  0.2664 -0.1380
 5841SOL    HW129159   2.028   2.407   2.071 -0.0005  2.0917 -0.0031
 5841SOL    HW229160   1.955   2.305   2.152  1.4685  0.2592 -0.4287
 5842SOL     OW29161   2.688   1.296   0.130  0.4624 -0.5083  0.8715
 5842SOL    HW129162   2.750   1.303   0.203  2.3940 -0.8021 -0.7573
 5842SOL    HW229163   2.666   1.203   0.125 -1.7345 -0.0543  1.8453
 5843SOL     OW29164   3.871   1.897   9.798  0.2924 -0.0416 -0.1714
 5843SOL    HW129165   3.809   1.971   9.797  0.4002  0.0640  0.7408
 5843SOL    HW229166   3.899   1.892   9.706  0.6358  1.8235 -0.1757
 5844SOL     OW29167   1.111   4.024   7.212  0.5186  0.3203 -0.0306
 5844SOL    HW129168   1.040   3.966   7.187  1.0562 -0.4406  0.2139
 5844SOL    HW229169   1.159   4.016   7.130 -1.9789 -0.8413 -1.3733
 5845SOL     OW29170   0.996   1.592   4.577  0.1502 -0.0635 -0.0692
 5845SOL    HW129171   1.088   1.603   4.602 -0.4064  0.2030  1.9050
 5845SOL    HW229172   0.987   1.498   4.589  0.1667 -0.0647 -0.0671
 5846SOL     OW29173   0.986   0.806   2.912  0.1770 -0.6163  0.1995
 5846SOL    HW129174   0.915   0.867   2.897 -0.4356 -1.4165 -0.1261
 5846SOL    HW229175   1.039   0.828   2.836  0.5036 -1.5677  0.1439
 5847SOL     OW29176   0.533   4.156   8.332  0.1008  0.2383  0.2625
 5847SOL    HW129177   0.495   4.073   8.303  0.8416  1.0099 -2.9129
 5847SOL    HW229178   0.599   4.168   8.264 -2.5977  5.1577 -1.5251
 5848SOL     OW29179   1.983   4.450   8.267  0.6838  0.6040  0.0038
 5848SOL    HW129180   1.953   4.469   8.356  1.9492 -1.1958  0.8271
 5848SOL    HW229181   2.058   4.395   8.290 -0.3751 -0.8091  0.0555
 5849SOL     OW29182   2.234   3.521  14.399  0.5699 -0.2172 -0.5707
 5849SOL    HW129183   2.284   3.588  14.446 -0.1711  0.4112 -0.6792
 5849SOL    HW229184   2.300   3.460  14.367  0.6323 -1.0547  1.1118
 5850SOL     OW29185   2.917   3.899   6.119 -0.0123 -0.2208  0.3721
 5850SOL    HW129186   2.853   3.947   6.067 -0.2621 -0.6526  0.2830
 5850SOL    HW229187   2.885   3.810   6.105  0.4554 -0.0901 -1.5081
 5851SOL     OW29188   4.157   3.197   4.806  0.1237  0.1582 -0.9352
 5851SOL    HW129189   4.228   3.133   4.812  0.5019  0.5176 -1.5844
 5851SOL    HW229190   4.156   3.211   4.711 -0.7868  0.9899 -0.7997
 5852SOL     OW29191   2.247   4.040   5.686  0.3397  0.5264  0.5215
 5852SOL    HW129192   2.261   3.953   5.649  1.1477  1.9376 -2.4656
 5852SOL    HW229193   2.257   4.092   5.607 -1.2918  1.7396  1.1110
 5853SOL     OW29194   2.174   4.669   8.368 -0.4749 -0.3473  0.4006
 5853SOL    HW129195   2.132   0.015   8.398  1.2406  1.5824 -2.2961
 5853SOL    HW229196   2.092   4.635   8.331  0.2055 -1.3097 -0.2470
 5854SOL     OW29197   3.882   0.705   2.989 -0.1534  0.1014 -0.4063
 5854SOL    HW129198   3.886   0.634   2.925  3.4108  2.2432 -2.5719
 5854SOL    HW229199   3.964   0.751   2.971  0.6750 -0.7577  1.1248
 5855SOL     OW29200   3.861   2.316   8.025  0.0333  0.0884  0.0361
 5855SOL    HW129201   3.822   2.338   8.110  1.4571  2.6302  0.0489
 5855SOL    HW229202   3.823   2.387   7.974 -0.8738 -0.4737 -0.0622
 5856SOL     OW29203   2.465   0.228   1.948 -0.0490 -0.2033 -0.1623
 5856SOL    HW129204   2.494   0.202   2.036  0.4029 -1.8593 -0.8040
 5856SOL    HW229205   2.498   0.318   1.953  0.4546 -0.4350  0.6765
 5857SOL     OW29206   3.757   4.650   8.473 -0.3008 -0.1836 -0.4627
 5857SOL    HW129207   3.828   4.713   8.484 -0.8875  0.4710 -0.4177
 5857SOL    HW229208   3.682   4.708   8.486 -1.3046 -1.0061 -2.5948
 5858SOL     OW29209   0.619   4.676   6.421 -0.1134  0.4763 -0.3297
 5858SOL    HW129210   0.525   4.692   6.410  0.3406  2.2758 -1.5042
 5858SOL    HW229211   0.642   0.014   6.479 -2.0628 -1.9521  3.4668
 5859SOL     OW29212   1.012   3.768   0.896  0.1004 -0.1713 -0.4571
 5859SOL    HW129213   1.038   3.800   0.983  1.6460 -1.3485 -0.4968
 5859SOL    HW229214   0.957   3.840   0.866 -0.9118  0.5775  3.1350
 5860SOL     OW29215   1.533   3.995   4.486 -0.1367 -0.3904 -0.0391
 5860SOL    HW129216   1.519   4.086   4.511  0.8435  0.5591 -2.8964
 5860SOL    HW229217   1.612   3.996   4.432 -0.6275 -1.9863 -0.7644
 5861SOL     OW29218   4.565   1.694   4.377 -0.3449  0.3955  0.1160
 5861SOL    HW129219   4.620   1.739   4.441  0.5176 -1.7745  0.9001
 5861SOL    HW229220   4.480   1.739   4.374 -1.3203 -1.5132 -1.0220
 5862SOL     OW29221   2.759   2.941   0.931 -0.1289 -0.8250 -0.3384
 5862SOL    HW129222   2.816   2.984   0.867 -0.4111  0.9073  0.5735
 5862SOL    HW229223   2.675   2.988   0.930 -0.5631 -1.5430  1.2651
 5863SOL     OW29224   1.425   0.034   8.128  0.3104  0.3808  0.1485
 5863SOL    HW129225   1.361   4.730   8.068  0.5370 -1.3859  1.0082
 5863SOL    HW229226   1.392   4.715   8.202 -2.1797  1.2773 -0.3236
 5864SOL     OW29227   0.572   2.263   2.786 -0.1724  0.5168 -0.0912
 5864SOL    HW129228   0.523   2.320   2.846 -0.0906 -1.4615  1.8728
 5864SOL    HW229229   0.661   2.292   2.804 -0.3519  0.0071  1.6282
 5865SOL     OW29230   1.679   0.916   4.821 -0.2314  0.0048  0.1087
 5865SOL    HW129231   1.660   0.914   4.915 -4.4829 -0.7263 -0.8013
 5865SOL    HW229232   1.615   0.851   4.790 -3.0928  2.2481  1.3573
 5866SOL     OW29233   0.325   0.806   3.586 -0.3214  0.4604 -0.0033
 5866SOL    HW129234   0.293   0.856   3.511  1.9912  0.5154 -0.9525
 5866SOL    HW229235   0.402   0.757   3.558 -2.6521 -2.7968 -0.6655
 5867SOL     OW29236   2.477   2.853  16.957  0.3429 -0.0696 -0.2650
 5867SOL    HW129237   2.500   2.916  16.888 -0.8840  0.2147 -0.4200
 5867SOL    HW229238   2.385   2.829  16.943  0.6451 -0.3874 -1.7524
 5868SOL     OW29239   2.660   2.673   2.890 -0.0647 -0.5973 -0.2700
 5868SOL    HW129240   2.627   2.755   2.927  0.5888 -0.0279 -0.9499
 5868SOL    HW229241   2.588   2.641   2.837 -2.3791  1.2013  1.7790
 5869SOL     OW29242   0.304   4.153   3.251 -0.5131 -0.2818  0.4823
 5869SOL    HW129243   0.383   4.164   3.200 -1.5649 -0.2712 -1.1379
 5869SOL    HW229244   0.315   4.218   3.320 -1.7409  0.4437  0.0034
 5870SOL     OW29245   3.292   4.166   5.723  0.3183 -0.1723  0.7137
 5870SOL    HW129246   3.255   4.202   5.804  0.4670 -0.7980  1.0595
 5870SOL    HW229247   3.235   4.091   5.709 -0.7549  1.0237 -1.3437
 5871SOL     OW29248   3.085   1.765   8.171  0.4541 -0.5448 -0.4460
 5871SOL    HW129249   3.142   1.717   8.110  0.8091  1.2159 -1.4742
 5871SOL    HW229250   3.149   1.781   8.241  1.4163  0.0701 -1.4552
 5872SOL     OW29251   1.298   1.272   3.341  0.1958  0.4396  0.6714
 5872SOL    HW129252   1.217   1.308   3.305  0.4257  1.6941  1.4184
 5872SOL    HW229253   1.271   1.225   3.419 -0.8252 -0.8719 -0.4548
 5873SOL     OW29254   2.438   0.121   4.002  0.4511  0.2862 -0.0198
 5873SOL    HW129255   2.382   0.107   4.078 -0.3664  0.2969 -0.6173
 5873SOL    HW229256   2.374   0.153   3.938 -1.3402 -1.7927  0.7208
 5874SOL     OW29257   0.634   1.002   8.003  0.0352  0.0476  0.9553
 5874SOL    HW129258   0.699   1.061   7.964  1.2636 -1.9783 -0.0791
 5874SOL    HW229259   0.552   1.051   7.999  0.8502  1.2723 -0.8089
 5875SOL     OW29260   4.404   1.219   3.574  0.1769 -0.3044  0.0906
 5875SOL    HW129261   4.397   1.169   3.492  1.2038  0.9640 -0.7744
 5875SOL    HW229262   4.497   1.241   3.568  0.5301 -1.5962  0.8621
 5876SOL     OW29263   1.556   0.670   5.779 -0.0959 -0.2629  0.1137
 5876SOL    HW129264   1.478   0.624   5.811  0.3530 -0.6647  0.6358
 5876SOL    HW229265   1.631   0.635   5.826 -0.6100 -1.0904  0.3171
 5877SOL     OW29266   2.002   4.085   7.012  0.3390 -0.0717 -0.0917
 5877SOL    HW129267   1.917   4.071   6.970  0.3520 -0.2058 -0.0725
 5877SOL    HW229268   1.971   4.109   7.099  2.2442 -1.7600  1.0455
 5878SOL     OW29269   0.205   4.266  13.148 -0.2166 -0.1833  0.0577
 5878SOL    HW129270   0.284   4.244  13.100 -0.7356  2.3521 -1.9593
 5878SOL    HW229271   0.188   4.352  13.110 -0.1376 -0.7308 -1.2294
 5879SOL     OW29272   3.021   0.480   8.544  0.9050 -0.0423  0.7327
 5879SOL    HW129273   2.989   0.409   8.600 -1.5485  0.3377 -0.1764
 5879SOL    HW229274   3.010   0.436   8.460  2.4684  0.9187  0.0379
 5880SOL     OW29275   2.971   3.215  13.247 -0.0641 -0.1533 -0.0941
 5880SOL    HW129276   3.022   3.296  13.239  0.9801 -1.0214 -2.0759
 5880SOL    HW229277   3.045   3.155  13.249  0.0325 -0.1286 -3.2003
 5881SOL     OW29278   1.188   1.751   1.186 -0.6319 -0.5121 -0.1339
 5881SOL    HW129279   1.136   1.671   1.191 -1.3857 -0.0535 -0.4968
 5881SOL    HW229280   1.166   1.770   1.094 -0.1235 -1.2258 -0.3984
 5882SOL     OW29281   1.677   4.454   2.753  0.1934 -0.2016  0.1438
 5882SOL    HW129282   1.640   4.523   2.809  1.2139 -0.8731  1.6366
 5882SOL    HW229283   1.718   4.400   2.821  0.5389  0.7757  0.7115
 5883SOL     OW29284   0.247   1.670  11.432 -0.6258  0.4251  0.2533
 5883SOL    HW129285   0.163   1.712  11.412  0.5526  0.8209 -3.7163
 5883SOL    HW229286   0.274   1.717  11.511 -0.7075 -0.6104  0.9107
 5884SOL     OW29287   0.969   0.564   7.585 -0.0284 -0.5784 -0.1355
 5884SOL    HW129288   0.903   0.513   7.538  0.2599 -2.0985  1.0917
 5884SOL    HW229289   0.978   0.513   7.666 -0.6374 -0.3787  0.0547
 5885SOL     OW29290   4.344   3.014   6.361  0.5133  0.1348 -1.4653
 5885SOL    HW129291   4.428   2.985   6.398  0.2320 -0.7069 -1.4901
 5885SOL    HW229292   4.283   2.964   6.414  0.6404 -1.0256 -2.4224
 5886SOL     OW29293   2.213   4.272  12.414 -0.7329 -0.0929 -0.6950
 5886SOL    HW129294   2.265   4.201  12.451 -1.3209 -0.5170 -0.6871
 5886SOL    HW229295   2.228   4.260  12.320 -0.1801  1.8552 -0.8651
 5887SOL     OW29296   4.388   3.097  15.324  0.7806  0.9524  0.2086
 5887SOL    HW129297   4.417   3.017  15.369 -0.7362  0.5229  0.4398
 5887SOL    HW229298   4.309   3.065  15.279  0.4293 -2.1998  3.0177
 5888SOL     OW29299   2.301   3.014   8.243 -0.3743  0.5554 -0.3118
 5888SOL    HW129300   2.250   2.935   8.258  1.2492 -0.5382 -0.6122
 5888SOL    HW229301   2.257   3.049   8.166 -0.9355  4.4568  1.7376
 5889SOL     OW29302   1.511   2.081   2.200 -0.8256  0.2950  0.2038
 5889SOL    HW129303   1.550   2.142   2.138  1.9688 -2.3556 -0.6708
 5889SOL    HW229304   1.463   2.132   2.266 -3.1126  0.8782 -1.9307
 5890SOL     OW29305   2.274   4.603   7.464 -0.4962 -0.0533 -0.5885
 5890SOL    HW129306   2.185   4.594   7.428 -0.9652  1.5924  0.1464
 5890SOL    HW229307   2.277   4.698   7.469 -2.9910 -0.0142  0.3405
 5891SOL     OW29308   3.781   3.105   3.118 -0.1781 -0.1717 -0.2149
 5891SOL    HW129309   3.785   3.032   3.057  4.3598  0.8896 -1.1431
 5891SOL    HW229310   3.686   3.120   3.126 -0.3375 -0.8830 -0.7632
 5892SOL     OW29311   4.194   3.239   3.479 -0.0789 -0.0841  0.0617
 5892SOL    HW129312   4.156   3.261   3.393 -0.1908 -0.1378  0.0986
 5892SOL    HW229313   4.289   3.244   3.475 -0.0862  1.7024  2.4319
 5893SOL     OW29314   2.800   0.222   6.503 -0.3524  0.2452  0.0801
 5893SOL    HW129315   2.821   0.297   6.448  1.1514  0.2912  0.7185
 5893SOL    HW229316   2.709   0.198   6.490 -0.9067  2.2891  0.1936
 5894SOL     OW29317   2.684   0.696   5.455  0.8342 -0.6134  0.0712
 5894SOL    HW129318   2.676   0.667   5.365  0.2926 -0.5288  0.0956
 5894SOL    HW229319   2.733   0.778   5.444  1.1398 -0.8672 -0.4178
 5895SOL     OW29320   0.847   4.529   5.736 -0.4141 -0.0055 -0.2497
 5895SOL    HW129321   0.847   4.487   5.822  0.9226 -0.9648 -0.7252
 5895SOL    HW229322   0.828   4.450   5.687 -1.1622 -0.6151  1.0193
 5896SOL     OW29323   0.879   1.117   2.307 -0.8415  0.2866 -0.0097
 5896SOL    HW129324   0.848   1.147   2.222 -1.4641 -0.2728  0.0223
 5896SOL    HW229325   0.974   1.112   2.294 -1.0702 -1.8287 -0.8116
 5897SOL     OW29326   3.134   0.504  14.842 -0.2753  0.2355  0.0090
 5897SOL    HW129327   3.064   0.526  14.780 -2.1342  1.0458  2.4286
 5897SOL    HW229328   3.144   0.596  14.866 -1.6409  0.1294  0.9291
 5898SOL     OW29329   3.664   0.886  14.112  0.2670 -0.3664 -0.4186
 5898SOL    HW129330   3.625   0.967  14.144  0.9867 -0.9006  1.8465
 5898SOL    HW229331   3.737   0.920  14.060  0.7831 -0.1041  0.4723
 5899SOL     OW29332   3.490   4.340  11.792 -0.3477  0.1210  0.1154
 5899SOL    HW129333   3.573   4.386  11.785  0.3071 -1.0372  0.2383
 5899SOL    HW229334   3.487   4.321  11.886 -0.8188 -5.5193 -1.0542
 5900SOL     OW29335   1.042   3.415  13.750  0.5208  0.1402 -0.0352
 5900SOL    HW129336   1.065   3.414  13.657 -2.3004 -0.9925 -0.7477
 5900SOL    HW229337   0.959   3.463  13.754  0.1995 -0.6715  2.7136
 5901SOL     OW29338   2.638   1.230   0.564  0.6152 -0.2456 -0.4235
 5901SOL    HW129339   2.549   1.208   0.592 -0.3170  1.5757 -1.9680
 5901SOL    HW229340   2.691   1.176   0.622  0.3338  1.1021  1.0819
 5902SOL     OW29341   2.579   1.602  14.787 -0.2356 -0.0132 -0.3315
 5902SOL    HW129342   2.546   1.528  14.737  1.2333 -1.8717  1.4350
 5902SOL    HW229343   2.506   1.664  14.786  0.6059  1.0111  1.1975
 5903SOL     OW29344   2.306   0.723  13.362  0.0840  0.2613 -0.5598
 5903SOL    HW129345   2.238   0.782  13.329 -1.1361 -1.1502 -0.5479
 5903SOL    HW229346   2.299   0.743  13.455  0.7691 -0.1152 -0.4283
 5904SOL     OW29347   2.324   1.807  17.269  0.2773  0.5176 -0.0332
 5904SOL    HW129348   2.388   1.787  17.200 -0.6379 -1.2390 -0.3828
 5904SOL    HW229349   2.315   1.726  17.319 -0.9628  0.4825 -0.3097
 5905SOL     OW29350   3.714   0.831   7.567  0.3484  0.1650 -0.0997
 5905SOL    HW129351   3.639   0.772   7.563  0.1438  0.4953 -1.0663
 5905SOL    HW229352   3.762   0.788   7.497 -0.6653 -1.5160  0.2452
 5906SOL     OW29353   3.998   2.593   5.885  0.7041 -0.2650 -0.1023
 5906SOL    HW129354   3.903   2.590   5.873  0.3683  2.0780  2.0117
 5906SOL    HW229355   4.006   2.674   5.834 -0.4809  0.7596  1.3282
 5907SOL     OW29356   1.460   1.603   2.666 -0.3470 -0.2617 -0.5167
 5907SOL    HW129357   1.554   1.607   2.685 -0.9224  0.3858  2.1146
 5907SOL    HW229358   1.453   1.664   2.592 -0.6322 -0.2753 -0.5016
 5908SOL     OW29359   0.635   3.352  11.215 -0.3428 -0.0252  0.3985
 5908SOL    HW129360   0.585   3.425  11.178 -2.1562 -1.3084  0.2873
 5908SOL    HW229361   0.697   3.395  11.274  0.5935  0.0609 -0.6339
 5909SOL     OW29362   0.535   4.120  11.616  0.1301 -0.1815  0.2098
 5909SOL    HW129363   0.498   4.202  11.649  0.0089  0.6697 -2.0521
 5909SOL    HW229364   0.506   4.053  11.677  1.2289 -0.4107  0.4733
 5910SOL     OW29365   1.785   0.600   1.613  1.2260  0.3919 -0.0580
 5910SOL    HW129366   1.765   0.506   1.609  1.1724  0.5102 -2.5766
 5910SOL    HW229367   1.716   0.639   1.559  0.5181  3.8485  3.3653
 5911SOL     OW29368   2.548   4.386  11.485  0.0482  0.5075 -0.0460
 5911SOL    HW129369   2.620   4.367  11.425  0.1499  0.5289  0.0686
 5911SOL    HW229370   2.595   4.365  11.566  1.4609 -4.3021 -2.1015
 5912SOL     OW29371   2.097   3.403   0.523 -0.1216  0.6094 -0.0105
 5912SOL    HW129372   2.091   3.315   0.560 -0.9016  1.0227  0.8690
 5912SOL    HW229373   2.189   3.407   0.497 -0.6904  0.7263 -1.9966
 5913SOL     OW29374   4.336   2.518  12.913  0.2466  0.4166 -0.2849
 5913SOL    HW129375   4.368   2.605  12.937 -1.3606  0.8686  0.2446
 5913SOL    HW229376   4.271   2.505  12.982 -0.6240 -2.3678 -1.6037
 5914SOL     OW29377   1.301   4.731  12.164 -0.0897  0.3964  0.2093
 5914SOL    HW129378   1.337   0.033  12.246  0.1364 -1.6108  0.9806
 5914SOL    HW229379   1.331   4.641  12.167 -0.4216  0.2867  0.2873
 5915SOL     OW29380   3.107   3.862   9.454 -0.3160 -0.3322  0.4183
 5915SOL    HW129381   3.056   3.786   9.427 -0.8431 -0.6322  2.2883
 5915SOL    HW229382   3.137   3.835   9.541 -0.0441  1.0287  0.7352
 5916SOL     OW29383   3.195   2.835   8.753 -0.1424  0.3519  0.4973
 5916SOL    HW129384   3.171   2.743   8.744 -0.2449  0.0867  3.7060
 5916SOL    HW229385   3.123   2.877   8.704 -1.2819 -1.1721  0.8845
 5917SOL     OW29386   4.144   2.636   7.323  0.4994 -0.0922 -0.0330
 5917SOL    HW129387   4.111   2.549   7.301  0.0223  0.4427 -1.3958
 5917SOL    HW229388   4.101   2.661   7.405  0.6026  3.2507 -0.9787
 5918SOL     OW29389   4.162   4.058   8.396  0.1792  0.1200 -0.0701
 5918SOL    HW129390   4.095   4.026   8.455 -0.3359  0.0084 -0.7178
 5918SOL    HW229391   4.120   4.088   8.315 -0.6777  2.1160  1.1310
 5919SOL     OW29392   2.222   0.506   8.558  0.6475  0.0301  0.1405
 5919SOL    HW129393   2.232   0.601   8.559 -2.8362  0.4313 -2.6149
 5919SOL    HW229394   2.282   0.477   8.489  0.2521 -1.6420  0.5034
 5920SOL     OW29395   0.246   1.071   8.900  0.4350 -0.1564  0.4980
 5920SOL    HW129396   0.172   1.014   8.879  0.5040  0.3592 -1.1327
 5920SOL    HW229397   0.304   1.004   8.937 -0.4992 -1.1795  0.1115
 5921SOL     OW29398   0.835   3.411   4.549 -0.5925 -0.0074  0.7308
 5921SOL    HW129399   0.784   3.388   4.471 -3.2003  2.2746  1.7461
 5921SOL    HW229400   0.768   3.443   4.610  0.5968  2.6258  0.6377
 5922SOL     OW29401   3.884   2.585   8.323 -0.3037  0.5226 -0.3361
 5922SOL    HW129402   3.854   2.669   8.357 -0.9134  0.1718 -0.0050
 5922SOL    HW229403   3.818   2.570   8.255  0.6027 -2.7336 -0.4939
 5923SOL     OW29404   0.656   0.440  14.988  0.1060  0.5317  0.4434
 5923SOL    HW129405   0.616   0.517  15.029 -1.7282  1.4682 -3.0466
 5923SOL    HW229406   0.750   0.455  14.995  0.3390 -1.0663  0.6670
 5924SOL     OW29407   3.768   2.200   1.689  0.1226  0.0821 -0.2369
 5924SOL    HW129408   3.744   2.180   1.598 -0.1251  1.9893 -0.5884
 5924SOL    HW229409   3.715   2.277   1.708  1.1882  0.7979 -0.1352
 5925SOL     OW29410   2.926   0.018   9.676  0.4785  0.2719  0.0674
 5925SOL    HW129411   2.959   0.096   9.630  0.2487  1.0964  1.3161
 5925SOL    HW229412   2.963   0.040   9.761 -1.2539  2.4245  0.2736
 5926SOL     OW29413   3.018   4.203   8.243 -0.3533  0.1879  0.4685
 5926SOL    HW129414   3.033   4.180   8.334 -1.9814 -1.6797  0.2534
 5926SOL    HW229415   2.944   4.149   8.216 -0.2386  0.0075  0.5197
 5927SOL     OW29416   3.255   3.504   3.481  0.0349  0.4458  0.0779
 5927SOL    HW129417   3.337   3.541   3.449 -0.9591  1.8902 -0.8226
 5927SOL    HW229418   3.279   3.424   3.527  1.1500  1.4173  1.1639
 5928SOL     OW29419   4.088   1.121   3.124 -0.6919 -0.2303 -0.2693
 5928SOL    HW129420   4.091   1.164   3.209  0.8146  0.2944 -0.5755
 5928SOL    HW229421   3.993   1.111   3.121 -0.1919 -5.1172  0.8486
 5929SOL     OW29422   3.609   2.777   8.295 -0.2306  0.1766  0.4516
 5929SOL    HW129423   3.549   2.775   8.369 -1.5910  0.3343 -0.6313
 5929SOL    HW229424   3.657   2.856   8.320 -0.5781  1.0841 -1.6628
 5930SOL     OW29425   0.514   1.793   1.099 -0.8501 -0.1052 -0.2793
 5930SOL    HW129426   0.463   1.874   1.098  0.1077  0.5478  1.6416
 5930SOL    HW229427   0.594   1.818   1.146 -0.0364 -0.3875 -1.5192
 5931SOL     OW29428   1.661   0.102  15.188  0.1223  0.2532  0.0008
 5931SOL    HW129429   1.699   0.182  15.224 -1.1168  1.8127 -2.1440
 5931SOL    HW229430   1.579   0.134  15.151 -1.2528 -3.9503 -0.5304
 5932SOL     OW29431   1.902   3.378   5.257  0.7419 -0.2918  0.5259
 5932SOL    HW129432   1.901   3.309   5.191 -0.4098 -0.2466  0.5084
 5932SOL    HW229433   1.964   3.435   5.211 -1.4387  0.4003 -1.5302
 5933SOL     OW29434   4.134   3.054  12.023  0.5839  0.0607 -0.3471
 5933SOL    HW129435   4.188   3.023  12.095 -2.3203 -1.5570  1.1488
 5933SOL    HW229436   4.077   2.977  12.012 -2.1112  1.7841  1.5883
 5934SOL     OW29437   4.695   2.991   9.161 -0.0491  0.3950 -0.3826
 5934SOL    HW129438   4.674   3.070   9.112  2.6230  1.1189 -0.3512
 5934SOL    HW229439   4.637   3.016   9.234 -0.0824 -1.1927  0.1333
 5935SOL     OW29440   3.614   4.639   6.978  0.6012  0.0176 -0.0286
 5935SOL    HW129441   3.547   4.697   7.014  0.7290  1.2475 -1.7795
 5935SOL    HW229442   3.690   4.688   7.009  0.5616 -0.5345  0.9455
 5936SOL     OW29443   2.880   1.296  11.879  0.0502 -0.3618 -0.7658
 5936SOL    HW129444   2.871   1.391  11.866 -2.5223 -0.4588  0.3451
 5936SOL    HW229445   2.790   1.285  11.911  0.5731 -0.8529  0.5392
 5937SOL     OW29446   0.086   1.332   6.961  0.0741 -0.0515  0.2741
 5937SOL    HW129447   0.109   1.271   6.891 -1.6245  0.6115 -0.8880
 5937SOL    HW229448   0.004   1.365   6.923  0.5160 -0.2545 -0.8540
 5938SOL     OW29449   1.203   0.219   3.320 -0.3412  0.2077  0.1306
 5938SOL    HW129450   1.136   0.287   3.322 -0.0111  0.5639 -0.9016
 5938SOL    HW229451   1.149   0.141   3.309  2.5506 -2.0214  1.8852
 5939SOL     OW29452   4.110   1.160   9.385 -0.4150 -0.5587  0.3502
 5939SOL    HW129453   4.182   1.100   9.404 -0.3401 -0.1739  1.3185
 5939SOL    HW229454   4.055   1.118   9.319 -0.4207  1.4839 -0.9376
 5940SOL     OW29455   3.648   1.767   7.188  0.2284 -0.0638  0.2274
 5940SOL    HW129456   3.733   1.743   7.225 -0.8538 -2.5208  1.1399
 5940SOL    HW229457   3.662   1.862   7.183 -0.5867  0.0948  0.9564
 5941SOL     OW29458   4.557   1.002   0.433 -0.4042 -0.1226  0.2407
 5941SOL    HW129459   4.461   0.999   0.428 -0.5110  0.3137  2.0812
 5941SOL    HW229460   4.572   1.093   0.458 -1.4794  0.2721 -0.5189
 5942SOL     OW29461   3.261   3.879  12.996  0.4287  0.5458  0.2233
 5942SOL    HW129462   3.227   3.963  12.966  0.0798  0.0695 -0.7244
 5942SOL    HW229463   3.344   3.912  13.031 -0.2081  2.5020 -0.1235
 5943SOL     OW29464   0.529   0.685   5.683  0.2260  0.2546 -0.0667
 5943SOL    HW129465   0.462   0.678   5.751 -0.2869  0.8040 -0.5094
 5943SOL    HW229466   0.506   0.770   5.645  0.1685  1.1665  2.0078
 5944SOL     OW29467   3.055   2.101  12.839 -0.1972  0.2221  0.5299
 5944SOL    HW129468   2.960   2.098  12.823 -0.1763  1.0362  0.2664
 5944SOL    HW229469   3.063   2.075  12.931 -0.3917  0.1225  0.5196
 5945SOL     OW29470   1.642   1.818   5.187  0.4292  0.3820 -0.4347
 5945SOL    HW129471   1.591   1.880   5.239  0.0460 -0.1743 -0.1609
 5945SOL    HW229472   1.623   1.736   5.231  0.5684 -0.0026 -1.0839
 5946SOL     OW29473   0.923   2.340   6.628  0.2537 -0.5735  0.3362
 5946SOL    HW129474   0.966   2.297   6.555  0.9164  0.2749  0.2253
 5946SOL    HW229475   0.864   2.404   6.589  0.3813  1.1247  2.9092
 5947SOL     OW29476   0.823   0.645   5.726 -0.5185  0.9929 -0.5239
 5947SOL    HW129477   0.731   0.647   5.750 -0.3035 -0.8893  0.4616
 5947SOL    HW229478   0.832   0.583   5.654  1.0100 -0.0529  0.5638
 5948SOL     OW29479   0.108   4.335  14.386  0.0659 -0.0810 -0.0974
 5948SOL    HW129480   0.141   4.314  14.298 -2.1461  1.8110 -1.3733
 5948SOL    HW229481   0.049   4.403  14.354 -0.1271 -0.0668  0.2955
 5949SOL     OW29482   1.281   4.640  10.022  0.3269 -0.2048  0.2183
 5949SOL    HW129483   1.337   4.571   9.987  0.2446  1.2763 -2.8540
 5949SOL    HW229484   1.339   4.681  10.085  0.5256  0.0864 -0.1585
 5950SOL     OW29485   2.463   1.624   4.759 -0.5015 -0.6051 -0.1926
 5950SOL    HW129486   2.453   1.689   4.829  1.3755  1.4117 -1.8052
 5950SOL    HW229487   2.556   1.605   4.772 -0.9440 -2.1470  0.6425
 5951SOL     OW29488   1.040   2.187   1.422 -0.4015 -0.2955  0.7000
 5951SOL    HW129489   1.042   2.098   1.387  0.3003 -0.3335  0.8409
 5951SOL    HW229490   0.988   2.241   1.362  1.9370 -0.2073 -1.2396
 5952SOL     OW29491   4.052   1.974   7.161  0.2340  0.1267 -0.3540
 5952SOL    HW129492   4.113   1.904   7.136 -0.8925 -0.5616 -1.1466
 5952SOL    HW229493   4.049   1.977   7.257 -0.4442  0.4711 -0.3857
 5953SOL     OW29494   2.224   1.172   5.015  0.1264 -0.2258  0.1347
 5953SOL    HW129495   2.196   1.118   5.088 -0.6649 -0.9966 -0.7359
 5953SOL    HW229496   2.133   1.191   4.991 -0.2511 -3.2531 -0.7849
 5954SOL     OW29497   3.090   3.804  13.305 -0.4437  0.1250  0.0182
 5954SOL    HW129498   3.041   3.732  13.345 -0.0341 -0.1998 -0.0572
 5954SOL    HW229499   3.140   3.750  13.243  1.1575  0.8853  0.6368
 5955SOL     OW29500   4.050   0.423   3.363 -0.0716  0.2992 -0.3449
 5955SOL    HW129501   4.115   0.471   3.311  0.3417  0.3185  0.1873
 5955SOL    HW229502   4.019   0.365   3.294 -0.6762  0.2820 -0.0531
 5956SOL     OW29503   1.901   3.599   6.493 -0.2281 -0.6565  0.2485
 5956SOL    HW129504   1.839   3.671   6.505 -2.7263 -2.6938 -0.4883
 5956SOL    HW229505   1.935   3.589   6.581 -0.4107  2.8003  0.7250
 5957SOL     OW29506   4.053   2.799   7.959  0.1691 -0.7975  0.2656
 5957SOL    HW129507   4.033   2.836   7.873  0.1189  1.5277  1.2696
 5957SOL    HW229508   3.973   2.750   7.975 -1.8756  1.8492 -1.8081
 5958SOL     OW29509   1.768   1.449   2.811 -0.6588  0.6825  0.3453
 5958SOL    HW129510   1.828   1.506   2.859  0.3175  0.2228 -0.3072
 5958SOL    HW229511   1.706   1.428   2.881 -0.5993 -0.4987  0.0428
 5959SOL     OW29512   1.069   4.414   9.920 -0.2155 -0.0149 -0.8074
 5959SOL    HW129513   1.053   4.337   9.974  0.3120 -0.2244 -0.9539
 5959SOL    HW229514   1.161   4.437   9.934 -0.4137  0.7442 -0.7617
 5960SOL     OW29515   2.309   3.372   6.549  0.1003 -0.5325  0.4793
 5960SOL    HW129516   2.298   3.340   6.460 -1.4566 -0.7105  0.7243
 5960SOL    HW229517   2.349   3.457   6.532 -2.3887  0.6399  0.3840
 5961SOL     OW29518   4.368   4.478   2.437  0.0948  0.0867  0.8249
 5961SOL    HW129519   4.325   4.483   2.352  4.1611  0.0966 -1.2495
 5961SOL    HW229520   4.404   4.390   2.422  2.6136  1.4156 -0.9650
 5962SOL     OW29521   4.459   1.433   8.032 -0.2613  0.0384  0.4122
 5962SOL    HW129522   4.477   1.387   8.114 -1.1140 -1.1565 -0.0807
 5962SOL    HW229523   4.395   1.371   7.998  1.4285  0.2749 -3.2388
 5963SOL     OW29524   2.831   1.306   7.095 -0.2940 -0.0099 -0.2032
 5963SOL    HW129525   2.743   1.288   7.127 -0.1296  1.2548  0.9434
 5963SOL    HW229526   2.884   1.296   7.174  0.5955  0.1498 -0.7764
 5964SOL     OW29527   3.622   2.213   2.193 -0.2001 -0.0431  0.4117
 5964SOL    HW129528   3.551   2.192   2.133  2.3345 -1.3950 -2.1021
 5964SOL    HW229529   3.588   2.187   2.279  0.3324 -3.9271 -0.5747
 5965SOL     OW29530   3.248   4.232  17.693 -0.2567 -0.9693  0.0817
 5965SOL    HW129531   3.245   4.187   0.042 -0.2788  0.0256  0.6137
 5965SOL    HW229532   3.294   4.314  17.711 -2.2381  0.2039 -0.1809
 5966SOL     OW29533   1.757   4.615  13.827  0.4835  0.3319  0.3962
 5966SOL    HW129534   1.678   4.623  13.773 -1.7331 -2.0875  3.2641
 5966SOL    HW229535   1.767   4.709  13.839 -1.7871  0.4739  1.2234
 5967SOL     OW29536   3.829   2.106  15.139 -0.3473 -0.3443 -0.1028
 5967SOL    HW129537   3.867   2.092  15.225 -0.8135 -1.4067 -0.0673
 5967SOL    HW229538   3.766   2.175  15.158 -0.7115 -0.4001 -1.0885
 5968SOL     OW29539   3.333   1.666  13.824 -0.6678  0.7928  0.1094
 5968SOL    HW129540   3.302   1.733  13.763 -2.0425 -1.0451 -1.2225
 5968SOL    HW229541   3.258   1.608  13.833 -0.4424  0.8282  2.1995
 5969SOL     OW29542   0.533   1.259  10.472  0.3188  0.4291 -0.5360
 5969SOL    HW129543   0.490   1.183  10.433  2.5715 -0.7177 -0.7667
 5969SOL    HW229544   0.455   1.310  10.495 -0.5002 -0.4310 -1.4273
 5970SOL     OW29545   1.638   3.256  14.888 -0.5580  0.1520 -0.3508
 5970SOL    HW129546   1.731   3.237  14.897 -0.1283  1.6027 -1.8646
 5970SOL    HW229547   1.645   3.348  14.865 -1.9141  0.8012  1.8660
 5971SOL     OW29548   2.861   0.906   0.837  0.2276  0.5121  0.0337
 5971SOL    HW129549   2.870   0.850   0.760  1.5953  0.1457  0.4657
 5971SOL    HW229550   2.899   0.857   0.909 -1.1341 -0.9861 -0.2623
 5972SOL     OW29551   0.010   1.301   3.190 -0.8103 -0.0463  0.4745
 5972SOL    HW129552   4.670   1.240   3.182  1.2628 -2.4887 -0.0439
 5972SOL    HW229553   0.076   1.263   3.133 -1.6622 -0.6637 -0.1044
 5973SOL     OW29554   4.158   1.132   5.422 -0.7120  0.1529  0.8040
 5973SOL    HW129555   4.174   1.213   5.470  0.4701  0.1050  0.5023
 5973SOL    HW229556   4.173   1.069   5.492  2.0303 -0.3548 -0.2337
 5974SOL     OW29557   0.382   4.520   8.994 -0.3527  1.0021 -0.1480
 5974SOL    HW129558   0.333   4.475   9.062  0.7152  0.6862  0.4177
 5974SOL    HW229559   0.445   4.575   9.041  1.8008  0.2389 -2.0914
 5975SOL     OW29560   0.373   4.152  12.625 -0.2809  0.1122 -0.1996
 5975SOL    HW129561   0.296   4.115  12.668 -0.7232 -2.0821 -2.8859
 5975SOL    HW229562   0.373   4.238  12.668  1.0298  0.3635 -0.7122
 5976SOL     OW29563   1.314   4.308   6.254  0.2272  0.2631 -0.3462
 5976SOL    HW129564   1.382   4.298   6.187  0.7815  2.2063 -0.0832
 5976SOL    HW229565   1.355   4.346   6.331  0.3755 -0.3314 -0.1321
 5977SOL     OW29566   1.316   1.585   4.264  0.0583 -0.4103 -0.3554
 5977SOL    HW129567   1.408   1.561   4.254  0.2332  0.1461 -0.0509
 5977SOL    HW229568   1.300   1.611   4.173  0.5507 -2.1030 -0.9213
 5978SOL     OW29569   0.656   2.115   4.787  0.7334 -0.2793 -0.2586
 5978SOL    HW129570   0.643   2.048   4.854  1.8902  0.1580  0.3964
 5978SOL    HW229571   0.704   2.060   4.725  0.6344  2.0988 -2.4174
 5979SOL     OW29572   2.392   1.654   7.120 -0.1221  0.4967  0.2143
 5979SOL    HW129573   2.347   1.737   7.135  2.9489  1.9870  1.2149
 5979SOL    HW229574   2.457   1.653   7.191  0.4467 -0.5271 -0.3270
 5980SOL     OW29575   3.614   4.585  13.899  0.3085 -0.1867 -0.1037
 5980SOL    HW129576   3.638   4.571  13.991 -0.5579  0.7184  0.2569
 5980SOL    HW229577   3.533   4.636  13.904 -0.1371 -0.8941 -0.1014
 5981SOL     OW29578   0.241   2.732   5.065  0.0950  0.3743 -0.2081
 5981SOL    HW129579   0.258   2.756   5.156  1.4906 -2.0617  0.1699
 5981SOL    HW229580   0.150   2.759   5.053 -0.1141 -0.1351  0.2551
 5982SOL     OW29581   0.950   3.898   3.756 -0.1148 -1.0363 -0.5598
 5982SOL    HW129582   0.951   3.834   3.685 -0.8483 -1.9522  0.2474
 5982SOL    HW229583   0.960   3.841   3.832  1.4043 -0.7361 -0.5425
 5983SOL     OW29584   2.723   0.373   0.944 -0.0757  0.9897  0.1641
 5983SOL    HW129585   2.628   0.385   0.947 -0.2692 -0.3417 -1.3224
 5983SOL    HW229586   2.749   0.426   1.020 -0.8281  1.4679  0.0854
 5984SOL     OW29587   4.702   2.290   0.689 -0.1402  0.0705 -0.1419
 5984SOL    HW129588   0.008   2.235   0.756  1.4900  0.4290 -0.8345
 5984SOL    HW229589   4.660   2.215   0.645 -1.3175  1.3719 -1.2197
 5985SOL     OW29590   1.771   4.613  10.429 -0.4013 -0.1337 -0.2826
 5985SOL    HW129591   1.756   4.530  10.383 -2.8414  0.7878 -1.1438
 5985SOL    HW229592   1.684   4.623  10.468 -0.6343 -1.7188 -0.3917
 5986SOL     OW29593   3.094   3.345   3.296  0.4009 -0.2178  0.0838
 5986SOL    HW129594   3.005   3.323   3.271  0.1302  0.9420  0.0065
 5986SOL    HW229595   3.071   3.422   3.347 -1.0057 -1.4386  1.2785
 5987SOL     OW29596   1.728   1.919   9.873 -0.3498  0.0678 -0.3612
 5987SOL    HW129597   1.692   1.997   9.829  0.2972  1.2409  1.1781
 5987SOL    HW229598   1.779   1.970   9.936 -3.5229  2.4518  0.3178
 5988SOL     OW29599   2.815   0.227   7.442  0.0920 -0.1442 -0.0982
 5988SOL    HW129600   2.783   0.292   7.380 -2.4456  0.3885  1.7788
 5988SOL    HW229601   2.732   0.197   7.481 -0.5260  0.8415 -0.6725
 5989SOL     OW29602   4.245   4.328  13.477  0.2490 -0.4788  0.1609
 5989SOL    HW129603   4.302   4.362  13.546 -1.8276  0.9488  1.1816
 5989SOL    HW229604   4.208   4.253  13.523  0.6970 -1.6745 -1.4340
 5990SOL     OW29605   1.354   0.824  12.644  0.7642  0.2692  0.6995
 5990SOL    HW129606   1.447   0.806  12.633  0.7155 -0.4630  1.4868
 5990SOL    HW229607   1.351   0.817  12.740  0.1779 -1.8631  0.5267
 5991SOL     OW29608   3.165   4.558  11.564 -0.3199  0.2080  0.3056
 5991SOL    HW129609   3.176   4.538  11.657  0.0944  1.4311  0.5262
 5991SOL    HW229610   3.252   4.542  11.528 -0.3786 -2.0794  1.1760
 5992SOL     OW29611   2.874   3.526   4.522  0.6025 -0.0368  0.0530
 5992SOL    HW129612   2.813   3.594   4.492 -0.4698 -0.3260  1.6001
 5992SOL    HW229613   2.897   3.566   4.606  4.1746  0.1134 -0.9795
 5993SOL     OW29614   2.159   4.470   9.896 -0.2136 -1.1918  0.4738
 5993SOL    HW129615   2.099   4.489   9.824 -1.5524 -2.0813  1.3522
 5993SOL    HW229616   2.090   4.467   9.962 -1.0972  0.5635 -0.3979
 5994SOL     OW29617   0.735   2.454  11.719 -0.2036 -0.3473  0.4712
 5994SOL    HW129618   0.715   2.546  11.700 -2.4590 -1.1030 -0.7875
 5994SOL    HW229619   0.655   2.415  11.683 -0.4376  0.8838 -0.3391
 5995SOL     OW29620   0.267   0.760   2.582  0.0863 -0.4407  0.4623
 5995SOL    HW129621   0.235   0.753   2.672  0.4901  0.4336  0.6757
 5995SOL    HW229622   0.298   0.670   2.576 -1.0569 -0.9793  2.6146
 5996SOL     OW29623   3.691   3.860  11.399 -0.3416  0.1825 -0.6407
 5996SOL    HW129624   3.760   3.833  11.460 -1.7776  0.2424  1.0191
 5996SOL    HW229625   3.616   3.880  11.456  0.1170  3.4079 -1.1981
 5997SOL     OW29626   0.397   1.392   5.906 -0.2545  0.1563  0.0461
 5997SOL    HW129627   0.454   1.424   5.975 -1.0297 -2.6184  1.9793
 5997SOL    HW229628   0.460   1.371   5.837 -3.1873 -1.5702 -2.1091
 5998SOL     OW29629   0.310   4.072  16.169  0.5601  0.2033 -0.4812
 5998SOL    HW129630   0.382   4.126  16.202  1.3915 -1.7257  0.8062
 5998SOL    HW229631   0.306   4.124  16.089  0.2100  0.8283 -0.0583
 5999SOL     OW29632   2.958   0.557   7.018  0.0213  0.5449 -0.3030
 5999SOL    HW129633   2.998   0.514   6.943  0.8510 -0.1867  0.5448
 5999SOL    HW229634   2.911   0.625   6.971 -0.8748  1.1271  1.4492
 6000SOL     OW29635   1.569   0.502   9.507  0.1422 -0.7285 -0.0197
 6000SOL    HW129636   1.480   0.510   9.475  0.4529  1.7516 -0.2712
 6000SOL    HW229637   1.621   0.482   9.429  1.0962  0.3861  0.3282
 6001SOL     OW29638   4.265   1.232   7.894  0.3238  0.1908  0.1098
 6001SOL    HW129639   4.295   1.141   7.895 -0.6668 -0.1245  0.9820
 6001SOL    HW229640   4.233   1.235   7.804  1.0066 -2.9637 -0.2291
 6002SOL     OW29641   1.331   3.268   5.911  0.1311 -0.1848  0.3224
 6002SOL    HW129642   1.397   3.289   5.976  1.4418  0.6590 -1.2951
 6002SOL    HW229643   1.386   3.254   5.835  1.4821 -0.6839  1.4028
 6003SOL     OW29644   2.628   0.390   8.215  0.0491  0.3811  0.7850
 6003SOL    HW129645   2.713   0.431   8.197  0.1879 -0.8452 -1.2995
 6003SOL    HW229646   2.611   0.360   8.126 -0.5674  0.4700  0.8711
 6004SOL     OW29647   2.316   3.959  10.647  0.4186  0.6852  0.4681
 6004SOL    HW129648   2.330   4.053  10.662 -2.2876  1.0618  0.5329
 6004SOL    HW229649   2.229   3.959  10.686  0.0617  0.2550 -0.3321
 6005SOL     OW29650   3.102   3.655   2.634 -0.0744 -0.3586 -0.1791
 6005SOL    HW129651   3.072   3.706   2.709  2.0585 -1.4073  1.3822
 6005SOL    HW229652   3.187   3.626   2.666  0.4347  1.2145 -0.1118
 6006SOL     OW29653   1.324   2.486   1.763  0.3364 -0.1008 -0.5235
 6006SOL    HW129654   1.239   2.480   1.720 -0.3795  0.1062  0.8544
 6006SOL    HW229655   1.372   2.546   1.706  0.2188  2.9457  2.5349
 6007SOL     OW29656   2.274   4.147  15.745  0.1631 -0.2622 -0.4959
 6007SOL    HW129657   2.312   4.154  15.658 -1.9290  0.1889 -1.3684
 6007SOL    HW229658   2.202   4.209  15.738 -0.1945 -0.4578  1.2920
 6008SOL     OW29659   0.747   1.327   1.482  0.3398  0.4340 -0.0331
 6008SOL    HW129660   0.780   1.244   1.514  0.4324  0.4995  0.0429
 6008SOL    HW229661   0.658   1.299   1.459  0.0288 -0.0055  1.7526
 6009SOL     OW29662   0.727   1.542  11.247  0.2100  0.9880 -0.2796
 6009SOL    HW129663   0.802   1.582  11.290  0.4064 -0.8351  1.0780
 6009SOL    HW229664   0.667   1.532  11.321  1.0025 -0.2038  0.2157
 6010SOL     OW29665   4.577   2.176   3.721 -0.3022  0.2847 -0.0117
 6010SOL    HW129666   4.615   2.094   3.688  2.7687  0.7011  2.5104
 6010SOL    HW229667   4.499   2.145   3.768 -0.8812  1.1184 -0.4282
 6011SOL     OW29668   4.508   1.746   6.761  0.3391 -0.1445 -0.1820
 6011SOL    HW129669   4.429   1.768   6.711  1.3829  0.3416 -1.6116
 6011SOL    HW229670   4.497   1.650   6.757  1.9256 -0.2393 -2.2702
 6012SOL     OW29671   1.427   3.747   4.386 -0.5504 -0.0210 -0.4574
 6012SOL    HW129672   1.522   3.747   4.381 -0.3918 -3.7500  2.5790
 6012SOL    HW229673   1.425   3.835   4.424 -0.8652 -0.3343  0.2588
 6013SOL     OW29674   3.273   2.727   5.388  0.0304 -0.0336  0.2168
 6013SOL    HW129675   3.186   2.759   5.412 -0.0459 -0.9958  1.2333
 6013SOL    HW229676   3.288   2.726   5.294  1.4078 -3.5414  0.4577
 6014SOL     OW29677   1.757   4.457  16.138 -0.0275 -0.2830 -0.3100
 6014SOL    HW129678   1.771   4.387  16.074 -2.5088 -1.2662  0.2168
 6014SOL    HW229679   1.847   4.447  16.168 -0.3675  0.0462  0.8113
 6015SOL     OW29680   1.553   1.629   8.638  0.3487  0.3906 -0.3415
 6015SOL    HW129681   1.495   1.566   8.680 -2.5410  3.5471  0.4256
 6015SOL    HW229682   1.529   1.621   8.545 -3.4928 -0.9244  0.7816
 6016SOL     OW29683   1.017   0.139   3.574 -0.0103  0.4310 -0.3240
 6016SOL    HW129684   0.987   0.221   3.614  0.9661  1.3437 -1.4669
 6016SOL    HW229685   0.935   0.107   3.537  0.9400 -0.3181 -1.8180
 6017SOL     OW29686   1.220   0.618   6.358 -0.5350 -0.4794  0.1177
 6017SOL    HW129687   1.289   0.611   6.293  0.1947 -0.9457  0.9485
 6017SOL    HW229688   1.152   0.576   6.306 -0.2491  1.1986 -1.5994
 6018SOL     OW29689   3.914   3.751  13.938 -0.1710  0.2327 -0.9563
 6018SOL    HW129690   3.851   3.773  14.007 -0.8108  1.0058 -1.7986
 6018SOL    HW229691   3.861   3.720  13.865 -1.2499 -2.2087  0.8333
 6019SOL     OW29692   3.743   1.595   9.290 -0.0009  0.7610  0.2468
 6019SOL    HW129693   3.788   1.519   9.327 -0.4194 -0.4573 -1.7545
 6019SOL    HW229694   3.664   1.596   9.344 -1.1405 -0.1190 -1.4165
 6020SOL     OW29695   2.273   0.020   2.979 -0.4089  0.4220 -0.6901
 6020SOL    HW129696   2.292   4.719   2.892  4.9063 -0.1411  0.6882
 6020SOL    HW229697   2.290   4.675   3.029 -1.0617  1.2715  0.8999
 6021SOL     OW29698   0.598   2.425   2.549  0.1758 -0.1097  0.4904
 6021SOL    HW129699   0.561   2.356   2.604 -1.2093  0.2947  0.0850
 6021SOL    HW229700   0.558   2.508   2.577 -2.0340 -0.6940 -0.9196
 6022SOL     OW29701   0.624   1.041   1.678 -0.8470 -0.1920 -0.0340
 6022SOL    HW129702   0.674   1.020   1.599  2.9436  2.6029  1.5611
 6022SOL    HW229703   0.680   1.107   1.720 -1.1337 -2.2744  3.5759
 6023SOL     OW29704   2.911   4.172   1.684 -0.6431  0.2451 -0.1146
 6023SOL    HW129705   2.910   4.268   1.691  0.9502  0.1816  1.0437
 6023SOL    HW229706   3.005   4.154   1.687 -0.5046  1.1754  1.4362
 6024SOL     OW29707   3.692   4.156  16.243  0.1297 -0.0440 -0.2046
 6024SOL    HW129708   3.617   4.107  16.277  0.2833 -0.1895 -0.0751
 6024SOL    HW229709   3.667   4.246  16.265  0.2175  0.3027 -1.4959
 6025SOL     OW29710   2.910   0.530   9.254 -0.2768  0.1580 -0.3838
 6025SOL    HW129711   2.938   0.445   9.290  0.6187  0.7186  0.2530
 6025SOL    HW229712   2.934   0.533   9.162 -0.9713  0.2565 -0.5650
 6026SOL     OW29713   1.646   0.180   2.945 -0.2237 -0.3232  0.1961
 6026SOL    HW129714   1.632   0.236   3.022  2.0325 -0.4268  0.6832
 6026SOL    HW229715   1.553   0.167   2.926  0.1687 -0.9570 -1.3525
 6027SOL     OW29716   0.177   0.375   7.955  0.0589 -0.7924  0.2995
 6027SOL    HW129717   0.176   0.467   7.930 -1.5150 -1.2549 -1.3180
 6027SOL    HW229718   0.084   0.353   7.956 -0.3704  0.9205 -1.2995
 6028SOL     OW29719   0.249   0.462  15.092 -0.5214 -0.5153 -0.0246
 6028SOL    HW129720   0.232   0.458  15.186 -4.3182 -0.0464 -0.6690
 6028SOL    HW229721   0.312   0.392  15.077 -0.0578  0.1189 -1.0528
 6029SOL     OW29722   4.464   2.312  14.761 -0.1703 -0.1762  0.7808
 6029SOL    HW129723   4.435   2.367  14.688 -1.2266 -2.6204 -0.6615
 6029SOL    HW229724   4.540   2.363  14.787  0.1508 -1.7843  2.9839
 6030SOL     OW29725   4.052   4.211   5.426  0.5968  0.6292 -0.0510
 6030SOL    HW129726   4.124   4.223   5.365  0.8936 -3.7906 -0.6121
 6030SOL    HW229727   3.982   4.171   5.373  1.3654  1.8401 -1.9661
 6031SOL     OW29728   2.424   4.678   8.378 -0.3287 -0.1972 -0.0942
 6031SOL    HW129729   2.331   4.664   8.360  0.1256 -1.3665 -1.5900
 6031SOL    HW229730   2.424   4.681   8.474 -0.4007  3.0158 -0.1883
 6032SOL     OW29731   0.157   1.064   4.720 -0.3751 -0.2806 -0.7186
 6032SOL    HW129732   0.229   1.126   4.733 -0.2257 -0.7738  0.8378
 6032SOL    HW229733   0.082   1.121   4.708  1.6115  2.4028 -0.2754
 6033SOL     OW29734   3.830   2.349  13.851  0.5051  0.5194  0.1150
 6033SOL    HW129735   3.864   2.273  13.899 -0.3336  0.3299  0.4148
 6033SOL    HW229736   3.766   2.301  13.798 -0.0641 -0.9493  2.1179
 6034SOL     OW29737   2.806   2.506   3.109 -0.7905  0.2814 -0.1877
 6034SOL    HW129738   2.796   2.513   3.014 -1.6018  0.0060 -0.1169
 6034SOL    HW229739   2.717   2.520   3.141 -0.3070  0.3729  1.1349
 6035SOL     OW29740   3.514   2.554   0.128 -0.0759 -0.0730  0.1137
 6035SOL    HW129741   3.525   2.637   0.174  1.3989  0.1679 -0.6688
 6035SOL    HW229742   3.592   2.561   0.073  0.1289  1.3115  0.5772
 6036SOL     OW29743   1.844   3.535   7.931  0.2306  0.0690  0.0908
 6036SOL    HW129744   1.875   3.580   8.010  1.6403 -0.5790 -0.1058
 6036SOL    HW229745   1.769   3.488   7.968 -0.4677  0.5807 -0.6640
 6037SOL     OW29746   0.738   4.119   2.827  0.2298  0.2432 -0.4612
 6037SOL    HW129747   0.654   4.140   2.787  0.8801 -0.2211 -2.1099
 6037SOL    HW229748   0.799   4.135   2.755  0.1855  1.0424 -0.3196
 6038SOL     OW29749   4.467   1.932   7.115 -0.0665 -0.4243  0.1316
 6038SOL    HW129750   4.490   1.983   7.193  0.3317  0.2945 -0.4575
 6038SOL    HW229751   4.376   1.906   7.131  0.3776 -0.9833  1.7324
 6039SOL     OW29752   2.088   0.393   8.189  0.1983  0.1053  0.5082
 6039SOL    HW129753   2.070   0.480   8.155  1.0086  0.3810  0.7972
 6039SOL    HW229754   2.162   0.368   8.134 -1.6580  1.2050 -2.5289
 6040SOL     OW29755   0.150   3.987  12.915 -0.3327 -0.1042  0.2578
 6040SOL    HW129756   0.240   3.956  12.910 -0.8558 -1.5700 -0.0863
 6040SOL    HW229757   0.104   3.924  12.971 -1.3251  0.0364 -0.3924
 6041SOL     OW29758   2.924   1.690   7.212 -0.0879 -0.3889 -0.3080
 6041SOL    HW129759   2.948   1.782   7.212  0.6095 -0.5748 -0.8141
 6041SOL    HW229760   2.837   1.689   7.171 -0.2077 -0.0443 -0.0648
 6042SOL     OW29761   0.623   1.073   3.625 -0.1479 -0.5187  0.0059
 6042SOL    HW129762   0.532   1.077   3.653  0.0939  3.1664  0.2291
 6042SOL    HW229763   0.664   1.123   3.695 -0.3813 -0.7375  0.2994
 6043SOL     OW29764   0.871   0.280   6.121  0.1009  0.3542  0.3017
 6043SOL    HW129765   0.923   0.254   6.045  0.6253 -3.0904  1.8515
 6043SOL    HW229766   0.797   0.221   6.111  0.7663 -0.9371  2.9960
 6044SOL     OW29767   3.263   3.774   8.629 -0.4070 -0.5279  0.1227
 6044SOL    HW129768   3.259   3.808   8.718 -0.2259 -1.6653  0.5725
 6044SOL    HW229769   3.356   3.784   8.608 -0.7289  1.0149 -0.5788
 6045SOL     OW29770   4.366   1.565   9.074 -0.6193  0.1730 -0.3828
 6045SOL    HW129771   4.288   1.515   9.099 -0.1889  0.4997  1.5835
 6045SOL    HW229772   4.379   1.616   9.154  2.0205  0.6895 -1.1495
 6046SOL     OW29773   4.559   3.193   9.016  0.2951 -0.3603  0.0050
 6046SOL    HW129774   4.566   3.220   8.924  0.0815  0.7874  0.3232
 6046SOL    HW229775   4.484   3.240   9.054  0.3015 -1.2512  1.1116
 6047SOL     OW29776   1.730   4.403  15.325  0.0594 -0.2070  0.5863
 6047SOL    HW129777   1.734   4.483  15.376  0.0787 -0.0620  0.3596
 6047SOL    HW229778   1.638   4.380  15.312  0.3900 -1.0023 -0.3603
 6048SOL     OW29779   3.977   2.340   0.564  0.1702 -0.2415 -0.1690
 6048SOL    HW129780   4.019   2.320   0.648 -1.1082 -1.2736  0.2200
 6048SOL    HW229781   4.027   2.417   0.538  1.7246 -1.3277 -0.4502
 6049SOL     OW29782   3.425   3.385   8.512 -0.1865  0.2558 -0.2975
 6049SOL    HW129783   3.393   3.421   8.595  0.1399 -0.2658  0.0493
 6049SOL    HW229784   3.461   3.304   8.548  1.5704  1.7907  1.3489
 6050SOL     OW29785   3.045   1.904   4.099 -0.4709  0.0992  0.0598
 6050SOL    HW129786   3.078   1.866   4.181  1.4645  1.9789  0.1371
 6050SOL    HW229787   3.013   1.825   4.056  3.0199  0.7531 -3.7532
 6051SOL     OW29788   2.895   0.155  10.146  0.4279  0.1932  0.5523
 6051SOL    HW129789   2.831   0.217  10.114  1.6266  1.1210 -0.0608
 6051SOL    HW229790   2.830   0.091  10.177 -0.8926  1.7399  0.9543
 6052SOL     OW29791   2.368   2.385   0.608  0.1399  0.2836  0.1278
 6052SOL    HW129792   2.326   2.471   0.612 -0.6538  0.0145 -2.3694
 6052SOL    HW229793   2.457   2.407   0.579  0.0055 -0.8072 -1.1010
 6053SOL     OW29794   2.068   3.139   6.291  0.1915  0.5734 -0.1281
 6053SOL    HW129795   2.069   3.234   6.307  1.1571  0.8259 -1.7459
 6053SOL    HW229796   2.065   3.141   6.195 -1.7733 -0.1841 -0.0739
 6054SOL     OW29797   4.676   1.264   4.685  0.4371 -0.8506  0.1922
 6054SOL    HW129798   4.664   1.281   4.779 -1.5366 -1.1290 -0.0131
 6054SOL    HW229799   4.665   1.347   4.639 -1.6891 -0.0024  2.2270
 6055SOL     OW29800   1.126   1.735   6.098  0.2813  0.1575 -1.0517
 6055SOL    HW129801   1.069   1.698   6.031 -2.4925 -1.2833  2.0909
 6055SOL    HW229802   1.208   1.688   6.079 -0.0996 -2.0070  2.5752
 6056SOL     OW29803   2.976   4.299   2.679 -0.8243 -0.4478 -0.2377
 6056SOL    HW129804   3.008   4.304   2.769 -3.5046  0.9976  0.6274
 6056SOL    HW229805   2.943   4.210   2.692  0.4588 -1.0118 -0.8859
 6057SOL     OW29806   1.567   3.394   0.254 -0.0121  0.2230 -0.8923
 6057SOL    HW129807   1.636   3.460   0.262  0.3464 -0.4188  1.4142
 6057SOL    HW229808   1.523   3.408   0.338  0.0973 -0.5820 -0.6953
 6058SOL     OW29809   1.971   1.262   2.028 -0.7172  0.3247 -0.2430
 6058SOL    HW129810   1.970   1.358   2.023 -2.4369  0.2807 -0.5881
 6058SOL    HW229811   1.927   1.243   2.111  1.3173 -1.7512  0.3660
 6059SOL     OW29812   3.993   3.666   3.152  0.0249  0.2349 -0.1642
 6059SOL    HW129813   3.943   3.642   3.230  1.6389  0.8840  1.0571
 6059SOL    HW229814   3.944   3.614   3.088 -0.0217  1.1303 -0.8543
 6060SOL     OW29815   2.076   3.819   2.773  0.0984 -0.3709  0.3151
 6060SOL    HW129816   2.147   3.881   2.789  0.1908  0.2621 -2.5462
 6060SOL    HW229817   2.011   3.864   2.720  0.9040 -0.6076 -0.8759
 6061SOL     OW29818   4.091   4.319   3.412 -0.7558  0.6818  0.3849
 6061SOL    HW129819   4.134   4.367   3.341  0.0335 -0.0367  0.3829
 6061SOL    HW229820   4.167   4.304   3.467  0.3116 -0.3384 -1.3513
 6062SOL     OW29821   0.375   3.486   4.067 -0.2132  0.4496 -0.0985
 6062SOL    HW129822   0.305   3.550   4.056  1.1825  2.0805  0.5110
 6062SOL    HW229823   0.381   3.445   3.981  2.4707 -0.5568  0.5438
 6063SOL     OW29824   3.045   1.411   4.087  0.0143  0.2430  0.3349
 6063SOL    HW129825   2.956   1.376   4.087 -0.1910  0.7702 -3.3457
 6063SOL    HW229826   3.096   1.331   4.093 -2.1467 -1.0780  0.8108
 6064SOL     OW29827   1.707   0.472  11.467  0.6267 -0.1430  0.5529
 6064SOL    HW129828   1.762   0.439  11.537  1.9166  1.2909  0.1924
 6064SOL    HW229829   1.761   0.539  11.425 -1.5052  2.1428  1.4378
 6065SOL     OW29830   1.883   3.977  15.528  0.6282  0.0830  1.0135
 6065SOL    HW129831   1.975   3.951  15.528  0.1666 -1.5530  0.1618
 6065SOL    HW229832   1.857   3.900  15.477 -1.9090  1.6165  0.0074
 6066SOL     OW29833   4.094   4.637   5.156  0.2014 -0.0674  0.4613
 6066SOL    HW129834   4.034   4.712   5.146  1.7879  1.0007 -0.9528
 6066SOL    HW229835   4.143   4.661   5.235 -0.3304  2.7433 -0.0400
 6067SOL     OW29836   1.590   3.025   8.545 -0.6764  0.0372 -0.1564
 6067SOL    HW129837   1.517   3.041   8.486 -1.1806  3.2225  1.3409
 6067SOL    HW229838   1.622   2.957   8.485  0.0540 -0.9084  1.2952
 6068SOL     OW29839   2.183   3.024   4.863  0.1672  0.1588 -0.2254
 6068SOL    HW129840   2.227   3.076   4.795  2.8453 -1.8413 -0.0593
 6068SOL    HW229841   2.098   3.004   4.824 -0.4562  2.1118  0.1640
 6069SOL     OW29842   0.207   2.005   1.324  0.3451 -0.1580  0.2162
 6069SOL    HW129843   0.141   2.064   1.289  0.9348  0.1908 -0.3067
 6069SOL    HW229844   0.241   1.984   1.237  0.3792 -0.6440  0.3449
 6070SOL     OW29845   0.567   1.438  14.586 -0.1131  0.2589 -0.7956
 6070SOL    HW129846   0.552   1.344  14.584 -2.2997  0.5615  1.4508
 6070SOL    HW229847   0.535   1.459  14.674  0.1985 -0.5488 -0.4860
 6071SOL     OW29848   2.998   4.152   6.447 -0.2798  0.2407  0.4026
 6071SOL    HW129849   3.061   4.224   6.440 -1.5025  1.2743 -0.0880
 6071SOL    HW229850   3.039   4.081   6.398 -0.8131 -0.0289  0.3489
 6072SOL     OW29851   0.343   1.114   6.128  0.5237 -0.2647 -0.2695
 6072SOL    HW129852   0.378   1.151   6.209 -1.5129  2.5820 -0.6713
 6072SOL    HW229853   0.327   1.022   6.148 -2.4751 -0.1179 -2.0371
 6073SOL     OW29854   2.937   2.685   2.127  0.0871 -0.3986  0.1067
 6073SOL    HW129855   2.935   2.678   2.223  0.0168 -1.8675  0.0039
 6073SOL    HW229856   2.844   2.706   2.120 -0.3070 -1.8301  1.0016
 6074SOL     OW29857   0.583   3.979   2.400  0.0887 -0.4732 -0.0965
 6074SOL    HW129858   0.662   3.964   2.348 -0.9203  0.2635 -1.8305
 6074SOL    HW229859   0.511   3.940   2.350 -0.4158  0.8949 -0.4145
 6075SOL     OW29860   4.405   3.601  13.707 -0.0840 -0.4064 -0.1475
 6075SOL    HW129861   4.445   3.561  13.630  0.7671 -0.5740  0.3751
 6075SOL    HW229862   4.464   3.574  13.777 -0.0529  1.4933  0.5590
 6076SOL     OW29863   4.216   1.101   5.138  0.3287  0.3465  0.0782
 6076SOL    HW129864   4.198   1.105   5.232  1.3623 -1.8120  0.3608
 6076SOL    HW229865   4.281   1.171   5.135  1.3284 -0.4800  2.6361
 6077SOL     OW29866   2.326   0.125   7.839 -0.4400  0.3252  0.6033
 6077SOL    HW129867   2.254   0.069   7.870  2.0370 -1.7527  2.6046
 6077SOL    HW229868   2.398   0.075   7.877 -0.4067 -0.1011 -0.0054
 6078SOL     OW29869   3.406   0.618   4.162  0.1244 -0.1785 -0.3264
 6078SOL    HW129870   3.414   0.529   4.126 -0.1099 -1.9640  4.0424
 6078SOL    HW229871   3.415   0.661   4.078  0.4858  1.2576  0.4548
 6079SOL     OW29872   0.418   1.377   9.332 -0.1301  0.2209 -0.2971
 6079SOL    HW129873   0.430   1.408   9.421 -1.1156 -1.0312  0.2705
 6079SOL    HW229874   0.475   1.433   9.280  1.0054 -0.5134  0.1705
 6080SOL     OW29875   1.838   0.553   9.379 -0.5707 -0.4505  0.3774
 6080SOL    HW129876   1.804   0.571   9.467  0.9493 -0.0038  0.8641
 6080SOL    HW229877   1.892   0.476   9.396  0.9302  0.7931  1.2836
 6081SOL     OW29878   1.304   3.714   4.141  0.0182 -0.1996 -0.1458
 6081SOL    HW129879   1.330   3.749   4.226  1.1643  0.0242 -0.5891
 6081SOL    HW229880   1.384   3.727   4.091 -0.5276 -0.8844 -1.2101
 6082SOL     OW29881   0.631   0.647  12.044 -0.0938 -0.3770 -0.0640
 6082SOL    HW129882   0.538   0.635  12.025 -0.3201  0.8781  0.2367
 6082SOL    HW229883   0.654   0.709  11.975 -0.5984 -1.0592 -0.8400
 6083SOL     OW29884   0.319   2.052   1.076  0.0908  0.0834 -0.3732
 6083SOL    HW129885   0.335   2.144   1.100 -0.3976  0.0002  0.2773
 6083SOL    HW229886   0.246   2.061   1.015 -1.1807  0.3291  1.1935
 6084SOL     OW29887   0.596   1.546  15.611 -0.1977 -0.6483 -0.1277
 6084SOL    HW129888   0.635   1.631  15.592 -0.6425 -1.2508 -3.7675
 6084SOL    HW229889   0.652   1.489  15.558 -0.3104 -1.0769  0.2187
 6085SOL     OW29890   2.955   0.432  13.587 -0.3087  0.4625  0.3621
 6085SOL    HW129891   2.990   0.347  13.559  1.4742  0.8873  1.3287
 6085SOL    HW229892   3.022   0.494  13.560 -2.1280  1.4867 -1.8312
 6086SOL     OW29893   2.341   2.863   5.328 -0.2939  0.0304 -0.2045
 6086SOL    HW129894   2.306   2.951   5.312 -0.4538  0.1363  0.6946
 6086SOL    HW229895   2.268   2.820   5.372 -0.6450  1.4827  0.6446
 6087SOL     OW29896   0.519   3.499   7.495  0.3450 -0.0404  0.0078
 6087SOL    HW129897   0.565   3.432   7.445 -0.7200  0.8529 -2.1675
 6087SOL    HW229898   0.544   3.577   7.445  0.8922 -0.1544  0.1036
 6088SOL     OW29899   0.159   1.683  16.901  0.7012  0.2240  0.5832
 6088SOL    HW129900   0.155   1.597  16.943  0.8039  1.4914  3.1881
 6088SOL    HW229901   0.119   1.747  16.960 -0.1284 -2.1142  2.5108
 6089SOL     OW29902   1.676   1.925  16.772 -0.6313 -0.1835  0.5079
 6089SOL    HW129903   1.706   1.968  16.852 -0.9332  2.2700 -0.6690
 6089SOL    HW229904   1.723   1.842  16.779  0.5137  0.4453  0.3026
 6090SOL     OW29905   4.544   1.097   3.177  0.4573 -0.5869  0.4410
 6090SOL    HW129906   4.496   1.070   3.099  1.3444 -1.8326  0.3310
 6090SOL    HW229907   4.484   1.070   3.247  0.6830  1.7287  1.5584
 6091SOL     OW29908   2.536   1.730   5.778 -0.1516 -0.0960  0.0756
 6091SOL    HW129909   2.514   1.779   5.699 -1.1780 -0.0864  0.3623
 6091SOL    HW229910   2.624   1.705   5.749 -0.2768  0.5369 -0.8501
 6092SOL     OW29911   0.221   3.301  10.931  0.0873  0.1319 -0.1174
 6092SOL    HW129912   0.211   3.345  10.847  3.5073  0.0092 -0.5711
 6092SOL    HW229913   0.313   3.304  10.956 -0.0054  3.1728 -0.2102
 6093SOL     OW29914   2.200   4.727   9.093  0.1004 -0.5156  0.2819
 6093SOL    HW129915   2.234   4.664   9.156  1.2882 -0.9573 -0.7941
 6093SOL    HW229916   2.191   4.673   9.014 -2.5587 -0.0122  0.2624
 6094SOL     OW29917   1.505   4.268   8.033  0.2885  0.1020  0.2314
 6094SOL    HW129918   1.531   4.199   8.094  1.6900  0.9687  0.6062
 6094SOL    HW229919   1.542   4.235   7.951 -1.0571 -2.0150  0.4961
 6095SOL     OW29920   2.042   2.978   9.554 -0.1322  0.4233  0.0222
 6095SOL    HW129921   2.081   2.896   9.582  1.7536  1.2261 -0.2483
 6095SOL    HW229922   2.065   2.976   9.461  2.3133  4.2794  0.5613
 6096SOL     OW29923   3.901   0.854   8.518 -0.6908  0.2446  0.0798
 6096SOL    HW129924   3.831   0.919   8.520 -0.3492  0.5831  0.9029
 6096SOL    HW229925   3.900   0.835   8.424 -0.5948 -1.8081  0.4866
 6097SOL     OW29926   0.649   2.452   3.873  0.7526  0.3787  0.2453
 6097SOL    HW129927   0.724   2.510   3.864  1.5926 -0.5120  1.4610
 6097SOL    HW229928   0.657   2.419   3.963 -2.2233  1.6969  1.0174
 6098SOL     OW29929   3.063   4.194  14.441 -0.4886  0.6339  0.0593
 6098SOL    HW129930   3.081   4.282  14.473  0.9843 -0.0956  1.2502
 6098SOL    HW229931   3.141   4.147  14.472 -0.1039  1.1626 -0.0988
 6099SOL     OW29932   3.499   4.354   1.917 -0.3153  0.1590 -0.1141
 6099SOL    HW129933   3.435   4.349   1.989  0.1442  0.1241  0.2959
 6099SOL    HW229934   3.485   4.269   1.877  0.4526 -0.7956  1.6603
 6100SOL     OW29935   4.423   2.285  12.561 -0.0429 -0.3092  0.2556
 6100SOL    HW129936   4.328   2.293  12.564  0.0411  0.9179 -0.4090
 6100SOL    HW229937   4.444   2.191  12.564 -1.4473 -0.6351 -0.4306
 6101SOL     OW29938   3.343   4.259   5.380  0.2633  0.5171  0.0943
 6101SOL    HW129939   3.269   4.295   5.332 -0.2955 -0.8102 -0.0411
 6101SOL    HW229940   3.300   4.182   5.418  0.0166 -0.2913 -1.8250
 6102SOL     OW29941   2.811   0.086   6.864  0.5780  0.0693 -0.1200
 6102SOL    HW129942   2.810   0.159   6.926  0.9584  1.1495 -1.3978
 6102SOL    HW229943   2.726   0.094   6.823  0.6832 -1.4273 -0.6293
 6103SOL     OW29944   3.549   0.657   8.602 -0.3779 -0.4370 -0.2753
 6103SOL    HW129945   3.473   0.704   8.638 -1.0379 -0.8282 -1.1524
 6103SOL    HW229946   3.519   0.648   8.512 -3.4100 -1.6865  0.8695
 6104SOL     OW29947   0.544   4.676   7.540 -0.0058 -0.0727  0.0173
 6104SOL    HW129948   0.595   4.676   7.621  2.3246 -2.5145 -1.4391
 6104SOL    HW229949   0.553   4.588   7.504 -1.2881 -0.2762  0.1869
 6105SOL     OW29950   4.151   1.832  10.193 -0.5088  0.2262  0.0857
 6105SOL    HW129951   4.125   1.919  10.222  2.6521  0.5899  1.8587
 6105SOL    HW229952   4.133   1.773  10.267  1.3888 -0.6785 -0.1752
 6106SOL     OW29953   3.695   4.473   3.726  0.0001 -0.4469  0.3907
 6106SOL    HW129954   3.667   4.416   3.797 -1.8350  1.7576  1.4369
 6106SOL    HW229955   3.768   4.522   3.763  0.7199 -0.3886 -1.0968
 6107SOL     OW29956   2.036   2.421  11.550 -0.0825  0.0143 -0.0276
 6107SOL    HW129957   1.978   2.365  11.499 -0.8371  1.2493 -0.5438
 6107SOL    HW229958   2.097   2.448  11.481  1.4766  2.8167  2.4538
 6108SOL     OW29959   4.022   0.917   8.899 -0.1272 -0.2465 -0.8133
 6108SOL    HW129960   4.078   0.888   8.827  0.2522  1.3378 -1.1705
 6108SOL    HW229961   3.994   1.000   8.860  2.0046 -0.8024 -3.5341
 6109SOL     OW29962   4.280   3.256  13.410 -0.1909  0.2432  0.1404
 6109SOL    HW129963   4.254   3.246  13.502 -2.1127 -1.0679 -0.5373
 6109SOL    HW229964   4.251   3.341  13.379  0.6401  1.2277  2.0964
 6110SOL     OW29965   4.502   3.805   3.594  0.4203  0.1428 -0.2945
 6110SOL    HW129966   4.450   3.868   3.644 -1.0454 -0.7204 -0.7418
 6110SOL    HW229967   4.489   3.732   3.655  0.8664 -0.0433 -0.4225
 6111SOL     OW29968   2.316   4.703   2.261 -0.4979 -0.2375 -0.5032
 6111SOL    HW129969   2.366   4.666   2.188 -0.9738  0.7145 -1.3019
 6111SOL    HW229970   2.371   4.673   2.334  0.8889  3.4520 -0.0339
 6112SOL     OW29971   2.461   0.896   7.528  0.0639  0.1488  0.5679
 6112SOL    HW129972   2.492   0.873   7.615  2.7457 -0.6456 -0.5808
 6112SOL    HW229973   2.490   0.986   7.515  1.3317  0.0719  2.9259
 6113SOL     OW29974   0.426   2.518   5.365  0.2844 -0.4716 -0.2584
 6113SOL    HW129975   0.378   2.601   5.366 -0.6255 -0.9853 -1.9780
 6113SOL    HW229976   0.505   2.544   5.412  0.3281  0.2788 -0.7562
 6114SOL     OW29977   3.883   0.518   5.716  0.1829  0.2560 -0.0652
 6114SOL    HW129978   3.832   0.481   5.788  0.7969  1.5220  1.0098
 6114SOL    HW229979   3.969   0.534   5.753 -0.4347  1.9116  0.6836
 6115SOL     OW29980   2.248   1.314   2.997  0.5140 -0.1185  0.2311
 6115SOL    HW129981   2.181   1.290   3.061  0.9189  0.8089  1.0025
 6115SOL    HW229982   2.308   1.340   3.067 -0.5449  1.2332  0.6314
 6116SOL     OW29983   3.694   4.069  13.257 -0.0307 -0.0791 -0.0808
 6116SOL    HW129984   3.762   4.008  13.231  1.5942  1.6235  0.1435
 6116SOL    HW229985   3.751   4.127  13.308 -1.2883 -0.8894  2.2421
 6117SOL     OW29986   3.826   0.276   6.669 -0.0323 -0.4097 -0.1098
 6117SOL    HW129987   3.757   0.282   6.602 -1.7975 -2.4032  1.5477
 6117SOL    HW229988   3.883   0.207   6.634  0.6867  0.3072 -0.3753
 6118SOL     OW29989   0.004   1.476   2.870 -0.1730  0.5559  0.4137
 6118SOL    HW129990   4.658   1.428   2.891  0.1812 -0.9905 -1.7382
 6118SOL    HW229991   0.060   1.425   2.927 -0.4097 -0.1965 -0.0295
 6119SOL     OW29992   1.377   2.115   1.157 -0.0147 -0.0854 -0.0930
 6119SOL    HW129993   1.389   2.020   1.153  1.9425  0.0588  2.7049
 6119SOL    HW229994   1.459   2.138   1.200  0.8809 -0.5643 -1.5440
 6120SOL     OW29995   1.062   4.550   7.192 -0.0540  0.3149 -0.4208
 6120SOL    HW129996   1.078   4.458   7.215  0.5057  0.5154 -0.0275
 6120SOL    HW229997   1.103   4.596   7.264  0.4709 -0.7570 -0.0457
 6121SOL     OW29998   1.134   1.099   8.826  0.3444  0.2308  0.2739
 6121SOL    HW129999   1.175   1.021   8.789 -1.8362 -0.2339 -1.1368
 6121SOL    HW230000   1.087   1.134   8.751  1.2687  0.5878 -0.1476
 6122SOL     OW30001   4.622   2.455   2.440  0.0218 -0.5411 -0.2205
 6122SOL    HW130002   4.629   2.529   2.501  2.4061 -3.7944  3.4389
 6122SOL    HW230003   4.576   2.398   2.502  0.4224 -0.8676 -0.2283
 6123SOL     OW30004   1.592   0.284  10.246 -0.0416  0.2259 -0.0076
 6123SOL    HW130005   1.633   0.347  10.188 -0.2926 -0.0470 -0.4746
 6123SOL    HW230006   1.660   0.253  10.307  0.3604  1.0898 -0.0122
 6124SOL     OW30007   1.550   2.323  17.249  0.3262 -0.4274 -0.0220
 6124SOL    HW130008   1.455   2.320  17.236  0.4101 -1.8065 -0.3458
 6124SOL    HW230009   1.561   2.399  17.306  1.1273 -0.0560 -0.6714
 6125SOL     OW30010   2.432   1.671   6.340  0.1670 -0.1233  0.1820
 6125SOL    HW130011   2.341   1.643   6.335  0.0384  0.3011  0.0762
 6125SOL    HW230012   2.412   1.765   6.335 -0.6987 -0.3289 -0.0743
 6126SOL     OW30013   2.108   2.241   3.873  0.0656 -0.3625  0.0452
 6126SOL    HW130014   2.159   2.254   3.953 -2.1936  2.0425  1.1103
 6126SOL    HW230015   2.170   2.246   3.800  0.3725  1.2781  0.4112
 6127SOL     OW30016   1.521   4.319   5.233 -0.4337  0.7333 -0.0865
 6127SOL    HW130017   1.599   4.272   5.262 -0.9367  0.0163  0.0917
 6127SOL    HW230018   1.545   4.411   5.245  1.0525  0.3959 -0.5340
 6128SOL     OW30019   0.340   1.854   8.199 -0.3070  0.2534  0.3789
 6128SOL    HW130020   0.347   1.943   8.233 -2.0495  0.6902 -0.4166
 6128SOL    HW230021   0.369   1.806   8.277  1.8334 -0.8219 -1.0772
 6129SOL     OW30022   4.135   1.423   6.716 -0.0087 -0.2564 -0.4209
 6129SOL    HW130023   4.185   1.395   6.640  0.4253 -0.3451 -0.1038
 6129SOL    HW230024   4.126   1.343   6.768  0.6038  0.5558  0.9505
 6130SOL     OW30025   2.017   2.630   4.012  0.2917 -0.4168 -0.0449
 6130SOL    HW130026   2.044   2.722   4.015 -1.0180 -0.0049 -1.5698
 6130SOL    HW230027   2.073   2.607   4.087  0.2802 -0.5404 -0.0735
 6131SOL     OW30028   4.591   2.160   2.237  0.8496 -0.0207  0.0781
 6131SOL    HW130029   4.611   2.130   2.149  0.1687  0.4407 -0.2325
 6131SOL    HW230030   4.514   2.217   2.230  0.8448  0.0395  0.6108
 6132SOL     OW30031   2.199   3.103   1.349  0.4023  0.7017  0.2381
 6132SOL    HW130032   2.152   3.122   1.431  0.7799  0.2420  0.5639
 6132SOL    HW230033   2.292   3.088   1.367  0.6343  0.6782 -0.9724
 6133SOL     OW30034   4.447   4.224   6.622 -0.6749  0.3067  0.7814
 6133SOL    HW130035   4.518   4.198   6.680 -0.1311 -0.2041 -0.1232
 6133SOL    HW230036   4.402   4.140   6.614 -0.7541  0.3901  0.3756
 6134SOL     OW30037   3.259   2.343   5.378  0.1169 -0.7891  0.1737
 6134SOL    HW130038   3.280   2.250   5.368 -0.3160 -0.7016 -1.4793
 6134SOL    HW230039   3.167   2.338   5.403  0.2129 -0.7224  0.5421
 6135SOL     OW30040   2.400   2.724   0.327 -0.0975  0.6749 -0.3688
 6135SOL    HW130041   2.448   2.690   0.252 -0.8342  0.0700 -0.5546
 6135SOL    HW230042   2.353   2.791   0.278  0.8201  1.5394 -0.0678
 6136SOL     OW30043   4.305   1.986   0.738  0.0963  0.0663  0.1075
 6136SOL    HW130044   4.296   1.914   0.676 -2.6390 -0.1049  0.6970
 6136SOL    HW230045   4.211   1.998   0.756  0.2194  0.9323  0.2057
 6137SOL     OW30046   3.838   4.588   5.625 -0.5755  0.6809 -0.2687
 6137SOL    HW130047   3.790   4.505   5.631  1.6714 -0.6342 -0.2441
 6137SOL    HW230048   3.894   4.588   5.703  0.9996  2.0310 -1.4216
 6138SOL     OW30049   1.616   1.352   2.598  0.2318 -0.1821 -0.2322
 6138SOL    HW130050   1.657   1.391   2.675 -0.8311  3.4240 -1.4934
 6138SOL    HW230051   1.532   1.334   2.639  1.7275 -0.2801  2.8105
 6139SOL     OW30052   3.934   1.275   9.678 -0.2454 -0.0343  0.0352
 6139SOL    HW130053   3.919   1.291   9.771  0.6311  0.9261  0.0045
 6139SOL    HW230054   4.006   1.214   9.695 -0.7195 -0.8267 -0.7855
 6140SOL     OW30055   2.840   1.914   5.122 -0.0585 -0.0890  0.3375
 6140SOL    HW130056   2.789   1.986   5.086  1.3504  0.2344 -1.0189
 6140SOL    HW230057   2.786   1.838   5.099  0.0712 -0.1839  0.3476
 6141SOL     OW30058   0.435   4.040   4.126 -0.2431  0.0367 -0.0956
 6141SOL    HW130059   0.421   3.991   4.045 -2.4972 -0.4564  0.5902
 6141SOL    HW230060   0.352   4.067   4.165 -0.6060  0.0354 -0.8775
 6142SOL     OW30061   1.927   1.657   6.735 -0.2310  0.5854 -0.4772
 6142SOL    HW130062   1.990   1.587   6.747 -0.7200  0.1842 -0.2616
 6142SOL    HW230063   1.958   1.724   6.795 -1.8385  0.6027  0.3393
 6143SOL     OW30064   2.986   3.125   7.370  0.2205  0.3287  0.5018
 6143SOL    HW130065   2.955   3.106   7.458  1.4739  2.4208  1.4063
 6143SOL    HW230066   2.911   3.095   7.318  0.0106  2.2529 -0.3344
 6144SOL     OW30067   1.925   3.982  15.196  0.1948  0.2742 -0.0296
 6144SOL    HW130068   1.897   4.068  15.166  1.0751  0.6385  0.2103
 6144SOL    HW230069   2.000   3.999  15.252  1.3488 -1.3404 -1.0725
 6145SOL     OW30070   1.615   1.855   6.476  0.0581  0.4098  0.0991
 6145SOL    HW130071   1.678   1.796   6.435 -0.5856  0.7797 -1.4350
 6145SOL    HW230072   1.592   1.824   6.563  0.7370  2.4723  1.0057
 6146SOL     OW30073   1.016   4.502   1.566 -0.3134  0.6693  0.4034
 6146SOL    HW130074   1.039   4.533   1.479  0.4152  1.0096  0.7141
 6146SOL    HW230075   0.929   4.464   1.555 -0.7095  1.0491  2.1574
 6147SOL     OW30076   0.890   0.309   9.100 -0.0204 -0.3589 -0.1387
 6147SOL    HW130077   0.805   0.353   9.100  0.8510  1.3093  0.2148
 6147SOL    HW230078   0.906   0.282   9.010 -0.3572 -0.9182 -0.0365
 6148SOL     OW30079   1.671   2.568   8.461  0.2830  0.0590 -0.6151
 6148SOL    HW130080   1.704   2.527   8.381 -1.0094 -0.3602 -0.9379
 6148SOL    HW230081   1.741   2.537   8.519 -0.3066  1.1943  0.7134
 6149SOL     OW30082   1.844   0.846   2.480  0.6862 -0.4865 -0.2331
 6149SOL    HW130083   1.840   0.941   2.481  0.5071 -0.5015  0.1192
 6149SOL    HW230084   1.864   0.822   2.570  1.1513  0.6129 -0.0418
 6150SOL     OW30085   0.086   0.771   9.159 -0.3289 -0.1391 -1.1965
 6150SOL    HW130086   0.020   0.762   9.090  1.2512  1.2653 -2.8930
 6150SOL    HW230087   0.096   0.866   9.161  0.0277 -0.1964 -0.2050
 6151SOL     OW30088   4.263   2.508   7.781 -0.2829 -0.1481  0.3217
 6151SOL    HW130089   4.303   2.447   7.720 -2.7291  0.9203 -2.3406
 6151SOL    HW230090   4.173   2.511   7.749  0.1415 -0.2374 -0.8638
 6152SOL     OW30091   2.871   3.966  17.456 -0.5158 -0.2872  0.1083
 6152SOL    HW130092   2.827   3.994  17.376 -2.6327  0.4436  1.5127
 6152SOL    HW230093   2.959   4.004  17.448 -0.5882  0.1454  1.2817
 6153SOL     OW30094   0.307   1.888   3.397 -0.1735 -0.1028 -0.6113
 6153SOL    HW130095   0.320   1.928   3.312 -0.3418  0.4776 -0.3628
 6153SOL    HW230096   0.330   1.968   3.445  0.0975 -0.5526  0.0200
 6154SOL     OW30097   2.366   0.435   8.320  0.0581 -0.6879 -0.1875
 6154SOL    HW130098   2.459   0.410   8.323  0.3214  0.1499 -1.2080
 6154SOL    HW230099   2.325   0.373   8.260  0.3972  0.2942 -1.4381
 6155SOL     OW30100   0.374   4.393   7.464  0.2349  0.1407  0.6534
 6155SOL    HW130101   0.389   4.461   7.398 -1.1280 -0.2801 -0.0992
 6155SOL    HW230102   0.283   4.416   7.483  0.6598  0.2247  2.5357
 6156SOL     OW30103   0.228   2.314  17.144 -0.2141  0.4016  0.3410
 6156SOL    HW130104   0.312   2.345  17.110 -0.5417  1.2686  0.3392
 6156SOL    HW230105   0.248   2.254  17.216 -1.1402  0.0980  0.3427
 6157SOL     OW30106   1.586   1.120   7.540 -0.0424  0.2443  0.1608
 6157SOL    HW130107   1.524   1.155   7.476  1.0700 -0.8512 -1.4920
 6157SOL    HW230108   1.601   1.034   7.502  2.5166  0.0330  1.6527
 6158SOL     OW30109   1.897   1.713   9.846  0.7221 -0.4984 -0.0044
 6158SOL    HW130110   1.824   1.772   9.833  0.5740 -1.1369 -2.2140
 6158SOL    HW230111   1.961   1.773   9.809 -0.8989  0.7737 -0.7250
 6159SOL     OW30112   2.593   3.171  10.295 -0.6987 -0.2287  0.2496
 6159SOL    HW130113   2.531   3.244  10.301  0.0852  0.5144 -0.7409
 6159SOL    HW230114   2.599   3.153  10.389  2.1605 -4.4390 -0.7816
 6160SOL     OW30115   2.875   4.632  12.866  0.0632 -0.1693 -0.2326
 6160SOL    HW130116   2.965   4.649  12.894  0.7057 -1.3843 -1.6101
 6160SOL    HW230117   2.883   4.617  12.772 -0.1223  1.9837 -0.5946
 6161SOL     OW30118   3.435   2.854   7.273 -0.3922  0.5775  0.0629
 6161SOL    HW130119   3.374   2.919   7.308 -1.4826 -0.8836  0.9238
 6161SOL    HW230120   3.515   2.905   7.277 -0.1401  0.2094 -0.3230
 6162SOL     OW30121   1.625   0.795   6.048 -0.5784 -0.1072  0.0777
 6162SOL    HW130122   1.661   0.861   5.988 -0.5823 -0.0539  0.1339
 6162SOL    HW230123   1.673   0.714   6.032 -1.2752 -0.9222  2.1914
 6163SOL     OW30124   3.665   3.394  17.346 -0.7974  0.1880 -0.1001
 6163SOL    HW130125   3.656   3.302  17.371  0.6362 -0.3452 -1.5050
 6163SOL    HW230126   3.751   3.404  17.389  0.5153  0.5633 -2.8167
 6164SOL     OW30127   3.814   1.135   4.814  0.1033  0.1087 -0.2503
 6164SOL    HW130128   3.874   1.176   4.751 -2.0271  2.4879 -0.7142
 6164SOL    HW230129   3.877   1.102   4.878  0.2104  1.2789  0.2545
 6165SOL     OW30130   2.533   0.912   8.566  0.0644 -0.2798 -0.0851
 6165SOL    HW130131   2.529   0.885   8.474  1.9334  1.5170 -0.6795
 6165SOL    HW230132   2.462   0.976   8.561  0.6775  0.3837 -0.2599
 6166SOL     OW30133   4.433   0.604   6.903  0.3953  0.0310 -0.0568
 6166SOL    HW130134   4.420   0.589   6.810 -0.9714 -0.8632  0.2822
 6166SOL    HW230135   4.502   0.539   6.921 -2.9922 -3.0317  1.8187
 6167SOL     OW30136   3.025   2.426   1.844 -0.1883  0.4299  0.3159
 6167SOL    HW130137   3.049   2.350   1.791 -3.2213 -0.1996 -0.1672
 6167SOL    HW230138   2.931   2.411   1.848 -0.5324  2.8708  1.0343
 6168SOL     OW30139   2.242   2.631  11.630  0.1786  0.1877  0.2391
 6168SOL    HW130140   2.269   2.559  11.574  0.7775 -0.3289  1.1896
 6168SOL    HW230141   2.327   2.656  11.666  0.6603 -0.5621 -0.3911
 6169SOL     OW30142   0.725   2.984   0.928 -0.3921  0.9500  0.3045
 6169SOL    HW130143   0.751   2.946   1.012 -0.0519  1.6099  0.4957
 6169SOL    HW230144   0.686   2.910   0.881  1.1857  0.7694 -0.7145
 6170SOL     OW30145   3.023   0.307   7.146  0.2451 -0.1852  0.1725
 6170SOL    HW130146   3.046   0.400   7.156 -0.6979  0.1395 -0.7296
 6170SOL    HW230147   2.944   0.313   7.093 -0.0482  0.2562  0.6629
 6171SOL     OW30148   1.670   2.251  11.030  0.2588 -0.3414 -0.4307
 6171SOL    HW130149   1.717   2.306  10.967 -0.0358  0.6454  0.2154
 6171SOL    HW230150   1.627   2.195  10.965  1.1132 -1.7401  0.2028
 6172SOL     OW30151   3.261   0.609  14.148  0.5850  0.4329 -0.2254
 6172SOL    HW130152   3.253   0.521  14.184 -2.5983 -0.5903 -3.3430
 6172SOL    HW230153   3.350   0.635  14.169  0.1526  3.0750 -1.7582
 6173SOL     OW30154   0.239   0.410   1.237 -0.5321 -0.0390  0.1876
 6173SOL    HW130155   0.192   0.370   1.310  0.4823 -0.1785  0.7475
 6173SOL    HW230156   0.249   0.337   1.175  1.3651  2.0794 -2.0114
 6174SOL     OW30157   1.672   4.490   1.785 -0.1557 -0.0293 -0.2626
 6174SOL    HW130158   1.592   4.542   1.783  0.7263  1.3128 -0.3832
 6174SOL    HW230159   1.723   4.536   1.852 -0.5275  1.9584 -1.3618
 6175SOL     OW30160   2.512   0.917   1.417  0.1074 -0.1412  0.8903
 6175SOL    HW130161   2.471   0.833   1.398  1.7564 -0.5504 -0.8326
 6175SOL    HW230162   2.444   0.984   1.409  0.0262 -0.4138 -0.6039
 6176SOL     OW30163   2.343   0.757   9.243 -0.0189  0.7164 -0.0420
 6176SOL    HW130164   2.330   0.668   9.209 -0.4963 -0.0495  2.1347
 6176SOL    HW230165   2.265   0.806   9.218  0.2902  0.0758 -2.3013
 6177SOL     OW30166   2.886   3.943   4.677 -0.4026 -0.7360  0.0195
 6177SOL    HW130167   2.808   3.992   4.702  0.5707  1.4924 -1.4002
 6177SOL    HW230168   2.886   3.948   4.582  0.5757  1.9591  0.1755
 6178SOL     OW30169   1.691   0.552   0.594  0.5575 -0.0142 -0.5509
 6178SOL    HW130170   1.628   0.481   0.603  0.6445 -0.1489 -1.0139
 6178SOL    HW230171   1.642   0.633   0.578  0.1163  0.5539  3.5579
 6179SOL     OW30172   1.011   4.709  12.581  0.4230 -0.4352 -0.0647
 6179SOL    HW130173   0.953   0.043  12.617 -0.0848 -0.6977 -0.3877
 6179SOL    HW230174   1.090   4.734  12.629 -0.1657  0.0333  0.6602
 6180SOL     OW30175   0.299   1.671   7.649  0.6487  0.6294  0.8861
 6180SOL    HW130176   0.390   1.652   7.672  1.6953  1.8406 -2.2992
 6180SOL    HW230177   0.249   1.639   7.724 -2.5831  1.9124 -0.7465
 6181SOL     OW30178   2.834   0.833   5.808  0.5357 -0.2575  0.2979
 6181SOL    HW130179   2.860   0.794   5.725  1.9384  1.4426 -0.0625
 6181SOL    HW230180   2.766   0.890   5.771  0.1913 -0.4280  0.6701
 6182SOL     OW30181   1.769   3.292   2.867 -0.3048 -0.1842 -0.6011
 6182SOL    HW130182   1.703   3.291   2.798 -1.2968 -0.1561  0.3497
 6182SOL    HW230183   1.805   3.204   2.853 -0.3153 -0.5393  1.6307
 6183SOL     OW30184   4.172   0.718   9.825  0.1096 -0.4455  0.2903
 6183SOL    HW130185   4.255   0.718   9.873  1.1027  1.4684 -1.4408
 6183SOL    HW230186   4.115   0.774   9.877  0.1915 -0.4327  0.3663
 6184SOL     OW30187   3.267   0.453  12.224  0.4383 -0.8850  0.1328
 6184SOL    HW130188   3.286   0.543  12.198  1.8164 -1.3804 -0.6076
 6184SOL    HW230189   3.230   0.419  12.143 -0.6819 -1.6603  0.9767
 6185SOL     OW30190   2.074   0.358   2.151 -0.2443  0.4542  0.0610
 6185SOL    HW130191   2.097   0.442   2.109  1.8349 -0.3343 -0.4085
 6185SOL    HW230192   2.141   0.359   2.220  0.2729 -2.7503 -0.4215
 6186SOL     OW30193   1.546   3.013  14.824  0.4677  0.1151  0.0052
 6186SOL    HW130194   1.564   3.106  14.834  1.4185 -0.0384 -0.3140
 6186SOL    HW230195   1.627   2.968  14.848  0.1316 -0.3388  0.2962
 6187SOL     OW30196   0.076   1.767   5.236 -0.6233 -0.2160 -0.0552
 6187SOL    HW130197   0.107   1.763   5.326  1.7047 -1.6229 -0.9304
 6187SOL    HW230198   0.069   1.672   5.222  0.3836 -0.2567 -0.2435
 6188SOL     OW30199   3.696   2.690   4.501 -0.5568 -0.0991  0.4147
 6188SOL    HW130200   3.688   2.636   4.423 -0.1193 -0.7487  0.8223
 6188SOL    HW230201   3.745   2.634   4.561 -0.4995 -0.7483 -0.2361
 6189SOL     OW30202   2.683   1.493   8.017  0.3384  0.4508 -0.2752
 6189SOL    HW130203   2.734   1.557   8.067 -0.2268  2.7737 -2.6201
 6189SOL    HW230204   2.741   1.418   8.007 -0.6215 -0.3946  0.6480
 6190SOL     OW30205   0.386   4.400   6.480 -0.4365 -0.4220 -0.9756
 6190SOL    HW130206   0.461   4.347   6.507 -1.4434 -0.2355  2.1859
 6190SOL    HW230207   0.331   4.333   6.437 -0.7939 -1.3326  0.9087
 6191SOL     OW30208   2.078   2.495   6.910 -0.1634  0.3665 -0.5373
 6191SOL    HW130209   2.026   2.542   6.975  0.4721 -0.0038  0.2411
 6191SOL    HW230210   2.077   2.556   6.837  0.7944 -0.9279 -1.6318
 6192SOL     OW30211   0.915   4.476   6.000  0.2139 -0.2693 -0.4176
 6192SOL    HW130212   0.973   4.414   6.045  0.1978  0.0404  0.0251
 6192SOL    HW230213   0.979   4.546   5.983  2.0199 -2.6761 -3.5038
 6193SOL     OW30214   1.320   2.469   3.514 -0.8800  0.4617 -0.3330
 6193SOL    HW130215   1.357   2.504   3.433  1.4005 -0.3702  0.3491
 6193SOL    HW230216   1.376   2.395   3.536  0.1652  1.2367 -0.3800
 6194SOL     OW30217   3.870   1.011  13.959 -0.3091 -0.2465 -0.3555
 6194SOL    HW130218   3.947   0.964  13.928 -0.1621 -0.5984  0.5268
 6194SOL    HW230219   3.889   1.103  13.940 -2.5631  0.4393  0.7005
 6195SOL     OW30220   0.559   1.726   0.832 -0.1215  0.2434  0.0039
 6195SOL    HW130221   0.480   1.673   0.840  0.1527 -0.7250 -3.3076
 6195SOL    HW230222   0.554   1.766   0.918  1.4092  2.2030 -0.8010
 6196SOL     OW30223   1.174   0.672   4.594  0.3988  0.0710  0.4299
 6196SOL    HW130224   1.087   0.651   4.628 -0.3142  1.6238 -0.4756
 6196SOL    HW230225   1.200   0.585   4.563  0.8880 -0.2723  1.7894
 6197SOL     OW30226   3.026   2.415  11.205 -0.1171  0.1524 -0.4369
 6197SOL    HW130227   2.948   2.399  11.258 -1.2580  1.1829 -1.8258
 6197SOL    HW230228   3.008   2.367  11.125 -4.3986 -1.0099  1.2347
 6198SOL     OW30229   1.774   1.348   9.011  0.8359 -0.4324  0.0693
 6198SOL    HW130230   1.851   1.297   8.986 -0.0373 -1.4317 -0.5725
 6198SOL    HW230231   1.732   1.278   9.061  1.1728 -1.0468 -0.5195
 6199SOL     OW30232   1.305   0.754   1.562  0.0643  0.0378 -0.3986
 6199SOL    HW130233   1.336   0.780   1.649  0.7668 -0.6595 -0.4415
 6199SOL    HW230234   1.326   0.841   1.528 -1.6666  2.0649  3.7768
 6200SOL     OW30235   2.499   1.372  10.198 -0.2281 -0.5672 -0.4228
 6200SOL    HW130236   2.508   1.279  10.177  1.5974 -1.1335  2.9637
 6200SOL    HW230237   2.423   1.370  10.257 -1.6333 -0.6565 -2.2223
 6201SOL     OW30238   3.070   1.460  16.775 -0.4326 -0.0048 -0.1455
 6201SOL    HW130239   2.977   1.480  16.765  0.2766  2.7597 -1.1067
 6201SOL    HW230240   3.083   1.366  16.760  1.7326  0.3409 -0.5358
 6202SOL     OW30241   3.383   0.696   4.731  0.1836  0.1334 -0.0833
 6202SOL    HW130242   3.433   0.718   4.810 -2.1616  0.6877  1.2297
 6202SOL    HW230243   3.434   0.623   4.694 -0.6046 -0.3442 -0.2205
 6203SOL     OW30244   1.926   4.159   0.714  0.1858  0.6339 -0.1114
 6203SOL    HW130245   1.918   4.069   0.748 -1.6503  0.7844 -0.1677
 6203SOL    HW230246   1.867   4.152   0.639 -0.2638  0.2022  0.2814
 6204SOL     OW30247   4.677   4.111   4.593  0.0890  0.2063  0.0193
 6204SOL    HW130248   4.687   4.125   4.498  1.0743  1.2582  0.2742
 6204SOL    HW230249   4.590   4.152   4.601 -2.2846 -4.9136  0.2039
 6205SOL     OW30250   4.277   4.271  13.752 -0.4880 -0.0951  0.1859
 6205SOL    HW130251   4.258   4.305  13.839 -1.5796 -0.2649  0.0041
 6205SOL    HW230252   4.360   4.318  13.740  0.5218 -1.6811  1.0205
 6206SOL     OW30253   3.565   1.130   4.533  0.4745 -0.2588  0.0488
 6206SOL    HW130254   3.642   1.171   4.573  2.8675 -2.8062 -1.9690
 6206SOL    HW230255   3.572   1.155   4.441  1.5662  0.8926  0.4496
 6207SOL     OW30256   0.773   2.616   3.127 -0.5862 -0.3754  0.5059
 6207SOL    HW130257   0.863   2.648   3.117 -0.9825  0.8466  0.8913
 6207SOL    HW230258   0.729   2.663   3.056 -1.3262 -3.3478 -1.0461
 6208SOL     OW30259   3.772   2.401   8.671 -0.6921  0.3534 -0.7218
 6208SOL    HW130260   3.676   2.396   8.671 -0.6744  0.0320  0.3918
 6208SOL    HW230261   3.801   2.333   8.732  0.0416  0.6804 -0.7082
 6209SOL     OW30262   0.738   0.187   7.198 -0.2832 -0.3241  0.2032
 6209SOL    HW130263   0.799   0.168   7.127 -3.0756  2.8124 -3.0757
 6209SOL    HW230264   0.712   0.101   7.231  1.9573 -0.8312  0.6256
 6210SOL     OW30265   3.128   1.806   8.913  0.0514  0.3833  0.4750
 6210SOL    HW130266   3.056   1.868   8.899 -0.5377 -0.3130  0.4183
 6210SOL    HW230267   3.207   1.861   8.909  1.1635 -1.1494  1.2662
 6211SOL     OW30268   1.622   2.805   4.941 -0.1878  0.3354  0.2547
 6211SOL    HW130269   1.650   2.716   4.961 -0.1552  0.2305 -0.2473
 6211SOL    HW230270   1.641   2.845   5.026  1.4027  0.6164 -0.2395
 6212SOL     OW30271   0.632   0.998   3.329 -0.2846 -0.7074  0.0369
 6212SOL    HW130272   0.626   0.970   3.421  3.3432  0.2967  0.5714
 6212SOL    HW230273   0.581   0.930   3.283 -0.0169 -0.4560 -0.6252
 6213SOL     OW30274   4.634   3.396   7.706 -0.0927  0.0911  0.2818
 6213SOL    HW130275   4.659   3.436   7.789 -1.3186  0.8211  0.2877
 6213SOL    HW230276   4.618   3.315   7.756 -1.7251 -0.0621 -0.5009
 6214SOL     OW30277   3.565   1.311   9.635 -0.1389 -0.1201  0.4471
 6214SOL    HW130278   3.641   1.267   9.599  0.9731  1.6376  0.6319
 6214SOL    HW230279   3.501   1.252   9.596 -0.7127  1.0244 -0.3386
 6215SOL     OW30280   2.511   2.661   3.483 -0.1147  0.3160 -0.0101
 6215SOL    HW130281   2.596   2.687   3.446  0.8916 -0.6197  1.6464
 6215SOL    HW230282   2.541   2.611   3.559 -1.7925 -1.3070 -0.4093
 6216SOL     OW30283   1.637   0.816   1.802 -0.1282  0.2780  0.2109
 6216SOL    HW130284   1.604   0.756   1.868  0.6479 -0.2843  0.0848
 6216SOL    HW230285   1.678   0.758   1.738  0.6400  1.3494 -0.2776
 6217SOL     OW30286   2.269   1.403   9.987  0.0178 -0.0963 -0.5517
 6217SOL    HW130287   2.358   1.434   9.971 -1.8973  4.4115 -2.2235
 6217SOL    HW230288   2.248   1.339   9.919 -0.2525 -1.9717  1.2973
 6218SOL     OW30289   4.225   0.227   7.348 -0.4397 -0.7472 -0.2589
 6218SOL    HW130290   4.168   0.300   7.372  0.6085  0.0717 -0.2928
 6218SOL    HW230291   4.158   0.165   7.319 -2.5323  2.2082 -1.7359
 6219SOL     OW30292   4.264   1.804  17.026 -0.1882 -0.2886  0.1950
 6219SOL    HW130293   4.334   1.741  17.042  0.9727  0.2566 -2.7283
 6219SOL    HW230294   4.235   1.763  16.944  0.3398 -0.6526  0.1924
 6220SOL     OW30295   4.294   0.245   2.194  0.8563 -0.0390  0.5056
 6220SOL    HW130296   4.298   0.283   2.106 -0.3262 -0.7146  0.1590
 6220SOL    HW230297   4.203   0.219   2.209  0.4422  1.6262  0.8404
 6221SOL     OW30298   4.287   4.469   4.326 -0.2632  0.0661 -0.3098
 6221SOL    HW130299   4.224   4.428   4.267  1.1708 -0.3603 -1.5488
 6221SOL    HW230300   4.341   4.528   4.273  0.1093  1.3746  1.4941
 6222SOL     OW30301   4.171   2.968  14.437 -0.4981 -0.0242  0.1890
 6222SOL    HW130302   4.200   3.021  14.511 -0.1407 -0.4332  0.3453
 6222SOL    HW230303   4.116   3.028  14.388  2.0553  1.5675 -0.7366
 6223SOL     OW30304   3.516   3.919  10.548 -0.1815 -0.1414  0.4162
 6223SOL    HW130305   3.470   3.855  10.494  0.9631 -0.2219 -0.4501
 6223SOL    HW230306   3.537   3.858  10.619 -0.9025 -1.2587 -0.3411
 6224SOL     OW30307   3.932   2.706   4.181  0.1419  0.1043  0.4107
 6224SOL    HW130308   3.989   2.714   4.258  0.8355  0.9896 -0.1920
 6224SOL    HW230309   3.967   2.778   4.128 -0.2449 -0.7277 -0.9812
 6225SOL     OW30310   1.220   2.026   8.957  0.5662  0.1157 -0.6747
 6225SOL    HW130311   1.212   1.962   9.028  0.1349  0.6816 -0.2170
 6225SOL    HW230312   1.174   1.980   8.887 -2.1237 -1.0170  1.8311
 6226SOL     OW30313   0.118   4.368   9.732 -0.9464 -0.1532  0.1639
 6226SOL    HW130314   0.028   4.340   9.714 -0.5493 -1.1257 -0.3126
 6226SOL    HW230315   0.156   4.291   9.775  0.6189 -0.0937 -1.0865
 6227SOL     OW30316   0.214   1.659   6.701 -0.3249 -0.7616 -0.1216
 6227SOL    HW130317   0.125   1.636   6.676 -0.1947 -0.7585 -0.5968
 6227SOL    HW230318   0.205   1.722   6.773  0.4815 -0.7337 -0.0426
 6228SOL     OW30319   0.558   1.707   5.960 -0.1070  0.2627 -0.3853
 6228SOL    HW130320   0.619   1.723   6.032 -2.5673  1.0971  1.5010
 6228SOL    HW230321   0.554   1.611   5.966 -0.6207  0.4295  2.0064
 6229SOL     OW30322   2.867   1.240   0.363  0.2029  0.4368  0.2374
 6229SOL    HW130323   2.801   1.271   0.424 -0.1182 -0.2274  0.2240
 6229SOL    HW230324   2.913   1.173   0.413 -0.8191 -0.6549 -0.2944
 6230SOL     OW30325   1.997   0.303   8.822 -0.1530  0.0711  0.4231
 6230SOL    HW130326   1.938   0.378   8.809  0.7721  0.8433  0.6398
 6230SOL    HW230327   1.948   0.224   8.801 -1.8152  1.0178  0.8083
 6231SOL     OW30328   4.000   4.250  16.342  0.1358 -1.1764  0.6303
 6231SOL    HW130329   3.911   4.230  16.316 -0.9780  2.4093  1.6174
 6231SOL    HW230330   3.989   4.300  16.424  0.2028  2.1780 -1.3887
 6232SOL     OW30331   2.600   3.182  17.522  0.2901  0.1526  0.2679
 6232SOL    HW130332   2.587   3.194  17.428 -0.8888 -1.9227  0.1730
 6232SOL    HW230333   2.651   3.102  17.536 -1.8032 -1.1588  0.3232
 6233SOL     OW30334   0.769   0.453   2.733  0.2445  0.0680  0.0574
 6233SOL    HW130335   0.772   0.491   2.645  1.2692  0.8658  0.4406
 6233SOL    HW230336   0.856   0.413   2.741  0.8522  1.4972  0.4706
 6234SOL     OW30337   2.096   2.010   7.741  0.0396  0.0935 -0.5024
 6234SOL    HW130338   2.146   2.079   7.696 -1.9863 -0.0711 -2.9899
 6234SOL    HW230339   2.077   2.059   7.821  1.7542  2.7532 -1.7096
 6235SOL     OW30340   4.127   1.903   2.792  0.4882  0.7065 -0.2503
 6235SOL    HW130341   4.040   1.925   2.758  1.0772  1.4583 -1.2767
 6235SOL    HW230342   4.169   1.989   2.798  0.3693  0.8248 -1.0578
 6236SOL     OW30343   3.758   2.640   0.020  0.3321 -0.3411 -0.0010
 6236SOL    HW130344   3.803   2.686   0.090  0.3697  0.1481 -0.3470
 6236SOL    HW230345   3.829   2.586  17.720  0.4430 -2.1549  2.9581
 6237SOL     OW30346   1.627   2.075   7.977  0.0026 -0.1189 -0.2080
 6237SOL    HW130347   1.669   2.108   7.898  1.1962 -2.2317 -0.4484
 6237SOL    HW230348   1.702   2.088   8.035  0.6232 -0.5357 -0.9310
 6238SOL     OW30349   1.944   0.339   3.453 -0.3077  0.1226 -0.0415
 6238SOL    HW130350   1.909   0.250   3.457  0.0943  0.0092  0.9455
 6238SOL    HW230351   1.943   0.366   3.545 -2.3712  0.4483 -0.1577
 6239SOL     OW30352   3.974   3.088   1.062 -0.1729  0.2326  0.4853
 6239SOL    HW130353   4.043   3.086   1.128  0.0113  0.8589  0.3111
 6239SOL    HW230354   4.031   3.097   0.986 -0.9035  1.2067  0.0536
 6240SOL     OW30355   2.639   1.911   9.332 -0.2612 -0.4887 -0.0500
 6240SOL    HW130356   2.646   1.838   9.270  1.1165  2.2542 -3.0964
 6240SOL    HW230357   2.572   1.870   9.387 -3.2062  2.5974 -1.2598
 6241SOL     OW30358   1.452   1.948   6.144 -0.3302  0.4014  0.5683
 6241SOL    HW130359   1.532   2.001   6.151 -0.5064  0.5370  1.5159
 6241SOL    HW230360   1.386   2.016   6.126 -0.9011 -0.5659 -0.9801
 6242SOL     OW30361   3.567   2.533  15.592  0.0164 -0.1018 -0.1736
 6242SOL    HW130362   3.543   2.447  15.626  0.3506  0.2520  0.9548
 6242SOL    HW230363   3.584   2.579  15.674 -1.5240 -0.8266  0.5595
 6243SOL     OW30364   1.667   1.610   7.858 -0.0809 -0.0213 -0.1564
 6243SOL    HW130365   1.663   1.579   7.768 -2.5710  2.0640 -0.7927
 6243SOL    HW230366   1.623   1.696   7.859  0.8521  0.4322  1.1931
 6244SOL     OW30367   0.248   4.005   8.912  0.1241 -0.4617 -0.2493
 6244SOL    HW130368   0.318   4.048   8.862  0.1980  0.5273  0.7183
 6244SOL    HW230369   0.275   4.030   9.000  1.8732 -0.5634 -0.7468
 6245SOL     OW30370   3.673   0.688   5.628 -0.5218  0.1399 -0.1387
 6245SOL    HW130371   3.631   0.760   5.675  1.1984  0.9772  0.1080
 6245SOL    HW230372   3.747   0.667   5.685 -0.5020 -0.2885 -0.3196
 6246SOL     OW30373   3.277   0.081  14.619 -0.1946  0.0581  0.7412
 6246SOL    HW130374   3.188   0.110  14.595 -1.2254 -3.3812  0.4291
 6246SOL    HW230375   3.261   0.046  14.707  0.8399 -0.4422  0.7277
 6247SOL     OW30376   2.260   2.262   4.496  0.4405 -0.1525  0.2919
 6247SOL    HW130377   2.242   2.220   4.411  0.6808  1.1437 -0.3907
 6247SOL    HW230378   2.179   2.311   4.508  0.1241 -0.7812  0.7388
 6248SOL     OW30379   1.099   3.154   9.869 -0.0662  0.0036  0.3711
 6248SOL    HW130380   1.015   3.130   9.831 -0.9601  1.1735  1.6509
 6248SOL    HW230381   1.153   3.078   9.846 -2.0668 -1.8826  1.9808
 6249SOL     OW30382   3.186   1.037   7.377 -0.3358  0.4773 -0.3318
 6249SOL    HW130383   3.163   1.094   7.303 -2.9948  0.6613  0.6084
 6249SOL    HW230384   3.262   0.993   7.340 -1.0661 -2.5260  1.6904
 6250SOL     OW30385   0.477   0.440   8.559 -0.1530  0.1092 -0.1900
 6250SOL    HW130386   0.495   0.422   8.651  3.2100 -3.7871 -1.6126
 6250SOL    HW230387   0.498   0.358   8.515 -3.3027  0.2725 -2.0566
 6251SOL     OW30388   0.733   2.350   3.169 -0.1547  0.0011  0.2493
 6251SOL    HW130389   0.747   2.442   3.148  0.9103  0.1083  1.4415
 6251SOL    HW230390   0.743   2.319   3.079  0.7385  0.9923  0.0219
 6252SOL     OW30391   2.219   4.018   7.327  0.1111  1.0086 -0.1705
 6252SOL    HW130392   2.135   4.050   7.295 -0.0478 -0.2006 -0.9518
 6252SOL    HW230393   2.232   4.057   7.414  0.1194 -0.8125  0.6558
 6253SOL     OW30394   4.488   2.467   9.661  0.2815 -0.0915 -0.2906
 6253SOL    HW130395   4.524   2.555   9.654  1.1185 -0.5641 -2.0071
 6253SOL    HW230396   4.562   2.416   9.627 -0.0576 -1.1257  0.5212
 6254SOL     OW30397   3.274   0.740  12.145 -0.6799  0.0623 -0.0570
 6254SOL    HW130398   3.299   0.829  12.121 -0.2012 -0.5731 -1.8953
 6254SOL    HW230399   3.196   0.726  12.091  0.3456 -0.8858 -1.2795
 6255SOL     OW30400   1.903   4.515  15.685 -0.2344  0.2392  0.4854
 6255SOL    HW130401   1.842   4.504  15.758 -1.2834 -0.8435 -0.5511
 6255SOL    HW230402   1.899   4.429  15.642 -0.3021  0.7760 -0.5839
 6256SOL     OW30403   3.225   3.173   5.895  0.1992 -0.1275  0.4846
 6256SOL    HW130404   3.148   3.204   5.847 -1.4091 -1.1803  2.3948
 6256SOL    HW230405   3.277   3.123   5.832  1.0500 -1.3986  2.2137
 6257SOL     OW30406   1.899   3.684   3.054  0.1146  0.5535 -0.9368
 6257SOL    HW130407   1.943   3.628   2.990 -1.3876  0.5821 -2.0067
 6257SOL    HW230408   1.946   3.672   3.136  0.4786 -0.9761 -1.3814
 6258SOL     OW30409   0.821   4.723   8.308 -0.1136  0.0654  0.1210
 6258SOL    HW130410   0.866   0.000   8.391 -0.6435 -0.8907  0.5496
 6258SOL    HW230411   0.757   0.060   8.301  1.5743  1.5164 -0.5607
 6259SOL     OW30412   1.123   3.538   4.292  0.2489 -0.1740 -0.1360
 6259SOL    HW130413   1.178   3.599   4.244 -0.4022  1.0432  0.6483
 6259SOL    HW230414   1.188   3.490   4.343 -2.8126 -1.8595  2.2008
 6260SOL     OW30415   2.489   0.520  10.155 -0.6486  0.4502 -0.0783
 6260SOL    HW130416   2.495   0.534  10.249  1.2388  1.3840 -0.3428
 6260SOL    HW230417   2.405   0.564  10.137 -1.3195 -1.4852 -1.6476
 6261SOL     OW30418   0.388   1.807   7.276 -0.2772 -0.3960  0.3988
 6261SOL    HW130419   0.440   1.771   7.204 -0.6813  2.0215 -1.0979
 6261SOL    HW230420   0.359   1.890   7.239 -2.1497 -0.4005  1.8546
 6262SOL     OW30421   4.536   3.282  11.907 -0.2821 -0.4231  0.6890
 6262SOL    HW130422   4.565   3.266  11.997  0.3179 -1.3926  0.3226
 6262SOL    HW230423   4.545   3.196  11.866 -0.5363  0.3260 -0.9270
 6263SOL     OW30424   2.083   4.439   3.973  0.0319  0.1289 -0.3309
 6263SOL    HW130425   1.990   4.449   3.954 -0.1804  0.1643  0.7027
 6263SOL    HW230426   2.129   4.499   3.915 -0.6971  2.1163  1.1478
 6264SOL     OW30427   3.720   2.238   9.408  0.0061 -0.0342 -0.5106
 6264SOL    HW130428   3.799   2.291   9.397  0.7006 -1.3917 -1.9350
 6264SOL    HW230429   3.697   2.254   9.500  0.1829  0.3186 -0.5275
 6265SOL     OW30430   0.845   2.970  11.607 -0.0151 -0.1685  0.6064
 6265SOL    HW130431   0.819   3.033  11.539 -0.5495 -0.8726  0.1643
 6265SOL    HW230432   0.842   3.021  11.689 -0.1935 -1.9798  1.7142
 6266SOL     OW30433   3.819   0.584   2.654 -0.6627  0.1494 -0.4249
 6266SOL    HW130434   3.850   0.505   2.698 -0.4207 -0.6479 -2.0471
 6266SOL    HW230435   3.906   0.618   2.637  0.0713 -2.8468 -2.6672
 6267SOL     OW30436   0.087   4.300   5.071  0.4368  0.2940  0.3351
 6267SOL    HW130437   0.178   4.279   5.093 -0.7237 -2.7525  2.2205
 6267SOL    HW230438   0.086   4.388   5.109  2.1751  0.5644 -0.2548
 6268SOL     OW30439   1.594   0.423   7.174 -0.7886 -0.4345  0.4481
 6268SOL    HW130440   1.546   0.346   7.206  0.5490 -1.1290  0.8019
 6268SOL    HW230441   1.517   0.478   7.160  1.1587  2.4545  1.0847
 6269SOL     OW30442   1.942   4.501   0.851 -0.1470 -0.7976  0.2317
 6269SOL    HW130443   1.980   4.499   0.763  1.1620  1.5959  0.7319
 6269SOL    HW230444   1.878   4.430   0.848  2.7189 -3.3295 -0.6524
 6270SOL     OW30445   3.940   4.384   5.824  0.2682  0.3266  0.4161
 6270SOL    HW130446   3.973   4.387   5.734  0.0942  0.8818  0.3660
 6270SOL    HW230447   3.847   4.382   5.798  0.5355  0.1997 -0.5402
 6271SOL     OW30448   0.123   3.494   3.124 -0.2783  0.0675 -1.0367
 6271SOL    HW130449   0.031   3.489   3.100 -1.5341  1.0801  3.5045
 6271SOL    HW230450   0.146   3.580   3.089  2.2222  0.7231  2.1491
 6272SOL     OW30451   3.227   4.471  11.812 -0.1455  0.2563 -0.5997
 6272SOL    HW130452   3.270   4.386  11.821  1.7070  1.5181  2.2764
 6272SOL    HW230453   3.290   4.524  11.861 -1.2387  0.7409  0.2658
 6273SOL     OW30454   3.684   1.344   9.885  0.1515 -0.8632 -0.7059
 6273SOL    HW130455   3.628   1.420   9.903 -1.7178 -2.1980 -0.7845
 6273SOL    HW230456   3.658   1.331   9.794  3.3362  1.9372 -1.9918
 6274SOL     OW30457   3.911   3.569   7.680  0.3994 -0.1429  0.1615
 6274SOL    HW130458   3.972   3.618   7.625  1.2495  0.6833  1.8595
 6274SOL    HW230459   3.979   3.535   7.739  0.1368 -0.9668 -0.0150
 6275SOL     OW30460   2.354   3.893  15.812  0.4936  0.2906 -0.0154
 6275SOL    HW130461   2.298   3.873  15.887 -0.5919  0.3797 -0.7936
 6275SOL    HW230462   2.343   3.988  15.806 -1.9174 -0.0696 -1.5252
 6276SOL     OW30463   4.552   3.092   4.687  0.3385 -0.3941  0.1639
 6276SOL    HW130464   4.607   3.014   4.697  0.2491 -0.3779  0.7882
 6276SOL    HW230465   4.618   3.156   4.660  0.6159 -0.8436 -0.2361
 6277SOL     OW30466   4.530   2.698   4.520  0.1522  0.5623 -0.8169
 6277SOL    HW130467   4.531   2.736   4.433  1.0932 -1.7887 -1.8257
 6277SOL    HW230468   4.504   2.611   4.491  2.6598 -0.0558 -1.2111
 6278SOL     OW30469   1.984   1.024   6.580  0.5649  0.0299 -0.0635
 6278SOL    HW130470   1.935   0.944   6.559 -0.6561  0.3961  1.4423
 6278SOL    HW230471   2.059   0.988   6.627  0.0572 -0.1571  0.6039
 6279SOL     OW30472   2.007   0.585  10.164 -0.3220 -0.3291 -0.0119
 6279SOL    HW130473   2.010   0.636  10.245 -1.7101 -0.7820  0.3280
 6279SOL    HW230474   1.915   0.563  10.150 -0.4402  0.8847 -1.1807
 6280SOL     OW30475   1.846   2.296  14.670 -0.0467  0.4739 -0.0715
 6280SOL    HW130476   1.770   2.352  14.654 -0.3239  0.3161  0.6992
 6280SOL    HW230477   1.863   2.301  14.764 -2.2754  0.3826  0.3413
 6281SOL     OW30478   3.130   1.227   1.876 -0.2289 -0.3490 -0.7569
 6281SOL    HW130479   3.191   1.153   1.873  0.0066 -0.1695 -0.4901
 6281SOL    HW230480   3.116   1.241   1.783 -2.3055  1.7360 -0.1234
 6282SOL     OW30481   1.351   3.848   8.960  0.2996 -0.0871  0.1125
 6282SOL    HW130482   1.332   3.916   9.024 -3.1119  1.1671 -2.2113
 6282SOL    HW230483   1.407   3.798   9.019  1.1204 -1.6620 -1.9770
 6283SOL     OW30484   4.342   2.844   6.144 -0.0406 -0.8807  0.5324
 6283SOL    HW130485   4.430   2.866   6.115 -0.5399 -2.0334 -1.8402
 6283SOL    HW230486   4.343   2.918   6.204 -0.6337 -1.7334  1.6127
 6284SOL     OW30487   4.170   0.683  15.916  0.0589 -0.5769  0.0993
 6284SOL    HW130488   4.087   0.645  15.886 -1.6373  3.2554 -0.1511
 6284SOL    HW230489   4.229   0.680  15.841 -0.8479  0.3550 -0.6643
 6285SOL     OW30490   0.415   3.599  14.985  0.3741  0.5437  0.4326
 6285SOL    HW130491   0.480   3.601  14.914 -1.5329 -0.8617 -1.3622
 6285SOL    HW230492   0.390   3.509  14.968 -3.0718  1.9044 -1.7071
 6286SOL     OW30493   1.328   3.433   3.991 -0.1674 -0.1937 -0.0858
 6286SOL    HW130494   1.371   3.399   4.069  1.8493 -0.7373 -1.4337
 6286SOL    HW230495   1.344   3.526   4.006 -1.1863  0.2361 -1.6207
 6287SOL     OW30496   4.488   3.561   6.621 -0.0952 -0.0386  0.1120
 6287SOL    HW130497   4.515   3.581   6.710  0.2768  1.1669 -0.2731
 6287SOL    HW230498   4.529   3.637   6.579  1.2802  0.3875  2.2353
 6288SOL     OW30499   3.392   1.342   4.882 -0.0186  0.6449  0.0422
 6288SOL    HW130500   3.367   1.328   4.790 -2.0003  1.2414  0.4777
 6288SOL    HW230501   3.486   1.351   4.870  0.0716 -1.4166 -0.7216
 6289SOL     OW30502   2.914   4.399  16.710 -0.2086  0.4666  0.6762
 6289SOL    HW130503   2.977   4.345  16.759  0.5953 -0.2948 -1.2038
 6289SOL    HW230504   2.878   4.458  16.776 -0.7422  0.7936  0.0906
 6290SOL     OW30505   4.684   0.270  17.071  0.1965 -0.2975 -0.3313
 6290SOL    HW130506   4.711   0.329  17.141  0.9345 -0.9982 -0.0268
 6290SOL    HW230507   4.657   0.195  17.124 -0.3094  0.7964  0.9603
 6291SOL     OW30508   2.501   0.131   2.776  0.2829  0.5021  0.3933
 6291SOL    HW130509   2.428   0.087   2.733  0.6864  0.6172 -0.4186
 6291SOL    HW230510   2.470   0.221   2.778  0.1728  0.4192  2.2752
 6292SOL     OW30511   3.023   2.342   3.551 -0.3673 -0.1085  0.7157
 6292SOL    HW130512   3.067   2.295   3.480 -2.4205  0.8673 -1.2056
 6292SOL    HW230513   2.977   2.406   3.496 -0.0793 -2.8429 -2.7467
 6293SOL     OW30514   3.291   1.321   9.473 -0.3484  0.5348 -0.2630
 6293SOL    HW130515   3.275   1.290   9.384 -1.0572 -3.2454  1.1884
 6293SOL    HW230516   3.300   1.244   9.528  0.1749  2.4897  2.3914
 6294SOL     OW30517   4.025   3.179   3.984  0.3277 -0.2982  0.2009
 6294SOL    HW130518   4.104   3.209   3.938  0.3702 -0.3575  0.2362
 6294SOL    HW230519   3.999   3.104   3.931  3.2686 -0.0891 -1.5522
 6295SOL     OW30520   2.949   1.215   5.433 -0.0164  0.6089 -0.2274
 6295SOL    HW130521   3.038   1.224   5.466 -0.2567  2.2835 -0.0579
 6295SOL    HW230522   2.968   1.173   5.348  0.9881 -2.1284  1.3488
 6296SOL     OW30523   1.147   0.788  12.440  0.1155 -0.1791 -0.8183
 6296SOL    HW130524   1.138   0.840  12.361 -1.3112  0.6648 -0.1077
 6296SOL    HW230525   1.207   0.836  12.496 -0.6409 -1.7420  1.3479
 6297SOL     OW30526   0.856   3.061   3.882  0.1352  0.5296 -0.2309
 6297SOL    HW130527   0.891   3.131   3.936 -0.3167  0.9589 -0.4994
 6297SOL    HW230528   0.944   3.025   3.868  0.0694  0.6487 -0.9409
 6298SOL     OW30529   0.235   4.561   5.925  0.6141  0.2581  0.0226
 6298SOL    HW130530   0.163   4.557   5.862 -1.6137 -0.6906  2.6028
 6298SOL    HW230531   0.278   4.477   5.916  0.1496 -0.0994  1.1509
 6299SOL     OW30532   4.031   3.067  17.361  0.1654  0.1793  0.0847
 6299SOL    HW130533   3.952   3.014  17.356  0.9868 -1.1352  1.0677
 6299SOL    HW230534   4.013   3.128  17.289 -0.5226  0.1921  0.2696
 6300SOL     OW30535   1.292   3.249   4.506  0.5730  0.2975 -0.2485
 6300SOL    HW130536   1.267   3.231   4.597  1.2183  1.5565  0.1851
 6300SOL    HW230537   1.333   3.336   4.508  1.7585 -0.3021  1.9721
 6301SOL     OW30538   2.009   2.598  10.687  0.4651 -0.1740  0.1220
 6301SOL    HW130539   1.923   2.629  10.657  1.4541 -0.4733 -2.9506
 6301SOL    HW230540   2.039   2.679  10.728 -1.3014  1.0249 -0.9575
 6302SOL     OW30541   1.032   0.832  15.135 -0.3795  0.2503  0.1253
 6302SOL    HW130542   1.105   0.892  15.152 -0.8105  1.3345 -1.8465
 6302SOL    HW230543   1.046   0.813  15.042  0.7780 -2.1076  0.7704
 6303SOL     OW30544   1.554   0.321   0.574 -0.1014  0.4373  0.1443
 6303SOL    HW130545   1.623   0.256   0.557  1.6969  1.9970  1.3896
 6303SOL    HW230546   1.478   0.270   0.545  1.5717 -0.4406 -2.6785
 6304SOL     OW30547   1.979   2.627   7.245  0.0786  0.1238  0.3149
 6304SOL    HW130548   2.039   2.701   7.258  1.7843 -1.2005  0.1213
 6304SOL    HW230549   1.960   2.604   7.336 -0.0450 -0.1579  0.2174
 6305SOL     OW30550   3.606   1.338   3.064 -0.3898  0.3095 -0.0113
 6305SOL    HW130551   3.616   1.424   3.024 -1.0939  0.5997  0.4523
 6305SOL    HW230552   3.527   1.314   3.015 -0.0844  2.1859 -1.4158
 6306SOL     OW30553   2.341   3.289   0.439 -0.0173  0.6137 -0.1004
 6306SOL    HW130554   2.380   3.276   0.525 -0.5406  0.8103  0.1695
 6306SOL    HW230555   2.397   3.233   0.386  0.4224  1.4221 -0.4843
 6307SOL     OW30556   2.262   2.238   4.107 -0.0917  0.2097 -0.3168
 6307SOL    HW130557   2.201   2.235   4.180  0.8536  0.0056  0.4528
 6307SOL    HW230558   2.315   2.160   4.123  0.1625  0.3911 -0.2702
 6308SOL     OW30559   0.919   3.908   4.870 -0.3655 -0.1847  0.2621
 6308SOL    HW130560   0.959   3.962   4.938  0.5974  1.8191 -1.9396
 6308SOL    HW230561   0.923   3.968   4.796 -2.6678  1.2457  1.2924
 6309SOL     OW30562   3.084   0.448  10.117 -0.4120  0.5235  0.1282
 6309SOL    HW130563   3.005   0.445  10.172  0.5689 -2.1687  1.3594
 6309SOL    HW230564   3.116   0.533  10.146  0.4526 -0.3989  1.8653
 6310SOL     OW30565   3.489   3.460   5.700 -0.3373  0.0792 -0.3883
 6310SOL    HW130566   3.497   3.398   5.626  0.1740 -0.5888  0.2267
 6310SOL    HW230567   3.581   3.464   5.728 -0.2024  0.9244 -0.9589
 6311SOL     OW30568   4.708   0.133  12.025  0.2978  0.2584 -0.1860
 6311SOL    HW130569   4.686   0.057  12.079 -1.9651  0.3725 -0.9483
 6311SOL    HW230570   4.713   0.193  12.099 -0.4421 -2.0976  1.7610
 6312SOL     OW30571   4.502   4.254  12.343  0.4675  0.2429 -0.4295
 6312SOL    HW130572   4.484   4.346  12.363 -2.5180 -0.5413  0.4637
 6312SOL    HW230573   4.596   4.241  12.354 -0.0856 -1.6480  2.0402
 6313SOL     OW30574   0.860   4.625   9.985 -0.7655  0.2681 -0.7305
 6313SOL    HW130575   0.771   4.598   9.964 -1.4644  2.0157 -0.0741
 6313SOL    HW230576   0.913   4.548   9.968 -1.1537 -0.3243  0.7425
 6314SOL     OW30577   2.114   4.357   3.600 -0.2376  0.3532  0.0229
 6314SOL    HW130578   2.203   4.367   3.634  0.1144  0.9669 -1.0660
 6314SOL    HW230579   2.132   4.399   3.516  0.7564  0.3806  0.2414
 6315SOL     OW30580   1.813   0.235  17.091  0.5665  0.4320 -0.1330
 6315SOL    HW130581   1.901   0.222  17.056  0.9374 -0.6319  1.1806
 6315SOL    HW230582   1.782   0.313  17.045  0.5698  0.9367  0.7173
 6316SOL     OW30583   1.705   2.510  14.563  0.3485 -0.2733  0.4088
 6316SOL    HW130584   1.638   2.561  14.608 -0.1736 -1.8821  1.4525
 6316SOL    HW230585   1.781   2.567  14.575 -0.6130  0.9137  0.8035
 6317SOL     OW30586   1.806   1.149  14.424  0.0975  0.0235 -0.1636
 6317SOL    HW130587   1.877   1.135  14.487 -1.9609 -2.6383  1.5807
 6317SOL    HW230588   1.852   1.210  14.367 -1.3214 -0.2024 -1.5534
 6318SOL     OW30589   4.645   3.005   2.833  0.0204  0.2437 -0.0568
 6318SOL    HW130590   4.595   3.075   2.791  0.0702  0.8892  0.9539
 6318SOL    HW230591   4.705   3.055   2.888 -0.1515  0.9970 -0.5571
 6319SOL     OW30592   4.195   3.240  13.696  0.0496 -0.2036 -0.2123
 6319SOL    HW130593   4.249   3.209  13.769 -1.8135 -0.4556  1.0528
 6319SOL    HW230594   4.156   3.313  13.745  1.1165 -0.0916  0.4941
 6320SOL     OW30595   1.496   0.660   3.967  0.3970 -0.4365 -0.1613
 6320SOL    HW130596   1.477   0.566   3.972 -0.7572 -0.3546 -2.9845
 6320SOL    HW230597   1.591   0.660   3.955  0.5247  1.0599  0.8340
 6321SOL     OW30598   3.257   1.490  11.316  0.7462  0.3370 -0.4231
 6321SOL    HW130599   3.349   1.484  11.291  1.7229  2.1836  2.6852
 6321SOL    HW230600   3.219   1.430  11.253  2.9580 -1.5201  0.0290
 6322SOL     OW30601   2.123   2.639  13.102 -0.0485 -0.5865  0.2456
 6322SOL    HW130602   2.143   2.631  13.009 -0.0225 -1.1968  0.3071
 6322SOL    HW230603   2.123   2.733  13.120  1.7847 -0.2716 -1.3938
 6323SOL     OW30604   2.636   4.335  11.742  0.1672 -0.2475  0.1013
 6323SOL    HW130605   2.671   4.412  11.786  0.1759 -0.8172  1.0897
 6323SOL    HW230606   2.548   4.333  11.780 -0.2712 -0.4025 -0.9196
 6324SOL     OW30607   1.047   2.195   4.332 -0.5031 -0.6530  0.6496
 6324SOL    HW130608   1.010   2.237   4.254 -1.0125 -0.2140  1.1241
 6324SOL    HW230609   1.026   2.103   4.318  2.5932 -1.4638  1.2685
 6325SOL     OW30610   2.690   1.158   6.016 -0.0659  0.0581  0.6448
 6325SOL    HW130611   2.671   1.090   6.080 -1.3516 -0.1245  0.0800
 6325SOL    HW230612   2.601   1.183   5.993  0.3651  1.1910  0.2014
 6326SOL     OW30613   2.410   3.111   9.839  1.0443  0.9267  0.9468
 6326SOL    HW130614   2.327   3.143   9.803  0.0139 -4.6963 -1.5800
 6326SOL    HW230615   2.385   3.080   9.926 -3.4790  0.0013 -0.7190
 6327SOL     OW30616   0.425   3.473   6.422 -0.5666  0.8892 -0.5150
 6327SOL    HW130617   0.519   3.469   6.442 -1.1713  1.5390  2.4939
 6327SOL    HW230618   0.428   3.429   6.337 -1.4538  1.5979 -0.9104
 6328SOL     OW30619   2.255   4.643   6.240  0.4730 -0.4927 -0.3250
 6328SOL    HW130620   2.337   4.598   6.261  1.5487  2.4592  1.8101
 6328SOL    HW230621   2.258   4.701   6.316  0.4590 -0.3862 -0.4048
 6329SOL     OW30622   3.093   2.655  11.291 -0.1374 -0.3081 -0.7846
 6329SOL    HW130623   3.060   2.565  11.294 -1.0062  0.0121 -0.8609
 6329SOL    HW230624   3.174   2.651  11.239  1.0466  3.9844  0.7415
 6330SOL     OW30625   2.958   0.208   7.952 -0.4815 -0.2827 -0.0277
 6330SOL    HW130626   3.037   0.169   7.915 -0.1062  1.0683 -0.6752
 6330SOL    HW230627   2.934   0.149   8.023 -0.7216 -0.0227  0.1081
 6331SOL     OW30628   4.240   1.396  17.256  0.1288 -0.5244  0.3735
 6331SOL    HW130629   4.213   1.487  17.269  0.0757 -0.2183 -1.8815
 6331SOL    HW230630   4.224   1.384  17.162  0.4305 -1.8517  0.4914
 6332SOL     OW30631   3.020   1.571   5.334  0.3508 -0.2466  0.1039
 6332SOL    HW130632   2.982   1.658   5.341  0.8946 -0.2002  2.5292
 6332SOL    HW230633   3.108   1.588   5.301  0.0285  2.7923  0.8280
 6333SOL     OW30634   0.202   2.488  12.151  0.0607  0.5936 -0.0577
 6333SOL    HW130635   0.250   2.567  12.127  0.2307  0.7939  0.9190
 6333SOL    HW230636   0.157   2.459  12.072 -0.5957 -1.3610  1.0186
 6334SOL     OW30637   1.119   3.799  11.843 -0.1964  0.2004 -0.0360
 6334SOL    HW130638   1.034   3.758  11.854 -0.2690  0.4781  0.4138
 6334SOL    HW230639   1.142   3.761  11.758 -0.6742  0.8492 -0.4485
 6335SOL     OW30640   2.646   4.044   2.841  0.7739  0.1697 -0.2744
 6335SOL    HW130641   2.676   3.955   2.859  0.6450 -0.0523 -1.1770
 6335SOL    HW230642   2.728   4.073   2.802 -0.3738  2.1474 -1.1950
 6336SOL     OW30643   4.552   1.513   6.266  0.3011  0.1567  0.1053
 6336SOL    HW130644   4.488   1.552   6.325  0.6284  0.7913  0.0423
 6336SOL    HW230645   4.513   1.430   6.237  0.4094  0.6697 -1.4762
 6337SOL     OW30646   2.505   1.435  16.969 -0.0054  0.0747  0.6141
 6337SOL    HW130647   2.533   1.527  16.962  0.9365 -0.2156  0.5852
 6337SOL    HW230648   2.591   1.394  16.973 -0.3006 -0.7071 -1.4604
 6338SOL     OW30649   1.004   2.432   6.268  0.2031 -0.4238 -0.2855
 6338SOL    HW130650   1.013   2.339   6.288 -2.3825 -1.1032 -2.2576
 6338SOL    HW230651   1.072   2.462   6.327 -1.1883  1.7797  0.1878
 6339SOL     OW30652   4.280   3.666   9.382 -0.2858  0.2852  0.3978
 6339SOL    HW130653   4.207   3.675   9.442 -0.4092 -0.9512  0.4325
 6339SOL    HW230654   4.237   3.624   9.308  0.6345  0.1463 -0.0676
 6340SOL     OW30655   0.901   0.530   7.031 -0.0850 -0.2879 -0.0325
 6340SOL    HW130656   0.850   0.579   7.096 -0.3027 -1.4718  0.6986
 6340SOL    HW230657   0.913   0.600   6.968  0.6293 -1.3850 -1.0988
 6341SOL     OW30658   0.349   3.974  11.756 -0.0348  0.1923 -0.6354
 6341SOL    HW130659   0.341   3.879  11.770 -1.8597  0.4689  0.2074
 6341SOL    HW230660   0.266   3.998  11.716 -0.7617 -0.7312  0.3044
 6342SOL     OW30661   1.956   3.580   0.670 -0.5168  0.3034 -0.2729
 6342SOL    HW130662   1.997   3.509   0.621 -2.0201 -0.7314 -0.0330
 6342SOL    HW230663   1.882   3.531   0.706 -0.5521 -0.3864 -1.2935
 6343SOL     OW30664   3.990   2.053  10.283 -0.5334 -0.3173  0.7348
 6343SOL    HW130665   3.940   2.002  10.219  0.3806  0.6280 -0.7253
 6343SOL    HW230666   3.987   2.139  10.242 -1.5655 -0.1778  1.1048
 6344SOL     OW30667   2.634   1.760   9.129  0.2956  0.3575  0.7932
 6344SOL    HW130668   2.693   1.722   9.065  0.7654 -0.5242  1.7694
 6344SOL    HW230669   2.625   1.848   9.092  0.1240  0.6256  1.4765
 6345SOL     OW30670   0.392   2.302   1.169  0.6220 -0.0911 -0.2956
 6345SOL    HW130671   0.481   2.297   1.202  0.2229 -2.4741  0.3768
 6345SOL    HW230672   0.358   2.329   1.254  0.1681  0.8995 -0.7880
 6346SOL     OW30673   2.643   1.345   5.659 -0.0848  0.0210  0.2934
 6346SOL    HW130674   2.625   1.298   5.577 -0.6282 -3.6196  2.4753
 6346SOL    HW230675   2.691   1.425   5.638 -0.5289  0.1856 -0.1179
 6347SOL     OW30676   3.878   1.413   8.295 -0.1842 -0.0921  0.9580
 6347SOL    HW130677   3.887   1.381   8.385 -1.9902 -3.1999  0.0418
 6347SOL    HW230678   3.884   1.336   8.239  2.3533 -0.3188  1.5193
 6348SOL     OW30679   1.988   4.679   9.456 -0.2611  0.3713 -0.4546
 6348SOL    HW130680   2.070   4.722   9.477 -1.1502  2.7696 -1.8879
 6348SOL    HW230681   1.957   0.004   9.388 -1.1938  0.3677 -0.0284
 6349SOL     OW30682   0.992   3.608   2.532  0.0657 -0.5823 -0.0296
 6349SOL    HW130683   0.911   3.569   2.565 -0.0956 -0.2690 -0.0527
 6349SOL    HW230684   0.998   3.693   2.576 -0.3839 -0.8930  0.6377
 6350SOL     OW30685   3.418   2.529   5.511  0.1232  0.3760 -0.4986
 6350SOL    HW130686   3.367   2.607   5.487 -0.8566 -0.6429 -1.7200
 6350SOL    HW230687   3.370   2.472   5.451 -0.1101  1.3439 -1.2456
 6351SOL     OW30688   4.415   2.455  17.532  0.9579 -0.6595 -0.1489
 6351SOL    HW130689   4.410   2.526  17.596 -1.6660  1.0915 -2.3228
 6351SOL    HW230690   4.496   2.466  17.482 -0.2990  1.5783 -1.7008
 6352SOL     OW30691   2.742   0.309   3.217 -0.0732  0.1486 -0.4380
 6352SOL    HW130692   2.808   0.338   3.155 -0.0955  0.0430 -0.5117
 6352SOL    HW230693   2.714   0.225   3.181  0.1462 -0.5573  1.0032
 6353SOL     OW30694   1.609   0.564   5.498  0.0842 -0.1977 -0.1377
 6353SOL    HW130695   1.549   0.616   5.551  0.4341 -1.5893  1.6249
 6353SOL    HW230696   1.588   0.606   5.414  0.5778  3.8914  1.7983
 6354SOL     OW30697   4.247   4.226   7.231  0.2446  0.2500 -0.4774
 6354SOL    HW130698   4.159   4.264   7.237 -1.1021 -2.5390 -2.5969
 6354SOL    HW230699   4.224   4.133   7.232 -2.3410  0.8562 -2.0668
 6355SOL     OW30700   1.001   0.623   9.331 -0.5038 -0.2365  0.2359
 6355SOL    HW130701   0.953   0.647   9.411 -0.0902 -1.1868  0.7649
 6355SOL    HW230702   1.004   0.527   9.328  1.1217 -0.1757 -0.0095
 6356SOL     OW30703   2.726   3.056   4.571  0.6129 -0.2786 -0.0213
 6356SOL    HW130704   2.792   3.119   4.599  1.8398 -1.4816 -0.1895
 6356SOL    HW230705   2.694   3.103   4.495  2.0150  0.4157 -0.1833
 6357SOL     OW30706   1.404   3.987   2.760 -0.4137  0.2492 -0.1699
 6357SOL    HW130707   1.438   3.991   2.670 -1.1638  0.1062 -0.4556
 6357SOL    HW230708   1.360   3.902   2.758  1.3383 -0.6553  0.1256
 6358SOL     OW30709   4.522   1.683   7.937  0.5460  0.0586 -0.6167
 6358SOL    HW130710   4.498   1.719   8.023  0.2449 -0.0918 -0.6357
 6358SOL    HW230711   4.473   1.601   7.936  0.3752  0.1225  2.1885
 6359SOL     OW30712   1.156   3.684   1.242 -0.4151 -0.1199  0.7138
 6359SOL    HW130713   1.131   3.602   1.200  1.3328  1.5981 -3.6608
 6359SOL    HW230714   1.251   3.680   1.250 -0.3853  0.8216  0.8655
 6360SOL     OW30715   1.557   1.519   4.134 -0.5131  0.2004  0.0220
 6360SOL    HW130716   1.627   1.457   4.153  1.4573  2.5317  0.3350
 6360SOL    HW230717   1.572   1.546   4.043  0.5969  1.3253  0.5389
 6361SOL     OW30718   0.451   4.574   4.719  0.4109  0.3406 -0.5828
 6361SOL    HW130719   0.380   4.612   4.667 -0.3171 -0.6102 -0.2788
 6361SOL    HW230720   0.455   4.649   4.778  0.2865 -0.3854  0.3474
 6362SOL     OW30721   3.502   3.118   4.058 -0.0629  0.6566 -0.0597
 6362SOL    HW130722   3.504   3.209   4.086  1.9492  0.3935  0.6826
 6362SOL    HW230723   3.565   3.081   4.120 -1.6407 -0.4410  0.8934
 6363SOL     OW30724   1.804   2.977   5.994  0.1339  0.0105  0.6324
 6363SOL    HW130725   1.740   2.915   6.028 -1.0707  1.1913  0.4982
 6363SOL    HW230726   1.742   3.016   5.932  0.5632  0.3192  0.3927
 6364SOL     OW30727   4.030   2.291  10.161  0.1594  0.0143 -0.4476
 6364SOL    HW130728   3.970   2.365  10.164 -1.4488 -1.3155  0.1379
 6364SOL    HW230729   4.102   2.341  10.122  1.1451 -1.4269 -0.4834
 6365SOL     OW30730   0.491   4.492  17.309 -0.6039 -0.2495  0.0084
 6365SOL    HW130731   0.531   4.442  17.238 -0.3311  0.1313 -0.1059
 6365SOL    HW230732   0.400   4.490  17.280 -0.7201  2.9190  0.1469
 6366SOL     OW30733   4.566   2.841   4.294  0.1702  0.1376 -0.3133
 6366SOL    HW130734   4.557   2.787   4.215 -0.4026  0.5228 -0.5179
 6366SOL    HW230735   4.649   2.888   4.291  1.7668 -2.4910  2.7401
 6367SOL     OW30736   2.133   3.387  12.391  0.3998  0.1064  0.3163
 6367SOL    HW130737   2.222   3.409  12.418 -0.5012 -0.4167  3.7108
 6367SOL    HW230738   2.095   3.396  12.479  1.1043  0.7000  0.5658
 6368SOL     OW30739   2.937   4.003  15.623 -0.2280 -0.0106  0.7249
 6368SOL    HW130740   2.947   3.950  15.544 -1.0416  0.1386  0.5225
 6368SOL    HW230741   3.001   4.070  15.599  1.5787 -1.7636  0.6260
 6369SOL     OW30742   3.688   1.853   0.939  0.3226  0.1089  0.3309
 6369SOL    HW130743   3.666   1.844   0.846  0.2165  2.3713  0.1383
 6369SOL    HW230744   3.757   1.786   0.939  0.6016  0.3942  1.0582
 6370SOL     OW30745   4.482   2.304   8.017  0.3012 -0.3518 -0.2735
 6370SOL    HW130746   4.460   2.231   7.958 -2.3514  0.1014  0.1775
 6370SOL    HW230747   4.577   2.302   8.001  0.4318 -0.0612  0.4704
 6371SOL     OW30748   3.046   3.094   9.306  0.5034  0.4901 -0.0329
 6371SOL    HW130749   2.970   3.137   9.344 -0.4452 -1.5924  0.4411
 6371SOL    HW230750   3.087   3.042   9.376  1.8524 -1.2874 -2.1507
 6372SOL     OW30751   2.486   1.355   8.136 -0.0790 -0.1727  0.2846
 6372SOL    HW130752   2.530   1.370   8.220 -0.9040 -2.6125  1.1731
 6372SOL    HW230753   2.517   1.434   8.093  0.0374  0.2753  1.1904
 6373SOL     OW30754   0.795   2.609  15.564  0.7110  0.0622  0.0668
 6373SOL    HW130755   0.753   2.598  15.649 -0.1053 -0.4230 -0.4108
 6373SOL    HW230756   0.890   2.596  15.573  0.3400 -0.5392  3.1461
 6374SOL     OW30757   2.966   2.695   3.592 -0.6624 -0.2008 -0.2199
 6374SOL    HW130758   3.037   2.711   3.530 -0.3673  1.7076  0.5984
 6374SOL    HW230759   2.907   2.634   3.548 -1.7593  1.0355 -0.4460
 6375SOL     OW30760   1.953   0.326   3.117 -0.7055 -0.0725  0.6988
 6375SOL    HW130761   1.971   0.367   3.202 -1.6568  0.0090  0.8599
 6375SOL    HW230762   1.896   0.394   3.082 -0.8042 -0.6123 -0.1939
 6376SOL     OW30763   2.392   2.486  10.091 -0.0124  0.3248 -0.0939
 6376SOL    HW130764   2.481   2.454  10.108 -0.1897 -0.8565 -1.4247
 6376SOL    HW230765   2.392   2.542  10.168  0.3070 -0.6573  0.6272
 6377SOL     OW30766   1.756   2.361   3.863 -0.2413  0.1553 -0.6989
 6377SOL    HW130767   1.791   2.432   3.808 -1.0035  0.7463 -0.4110
 6377SOL    HW230768   1.755   2.401   3.949 -1.1244  0.0075 -0.6405
 6378SOL     OW30769   1.597   0.470  12.497  0.8603  0.0333  0.4207
 6378SOL    HW130770   1.505   0.468  12.474  1.0486 -1.0562 -0.2205
 6378SOL    HW230771   1.612   0.562  12.473  1.7960 -0.1363  0.3509
 6379SOL     OW30772   4.599   4.280   9.687  0.5079 -0.6040 -0.2200
 6379SOL    HW130773   4.592   4.308   9.595  0.1491  1.5641  0.4695
 6379SOL    HW230774   4.539   4.206   9.680  0.0667 -0.1788 -0.9367
 6380SOL     OW30775   1.092   1.180   1.773  0.2843  0.1963  0.0706
 6380SOL    HW130776   1.165   1.181   1.835  1.3194 -2.7643 -1.1439
 6380SOL    HW230777   1.104   1.102   1.719 -2.7471  0.4671 -0.9742
 6381SOL     OW30778   2.016   0.117  14.633  0.7648 -0.5847 -0.0072
 6381SOL    HW130779   2.077   0.114  14.706  2.2987 -1.1585 -1.3070
 6381SOL    HW230780   2.054   0.192  14.588  0.9347 -0.2203  0.7533
 6382SOL     OW30781   1.111   1.191  13.776  0.2774  0.5679  0.3353
 6382SOL    HW130782   1.097   1.204  13.870 -0.2439  1.8446  0.0768
 6382SOL    HW230783   1.199   1.226  13.759  1.0560  0.3156  3.7954
 6383SOL     OW30784   2.189   1.529   3.526  0.3339  0.2387  0.4760
 6383SOL    HW130785   2.207   1.619   3.553  1.1552  0.6589 -1.4240
 6383SOL    HW230786   2.214   1.536   3.434  0.7881 -2.3678  0.3963
 6384SOL     OW30787   1.601   2.156   8.573 -0.2014  0.1711  0.1204
 6384SOL    HW130788   1.679   2.194   8.533  0.9830 -1.0471  1.2541
 6384SOL    HW230789   1.624   2.153   8.666  2.1484 -1.2976 -0.5244
 6385SOL     OW30790   1.365   3.946   1.954 -0.1006 -0.2833  0.6611
 6385SOL    HW130791   1.390   3.997   1.877 -0.6002  1.1582  1.4506
 6385SOL    HW230792   1.446   3.943   2.006  1.2945 -0.8820 -1.5760
 6386SOL     OW30793   0.841   2.243  14.631 -0.1569 -0.0602 -0.1241
 6386SOL    HW130794   0.753   2.227  14.666  0.4539 -2.0892  0.4918
 6386SOL    HW230795   0.891   2.194  14.696  0.0543  2.3524  1.5505
 6387SOL     OW30796   0.484   0.762  11.162 -0.4336 -0.5374  0.1994
 6387SOL    HW130797   0.396   0.728  11.146 -0.2487 -1.0369  0.2647
 6387SOL    HW230798   0.468   0.834  11.224  1.6358 -0.2347  0.3927
 6388SOL     OW30799   2.327   1.256   5.593 -0.5887  0.3457 -0.2086
 6388SOL    HW130800   2.235   1.264   5.620 -0.8234  2.2321 -1.5617
 6388SOL    HW230801   2.350   1.348   5.605  2.1346 -0.6193  1.8628
 6389SOL     OW30802   3.476   0.642  11.064 -0.0942  0.3024 -0.4716
 6389SOL    HW130803   3.475   0.547  11.073 -2.9403  0.2651 -1.2172
 6389SOL    HW230804   3.392   0.660  11.105 -0.4484 -1.0544 -0.5924
 6390SOL     OW30805   3.490   3.202  16.565 -0.4022 -0.0159 -0.5718
 6390SOL    HW130806   3.402   3.165  16.565 -0.5538  0.3453 -0.3218
 6390SOL    HW230807   3.475   3.268  16.497  0.6299  1.2455  0.4100
 6391SOL     OW30808   2.932   4.580   3.832 -0.2374 -0.5576 -0.5701
 6391SOL    HW130809   2.967   4.662   3.797  0.1174  0.2551  1.7183
 6391SOL    HW230810   2.839   4.597   3.846 -0.2852 -0.0212 -1.5434
 6392SOL     OW30811   3.571   4.155   1.674 -1.1205  0.6667 -0.3657
 6392SOL    HW130812   3.643   4.102   1.639 -0.8140  1.0618 -0.3365
 6392SOL    HW230813   3.555   4.218   1.604 -0.7906  2.1917  0.9269
 6393SOL     OW30814   2.407   2.635   2.140 -0.4403  0.0613  0.4359
 6393SOL    HW130815   2.331   2.649   2.084 -0.3173 -0.6224  0.1030
 6393SOL    HW230816   2.461   2.590   2.075 -0.1000  1.4771 -0.2811
 6394SOL     OW30817   0.737   0.899   6.393  0.0320 -0.0089  0.6122
 6394SOL    HW130818   0.832   0.910   6.406  0.2125 -0.1845 -0.5319
 6394SOL    HW230819   0.700   0.922   6.477  0.8920  0.3332  0.8994
 6395SOL     OW30820   0.009   4.567   8.112  0.5158 -0.0251 -0.9671
 6395SOL    HW130821   0.079   4.578   8.177  0.3546  3.5321 -1.4426
 6395SOL    HW230822   0.029   4.637   8.050 -3.2099  1.1154 -0.8750
 6396SOL     OW30823   2.640   0.946   6.159 -0.3473 -0.4504 -0.0834
 6396SOL    HW130824   2.552   0.910   6.172 -0.3582 -0.5839 -0.5273
 6396SOL    HW230825   2.693   0.887   6.213  0.7838 -0.0951 -0.8182
 6397SOL     OW30826   3.488   4.624  12.239 -0.0203 -0.0398  0.6543
 6397SOL    HW130827   3.475   4.716  12.216 -0.5944 -0.2449  0.1515
 6397SOL    HW230828   3.402   4.581  12.247 -0.9956  1.8504  0.2340
 6398SOL     OW30829   1.503   2.483  15.491 -0.3295 -0.0653  0.5569
 6398SOL    HW130830   1.519   2.404  15.438  0.3333  0.2280  0.3171
 6398SOL    HW230831   1.477   2.544  15.422  0.3668 -0.3583  0.0358
 6399SOL     OW30832   4.534   1.479   1.390 -0.6504 -0.2231  0.0750
 6399SOL    HW130833   4.534   1.430   1.472 -1.5313  1.6256  1.1902
 6399SOL    HW230834   4.546   1.411   1.324 -0.3076 -0.0461 -0.0463
 6400SOL     OW30835   2.481   0.115  16.937 -0.2616 -0.4066  0.3888
 6400SOL    HW130836   2.446   0.041  16.988  1.7588  0.9773  3.7752
 6400SOL    HW230837   2.535   0.165  16.998 -1.7618 -0.4348  1.7488
 6401SOL     OW30838   2.441   0.725   3.093 -0.2987  0.1038 -0.1277
 6401SOL    HW130839   2.496   0.692   3.164 -1.3196 -1.3181  0.0111
 6401SOL    HW230840   2.364   0.668   3.098 -0.9899  0.8516 -2.4133
 6402SOL     OW30841   0.554   4.295   4.286  0.1265  0.0530  0.6045
 6402SOL    HW130842   0.520   4.207   4.270 -2.3152  0.6382  2.5504
 6402SOL    HW230843   0.648   4.283   4.289  0.3894  1.6133 -1.1043
 6403SOL     OW30844   1.900   3.923   5.609  0.1735 -0.5580 -0.6015
 6403SOL    HW130845   1.938   3.945   5.694  1.2756  1.0339 -1.5162
 6403SOL    HW230846   1.963   3.955   5.544  0.8306 -0.6820 -0.0189
 6404SOL     OW30847   0.037   1.174   4.327 -0.5035  0.5275  0.1690
 6404SOL    HW130848   0.017   1.267   4.343 -1.1367  0.1426  1.6062
 6404SOL    HW230849   4.689   1.159   4.281 -0.2613 -1.2642  0.3498
 6405SOL     OW30850   4.349   2.270   9.506 -0.4258 -0.0796  0.0655
 6405SOL    HW130851   4.374   2.343   9.563  0.8009  0.5845 -1.3433
 6405SOL    HW230852   4.424   2.211   9.502 -0.5616 -0.1701 -0.9851
 6406SOL     OW30853   3.080   0.682  16.547  0.0066  0.3961  0.4680
 6406SOL    HW130854   3.037   0.675  16.462  0.8284 -1.1822  0.1839
 6406SOL    HW230855   3.157   0.625  16.534 -0.7078 -0.6923  1.0206
 6407SOL     OW30856   0.169   2.101  15.452 -0.2763 -0.4613  0.5426
 6407SOL    HW130857   0.213   2.137  15.529  0.1191 -0.2874  0.2322
 6407SOL    HW230858   0.127   2.027  15.496 -0.9762  0.6348  1.6913
 6408SOL     OW30859   2.916   1.887  15.105  0.1403  0.0231 -0.3184
 6408SOL    HW130860   2.947   1.922  15.022 -0.9408 -0.5676 -0.9706
 6408SOL    HW230861   2.849   1.824  15.078 -0.8237  0.5655  0.8049
 6409SOL     OW30862   0.174   0.533   0.535 -0.3092 -0.1883 -0.5370
 6409SOL    HW130863   0.156   0.615   0.489 -2.2872 -0.2665  0.0709
 6409SOL    HW230864   0.247   0.500   0.484  0.1099  1.5383 -1.0736
 6410SOL     OW30865   3.790   0.335   5.895 -0.0576  0.4406  0.2913
 6410SOL    HW130866   3.731   0.368   5.963 -0.9643 -0.7737  0.0856
 6410SOL    HW230867   3.741   0.272   5.843 -1.6290  0.1412  2.1367
 6411SOL     OW30868   2.861   1.682   8.629 -0.0127 -0.5676  0.5750
 6411SOL    HW130869   2.924   1.611   8.642  1.1501  0.7103  1.8466
 6411SOL    HW230870   2.789   1.619   8.620 -0.7563  0.3495 -0.0246
 6412SOL     OW30871   4.277   4.293   8.923  0.0564 -0.3700  0.0928
 6412SOL    HW130872   4.329   4.221   8.887 -4.6581 -2.0300 -3.4274
 6412SOL    HW230873   4.334   4.317   8.996  0.3959  1.1439 -0.6772
 6413SOL     OW30874   1.017   2.195   6.388  0.2925  0.2369 -0.2454
 6413SOL    HW130875   0.957   2.125   6.414 -0.7172  0.8220 -0.9487
 6413SOL    HW230876   1.100   2.168   6.426  0.5709  1.4837  0.0524
 6414SOL     OW30877   1.151   4.148   1.358 -0.0338 -0.0067  0.4558
 6414SOL    HW130878   1.065   4.164   1.320  0.9442  1.7873 -1.0168
 6414SOL    HW230879   1.204   4.163   1.279 -1.6872  0.7431 -0.5150
 6415SOL     OW30880   1.146   2.279   5.361 -0.5088 -0.0281 -0.3349
 6415SOL    HW130881   1.205   2.310   5.292 -0.5054 -2.5011 -1.4268
 6415SOL    HW230882   1.074   2.340   5.344  0.6031  1.2717 -0.4433
 6416SOL     OW30883   4.246   1.288  12.457 -0.1476 -0.4378 -0.1150
 6416SOL    HW130884   4.237   1.366  12.512 -0.8490 -1.6999  1.5458
 6416SOL    HW230885   4.233   1.220  12.522  2.0063 -0.2342  0.5306
 6417SOL     OW30886   1.902   2.584   2.528  0.1361 -0.1135 -0.0788
 6417SOL    HW130887   1.846   2.662   2.537  0.3247 -0.1622  1.5307
 6417SOL    HW230888   1.854   2.552   2.452 -0.8429  1.5523 -0.1738
 6418SOL     OW30889   2.565   3.492   0.569 -0.8546 -0.1702 -0.0125
 6418SOL    HW130890   2.585   3.495   0.475  0.8782 -0.1961  0.3563
 6418SOL    HW230891   2.650   3.525   0.596 -0.7246 -1.2333  0.8761
 6419SOL     OW30892   1.887   0.366   5.497 -0.1390 -0.2264  0.0867
 6419SOL    HW130893   1.982   0.373   5.500 -0.3082  2.6421 -0.8444
 6419SOL    HW230894   1.884   0.274   5.522  0.5429 -0.2594  0.0480
 6420SOL     OW30895   1.717   3.763   4.406  0.0125 -0.0805 -0.3242
 6420SOL    HW130896   1.767   3.842   4.386 -0.7362  0.5689  0.3561
 6420SOL    HW230897   1.755   3.737   4.490 -1.3346  0.3109  0.4106
 6421SOL     OW30898   0.004   2.157  17.171  0.2307  0.0679 -0.5167
 6421SOL    HW130899   0.065   2.230  17.158 -1.1649  0.8118 -2.9133
 6421SOL    HW230900   4.657   2.181  17.125 -0.9305 -1.4774  0.7350
 6422SOL     OW30901   0.610   4.423  10.069  0.0764 -0.1658  0.3390
 6422SOL    HW130902   0.531   4.420  10.124 -0.2588  0.5146 -0.1095
 6422SOL    HW230903   0.677   4.412  10.136  0.2901 -2.4298 -0.2358
 6423SOL     OW30904   4.331   1.935   0.096  0.0686  0.0168  0.0075
 6423SOL    HW130905   4.410   1.944   0.149 -0.9131 -1.1210  1.6845
 6423SOL    HW230906   4.362   1.962   0.009 -0.6187  1.0150  0.0648
 6424SOL     OW30907   1.192   1.896   8.146  0.3858 -0.0495  0.2889
 6424SOL    HW130908   1.175   1.837   8.221  0.2056 -0.2792  0.0685
 6424SOL    HW230909   1.286   1.907   8.153  0.5422 -0.5034 -1.2552
 6425SOL     OW30910   1.305   4.664   8.929 -0.4601  1.0502 -0.1539
 6425SOL    HW130911   1.258   4.607   8.989 -2.2430  3.0815  0.3857
 6425SOL    HW230912   1.389   4.641   8.969 -0.6039  0.1376 -0.3682
 6426SOL     OW30913   4.086   3.046   0.564  0.2045 -0.3084  0.0991
 6426SOL    HW130914   4.114   3.094   0.486 -1.1491  1.3748  0.6294
 6426SOL    HW230915   4.055   2.964   0.526  4.9537 -1.4737 -1.2584
 6427SOL     OW30916   4.224   4.608   4.541  0.0663 -0.3640 -0.0424
 6427SOL    HW130917   4.201   4.681   4.483  1.0172 -0.5236 -0.6174
 6427SOL    HW230918   4.242   4.546   4.470  2.0797  0.5722 -0.3599
 6428SOL     OW30919   0.875   3.175  11.402  0.1140 -0.0726 -0.0004
 6428SOL    HW130920   0.797   3.229  11.393 -0.3052 -0.6658  0.1004
 6428SOL    HW230921   0.902   3.212  11.486  0.6791 -0.5212  0.0104
 6429SOL     OW30922   3.529   4.652  17.328 -0.2206  0.8426  0.3343
 6429SOL    HW130923   3.508   4.611  17.412 -0.2650  2.7820  1.2694
 6429SOL    HW230924   3.512   4.582  17.266 -0.9215 -0.6496  2.1929
 6430SOL     OW30925   2.975   1.685   7.907 -0.3908 -0.0277 -0.3135
 6430SOL    HW130926   2.905   1.749   7.917 -0.3286  0.3020 -2.0059
 6430SOL    HW230927   3.048   1.737   7.873  1.4225 -1.7455  0.9446
 6431SOL     OW30928   2.614   2.579   7.576  0.2973  0.3644  0.0424
 6431SOL    HW130929   2.703   2.554   7.603 -0.3008 -1.7191  0.0202
 6431SOL    HW230930   2.615   2.675   7.568  1.5475  0.4118  0.6866
 6432SOL     OW30931   2.247   2.794   6.005 -0.5225  0.2968 -0.2015
 6432SOL    HW130932   2.316   2.803   6.071 -1.9425  0.4249  1.2466
 6432SOL    HW230933   2.252   2.878   5.960  1.4955 -0.3461 -1.2097
 6433SOL     OW30934   2.750   0.840   2.444  0.0421  0.2375 -0.1117
 6433SOL    HW130935   2.839   0.839   2.408  0.5573  1.8156  1.1014
 6433SOL    HW230936   2.717   0.772   2.385  4.2374 -1.2599 -0.7188
 6434SOL     OW30937   4.271   2.083   3.553  0.1027  0.4914  1.1844
 6434SOL    HW130938   4.275   2.147   3.482 -1.6176 -1.6465 -0.8534
 6434SOL    HW230939   4.353   2.038   3.533 -0.4557  0.5082 -1.1298
 6435SOL     OW30940   0.932   2.253  12.352 -0.0120  0.2880 -0.1189
 6435SOL    HW130941   0.931   2.181  12.415 -2.2427 -0.5975 -1.2021
 6435SOL    HW230942   0.931   2.331  12.409  1.1109 -1.3331  2.1173
 6436SOL     OW30943   2.442   0.830  11.011 -0.2758 -0.0596 -0.0440
 6436SOL    HW130944   2.512   0.820  10.946 -0.7436  0.3357 -0.6002
 6436SOL    HW230945   2.431   0.925  11.004  0.9868  0.1156  0.1998
 6437SOL     OW30946   3.944   0.942  15.845 -0.3717 -0.2994  0.2140
 6437SOL    HW130947   3.909   0.966  15.759  1.1908 -1.2694 -0.7184
 6437SOL    HW230948   3.880   0.984  15.902  0.0006 -0.4527  0.7447
 6438SOL     OW30949   0.398   3.568  13.447  0.4728 -0.2532  0.0537
 6438SOL    HW130950   0.364   3.522  13.524  0.1478  2.1747  1.3882
 6438SOL    HW230951   0.488   3.588  13.475 -0.6599  2.4249  1.8576
 6439SOL     OW30952   3.990   1.560   5.638  0.3834  0.2915 -0.0183
 6439SOL    HW130953   3.996   1.609   5.556  0.8422  0.8343  0.3419
 6439SOL    HW230954   4.022   1.624   5.702 -1.3130  0.4886  0.6514
 6440SOL     OW30955   3.376   4.116   5.085  0.2758 -0.1152 -0.3556
 6440SOL    HW130956   3.443   4.118   5.154 -0.3322  0.5208  0.2187
 6440SOL    HW230957   3.435   4.091   5.014 -1.3424 -0.5268 -1.5427
 6441SOL     OW30958   0.933   4.165  16.451  0.5040  0.3937  0.4480
 6441SOL    HW130959   0.960   4.109  16.524  0.8669 -0.4940 -0.3569
 6441SOL    HW230960   0.904   4.245  16.493  0.1224 -0.3461  1.6092
 6442SOL     OW30961   0.901   1.482   0.881  0.2690  0.0459  0.2372
 6442SOL    HW130962   0.898   1.554   0.944  0.0016 -0.2177  0.5217
 6442SOL    HW230963   0.943   1.418   0.938 -1.3380 -1.6458 -0.4998
 6443SOL     OW30964   0.625   2.646   7.633 -0.1364  0.1798 -0.0905
 6443SOL    HW130965   0.707   2.690   7.652  0.4731 -0.4523 -1.2478
 6443SOL    HW230966   0.566   2.705   7.680 -0.5976 -0.7909  0.5655
 6444SOL     OW30967   3.387   3.773   5.105  0.0063 -0.7505  0.6106
 6444SOL    HW130968   3.412   3.855   5.148 -1.3714  0.9242 -1.8083
 6444SOL    HW230969   3.428   3.706   5.160  0.9697 -0.4967  0.1914
 6445SOL     OW30970   2.300   4.727   2.664  0.0596  0.1808 -0.0682
 6445SOL    HW130971   2.235   0.053   2.628  0.4029  0.0498 -0.8937
 6445SOL    HW230972   2.303   4.658   2.598 -1.1617 -1.3364  1.4742
 6446SOL     OW30973   4.564   4.712   9.118 -0.9412 -0.0758 -0.3099
 6446SOL    HW130974   4.481   0.014   9.148 -0.5402  0.6794 -0.1038
 6446SOL    HW230975   4.611   0.022   9.189  0.2962 -2.1655  0.1795
 6447SOL     OW30976   4.428   2.697   2.144 -0.0068  0.4974 -0.7457
 6447SOL    HW130977   4.490   2.663   2.080  0.9973  2.0979 -0.6242
 6447SOL    HW230978   4.362   2.712   2.077 -0.6017  0.8406 -0.0947
 6448SOL     OW30979   3.733   3.370   5.798  0.1484  0.4627  0.3705
 6448SOL    HW130980   3.762   3.292   5.750 -2.0282  0.6869 -1.3098
 6448SOL    HW230981   3.760   3.351   5.888 -1.6873  2.5189  1.3464
 6449SOL     OW30982   0.810   1.444   3.328  0.3143 -0.4180  0.1054
 6449SOL    HW130983   0.846   1.532   3.320 -2.1901  0.5372 -0.6471
 6449SOL    HW230984   0.732   1.446   3.383  1.0448 -0.4686  1.1276
 6450SOL     OW30985   3.050   1.736  17.342  0.1356  0.5887 -0.2662
 6450SOL    HW130986   2.988   1.673  17.305 -1.4195  2.3322 -0.6317
 6450SOL    HW230987   3.123   1.721  17.282  0.8644 -0.0868  0.7934
 6451SOL     OW30988   4.494   0.159   8.419  0.4403 -0.2013 -0.3567
 6451SOL    HW130989   4.572   0.106   8.432  1.3121  0.5972 -2.2940
 6451SOL    HW230990   4.460   0.110   8.344  1.6973 -1.2041 -0.2583
 6452SOL     OW30991   3.782   3.066   3.430 -0.0394  0.7511 -0.0464
 6452SOL    HW130992   3.710   3.004   3.442  1.3211 -0.5277  1.4987
 6452SOL    HW230993   3.775   3.106   3.343  0.3979  1.6866  0.3459
 6453SOL     OW30994   2.371   0.235   6.697  0.7264 -0.5178 -0.0616
 6453SOL    HW130995   2.391   0.305   6.635  0.2594 -1.3536 -1.1659
 6453SOL    HW230996   2.460   0.208   6.721  0.8200  0.5981  0.8205
 6454SOL     OW30997   3.526   4.449   1.196 -0.0038 -0.8191 -0.0786
 6454SOL    HW130998   3.459   4.498   1.243 -1.2662 -2.0815 -0.5692
 6454SOL    HW230999   3.552   4.513   1.129 -0.0354 -1.6224 -0.8684
 6455SOL     OW31000   1.876   2.382   8.917 -0.2758 -0.4907  0.7152
 6455SOL    HW131001   1.938   2.407   8.985  1.7478  0.6420 -1.5436
 6455SOL    HW231002   1.804   2.341   8.965  0.5894 -0.9233  1.6200
 6456SOL     OW31003   4.545   4.470   0.347 -0.5734  0.4150  0.7966
 6456SOL    HW131004   4.504   4.445   0.264 -2.0348  1.3135  1.2651
 6456SOL    HW231005   4.522   4.387   0.389 -4.4267 -0.3283 -2.7635
 6457SOL     OW31006   1.739   4.392   2.499 -0.1380 -0.6759 -0.0795
 6457SOL    HW131007   1.699   4.396   2.586 -0.1356  0.4719 -0.1233
 6457SOL    HW231008   1.827   4.421   2.526  0.6065 -2.0282 -1.0885
 6458SOL     OW31009   2.416   0.039  14.611 -0.5010  0.3193 -0.5764
 6458SOL    HW131010   2.387   0.061  14.700  2.6882  0.9847  0.2807
 6458SOL    HW231011   2.364   4.694  14.595 -0.1461 -0.5006  2.2715
 6459SOL     OW31012   2.592   0.929   4.345 -0.4885  0.1380  0.3023
 6459SOL    HW131013   2.584   1.005   4.404 -0.3060  0.2884  0.1335
 6459SOL    HW231014   2.528   0.868   4.380 -1.5798  0.1586 -1.6802
 6460SOL     OW31015   2.315   0.877  16.221 -0.1911 -0.1710 -0.4569
 6460SOL    HW131016   2.334   0.971  16.214 -0.4666 -0.1143 -0.4637
 6460SOL    HW231017   2.280   0.848  16.137 -0.0247 -0.1437 -0.5347
 6461SOL     OW31018   3.206   2.139   4.850  0.4516 -0.1385 -0.1873
 6461SOL    HW131019   3.236   2.083   4.778 -1.0781  1.7708 -2.3334
 6461SOL    HW231020   3.239   2.223   4.818 -1.2931  0.9912  0.9730
 6462SOL     OW31021   0.708   0.952   8.677  0.0741 -0.2314  0.5030
 6462SOL    HW131022   0.774   0.962   8.745  0.6522  0.0957 -0.1065
 6462SOL    HW231023   0.638   0.903   8.719 -0.0768 -0.1927  0.2980
 6463SOL     OW31024   3.976   2.336   9.322 -0.1074  0.0621 -0.5571
 6463SOL    HW131025   4.039   2.364   9.256  2.3535 -2.7964  0.6080
 6463SOL    HW231026   4.011   2.255   9.359  0.0002  0.2711 -0.2011
 6464SOL     OW31027   3.685   4.133   0.771 -0.5701  0.2807  0.0537
 6464SOL    HW131028   3.776   4.106   0.779 -1.0975 -2.0590 -1.6256
 6464SOL    HW231029   3.643   4.074   0.834 -0.8645 -0.0977 -0.4828
 6465SOL     OW31030   0.647   2.889   3.215 -0.2163 -0.0694 -0.5375
 6465SOL    HW131031   0.586   2.843   3.157 -1.1786  2.1396 -1.2703
 6465SOL    HW231032   0.724   2.835   3.199 -0.2648 -0.8101  1.6693
 6466SOL     OW31033   2.680   1.814   2.495 -0.3967 -0.1044  0.5117
 6466SOL    HW131034   2.605   1.765   2.461 -0.6816 -0.8498  2.2356
 6466SOL    HW231035   2.731   1.741   2.530  0.6588  0.5134  0.2391
 6467SOL     OW31036   2.402   4.531  10.038  0.8926 -0.4212  0.8708
 6467SOL    HW131037   2.389   4.586  10.115 -0.4080  0.3441  0.1150
 6467SOL    HW231038   2.315   4.526   9.999  0.5892 -0.4691  1.5529
 6468SOL     OW31039   3.852   2.142   6.147 -0.1590 -0.3368 -0.3688
 6468SOL    HW131040   3.838   2.097   6.231  0.0284 -0.7112 -0.5392
 6468SOL    HW231041   3.768   2.129   6.104 -0.8266 -0.5260  0.9713
 6469SOL     OW31042   3.223   1.633  11.883 -0.2776  0.1336  0.3566
 6469SOL    HW131043   3.244   1.592  11.967 -0.8896  0.2446  0.5618
 6469SOL    HW231044   3.130   1.616  11.870 -0.1684  0.5453 -0.9265
 6470SOL     OW31045   0.696   1.440   3.966 -0.4565  0.1740  0.9520
 6470SOL    HW131046   0.672   1.441   4.058 -2.4219  0.5568  0.4275
 6470SOL    HW231047   0.769   1.502   3.959 -0.4503  0.0186 -0.3632
 6471SOL     OW31048   1.121   4.688   2.929 -0.1116  0.1502  0.4262
 6471SOL    HW131049   1.149   4.723   2.844  2.9025 -1.8837  0.6065
 6471SOL    HW231050   1.193   4.625   2.938  0.5401  0.6228 -1.4540
 6472SOL     OW31051   1.187   3.502  10.964 -0.5383  0.6738 -0.6559
 6472SOL    HW131052   1.239   3.435  11.008  0.3850  1.7965 -0.0265
 6472SOL    HW231053   1.250   3.543  10.905  1.3566  1.0675  1.5963
 6473SOL     OW31054   1.535   0.115  16.413  0.0817 -0.2765  0.0206
 6473SOL    HW131055   1.596   0.181  16.445 -0.8325  1.7347 -2.4329
 6473SOL    HW231056   1.588   0.073  16.345  1.3471  1.0832  0.1788
 6474SOL     OW31057   2.845   3.105   7.624 -0.1292 -0.0364  0.4403
 6474SOL    HW131058   2.882   3.189   7.651  0.1930  0.3249 -1.0800
 6474SOL    HW231059   2.788   3.089   7.699 -1.2565  0.9606 -0.1880
 6475SOL     OW31060   4.450   2.963  15.697  0.0244  0.3121 -0.0287
 6475SOL    HW131061   4.502   2.914  15.633  0.0758 -0.2750  0.4566
 6475SOL    HW231062   4.393   2.893  15.730  0.0988  1.2076  2.0295
 6476SOL     OW31063   3.098   3.520   4.023  0.1090 -0.6302  0.0606
 6476SOL    HW131064   3.019   3.572   4.034 -1.2491 -2.1842 -2.3454
 6476SOL    HW231065   3.124   3.536   3.932  0.5164  0.0510  0.2992
 6477SOL     OW31066   1.818   3.117   5.355 -0.5230  0.2105 -0.0596
 6477SOL    HW131067   1.815   3.211   5.372  1.1734  0.6078 -2.0302
 6477SOL    HW231068   1.902   3.104   5.313 -1.3824 -0.6089 -1.5348
 6478SOL     OW31069   3.973   0.125   4.666 -0.5679  0.0139  0.2310
 6478SOL    HW131070   4.053   0.175   4.677 -0.3020 -0.6191  1.1586
 6478SOL    HW231071   3.930   0.184   4.604 -0.5355 -0.0243  0.1721
 6479SOL     OW31072   3.263   2.501   5.116 -0.5503 -0.5544 -0.0490
 6479SOL    HW131073   3.209   2.453   5.053 -0.4621 -1.6559  0.6978
 6479SOL    HW231074   3.271   2.435   5.185  0.4521 -1.1600 -0.7336
 6480SOL     OW31075   0.841   3.141   5.700 -0.4990  0.1845 -0.1322
 6480SOL    HW131076   0.775   3.078   5.729 -0.9237  0.7782  0.1867
 6480SOL    HW231077   0.808   3.222   5.738 -0.5317 -0.2845  0.8267
 6481SOL     OW31078   2.490   1.665   3.385 -0.1420  0.1063  0.1966
 6481SOL    HW131079   2.569   1.716   3.368 -0.6942  1.0039  0.3219
 6481SOL    HW231080   2.473   1.637   3.295 -0.2438 -0.5974  0.4353
 6482SOL     OW31081   0.381   3.498   8.587  0.4155 -0.0573 -0.1632
 6482SOL    HW131082   0.398   3.567   8.523  1.1690 -0.9906 -0.9743
 6482SOL    HW231083   0.464   3.475   8.627 -0.2356 -0.3881  0.9834
 6483SOL     OW31084   3.577   3.964   6.619  0.1320 -0.3540  0.1208
 6483SOL    HW131085   3.561   4.008   6.536 -1.1582 -0.5987  0.2373
 6483SOL    HW231086   3.560   3.875   6.587  0.8571 -0.6244  0.4720
 6484SOL     OW31087   3.949   1.395   9.391  0.0395 -0.1361 -0.2306
 6484SOL    HW131088   4.013   1.324   9.394 -2.0390 -2.1489 -3.3285
 6484SOL    HW231089   3.899   1.391   9.473 -0.8813 -0.3244 -0.8051
 6485SOL     OW31090   1.267   1.153   5.732  0.9489 -0.2349 -0.7549
 6485SOL    HW131091   1.322   1.086   5.693  1.2779 -1.4351  1.7275
 6485SOL    HW231092   1.310   1.230   5.696 -1.3927  0.1074 -2.8275
 6486SOL     OW31093   4.541   0.650   8.528  0.3881 -0.9573  0.7179
 6486SOL    HW131094   4.453   0.643   8.490  0.1498 -0.4891  1.1827
 6486SOL    HW231095   4.599   0.592   8.479  0.1237  1.1030 -2.0187
 6487SOL     OW31096   2.009   4.403  15.352 -1.1786  0.1674 -0.6424
 6487SOL    HW131097   2.045   4.390  15.265  0.7321 -0.3179  0.2045
 6487SOL    HW231098   1.914   4.409  15.342 -1.3844  2.2531  2.4935
 6488SOL     OW31099   0.383   2.511  10.367  0.1866 -0.4070 -0.2238
 6488SOL    HW131100   0.469   2.519  10.408  0.2662  2.2010 -0.9092
 6488SOL    HW231101   0.337   2.571  10.425  1.8842  0.5490  0.1251
 6489SOL     OW31102   3.295   0.419   9.925 -0.1320  0.1445 -0.0585
 6489SOL    HW131103   3.226   0.411   9.991 -0.4132 -0.0095 -0.3676
 6489SOL    HW231104   3.350   0.344   9.950 -2.4247 -1.1788  1.0136
 6490SOL     OW31105   1.905   3.684   7.135 -0.3514  0.7373 -0.0250
 6490SOL    HW131106   1.988   3.694   7.181  0.1388 -1.1254 -0.5132
 6490SOL    HW231107   1.925   3.621   7.066 -0.6699 -1.2104  1.6596
 6491SOL     OW31108   3.327   4.560   9.761 -0.1122  0.4246 -0.1604
 6491SOL    HW131109   3.367   4.526   9.681  1.1006 -0.7604  0.9575
 6491SOL    HW231110   3.297   4.648   9.737  0.5359  0.4224 -0.9928
 6492SOL     OW31111   1.492   1.254   3.846  0.6789 -0.2386 -0.0763
 6492SOL    HW131112   1.499   1.161   3.823  0.2737 -0.6135  1.3671
 6492SOL    HW231113   1.437   1.254   3.924  1.2124  0.4982  0.3024
 6493SOL     OW31114   1.685   0.863  10.477 -0.3732  0.3183 -0.3680
 6493SOL    HW131115   1.606   0.917  10.488  0.0261  0.8545 -0.0976
 6493SOL    HW231116   1.649   0.775  10.472  2.3249 -0.9231  2.1477
 6494SOL     OW31117   2.212   1.425   1.156 -0.1102  0.4117 -0.0650
 6494SOL    HW131118   2.205   1.384   1.242 -1.2635  0.0458 -0.3269
 6494SOL    HW231119   2.156   1.500   1.175  1.8240  2.0928 -1.1722
 6495SOL     OW31120   4.444   4.326  11.095  0.2309  0.0036 -0.2110
 6495SOL    HW131121   4.520   4.368  11.135 -0.2683  0.7598 -0.0751
 6495SOL    HW231122   4.478   4.239  11.071  2.4432  1.3371 -2.0026
 6496SOL     OW31123   3.211   3.620   4.970  0.3903  0.2272 -0.0133
 6496SOL    HW131124   3.208   3.680   4.895  0.8931  0.9122  0.5173
 6496SOL    HW231125   3.278   3.663   5.024 -0.1235  0.1792  0.6612
 6497SOL     OW31126   3.720   4.281   7.650  0.2719 -0.2339  0.5051
 6497SOL    HW131127   3.798   4.304   7.700  1.0354 -0.5490 -0.5402
 6497SOL    HW231128   3.760   4.246   7.570 -0.6750 -1.9232  0.7619
 6498SOL     OW31129   0.060   2.345   3.640  0.4847  0.4510  0.0972
 6498SOL    HW131130   4.725   2.295   3.683 -2.0065  2.0343 -2.0846
 6498SOL    HW231131   0.118   2.346   3.717  0.1347 -1.7455  0.3928
 6499SOL     OW31132   3.844   0.819  12.369  0.4203  0.1187  0.2834
 6499SOL    HW131133   3.829   0.882  12.439 -2.9437 -0.2071 -0.1767
 6499SOL    HW231134   3.785   0.753  12.404  0.3078  1.2492  2.2781
 6500SOL     OW31135   0.229   4.408   4.450 -0.7085 -0.3367  0.1804
 6500SOL    HW131136   0.308   4.447   4.413 -1.2401  0.8603  0.3138
 6500SOL    HW231137   0.247   4.416   4.544 -3.5046  1.0152  0.5905
 6501SOL     OW31138   4.246   3.573   7.339 -0.3361 -0.0320 -0.0630
 6501SOL    HW131139   4.178   3.534   7.285 -0.3625  0.2778 -0.2584
 6501SOL    HW231140   4.329   3.563   7.293  0.7197  0.6612  1.6823
 6502SOL     OW31141   3.521   3.930   0.276 -0.2496 -0.3065 -0.3534
 6502SOL    HW131142   3.502   3.989   0.203  2.5859  0.5219 -0.4286
 6502SOL    HW231143   3.540   3.994   0.344 -1.3645 -0.4034  0.0404
 6503SOL     OW31144   4.239   0.222   6.018  0.3812 -0.3140 -0.2145
 6503SOL    HW131145   4.171   0.287   6.037 -1.1553 -2.2095  0.7708
 6503SOL    HW231146   4.255   0.185   6.105 -1.5231 -2.6497 -0.8516
 6504SOL     OW31147   1.607   4.007   2.045 -0.0338 -0.5615  0.0186
 6504SOL    HW131148   1.647   4.028   2.129 -2.0126  1.9951  0.2975
 6504SOL    HW231149   1.619   4.092   2.003 -2.5412  0.2697  0.9898
 6505SOL     OW31150   3.084   4.072  13.685  0.4192 -0.4527 -0.3216
 6505SOL    HW131151   3.150   4.121  13.635 -1.4872 -0.8386 -3.2088
 6505SOL    HW231152   3.014   4.137  13.677  1.5250  0.6407 -1.1456
 6506SOL     OW31153   3.168   3.999   6.265 -0.2446 -0.2361  0.3252
 6506SOL    HW131154   3.157   3.962   6.353  0.0003 -2.5239 -0.6228
 6506SOL    HW231155   3.093   3.954   6.227 -0.4451 -1.1436  1.7828
 6507SOL     OW31156   2.045   3.766   6.779  0.4098 -0.4158 -0.2646
 6507SOL    HW131157   1.954   3.797   6.771  0.5907 -0.2937 -1.8602
 6507SOL    HW231158   2.038   3.671   6.770  0.8388 -0.3243 -1.5316
 6508SOL     OW31159   3.735   0.692   9.233 -0.2151 -0.3744  0.1372
 6508SOL    HW131160   3.691   0.716   9.152  0.1180 -0.7702 -0.1586
 6508SOL    HW231161   3.757   0.600   9.221  0.5795  0.1573 -2.5533
 6509SOL     OW31162   0.902   0.777   9.934 -0.3610  0.0222  0.3950
 6509SOL    HW131163   0.934   0.726   9.860 -0.1495  0.7558 -0.0201
 6509SOL    HW231164   0.955   0.856   9.922  0.7345 -1.1317 -2.3581
 6510SOL     OW31165   3.132   0.705  11.517  0.0939  0.9080  0.0099
 6510SOL    HW131166   3.181   0.743  11.445  1.1223  0.3584  0.4247
 6510SOL    HW231167   3.044   0.724  11.485 -0.5682 -0.6300  0.8842
 6511SOL     OW31168   0.880   2.592   0.842  0.3647  0.5898  0.4483
 6511SOL    HW131169   0.947   2.623   0.904  1.5516 -0.4817 -0.3114
 6511SOL    HW231170   0.819   2.666   0.846  0.4763  0.7931 -1.8011
 6512SOL     OW31171   0.062   2.562  17.043 -0.4389  0.4724 -0.5353
 6512SOL    HW131172   0.091   2.483  17.089 -2.1197  0.8239  1.1191
 6512SOL    HW231173   0.024   2.530  16.961  1.5580 -0.4300 -1.0942
 6513SOL     OW31174   1.942   1.344   6.813 -0.0716 -0.3878 -0.0158
 6513SOL    HW131175   1.890   1.264   6.824 -1.3040  0.3786 -0.2639
 6513SOL    HW231176   1.913   1.371   6.726 -0.9103  1.3225  0.7905
 6514SOL     OW31177   1.691   1.127   2.489 -0.4515 -0.3792  0.1402
 6514SOL    HW131178   1.605   1.091   2.513  2.0588 -4.1571  3.3490
 6514SOL    HW231179   1.686   1.209   2.540 -0.8752 -0.3566  0.0662
 6515SOL     OW31180   0.354   4.006  13.196 -0.1191 -0.1854 -0.0503
 6515SOL    HW131181   0.443   4.041  13.195 -0.5368  0.8286 -0.8416
 6515SOL    HW231182   0.314   4.064  13.132 -0.4759  0.7250  1.0038
 6516SOL     OW31183   0.942   2.731  10.801 -0.1022  0.4215  0.8333
 6516SOL    HW131184   0.988   2.674  10.862  1.4805 -0.5012 -1.2326
 6516SOL    HW231185   0.862   2.733  10.854 -0.5085 -0.1952  0.2470
 6517SOL     OW31186   3.217   0.816   3.746 -0.2692  0.1748 -0.0061
 6517SOL    HW131187   3.268   0.896   3.730 -0.3067  0.4153  1.0591
 6517SOL    HW231188   3.253   0.754   3.682  3.0688  1.2629  0.7944
 6518SOL     OW31189   2.086   4.061   5.425 -0.5110  0.2540 -0.1171
 6518SOL    HW131190   2.084   3.996   5.355  1.7587  0.6977 -0.5950
 6518SOL    HW231191   2.132   4.136   5.387 -0.9432  0.3793 -0.3891
 6519SOL     OW31192   1.290   1.706  16.299 -0.0436  0.4405  0.1656
 6519SOL    HW131193   1.228   1.767  16.338  0.3211  1.0105 -0.1416
 6519SOL    HW231194   1.315   1.655  16.376 -0.4984 -0.5060 -0.3096
 6520SOL     OW31195   3.277   1.852   7.184  0.0166  0.0498  0.5693
 6520SOL    HW131196   3.250   1.930   7.233  0.5773  2.5356 -3.0721
 6520SOL    HW231197   3.301   1.803   7.262  0.4983 -0.0192  0.3738
 6521SOL     OW31198   4.075   0.019   9.101  0.3691 -0.0444 -0.4805
 6521SOL    HW131199   4.123   4.713   9.028 -0.1743 -1.5487 -0.0099
 6521SOL    HW231200   4.009   0.068   9.052 -0.1401 -0.9353 -0.6779
 6522SOL     OW31201   1.098   4.289   6.109 -0.0253 -0.3907  0.0431
 6522SOL    HW131202   1.167   4.276   6.175  0.2687 -0.1993 -0.2286
 6522SOL    HW231203   1.021   4.238   6.136 -0.9246  1.8499  1.7369
 6523SOL     OW31204   3.793   3.285  12.491  0.1643  0.1937 -0.1677
 6523SOL    HW131205   3.708   3.304  12.452  0.6315  1.3329 -0.6341
 6523SOL    HW231206   3.779   3.233  12.570 -0.8275 -0.1723 -0.5864
 6524SOL     OW31207   3.165   1.716   5.705 -0.2555  0.5164 -0.2153
 6524SOL    HW131208   3.227   1.687   5.638  0.8659  2.6513 -0.1059
 6524SOL    HW231209   3.120   1.791   5.664 -3.0233 -0.5961  0.8422
 6525SOL     OW31210   1.656   1.923   7.520 -0.2447  0.5219  0.1318
 6525SOL    HW131211   1.669   1.977   7.442  1.3331 -1.4440 -0.9606
 6525SOL    HW231212   1.744   1.917   7.557  0.1199 -1.8276 -1.1127
 6526SOL     OW31213   1.936   2.379   7.447  0.2710  0.1567  0.1091
 6526SOL    HW131214   1.906   2.346   7.531 -1.0775 -1.6467 -1.0836
 6526SOL    HW231215   1.961   2.465   7.481 -3.5722  1.3522 -0.1054
 6527SOL     OW31216   2.691   0.431   9.080  0.1856 -0.2983  0.3293
 6527SOL    HW131217   2.759   0.491   9.048  0.7097 -1.1252 -0.1215
 6527SOL    HW231218   2.628   0.430   9.008  1.4534  3.0363 -0.8413
 6528SOL     OW31219   3.335   3.904   2.872 -0.1617  0.0484  0.2416
 6528SOL    HW131220   3.254   3.955   2.863 -0.5143 -0.9226 -2.0506
 6528SOL    HW231221   3.319   3.861   2.956 -1.1343  2.1970  1.1468
 6529SOL     OW31222   1.578   2.658  13.677 -0.1193 -0.2079  0.1331
 6529SOL    HW131223   1.553   2.659  13.769 -0.9341  0.9485 -0.1003
 6529SOL    HW231224   1.500   2.617  13.639 -0.5325 -0.6665  1.5028
 6530SOL     OW31225   3.078   4.556   7.202 -1.1583  0.4731 -0.2437
 6530SOL    HW131226   3.027   4.484   7.165  0.2127 -0.2785 -0.6650
 6530SOL    HW231227   3.163   4.523   7.172  0.6302  1.4004  3.7368
 6531SOL     OW31228   1.579   3.899   3.769 -0.0703  0.1212 -0.2084
 6531SOL    HW131229   1.665   3.937   3.748 -0.3029  0.3161 -0.8226
 6531SOL    HW231230   1.521   3.946   3.709 -0.5780  0.9905  0.9889
 6532SOL     OW31231   1.578   1.873   0.890  0.6226 -0.5719 -0.7006
 6532SOL    HW131232   1.575   1.951   0.834  1.2455 -0.5634 -0.7319
 6532SOL    HW231233   1.661   1.830   0.869  0.2129 -1.1385 -1.1471
 6533SOL     OW31234   0.080   3.109  17.066 -0.0378  0.2081  0.5302
 6533SOL    HW131235   0.075   3.149  17.153  1.1720 -0.1745  0.7868
 6533SOL    HW231236   0.055   3.018  17.081  2.8998 -0.6763  0.0356
 6534SOL     OW31237   3.197   2.139   1.296  0.6932 -0.5357 -0.2481
 6534SOL    HW131238   3.183   2.064   1.238  1.3795 -0.4641 -0.5048
 6534SOL    HW231239   3.236   2.095   1.372  0.4649 -0.8120 -0.2900
 6535SOL     OW31240   4.587   0.318  12.172 -0.2886  0.3851 -0.4632
 6535SOL    HW131241   4.619   0.323  12.262 -2.0654 -1.0925  0.2683
 6535SOL    HW231242   4.496   0.348  12.174 -0.7877 -1.1441 -0.0893
 6536SOL     OW31243   0.513   4.247  16.232 -0.0120 -0.4894 -0.2506
 6536SOL    HW131244   0.529   4.339  16.211  1.0875 -0.3474  1.1754
 6536SOL    HW231245   0.537   4.255  16.325 -2.1967  0.3467  0.2436
 6537SOL     OW31246   3.667   4.451  16.664 -0.0415 -0.4882  0.4353
 6537SOL    HW131247   3.575   4.427  16.661 -0.3599  0.9280 -1.1356
 6537SOL    HW231248   3.663   4.540  16.629 -0.6198  0.1058  2.0114
 6538SOL     OW31249   0.896   0.982   5.141 -0.2173  0.3370  0.5849
 6538SOL    HW131250   0.888   0.899   5.188 -0.2082  0.4159  0.7269
 6538SOL    HW231251   0.862   1.048   5.201 -0.7909 -0.0298  0.6681
 6539SOL     OW31252   3.354   1.742   8.713  0.2966  0.9752  0.5067
 6539SOL    HW131253   3.328   1.692   8.790  2.7944 -0.1040  0.6458
 6539SOL    HW231254   3.308   1.694   8.644  0.4386 -1.3597  2.0198
 6540SOL     OW31255   3.724   0.145  10.732 -0.5014  0.0127  0.5370
 6540SOL    HW131256   3.640   0.186  10.753 -1.8402 -1.9461 -0.9438
 6540SOL    HW231257   3.707   0.054  10.756  1.0232 -0.4753 -0.1951
 6541SOL     OW31258   0.102   2.512   3.075 -0.1807 -0.0866 -0.3631
 6541SOL    HW131259   0.029   2.573   3.068 -0.1024 -0.1616 -1.7885
 6541SOL    HW231260   0.158   2.535   3.001 -1.1951 -0.7815 -1.3318
 6542SOL     OW31261   1.337   2.287   4.057 -0.3516  0.6785  0.5875
 6542SOL    HW131262   1.427   2.307   4.032  0.1490 -1.0079  1.0261
 6542SOL    HW231263   1.354   2.193   4.054 -2.1850  0.3748 -0.5142
 6543SOL     OW31264   2.448   2.153   6.611 -0.1687 -0.0619  0.3961
 6543SOL    HW131265   2.535   2.163   6.650  0.2412 -1.8453 -0.0751
 6543SOL    HW231266   2.448   2.224   6.546 -1.4829 -0.6723 -0.2620
 6544SOL     OW31267   0.402   2.830   4.864 -0.0233  0.1593 -0.2140
 6544SOL    HW131268   0.402   2.737   4.840  0.2674 -0.1069  0.7981
 6544SOL    HW231269   0.351   2.816   4.944 -0.5685 -1.4925 -0.8427
 6545SOL     OW31270   1.666   0.506   9.035  0.0737 -0.4827  0.5017
 6545SOL    HW131271   1.695   0.556   9.111  0.0741 -1.3076  1.0421
 6545SOL    HW231272   1.693   0.558   8.960 -0.1673 -0.6893  0.2692
 6546SOL     OW31273   1.644   2.325   6.078  0.3057  0.2862 -0.1403
 6546SOL    HW131274   1.660   2.231   6.074 -0.0466  0.1965  0.4437
 6546SOL    HW231275   1.638   2.348   5.985  1.6671  1.9397  0.1819
 6547SOL     OW31276   4.302   3.928   9.459  0.1358 -0.0423  0.4084
 6547SOL    HW131277   4.307   3.963   9.370  0.0269  0.2383  0.5120
 6547SOL    HW231278   4.290   3.833   9.449  0.5152 -0.1743  1.2919
 6548SOL     OW31279   3.651   2.914  10.576  0.1634  0.5312 -0.4748
 6548SOL    HW131280   3.690   2.827  10.583 -3.0956 -0.8787  0.2042
 6548SOL    HW231281   3.723   2.953  10.527  0.9791 -2.2393 -1.4850
 6549SOL     OW31282   1.812   4.525  14.451  0.1985  0.4416 -0.0405
 6549SOL    HW131283   1.888   4.580  14.469 -0.5956  1.2574  0.8347
 6549SOL    HW231284   1.854   4.443  14.426 -0.2445  0.1782  0.0655
 6550SOL     OW31285   0.334   1.500   7.018  0.3778  0.1876 -0.5161
 6550SOL    HW131286   0.244   1.533   7.021  0.4701  0.1343  2.8558
 6550SOL    HW231287   0.325   1.430   6.954 -0.0926  1.1119 -1.4663
 6551SOL     OW31288   0.049   1.366   2.586 -0.2502  0.3261 -0.6565
 6551SOL    HW131289   0.051   1.367   2.681  2.3003 -1.9354 -0.6961
 6551SOL    HW231290   0.061   1.273   2.569  0.0465  0.7610 -2.8742
 6552SOL     OW31291   1.988   2.890   3.789 -0.7327  0.5568 -0.2733
 6552SOL    HW131292   1.902   2.864   3.822 -0.8547  1.0579 -0.2082
 6552SOL    HW231293   2.042   2.891   3.869 -0.4212  0.4337 -0.4835
 6553SOL     OW31294   3.410   1.151   7.544 -0.5772  0.2864  0.0908
 6553SOL    HW131295   3.367   1.233   7.521 -0.6066  1.2064  3.4462
 6553SOL    HW231296   3.344   1.090   7.509  0.6548 -0.4296 -0.9651
 6554SOL     OW31297   3.430   1.357   1.585 -0.6821  0.3090  0.0296
 6554SOL    HW131298   3.489   1.322   1.651 -0.0346 -0.8265 -1.1540
 6554SOL    HW231299   3.362   1.291   1.588  1.0802 -1.4388  1.4051
 6555SOL     OW31300   1.858   2.817   7.410 -0.3535  0.0955 -0.3194
 6555SOL    HW131301   1.894   2.870   7.339 -1.0451  1.2905  0.2272
 6555SOL    HW231302   1.931   2.769   7.448 -0.0974  1.1318  0.4936
 6556SOL     OW31303   4.034   3.466  13.758  0.5512  0.5483 -0.0936
 6556SOL    HW131304   4.086   3.545  13.745  1.4484  0.3013  1.9325
 6556SOL    HW231305   4.030   3.463  13.854 -0.7106 -1.3811 -0.2060
 6557SOL     OW31306   2.109   1.320  12.815 -0.1264  0.0364  0.0102
 6557SOL    HW131307   2.140   1.404  12.781 -0.8067  0.4592  0.4356
 6557SOL    HW231308   2.191   1.278  12.841 -0.4462  0.0266  1.0250
 6558SOL     OW31309   0.553   1.139   2.870  0.0923 -0.5265  0.4639
 6558SOL    HW131310   0.505   1.159   2.789 -1.6436  1.6291  2.0222
 6558SOL    HW231311   0.522   1.050   2.886  0.5309 -0.5767  1.0078
 6559SOL     OW31312   2.911   3.872   2.262 -0.9057  0.2768  0.2036
 6559SOL    HW131313   2.975   3.815   2.304 -2.4327 -0.8611  0.9532
 6559SOL    HW231314   2.938   3.866   2.170  0.8105 -3.3309  0.9355
 6560SOL     OW31315   1.798   1.391   3.901 -0.1951  0.6368 -0.3464
 6560SOL    HW131316   1.743   1.350   3.968 -1.5178  2.6419 -0.2019
 6560SOL    HW231317   1.847   1.316   3.868 -0.7250 -0.0151  0.3346
 6561SOL     OW31318   0.640   3.108   3.367 -0.1525 -0.5483 -0.1918
 6561SOL    HW131319   0.634   3.051   3.444  0.6088 -0.6772 -0.2340
 6561SOL    HW231320   0.641   3.051   3.291  0.1557 -2.6344  1.3887
 6562SOL     OW31321   3.696   1.453   6.245  0.3794  0.6762 -0.0371
 6562SOL    HW131322   3.646   1.482   6.321  0.2188  2.2728 -0.7727
 6562SOL    HW231323   3.630   1.479   6.182  0.4719 -1.1792 -0.9212
 6563SOL     OW31324   0.780   3.564  10.530 -0.3484 -0.3140  0.3071
 6563SOL    HW131325   0.860   3.549  10.479 -0.0221  1.0684  0.4160
 6563SOL    HW231326   0.775   3.497  10.598  0.7167 -1.5380 -0.8050
 6564SOL     OW31327   2.317   3.874   3.015 -0.3826 -0.3737  0.5822
 6564SOL    HW131328   2.278   3.849   3.098 -0.5083 -0.6343  0.4449
 6564SOL    HW231329   2.344   3.965   3.028 -1.1914  0.0786 -0.9284
 6565SOL     OW31330   1.560   4.568   5.295  0.2027 -0.2420 -0.7319
 6565SOL    HW131331   1.642   4.614   5.276  1.3513 -0.9905  2.5342
 6565SOL    HW231332   1.529   4.626   5.364 -0.2230  1.8998 -2.7076
 6566SOL     OW31333   4.630   1.610   1.641 -0.2445  0.3532 -0.2917
 6566SOL    HW131334   4.587   1.695   1.638  0.2766  0.6380  0.6312
 6566SOL    HW231335   4.708   1.622   1.588 -0.6675  1.4856 -0.6599
 6567SOL     OW31336   3.025   2.756   0.463 -0.3647  0.0856  0.6767
 6567SOL    HW131337   3.097   2.714   0.510 -0.4838 -0.9436 -0.0468
 6567SOL    HW231338   3.064   2.764   0.376  1.9441 -1.2617  1.5870
 6568SOL     OW31339   4.148   4.555   0.798  0.1042  0.3332 -0.2293
 6568SOL    HW131340   4.085   4.485   0.785 -1.2062  1.7710 -1.5629
 6568SOL    HW231341   4.123   4.584   0.886  0.0217 -0.7671  0.1115
 6569SOL     OW31342   0.498   2.563  15.531 -0.1549 -0.2241 -0.5436
 6569SOL    HW131343   0.523   2.632  15.592  0.4099 -0.2974 -0.6861
 6569SOL    HW231344   0.496   2.595  15.440  1.8808  0.0995 -0.4680
 6570SOL     OW31345   1.775   4.706  14.739  0.2845  0.6293  1.0667
 6570SOL    HW131346   1.841   0.024  14.692  1.3827 -0.5749  1.2717
 6570SOL    HW231347   1.761   4.624  14.691 -1.9553  0.5626  1.8472
 6571SOL     OW31348   3.745   4.474   4.718 -0.2380  0.9236  0.3577
 6571SOL    HW131349   3.659   4.449   4.751 -0.2575 -1.9526 -1.8260
 6571SOL    HW231350   3.735   4.505   4.628 -0.5109  0.1101  0.1157
 6572SOL     OW31351   3.582   1.406  14.494  0.3494  0.3711 -0.1505
 6572SOL    HW131352   3.637   1.329  14.478  1.3693  1.2619 -0.9424
 6572SOL    HW231353   3.643   1.461  14.543  0.1566  1.5866 -1.2762
 6573SOL     OW31354   0.279   4.355  17.114 -0.1086 -0.4696  0.5307
 6573SOL    HW131355   0.361   4.376  17.068 -1.2804 -0.9582 -1.8110
 6573SOL    HW231356   0.253   4.441  17.147  1.9181 -0.2294  1.5348
 6574SOL     OW31357   0.002   4.547  10.428 -0.3832 -0.2199 -0.0072
 6574SOL    HW131358   4.645   4.539  10.400 -0.3418 -0.0633 -0.1849
 6574SOL    HW231359   4.731   4.611  10.499  1.2035 -0.0152 -0.0707
 6575SOL     OW31360   2.846   0.724   7.506  0.0405 -0.3572 -0.0194
 6575SOL    HW131361   2.802   0.724   7.421 -0.2345  1.0966  0.1148
 6575SOL    HW231362   2.806   0.800   7.549  1.3474  0.0394  0.5030
 6576SOL     OW31363   1.135   0.208   2.839 -0.5311  0.0419  0.4697
 6576SOL    HW131364   1.053   0.171   2.806  0.4761  0.0522 -2.0223
 6576SOL    HW231365   1.110   0.299   2.856 -2.4951 -0.1826 -1.3133
 6577SOL     OW31366   1.962   2.947   4.762 -0.7755  0.6822 -0.2083
 6577SOL    HW131367   1.876   2.937   4.720 -0.7941  0.3493 -0.0872
 6577SOL    HW231368   1.937   2.951   4.854 -2.3716  0.2074 -0.6222
 6578SOL     OW31369   0.598   0.556   5.279  0.2853 -0.1050 -0.1568
 6578SOL    HW131370   0.584   0.533   5.371 -2.1361  1.2830 -0.1742
 6578SOL    HW231371   0.548   0.483   5.242  0.7242 -0.8572  0.7188
 6579SOL     OW31372   2.544   2.853   4.576 -0.5696 -0.2469  0.0002
 6579SOL    HW131373   2.608   2.800   4.528 -0.7400 -0.5500  0.1052
 6579SOL    HW231374   2.582   2.941   4.582  2.1035 -1.4436  0.6622
 6580SOL     OW31375   4.185   2.273   3.334  0.6800 -0.2621 -0.3305
 6580SOL    HW131376   4.171   2.337   3.404  2.0011  0.3756 -0.6410
 6580SOL    HW231377   4.250   2.318   3.280  2.3112  1.0994  2.7506
 6581SOL     OW31378   3.305   4.103   6.739  0.1621  0.2030  0.3520
 6581SOL    HW131379   3.358   4.148   6.673  0.6569 -0.6523  0.1641
 6581SOL    HW231380   3.212   4.113   6.716  0.6493 -0.3798 -1.8258
 6582SOL     OW31381   1.920   1.485   4.151  0.3762 -0.0783  0.3493
 6582SOL    HW131382   1.998   1.439   4.183  1.7465  0.8472 -1.6129
 6582SOL    HW231383   1.921   1.452   4.061  1.0379  0.6428  0.0926
 6583SOL     OW31384   3.651   3.135  14.522  0.4694 -0.2875 -0.0515
 6583SOL    HW131385   3.717   3.183  14.571  1.9220 -1.1177 -1.2025
 6583SOL    HW231386   3.672   3.173  14.437 -0.6074  1.4453  0.4553
 6584SOL     OW31387   0.168   0.309   3.189  0.3554 -0.0228 -0.2141
 6584SOL    HW131388   0.092   0.254   3.207  1.3109 -1.1894  0.2678
 6584SOL    HW231389   0.199   0.263   3.111 -0.1824  0.6156 -0.7959
 6585SOL     OW31390   0.841   0.574   2.466  0.1392 -0.4634 -0.1749
 6585SOL    HW131391   0.809   0.519   2.394  0.6546 -0.0591 -0.7151
 6585SOL    HW231392   0.918   0.611   2.423  1.2285 -1.0016  1.2931
 6586SOL     OW31393   0.278   3.344   2.831  0.4651  0.0660  0.3241
 6586SOL    HW131394   0.338   3.406   2.871 -0.3610  1.1346 -0.0761
 6586SOL    HW231395   0.337   3.296   2.773  0.7876  0.7911  0.0429
 6587SOL     OW31396   0.077   3.041  13.433  0.4481  0.0149 -0.0006
 6587SOL    HW131397   0.150   2.989  13.398  1.9706  0.6048  2.3422
 6587SOL    HW231398   0.002   2.982  13.434  0.9126 -0.6277 -2.0431
 6588SOL     OW31399   0.087   1.024   0.744 -0.5584  0.0123  0.1518
 6588SOL    HW131400   0.084   0.937   0.704  0.4066 -0.9100  2.1253
 6588SOL    HW231401   0.001   1.063   0.731 -0.3911  0.9003  1.8119
 6589SOL     OW31402   3.136   0.735   7.359  0.3437 -0.4638 -0.2024
 6589SOL    HW131403   3.051   0.720   7.401  0.3435  0.9306  0.3046
 6589SOL    HW231404   3.120   0.813   7.305  0.3113 -0.8834 -0.8007
 6590SOL     OW31405   1.606   4.015  10.202  0.4507  0.7280  0.2086
 6590SOL    HW131406   1.519   4.031  10.165 -0.4433  0.0158  2.0104
 6590SOL    HW231407   1.592   3.928  10.239 -0.6693 -0.3787 -2.8435
 6591SOL     OW31408   2.857   1.581  14.724  0.6776 -0.1621  0.2635
 6591SOL    HW131409   2.794   1.549  14.788 -0.0522 -0.2238 -0.4998
 6591SOL    HW231410   2.799   1.599  14.650  1.4100 -0.0714 -0.2957
 6592SOL     OW31411   3.142   3.233   3.827 -0.2804  0.0105  0.2498
 6592SOL    HW131412   3.153   3.207   3.918  0.2789 -1.1245 -0.1432
 6592SOL    HW231413   3.125   3.148   3.786  0.1413 -0.4970  1.1377
 6593SOL     OW31414   0.040   0.912   4.192  0.4617  0.2816  0.5609
 6593SOL    HW131415   0.041   0.921   4.287  0.7092  0.6294  0.5283
 6593SOL    HW231416   0.075   1.001   4.184 -0.9829  0.8761  0.8961
 6594SOL     OW31417   2.045   4.157   3.283  0.4525  0.4464 -0.3325
 6594SOL    HW131418   1.997   4.086   3.240 -2.9453  1.0261  2.4680
 6594SOL    HW231419   2.005   4.238   3.250  0.3265  0.1830 -0.8164
 6595SOL     OW31420   3.911   2.652   6.831 -0.4293 -0.3484  0.1025
 6595SOL    HW131421   3.833   2.643   6.776 -1.0689  2.1365  0.6062
 6595SOL    HW231422   3.897   2.725   6.891  3.2300  0.7259 -0.3511
 6596SOL     OW31423   2.307   2.257   9.786  0.5593  0.0501  0.7025
 6596SOL    HW131424   2.314   2.167   9.754 -0.0234 -0.0626  0.8768
 6596SOL    HW231425   2.362   2.250   9.864  0.0790 -0.5429  0.9961
 6597SOL     OW31426   1.144   2.926  11.840  0.5017  0.4043 -0.3641
 6597SOL    HW131427   1.137   2.906  11.933  0.7124 -0.1080 -0.4580
 6597SOL    HW231428   1.068   2.982  11.824  0.2535  0.0797 -0.3416
 6598SOL     OW31429   3.408   2.767  14.022 -0.3583 -0.0749 -0.1616
 6598SOL    HW131430   3.414   2.691  13.965 -1.6087 -0.8015  0.6777
 6598SOL    HW231431   3.326   2.805  13.992 -0.1859  0.4527  0.0325
 6599SOL     OW31432   1.349   0.784   6.797 -0.1919  0.3137 -0.1608
 6599SOL    HW131433   1.386   0.871   6.800  1.4383 -0.4224  0.7465
 6599SOL    HW231434   1.256   0.801   6.813  0.3372  1.6534  1.3450
 6600SOL     OW31435   4.263   3.197  13.964 -0.0838  0.4058  0.3946
 6600SOL    HW131436   4.313   3.125  14.002 -0.0413 -0.1040 -0.6202
 6600SOL    HW231437   4.214   3.215  14.044  0.7908 -0.9886  1.2447
 6601SOL     OW31438   2.151   4.696   5.855  0.0368  0.1278  0.4383
 6601SOL    HW131439   2.216   4.708   5.925 -0.5077  1.5000  0.6953
 6601SOL    HW231440   2.131   0.048   5.817 -0.1032 -1.4174 -3.0034
 6602SOL     OW31441   2.644   3.393  11.113  0.5925  0.5491 -0.7358
 6602SOL    HW131442   2.625   3.405  11.206 -1.0612  2.3052 -1.2856
 6602SOL    HW231443   2.608   3.307  11.092  0.1253  0.1846  1.6229
 6603SOL     OW31444   4.255   0.733  14.507  0.3418 -0.8381 -0.0297
 6603SOL    HW131445   4.337   0.781  14.513 -0.0903 -0.2514  1.2626
 6603SOL    HW231446   4.275   0.661  14.567  1.8335 -0.9779 -0.7090
 6604SOL     OW31447   1.286   4.684   0.636 -0.0171 -0.3726 -0.3638
 6604SOL    HW131448   1.193   4.704   0.639  0.0517 -0.3959  1.7556
 6604SOL    HW231449   1.306   4.684   0.542  0.5461  0.8322 -0.2502
 6605SOL     OW31450   0.673   0.588  11.051  0.0790  0.4581  0.4199
 6605SOL    HW131451   0.599   0.649  11.049 -0.1231  0.1179 -2.4950
 6605SOL    HW231452   0.626   0.505  11.063 -1.0138  0.8356 -1.1677
 6606SOL     OW31453   0.876   4.204  17.509  0.7046  0.1397  0.3425
 6606SOL    HW131454   0.871   4.278  17.448 -0.3858  0.4249  0.7815
 6606SOL    HW231455   0.862   4.251  17.591 -0.7331  3.3248 -1.6903
 6607SOL     OW31456   1.981   0.752   8.298 -0.3175 -0.3033  0.3222
 6607SOL    HW131457   2.066   0.790   8.321 -1.0630  1.6594 -0.2092
 6607SOL    HW231458   1.950   0.807   8.227  0.0089  0.4172  0.7407
 6608SOL     OW31459   3.188   3.139  17.718 -0.4989 -0.3617 -0.4669
 6608SOL    HW131460   3.220   3.216  17.672  2.2857 -1.9230 -1.1030
 6608SOL    HW231461   3.140   3.082  17.657  0.1289  1.3229 -2.5331
 6609SOL     OW31462   3.947   2.854  14.816  0.0391  0.6548 -0.3069
 6609SOL    HW131463   3.858   2.856  14.851  0.3437 -0.1052  0.5103
 6609SOL    HW231464   3.931   2.805  14.735 -0.5035  1.7006 -0.8359
 6610SOL     OW31465   2.212   2.028   9.031  0.3889  0.0055 -0.2488
 6610SOL    HW131466   2.264   2.033   9.111  0.9674 -0.7649 -0.5792
 6610SOL    HW231467   2.135   2.073   9.066  0.9809  0.4665  0.4526
 6611SOL     OW31468   0.277   1.093  14.584 -0.0741  0.3079  0.3029
 6611SOL    HW131469   0.274   1.169  14.642 -1.6293  0.6937 -0.2772
 6611SOL    HW231470   0.371   1.078  14.582 -0.3884 -1.7698  0.8070
 6612SOL     OW31471   3.856   3.520   7.262 -0.0673  0.2447 -0.1486
 6612SOL    HW131472   3.762   3.539   7.262 -0.4154 -1.5090 -2.3559
 6612SOL    HW231473   3.906   3.602   7.257  0.6608 -0.2917 -1.6203
 6613SOL     OW31474   0.357   0.239   9.225  0.4709 -0.2062  0.3038
 6613SOL    HW131475   0.337   0.155   9.268  1.3744 -0.6806 -0.1970
 6613SOL    HW231476   0.452   0.248   9.228  0.5269  0.3702 -3.7784
 6614SOL     OW31477   1.513   1.995  10.960 -0.0024  0.1134 -0.0060
 6614SOL    HW131478   1.514   1.900  10.966 -0.1930  0.0337 -1.1820
 6614SOL    HW231479   1.565   2.011  10.881 -0.8914  1.9048 -0.2418
 6615SOL     OW31480   0.752   0.670   9.101 -0.3740 -0.3829  0.6928
 6615SOL    HW131481   0.739   0.763   9.082 -0.2302 -1.1229 -2.9868
 6615SOL    HW231482   0.837   0.661   9.145  1.3576 -1.6940 -2.9186
 6616SOL     OW31483   2.966   0.409  17.574  0.4659  0.0594  0.4592
 6616SOL    HW131484   2.973   0.366  17.489 -3.8398 -1.7605  1.0112
 6616SOL    HW231485   2.949   0.494  17.535 -0.6996 -0.5216 -0.3151
 6617SOL     OW31486   1.971   0.791   8.979  0.5435 -0.0997  0.6570
 6617SOL    HW131487   1.972   0.706   8.936 -0.8488 -0.3158  1.0588
 6617SOL    HW231488   1.967   0.846   8.901  1.8556  0.4843  0.9947
 6618SOL     OW31489   4.398   4.021   5.062 -0.7369  0.3704 -0.1995
 6618SOL    HW131490   4.483   4.056   5.035 -0.3131 -1.1052 -0.7694
 6618SOL    HW231491   4.417   3.927   5.065 -0.9665  0.3422  0.5725
 6619SOL     OW31492   3.251   3.814   6.802 -0.2133  0.5596  0.2780
 6619SOL    HW131493   3.237   3.862   6.884 -1.1936 -1.5895  1.3562
 6619SOL    HW231494   3.267   3.890   6.747  0.0557  0.6228  0.4420
 6620SOL     OW31495   3.184   4.222   3.420  0.1418  0.0084 -0.2807
 6620SOL    HW131496   3.223   4.179   3.497  0.7695  0.3580 -0.4000
 6620SOL    HW231497   3.124   4.280   3.466 -1.9853 -2.9713  0.7402
 6621SOL     OW31498   1.450   0.653   9.264 -0.4252  0.4912  0.3048
 6621SOL    HW131499   1.409   0.714   9.204 -0.5189 -0.4289 -0.5669
 6621SOL    HW231500   1.541   0.648   9.233 -0.7033 -0.9246 -0.2733
 6622SOL     OW31501   0.223   3.573  13.242 -0.2659  0.5425 -0.5001
 6622SOL    HW131502   0.193   3.663  13.242  0.8098  0.9158  3.6233
 6622SOL    HW231503   0.283   3.571  13.317  0.4946 -0.9102 -1.1472
 6623SOL     OW31504   1.749   0.459  16.965  0.0434 -0.2714  0.1429
 6623SOL    HW131505   1.780   0.489  16.879 -1.2539 -0.3941 -0.3560
 6623SOL    HW231506   1.760   0.537  17.020  0.8409 -0.1707 -0.1482
 6624SOL     OW31507   3.381   0.375   6.930 -0.5948 -0.4745 -0.3614
 6624SOL    HW131508   3.332   0.338   6.856 -2.1184  0.5590  0.1447
 6624SOL    HW231509   3.470   0.342   6.917 -0.3523  0.4957 -1.1865
 6625SOL     OW31510   0.525   1.286  13.577 -0.0210  0.0961 -0.4923
 6625SOL    HW131511   0.567   1.246  13.653 -0.2158  2.4264  0.8579
 6625SOL    HW231512   0.456   1.226  13.549 -0.5892  0.4779  0.0925
 6626SOL     OW31513   4.406   4.660   7.825 -0.2673  0.2382 -0.0172
 6626SOL    HW131514   4.332   4.667   7.885 -2.1163 -1.6727 -2.0521
 6626SOL    HW231515   4.390   4.723   7.754  1.0888  0.6072  0.0109
 6627SOL     OW31516   1.996   2.475   0.774 -0.4185 -0.6272  0.3767
 6627SOL    HW131517   2.031   2.386   0.782 -3.2060 -1.7656  0.0158
 6627SOL    HW231518   1.985   2.477   0.679 -0.2372 -0.9122  0.3502
 6628SOL     OW31519   4.262   1.294   2.714  0.8860 -0.1655 -0.4745
 6628SOL    HW131520   4.236   1.202   2.712  0.2942 -0.0485  1.2076
 6628SOL    HW231521   4.196   1.323   2.778  0.6437  1.0370 -1.2745
 6629SOL     OW31522   3.537   0.859   2.039 -0.3324  0.3003 -0.7591
 6629SOL    HW131523   3.564   0.904   2.119 -1.3142 -0.7966  0.1927
 6629SOL    HW231524   3.599   0.898   1.978  0.0222  1.2706  0.2071
 6630SOL     OW31525   3.996   1.176   8.783 -0.5265 -0.0474 -0.1212
 6630SOL    HW131526   3.981   1.237   8.711 -0.4714 -1.1938 -1.0954
 6630SOL    HW231527   3.947   1.218   8.854  0.5224 -4.0022  2.9156
 6631SOL     OW31528   4.187   3.317   7.695 -0.1473 -0.1505  0.3247
 6631SOL    HW131529   4.138   3.344   7.773 -0.2953  1.4986 -0.3462
 6631SOL    HW231530   4.235   3.395   7.671  1.1079 -0.8529  0.5505
 6632SOL     OW31531   4.135   3.860  14.677 -0.1632  0.1585 -0.4460
 6632SOL    HW131532   4.204   3.837  14.739 -2.9109 -0.7880  2.2931
 6632SOL    HW231533   4.169   3.835  14.592 -0.8355 -1.2462 -0.3098
 6633SOL     OW31534   1.867   0.841  12.181  0.2091 -0.4916  0.2079
 6633SOL    HW131535   1.877   0.786  12.258  0.9357  0.2096  0.6092
 6633SOL    HW231536   1.778   0.877  12.186 -0.3470 -1.7673 -0.4232
 6634SOL     OW31537   1.761   3.072   9.670  0.2405  0.2293 -0.0683
 6634SOL    HW131538   1.709   3.070   9.590  0.3306 -0.2234 -0.1194
 6634SOL    HW231539   1.848   3.051   9.637  0.8523  1.1920  0.9351
 6635SOL     OW31540   3.591   0.164   1.786  0.5270 -0.0408 -0.1781
 6635SOL    HW131541   3.677   0.162   1.829 -0.3861 -1.1604  1.5780
 6635SOL    HW231542   3.587   0.078   1.745  0.2092  0.1627 -0.5735
 6636SOL     OW31543   2.496   3.809   3.352  0.1717 -0.1242 -0.1825
 6636SOL    HW131544   2.519   3.894   3.314 -1.1275  0.7586  0.9799
 6636SOL    HW231545   2.571   3.764   3.314  0.7675  1.5939 -1.0605
 6637SOL     OW31546   4.245   3.875  12.638 -0.4167 -0.0127 -0.1855
 6637SOL    HW131547   4.292   3.794  12.621 -1.0235 -0.6038  1.0313
 6637SOL    HW231548   4.295   3.945  12.596 -1.3237  1.2283  0.8024
 6638SOL     OW31549   1.903   4.580  16.393 -0.3602 -0.1279 -0.9119
 6638SOL    HW131550   1.949   4.516  16.339 -1.4866 -0.4686 -1.4766
 6638SOL    HW231551   1.856   4.632  16.328 -1.2269 -1.2298 -1.1714
 6639SOL     OW31552   2.328   4.720   1.924  0.1458 -0.4901 -0.0880
 6639SOL    HW131553   2.367   0.073   1.931 -1.8264  0.4409 -0.7756
 6639SOL    HW231554   2.344   4.721   1.830 -1.2759 -2.7650 -0.3698
 6640SOL     OW31555   3.966   0.988   9.194  0.0638  0.4960  0.2541
 6640SOL    HW131556   3.957   0.931   9.118 -0.3979  1.2752 -0.2851
 6640SOL    HW231557   3.944   1.074   9.157 -1.0860  0.0144 -0.1574
 6641SOL     OW31558   1.986   4.724   9.887  0.0035  0.0137 -0.4452
 6641SOL    HW131559   1.975   4.666   9.812  2.1250 -0.1327 -0.6298
 6641SOL    HW231560   1.898   0.029   9.889  0.3861  0.7296  2.0654
 6642SOL     OW31561   3.051   3.078   1.080 -0.0960 -0.4184  0.0102
 6642SOL    HW131562   3.129   3.027   1.059 -0.4216 -0.8627 -0.1170
 6642SOL    HW231563   3.055   3.143   1.009 -5.1553 -1.8971 -1.6720
 6643SOL     OW31564   2.113   1.415   2.414 -0.7697  0.1991  0.0951
 6643SOL    HW131565   2.049   1.483   2.392  1.3406  1.8765 -0.8490
 6643SOL    HW231566   2.164   1.463   2.479  0.9270 -0.3601 -0.8410
 6644SOL     OW31567   1.419   3.420   2.290  0.1162  0.1325  0.3747
 6644SOL    HW131568   1.462   3.355   2.234 -1.0318 -2.3536  2.3461
 6644SOL    HW231569   1.358   3.367   2.341 -0.2165  0.5681  0.4275
 6645SOL     OW31570   3.443   4.063   4.768  0.2749 -0.0499 -0.5977
 6645SOL    HW131571   3.417   4.077   4.677  0.7155  2.4014 -0.3394
 6645SOL    HW231572   3.381   4.006   4.814  0.8201 -0.0039  0.1936
 6646SOL     OW31573   3.371   0.029   7.348 -0.1758 -0.0704  0.4280
 6646SOL    HW131574   3.430   0.099   7.320 -0.4168 -0.7702 -1.8065
 6646SOL    HW231575   3.292   0.055   7.300 -1.5358 -1.0381  2.1335
 6647SOL     OW31576   2.480   0.470   3.605 -0.1784  0.1448  0.4135
 6647SOL    HW131577   2.538   0.398   3.581 -0.1617  0.2976 -0.0140
 6647SOL    HW231578   2.396   0.425   3.612  0.1567 -0.6719 -0.8526
 6648SOL     OW31579   0.057   0.947   8.505  0.3921  0.1217 -0.1059
 6648SOL    HW131580   0.067   0.930   8.599  1.0112 -0.1532 -0.2242
 6648SOL    HW231581   0.031   1.038   8.519 -0.7277 -0.1477 -0.3951
 6649SOL     OW31582   1.333   0.520   2.364  0.4116 -0.6682 -0.7653
 6649SOL    HW131583   1.412   0.498   2.314  0.5816 -1.6071 -0.0767
 6649SOL    HW231584   1.259   0.514   2.304 -0.1767  2.8454 -0.4176
 6650SOL     OW31585   0.022   0.617   9.406 -0.2788 -0.5765  0.3606
 6650SOL    HW131586   0.062   0.530   9.396  1.2420  0.0894  0.6609
 6650SOL    HW231587   0.058   0.658   9.327 -0.6935  2.0493  1.5573
 6651SOL     OW31588   1.504   0.352   8.627  0.4678 -0.2441 -0.0581
 6651SOL    HW131589   1.450   0.420   8.586  0.6111  0.5695  1.1033
 6651SOL    HW231590   1.462   0.277   8.585  1.7762 -0.7167 -0.5083
 6652SOL     OW31591   4.503   4.508  12.118 -0.1047  0.1292 -0.0783
 6652SOL    HW131592   4.545   4.474  12.039  1.2292 -2.3938  1.7235
 6652SOL    HW231593   4.418   4.520  12.077 -0.1074  0.1343 -0.0713
 6653SOL     OW31594   2.002   1.575   3.828 -0.2589  0.4145 -0.4248
 6653SOL    HW131595   1.917   1.530   3.832  0.0492 -0.2460 -1.4350
 6653SOL    HW231596   2.006   1.609   3.739 -1.0563  1.9819  0.1257
 6654SOL     OW31597   4.238   3.068   3.142  0.6694 -0.7960  0.0523
 6654SOL    HW131598   4.185   3.122   3.201  2.9274  0.6368  0.7500
 6654SOL    HW231599   4.303   3.050   3.210  0.9442 -0.3076 -0.0892
 6655SOL     OW31600   0.012   0.272   3.511 -0.0410  0.4402  0.0928
 6655SOL    HW131601   0.085   0.327   3.481 -1.0525  2.6468  1.6916
 6655SOL    HW231602   4.725   0.308   3.597  0.4351  0.7835  0.0702
 6656SOL     OW31603   1.927   1.921  16.044  0.1768  0.4995  0.2294
 6656SOL    HW131604   2.010   1.953  16.078  0.3056  0.8370 -0.4083
 6656SOL    HW231605   1.948   1.879  15.960  0.1294  2.2745 -0.6663
 6657SOL     OW31606   3.898   1.473   3.111  0.2404  0.1672 -0.3520
 6657SOL    HW131607   3.913   1.566   3.093  1.9158 -0.4839 -2.2798
 6657SOL    HW231608   3.803   1.477   3.114  0.2489 -0.2719  0.4235
 6658SOL     OW31609   4.577   2.551   3.760 -0.1197  0.4058  0.0465
 6658SOL    HW131610   4.586   2.457   3.775 -0.7688 -0.3396 -4.2497
 6658SOL    HW231611   4.667   2.582   3.759 -0.5844  1.7384 -0.7845
 6659SOL     OW31612   2.066   1.082   2.636 -0.5984 -0.3622 -0.6288
 6659SOL    HW131613   2.021   1.166   2.648  2.3255  1.2020 -0.6597
 6659SOL    HW231614   2.012   1.020   2.686  0.7894 -1.2234 -0.1972
 6660SOL     OW31615   2.912   1.027   1.494  0.5772  0.8095  0.5231
 6660SOL    HW131616   2.958   0.977   1.561 -2.1787  0.8048  2.3933
 6660SOL    HW231617   2.838   1.048   1.552  0.2473 -2.3021  1.2315
 6661SOL     OW31618   0.830   2.325   7.927 -0.4814  0.0592  0.9118
 6661SOL    HW131619   0.737   2.312   7.947 -0.5397 -1.0294 -0.0354
 6661SOL    HW231620   0.867   2.243   7.961 -0.2821 -0.8387 -1.5131
 6662SOL     OW31621   3.722   3.695   5.462  0.6072 -0.4705  0.6420
 6662SOL    HW131622   3.724   3.599   5.453 -2.1746 -0.3367 -1.2477
 6662SOL    HW231623   3.641   3.706   5.511  1.0051  1.8479  0.7673
 6663SOL     OW31624   2.314   2.105   7.101  0.4894  0.3156  0.7447
 6663SOL    HW131625   2.387   2.085   7.043  2.1481  4.0563  1.5297
 6663SOL    HW231626   2.264   2.164   7.044  1.0632 -0.5599 -0.6656
 6664SOL     OW31627   2.296   3.083  11.201  0.1829 -0.1077  0.8134
 6664SOL    HW131628   2.258   3.148  11.260  1.3653  0.5702  0.8331
 6664SOL    HW231629   2.307   3.017  11.270  1.5063  1.0793  1.7341
 6665SOL     OW31630   1.209   1.056   5.406 -0.5763  0.3662 -0.3516
 6665SOL    HW131631   1.165   0.971   5.398 -0.5765  0.3121  0.2629
 6665SOL    HW231632   1.149   1.093   5.471 -1.6551 -1.0021 -0.5559
 6666SOL     OW31633   4.656   1.716   6.996  0.6036  0.5533 -0.4596
 6666SOL    HW131634   4.644   1.687   6.905 -0.7061  0.9982 -0.4288
 6666SOL    HW231635   4.566   1.732   7.023  0.7808  1.0298 -0.1492
 6667SOL     OW31636   0.893   3.709   3.560  0.1811 -0.2308  0.3382
 6667SOL    HW131637   0.934   3.639   3.509  1.2159  0.5678  0.0681
 6667SOL    HW231638   0.912   3.779   3.498  0.0392 -0.7940 -0.3369
 6668SOL     OW31639   3.965   0.059   3.536  0.0842 -0.3975 -0.4840
 6668SOL    HW131640   3.902   0.032   3.602 -1.3514 -0.4665 -1.8989
 6668SOL    HW231641   4.027   0.116   3.582 -0.5287  1.2317 -1.7091
 6669SOL     OW31642   4.511   0.645  16.322  0.1347  0.0299 -0.4382
 6669SOL    HW131643   4.532   0.649  16.229  0.2537 -0.3042 -0.4268
 6669SOL    HW231644   4.494   0.733  16.355 -0.0157 -0.0624 -0.2671
 6670SOL     OW31645   0.081   1.524   6.241 -0.6540 -0.4779 -0.1374
 6670SOL    HW131646   4.722   1.538   6.257 -0.2006  1.4451  0.7974
 6670SOL    HW231647   0.080   1.445   6.186  1.0324 -0.4944 -0.1468
 6671SOL     OW31648   2.739   2.844  14.720  0.7838  0.9182 -0.3620
 6671SOL    HW131649   2.819   2.887  14.687  0.1498 -0.2000 -3.4115
 6671SOL    HW231650   2.690   2.830  14.639  1.8280 -0.2403 -0.8060
 6672SOL     OW31651   4.547   1.544   0.116  0.2767  0.7100 -0.4412
 6672SOL    HW131652   4.634   1.506   0.105 -0.1685 -0.9733  1.8380
 6672SOL    HW231653   4.494   1.466   0.128  1.3546  0.1655  0.7679
 6673SOL     OW31654   0.251   1.548   2.592  0.1006  0.1554 -0.8743
 6673SOL    HW131655   0.331   1.511   2.555  0.1575 -0.8232  0.2259
 6673SOL    HW231656   0.197   1.469   2.580 -0.4303  0.7009 -1.9917
 6674SOL     OW31657   1.077   1.547  14.051 -0.2516  0.0569  0.1138
 6674SOL    HW131658   1.087   1.549  14.146  0.1265  0.9764  0.0529
 6674SOL    HW231659   1.012   1.616  14.037  0.3823  1.1977  2.7366
 6675SOL     OW31660   1.703   1.120  13.599 -0.3501  0.0879  0.5315
 6675SOL    HW131661   1.790   1.110  13.638 -0.3539 -2.2077 -0.0524
 6675SOL    HW231662   1.649   1.085  13.669  0.1190 -1.7226 -0.0074
 6676SOL     OW31663   1.928   2.761   9.952  0.2762 -0.0269  0.0135
 6676SOL    HW131664   1.994   2.818   9.913  1.2143 -1.0193  0.1644
 6676SOL    HW231665   1.978   2.684   9.975 -0.3672 -0.2514  0.6604
 6677SOL     OW31666   3.350   1.604   2.010 -0.3485 -0.1182  0.5816
 6677SOL    HW131667   3.367   1.604   1.916  1.0408  0.0026  0.8262
 6677SOL    HW231668   3.358   1.698   2.027  0.0460 -0.1845  0.7763
 6678SOL     OW31669   4.542   2.688   7.688  0.4112 -0.2638  0.1719
 6678SOL    HW131670   4.620   2.632   7.690  1.2183  0.7679 -1.7324
 6678SOL    HW231671   4.471   2.628   7.711 -0.1894  0.5020  0.3182
 6679SOL     OW31672   3.552   3.374   3.225  0.2861 -0.3252  0.4187
 6679SOL    HW131673   3.483   3.314   3.252 -0.8427  1.1739  0.8345
 6679SOL    HW231674   3.525   3.455   3.267 -0.3913  0.5225 -1.6365
 6680SOL     OW31675   1.776   2.813  13.814  0.1156  0.1182  0.1095
 6680SOL    HW131676   1.706   2.835  13.752  0.5751 -0.1620 -0.4991
 6680SOL    HW231677   1.735   2.743  13.864  0.9763 -2.4348 -2.7757
 6681SOL     OW31678   2.830   1.696   6.291  0.3536  0.0742  0.7889
 6681SOL    HW131679   2.776   1.617   6.289  0.0691  0.3166 -2.2173
 6681SOL    HW231680   2.812   1.733   6.204 -0.2556  0.8830  1.2476
 6682SOL     OW31681   2.564   0.524  15.743 -0.3539  0.1218  0.0321
 6682SOL    HW131682   2.629   0.458  15.722  1.0082  0.9477  1.6871
 6682SOL    HW231683   2.544   0.567  15.660  1.0717  1.6973  0.4973
 6683SOL     OW31684   0.318   0.965   4.469 -0.1838  0.0642 -0.1616
 6683SOL    HW131685   0.262   0.957   4.392  1.0131  0.1042 -1.0385
 6683SOL    HW231686   0.269   1.010   4.538  1.6833 -0.2917  1.4267
 6684SOL     OW31687   2.838   3.677   4.769  0.4470 -0.2371 -0.0880
 6684SOL    HW131688   2.851   3.772   4.767  0.0639 -0.1957 -0.8677
 6684SOL    HW231689   2.817   3.670   4.862 -3.9014 -0.1031 -1.0322
 6685SOL     OW31690   0.203   2.165  12.542  0.3725 -0.8553 -0.3142
 6685SOL    HW131691   0.118   2.144  12.502  1.4402 -1.8332 -2.0700
 6685SOL    HW231692   0.224   2.252  12.509 -0.7629 -0.1289  0.8610
 6686SOL     OW31693   3.823   2.865  11.419  0.1478  0.1928 -0.0075
 6686SOL    HW131694   3.874   2.794  11.458  1.1896 -0.3601 -2.3942
 6686SOL    HW231695   3.769   2.898  11.491 -0.5624  2.0561 -1.4030
 6687SOL     OW31696   3.576   3.996  15.896  0.6867 -0.4555  0.4816
 6687SOL    HW131697   3.594   3.915  15.944 -3.5321 -0.2052  2.4353
 6687SOL    HW231698   3.603   4.065  15.956 -0.4621  1.9604 -1.7623
 6688SOL     OW31699   0.570   0.675  15.103 -0.0865  0.1125 -0.5643
 6688SOL    HW131700   0.567   0.679  15.199  1.5753 -1.5452 -0.4520
 6688SOL    HW231701   0.525   0.757  15.082 -0.7753 -0.5240 -1.5285
 6689SOL     OW31702   1.201   2.383  12.276  0.1787 -0.1503  0.3529
 6689SOL    HW131703   1.181   2.421  12.191 -0.8227 -2.8777 -0.6350
 6689SOL    HW231704   1.142   2.308  12.272 -0.1242 -0.1014  3.4372
 6690SOL     OW31705   3.431   0.722   3.910  0.6797 -0.1264 -0.3583
 6690SOL    HW131706   3.489   0.669   3.856 -1.1668 -1.6821 -0.8133
 6690SOL    HW231707   3.350   0.709   3.859  1.3000 -0.9472 -1.1395
 6691SOL     OW31708   2.552   0.174   7.495 -0.0097  0.2802 -0.9537
 6691SOL    HW131709   2.475   0.179   7.437 -0.1685  0.2489 -0.7433
 6691SOL    HW231710   2.535   0.245   7.557  3.0769  0.0010  0.1745
 6692SOL     OW31711   2.269   1.560   2.843  0.4403 -0.1836  0.0919
 6692SOL    HW131712   2.349   1.598   2.878 -0.1289  0.9426  0.1735
 6692SOL    HW231713   2.270   1.478   2.893 -0.8275 -0.1974  0.0965
 6693SOL     OW31714   3.607   2.414   6.698  0.1237  0.0247  0.2016
 6693SOL    HW131715   3.639   2.364   6.773 -0.0197  1.1939  1.0305
 6693SOL    HW231716   3.657   2.369   6.630 -0.7532 -2.5059  1.2286
 6694SOL     OW31717   0.127   0.587   6.704  0.4349 -0.1847  0.2710
 6694SOL    HW131718   0.078   0.545   6.775 -0.2515  0.0286 -0.0773
 6694SOL    HW231719   0.093   0.527   6.637 -0.2086 -0.5468  0.9115
 6695SOL     OW31720   1.728   0.648   3.481 -0.0877 -0.0337  0.7465
 6695SOL    HW131721   1.770   0.690   3.556 -1.5575 -2.8113  3.1023
 6695SOL    HW231722   1.647   0.698   3.474  0.1758  0.4411  1.0953
 6696SOL     OW31723   0.171   1.739  13.522  0.2829  0.0190  0.4252
 6696SOL    HW131724   0.180   1.832  13.502  0.5338 -0.1001 -0.0137
 6696SOL    HW231725   0.115   1.760  13.597 -1.2447  0.7063 -0.9181
 6697SOL     OW31726   3.939   0.081   7.534  0.4915 -0.0084 -0.0470
 6697SOL    HW131727   3.993   0.002   7.531  0.3550 -0.1227  0.5902
 6697SOL    HW231728   3.900   0.078   7.447  0.2082  0.6159  0.0618
 6698SOL     OW31729   3.516   3.886  17.559  0.1155  0.0801 -0.2557
 6698SOL    HW131730   3.518   3.871  17.464 -0.3021 -0.6356 -0.1565
 6698SOL    HW231731   3.427   3.853  17.573  0.2887  0.9059  2.7458
 6699SOL     OW31732   3.176   3.223  16.697 -0.2485 -0.1108  0.3608
 6699SOL    HW131733   3.177   3.159  16.627  1.4748 -0.9391  1.1632
 6699SOL    HW231734   3.137   3.304  16.663 -4.3965 -0.8974  3.2055
 6700SOL     OW31735   3.250   2.625   8.234  0.2934 -0.0679 -0.4748
 6700SOL    HW131736   3.279   2.662   8.318 -1.7175  2.4614 -0.8811
 6700SOL    HW231737   3.178   2.566   8.257  0.1835  0.2757  0.0593
 6701SOL     OW31738   3.430   2.964   5.477 -0.2154  0.2431 -0.4672
 6701SOL    HW131739   3.390   2.879   5.465 -0.5414  0.5000 -1.1895
 6701SOL    HW231740   3.524   2.953   5.461 -0.2943 -0.2507 -0.5742
 6702SOL     OW31741   1.184   2.461   6.574  0.6206  0.1626  0.2607
 6702SOL    HW131742   1.100   2.497   6.604  1.5776  1.4373  1.4329
 6702SOL    HW231743   1.244   2.488   6.643 -1.1582 -0.0591  1.8860
 6703SOL     OW31744   3.887   0.092   8.724 -0.6283  0.2446  0.2712
 6703SOL    HW131745   3.959   0.051   8.675  1.0305  1.2927  1.8441
 6703SOL    HW231746   3.838   0.127   8.650  0.7188 -1.3818 -1.4009
 6704SOL     OW31747   3.294   2.718   1.702 -0.1284 -0.4369 -0.6014
 6704SOL    HW131748   3.221   2.706   1.762  1.0875  0.3837  1.0389
 6704SOL    HW231749   3.286   2.632   1.661  2.5787 -2.1249  2.4449
 6705SOL     OW31750   0.731   3.746   4.088  0.4618  0.6831  0.6362
 6705SOL    HW131751   0.802   3.719   4.147  1.0330 -0.3204 -0.5079
 6705SOL    HW231752   0.785   3.782   4.018 -0.5085  0.2705 -0.3249
 6706SOL     OW31753   3.996   4.710  14.715  0.2955 -0.3271  0.2928
 6706SOL    HW131754   3.942   4.717  14.793 -1.4377 -0.1850 -0.9245
 6706SOL    HW231755   4.082   4.734  14.750  0.3298  2.8654 -1.9237
 6707SOL     OW31756   4.242   0.912   7.574  0.2158  0.0692 -0.1437
 6707SOL    HW131757   4.180   0.902   7.501  0.8194  1.4416 -0.8297
 6707SOL    HW231758   4.321   0.922   7.521  0.3389 -0.7856 -0.1239
 6708SOL     OW31759   0.116   2.339   6.133  0.3093 -0.5575 -0.2459
 6708SOL    HW131760   0.187   2.281   6.107  0.7818  0.0374 -0.2526
 6708SOL    HW231761   0.100   2.301   6.220 -0.7085  0.3015 -0.0490
 6709SOL     OW31762   2.450   2.378   4.666  0.2306 -0.0939  0.5636
 6709SOL    HW131763   2.510   2.396   4.594  0.3538  0.7363  0.8748
 6709SOL    HW231764   2.382   2.332   4.618 -0.6646  1.5434  0.2804
 6710SOL     OW31765   0.511   0.664  10.181 -0.0121  0.3046  0.7324
 6710SOL    HW131766   0.561   0.604  10.235  1.1042  1.9118  1.4867
 6710SOL    HW231767   0.424   0.644  10.217 -0.0160 -1.6119 -0.3814
 6711SOL     OW31768   4.007   2.587   3.043 -0.1285 -0.3204 -0.6587
 6711SOL    HW131769   3.999   2.602   2.949  0.6576 -0.8638 -0.8093
 6711SOL    HW231770   4.087   2.634   3.069  0.0481 -1.6715  1.2272
 6712SOL     OW31771   2.067   2.212   9.965  0.4581  0.8144 -0.0626
 6712SOL    HW131772   2.109   2.129   9.989  0.0827  0.9508  1.0680
 6712SOL    HW231773   2.130   2.229   9.895 -0.4609  1.2338 -0.7762
 6713SOL     OW31774   0.878   2.454  12.541 -0.1603  0.2922  0.5599
 6713SOL    HW131775   0.799   2.452  12.595 -1.7701  1.2832 -1.7810
 6713SOL    HW231776   0.903   2.546  12.539 -0.0213  0.2182 -1.2851
 6714SOL     OW31777   3.827   2.725   0.611 -0.1592  0.7895  0.1854
 6714SOL    HW131778   3.856   2.687   0.528 -1.3387 -1.1298  0.6440
 6714SOL    HW231779   3.784   2.807   0.588 -0.8698  0.7305  1.3043
 6715SOL     OW31780   1.918   0.407   7.828  0.2272 -0.5550  0.2807
 6715SOL    HW131781   1.949   0.473   7.890 -3.6059  1.2411  0.2970
 6715SOL    HW231782   1.982   0.401   7.757 -1.0235  3.6152 -1.2242
 6716SOL     OW31783   3.510   1.020   9.139  0.0126 -0.2602 -0.4338
 6716SOL    HW131784   3.466   1.024   9.054 -1.1908 -1.7292  0.1338
 6716SOL    HW231785   3.587   0.966   9.120  0.4364  0.7452 -1.6585
 6717SOL     OW31786   3.124   1.038   6.958 -0.0306 -0.3064 -0.1002
 6717SOL    HW131787   3.122   1.115   7.014 -2.8124 -2.0679  2.2833
 6717SOL    HW231788   3.214   1.009   6.972 -0.4382 -1.3572  0.3513
 6718SOL     OW31789   0.021   1.872   3.370  0.1339 -0.6427  0.3982
 6718SOL    HW131790   0.114   1.883   3.388  0.8889 -0.1971 -3.7024
 6718SOL    HW231791   4.730   1.876   3.462 -0.7888 -0.3610  0.1367
 6719SOL     OW31792   3.483   2.525   2.044 -0.7264  0.0318  0.4587
 6719SOL    HW131793   3.522   2.438   2.046  0.3513  0.4653 -1.7279
 6719SOL    HW231794   3.454   2.533   2.135  1.9980  1.4014  1.2317
 6720SOL     OW31795   1.024   2.123   5.564 -0.2313 -0.0968 -0.7481
 6720SOL    HW131796   0.949   2.098   5.511  0.0482 -0.1283 -1.1294
 6720SOL    HW231797   1.087   2.172   5.512 -0.2765  0.9904  0.2117
 6721SOL     OW31798   2.831   2.089  14.171  0.3785  0.2431 -0.3225
 6721SOL    HW131799   2.869   2.112  14.086  0.1613  3.3658  0.4410
 6721SOL    HW231800   2.743   2.058  14.147  0.2130  0.7583 -0.3880
 6722SOL     OW31801   1.188   0.475   3.804 -0.8247 -0.0065 -0.1350
 6722SOL    HW131802   1.179   0.494   3.710 -2.2522  0.8381  0.1695
 6722SOL    HW231803   1.122   0.528   3.849 -0.7508 -0.1333  0.1238
 6723SOL     OW31804   3.776   3.752  11.860 -0.4983 -0.2292  0.5981
 6723SOL    HW131805   3.727   3.691  11.915 -2.2145  2.4302  2.0292
 6723SOL    HW231806   3.846   3.771  11.924  0.3688  1.2460 -0.7738
 6724SOL     OW31807   1.262   1.455  13.878 -0.3804  0.1257  0.1302
 6724SOL    HW131808   1.237   1.455  13.785 -0.4543  2.8484  0.1387
 6724SOL    HW231809   1.196   1.513  13.916  1.2298  1.9579  0.1392
 6725SOL     OW31810   0.769   1.376   2.699 -0.1259  0.2588  0.2724
 6725SOL    HW131811   0.735   1.303   2.648  1.9977 -1.9306  1.9744
 6725SOL    HW231812   0.743   1.343   2.785 -0.7070  1.0562  0.4001
 6726SOL     OW31813   1.338   4.068  10.066 -0.0154  0.6740  0.2384
 6726SOL    HW131814   1.336   4.162  10.047  2.1188  0.6435 -0.2100
 6726SOL    HW231815   1.350   4.023   9.982 -3.6354 -1.5816  0.9233
 6727SOL     OW31816   3.790   2.679   2.741 -0.0231  0.1060  0.2111
 6727SOL    HW131817   3.806   2.725   2.659 -2.4591 -0.9578 -0.8768
 6727SOL    HW231818   3.707   2.724   2.752  0.3226  0.8729 -0.3590
 6728SOL     OW31819   3.665   2.525   0.770 -0.4656 -0.1098  0.1628
 6728SOL    HW131820   3.679   2.443   0.723 -2.6725  1.1135 -2.6593
 6728SOL    HW231821   3.720   2.582   0.716  0.1389 -0.9896 -0.1508
 6729SOL     OW31822   2.862   2.368   0.624  0.3932  0.3203 -0.1418
 6729SOL    HW131823   2.862   2.338   0.716  0.6891  3.1176  0.7638
 6729SOL    HW231824   2.951   2.402   0.616  1.2841 -2.2279 -1.1768
 6730SOL     OW31825   4.007   0.103   7.239 -0.2282  0.1502  0.1592
 6730SOL    HW131826   3.996   0.013   7.210 -0.1806 -0.1611  1.1062
 6730SOL    HW231827   3.968   0.150   7.165 -0.1907 -0.0304  0.0258
 6731SOL     OW31828   3.101   0.901   1.770  0.4637 -0.5681 -0.4727
 6731SOL    HW131829   3.101   0.809   1.796 -2.5979 -0.2824  0.6106
 6731SOL    HW231830   3.178   0.931   1.819  0.1086 -1.7968  0.8441
 6732SOL     OW31831   0.746   3.866  13.839 -0.0744 -0.3146 -0.0166
 6732SOL    HW131832   0.755   3.904  13.927 -1.7768  0.1026 -0.0178
 6732SOL    HW231833   0.678   3.921  13.802 -0.0152  1.6862  2.8668
 6733SOL     OW31834   3.951   3.540  12.542  0.0164 -0.3358 -0.1348
 6733SOL    HW131835   3.916   3.463  12.496  1.3536  0.1836 -2.0216
 6733SOL    HW231836   3.990   3.507  12.623 -2.0254  0.9591  1.3767
 6734SOL     OW31837   1.760   0.944   4.279 -0.1933  0.1206  0.1938
 6734SOL    HW131838   1.819   0.871   4.258  0.9440  0.8580  0.8004
 6734SOL    HW231839   1.810   1.020   4.249 -1.1739  1.1306  1.1201
 6735SOL     OW31840   3.451   0.335   6.317 -0.8707  0.0272 -0.5770
 6735SOL    HW131841   3.381   0.361   6.377 -0.9207 -2.3433  0.4016
 6735SOL    HW231842   3.471   0.421   6.282  0.9855  0.0902  0.6485
 6736SOL     OW31843   0.061   0.262   7.222 -0.5465 -0.1067  0.1974
 6736SOL    HW131844   0.096   0.178   7.193 -0.5450  0.6365 -1.9028
 6736SOL    HW231845   4.701   0.252   7.214 -0.3892 -1.7454  0.4159
 6737SOL     OW31846   0.552   1.579   5.624  0.8075  0.7153 -0.3515
 6737SOL    HW131847   0.481   1.592   5.686  1.5053  2.0663  0.1635
 6737SOL    HW231848   0.577   1.488   5.640 -1.8149 -0.1571 -1.2449
 6738SOL     OW31849   0.016   3.949   4.829  0.5274 -0.2769 -0.0897
 6738SOL    HW131850   4.706   3.875   4.788 -0.8672  0.6604 -0.3025
 6738SOL    HW231851   0.012   4.010   4.756 -1.5972  0.4595  0.6210
 6739SOL     OW31852   4.281   0.048  13.299  0.4886  0.0116  0.7775
 6739SOL    HW131853   4.226   0.121  13.270 -0.1604 -1.1110 -0.7663
 6739SOL    HW231854   4.221   4.718  13.335  0.7940 -0.3321  0.6759
 6740SOL     OW31855   3.103   1.426  12.115  0.1103  0.0171 -0.3188
 6740SOL    HW131856   3.139   1.409  12.029  1.4450 -2.5539  0.7501
 6740SOL    HW231857   3.171   1.476  12.159 -0.3795  1.4864 -1.2294
 6741SOL     OW31858   1.021   1.438   5.502 -0.7483 -0.4744  0.1970
 6741SOL    HW131859   1.105   1.444   5.456 -0.4228 -0.5754  0.7655
 6741SOL    HW231860   1.022   1.512   5.562  1.6266 -0.2448 -0.1236
 6742SOL     OW31861   3.040   0.014   5.493 -0.0982 -0.4029 -0.2782
 6742SOL    HW131862   3.009   0.060   5.571  1.0026 -1.0866  0.5700
 6742SOL    HW231863   3.114   4.703   5.534 -0.3533 -0.3946  0.2027
 6743SOL     OW31864   1.949   3.116  15.373 -0.5787 -0.0529  0.2540
 6743SOL    HW131865   1.997   3.062  15.436  0.3757  0.7058  0.1743
 6743SOL    HW231866   1.859   3.095  15.399 -0.5381  3.3897  3.1682
 6744SOL     OW31867   3.430   2.129   8.254 -0.4688  0.8083 -0.3445
 6744SOL    HW131868   3.393   2.173   8.177  0.6009 -1.5458 -2.2146
 6744SOL    HW231869   3.348   2.103   8.295  0.2051  0.7431  0.9598
 6745SOL     OW31870   3.607   3.132   6.724  0.1021 -0.0466  0.3397
 6745SOL    HW131871   3.680   3.075   6.749  0.4367 -0.7565 -2.2715
 6745SOL    HW231872   3.562   3.078   6.660 -1.4133 -0.8367  2.0796
 6746SOL     OW31873   2.382   3.629  12.212 -0.0492  0.1746 -0.2592
 6746SOL    HW131874   2.458   3.676  12.177 -0.6360  2.2509  1.2132
 6746SOL    HW231875   2.409   3.542  12.183  0.7374 -0.3165  1.9816
 6747SOL     OW31876   4.082   1.727   5.440 -0.0564 -0.3042  0.0210
 6747SOL    HW131877   4.130   1.774   5.509 -0.7177  1.1553 -0.4974
 6747SOL    HW231878   4.134   1.750   5.363 -2.4805  2.8918 -0.6705
 6748SOL     OW31879   2.317   4.268  13.973 -0.6943  0.0622  0.4415
 6748SOL    HW131880   2.385   4.254  14.039 -0.3589  3.1924  0.7670
 6748SOL    HW231881   2.313   4.192  13.914 -2.7082 -0.9020  1.8118
 6749SOL     OW31882   4.655   2.147   4.677  0.5540  0.2980  0.0601
 6749SOL    HW131883   4.656   2.143   4.773 -1.6524  0.5877  0.0823
 6749SOL    HW231884   4.575   2.102   4.651  0.0336  0.4772  1.3686
 6750SOL     OW31885   1.117   0.155  17.112 -0.3374  0.4474  0.0203
 6750SOL    HW131886   1.106   0.060  17.109 -1.5215  0.5420  1.2227
 6750SOL    HW231887   1.199   0.160  17.161 -1.7039  1.2622  2.2019
 6751SOL     OW31888   2.871   1.448   3.188 -0.3404 -0.1989 -0.7152
 6751SOL    HW131889   2.907   1.451   3.277 -2.5400  0.9642  0.1183
 6751SOL    HW231890   2.821   1.529   3.184  0.4787  0.3369 -0.3294
 6752SOL     OW31891   0.034   3.562  16.247 -0.1199 -0.0884 -0.4349
 6752SOL    HW131892   0.107   3.589  16.303 -0.0681 -1.4059  0.1567
 6752SOL    HW231893   0.041   3.623  16.174  3.4893 -0.0947 -0.0803
 6753SOL     OW31894   3.545   4.184   9.229 -0.3964 -0.6735  0.1817
 6753SOL    HW131895   3.639   4.197   9.217 -0.3823  2.1746  3.2722
 6753SOL    HW231896   3.511   4.256   9.176 -1.1035  0.8555  2.7011
 6754SOL     OW31897   2.661   4.561   8.726  0.3947  0.4668 -0.1008
 6754SOL    HW131898   2.720   4.520   8.663 -0.7372  0.0138 -0.8691
 6754SOL    HW231899   2.704   4.635   8.768  0.3296  0.9718 -0.9331
 6755SOL     OW31900   3.830   3.092  12.938 -0.2453 -0.3814 -0.5931
 6755SOL    HW131901   3.805   3.164  12.996 -2.6153 -2.8705  1.5153
 6755SOL    HW231902   3.803   3.022  12.998 -2.5577  1.5645  0.6254
 6756SOL     OW31903   2.938   4.340   4.756  0.0812  0.3276 -0.2372
 6756SOL    HW131904   2.894   4.391   4.824  0.2594  2.0412 -1.4078
 6756SOL    HW231905   3.016   4.386   4.727  0.4829 -0.7410 -0.8768
 6757SOL     OW31906   4.180   0.927  13.306 -0.0490  0.1434 -0.5186
 6757SOL    HW131907   4.127   1.004  13.327 -1.4322 -0.9229 -0.1288
 6757SOL    HW231908   4.269   0.955  13.331 -0.2521  0.5164 -0.2144
 6758SOL     OW31909   1.433   1.496   9.510  0.2168  0.3881 -0.1045
 6758SOL    HW131910   1.466   1.412   9.542 -0.1262  0.4720  0.4777
 6758SOL    HW231911   1.488   1.561   9.555  0.1506 -0.4089  1.1277
 6759SOL     OW31912   2.027   0.425   2.625 -0.0937 -0.6631 -0.7938
 6759SOL    HW131913   1.943   0.433   2.580 -0.3861 -1.2183 -0.3465
 6759SOL    HW231914   2.061   0.512   2.604  1.8101 -1.0600  0.6466
 6760SOL     OW31915   4.550   4.564   9.711 -0.0294  0.0539 -0.0235
 6760SOL    HW131916   4.487   4.561   9.639 -0.3917 -0.7560  0.3196
 6760SOL    HW231917   4.517   4.504   9.778 -0.4383 -0.4418 -0.6674
 6761SOL     OW31918   0.122   4.659   4.784 -0.1756  0.1450 -0.1620
 6761SOL    HW131919   0.163   4.707   4.711 -0.5483 -1.0456 -1.1612
 6761SOL    HW231920   0.159   4.572   4.771 -0.3213  0.0027  0.4225
 6762SOL     OW31921   2.444   1.593   7.892  0.4501  0.5633  0.1212
 6762SOL    HW131922   2.527   1.600   7.939  0.7920 -0.0289 -0.3884
 6762SOL    HW231923   2.392   1.672   7.903 -2.2537 -1.2771  0.5519
 6763SOL     OW31924   0.433   3.591   9.523 -0.3542 -0.0321  0.5172
 6763SOL    HW131925   0.355   3.541   9.497 -0.1518 -1.4166  2.5203
 6763SOL    HW231926   0.495   3.561   9.457 -1.6667 -0.8842 -0.3502
 6764SOL     OW31927   3.835   3.429  16.743 -0.2098 -0.8354  0.8191
 6764SOL    HW131928   3.878   3.495  16.798  0.9136 -1.2986  0.4865
 6764SOL    HW231929   3.876   3.346  16.766  0.5605 -0.0178  2.4124
 6765SOL     OW31930   3.306   1.311   0.239 -0.2155 -0.1368 -0.1498
 6765SOL    HW131931   3.265   1.244   0.294  1.8784 -1.5282 -0.2752
 6765SOL    HW231932   3.233   1.372   0.240 -0.1236 -0.0310  1.0586
 6766SOL     OW31933   4.262   0.967   5.667  0.5626  0.0850 -0.0580
 6766SOL    HW131934   4.337   0.931   5.620  0.3772 -1.1281  0.5919
 6766SOL    HW231935   4.290   0.961   5.758  1.5651  0.6719 -0.3342
 6767SOL     OW31936   1.979   4.353   5.240  0.6877 -0.0193 -0.1453
 6767SOL    HW131937   2.074   4.342   5.228  0.7932  0.4706  0.2581
 6767SOL    HW231938   1.974   4.441   5.278 -0.6235 -0.6955  1.2633
 6768SOL     OW31939   2.451   1.950   3.653  0.6066  0.1174 -0.1011
 6768SOL    HW131940   2.406   1.912   3.578 -1.6792 -0.5932  1.6312
 6768SOL    HW231941   2.465   1.876   3.712 -0.8224  0.9022  1.2585
 6769SOL     OW31942   0.111   2.838   4.028  0.4203  0.2238  0.3018
 6769SOL    HW131943   0.088   2.765   3.969  0.9203  0.2812  0.0412
 6769SOL    HW231944   0.107   2.905   3.960 -0.5763 -1.6440 -1.5185
 6770SOL     OW31945   2.170   4.042   8.989  0.3545  0.4724 -0.0794
 6770SOL    HW131946   2.099   4.053   9.053 -2.0902 -0.0642 -2.6645
 6770SOL    HW231947   2.125   3.979   8.932  2.2821 -1.7506  0.8875
 6771SOL     OW31948   4.050   3.586   4.028  0.1954  0.0154  0.2046
 6771SOL    HW131949   4.108   3.614   4.099 -1.5821  0.2869  1.5524
 6771SOL    HW231950   3.969   3.631   4.049 -0.2108 -1.0226  0.8264
 6772SOL     OW31951   1.748   4.155   7.911 -0.2597 -0.1873 -0.1651
 6772SOL    HW131952   1.838   4.188   7.906  0.2661 -1.7169 -0.5879
 6772SOL    HW231953   1.764   4.084   7.973  0.1436  0.3223  0.3197
 6773SOL     OW31954   3.530   1.228   6.527  0.3610 -0.1722 -0.0931
 6773SOL    HW131955   3.450   1.181   6.553  0.5624  0.7295  2.1730
 6773SOL    HW231956   3.507   1.316   6.556 -2.3852 -0.3111 -1.8586
 6774SOL     OW31957   0.193   2.284   0.426  0.3154  0.3272  0.4879
 6774SOL    HW131958   0.208   2.339   0.503  0.5030  1.1661 -0.1491
 6774SOL    HW231959   0.284   2.254   0.415  0.2854  0.2563  0.4300
 6775SOL     OW31960   3.106   3.813   9.103 -0.6362  0.8611 -0.4028
 6775SOL    HW131961   3.019   3.845   9.078 -1.3970  0.9775  2.3975
 6775SOL    HW231962   3.086   3.733   9.150  1.4767  0.9438  0.6044
 6776SOL     OW31963   0.007   1.684   2.694  0.6726  0.7002  0.4847
 6776SOL    HW131964   0.020   1.624   2.620  0.3419 -0.1210  1.0972
 6776SOL    HW231965   0.001   1.621   2.765 -1.0731  0.9282  0.5355
 6777SOL     OW31966   0.468   4.531   4.060  0.5341 -0.4385  0.5606
 6777SOL    HW131967   0.487   4.440   4.038  0.1411  0.2382 -2.5669
 6777SOL    HW231968   0.479   4.523   4.155  1.1818 -1.0895  0.4317
 6778SOL     OW31969   2.881   2.000   8.789 -0.4035 -0.0800 -0.2144
 6778SOL    HW131970   2.804   1.953   8.823  1.2642  0.8052  4.7600
 6778SOL    HW231971   2.901   1.928   8.729  0.6074  0.9868 -1.1339
 6779SOL     OW31972   1.634   3.706   3.119 -0.6489  0.2565  0.1588
 6779SOL    HW131973   1.636   3.610   3.127 -1.6216  0.0961 -1.5808
 6779SOL    HW231974   1.726   3.719   3.096 -0.9077  2.2067  0.2170
 6780SOL     OW31975   2.248   3.316  17.606  0.1765 -1.1642  0.4305
 6780SOL    HW131976   2.194   3.285  17.678  0.5154 -1.6271  0.4853
 6780SOL    HW231977   2.311   3.377  17.644  0.1900 -2.1877  2.0302
 6781SOL     OW31978   1.656   1.875   1.810  0.4483  0.0509  0.2728
 6781SOL    HW131979   1.656   1.970   1.822 -0.0674  0.1922 -0.8289
 6781SOL    HW231980   1.570   1.852   1.846  0.1725  1.4290  0.4919
 6782SOL     OW31981   3.601   2.324   3.110  0.0044  0.2925 -0.3769
 6782SOL    HW131982   3.605   2.409   3.066 -0.9303  0.5173 -0.0310
 6782SOL    HW231983   3.580   2.348   3.201 -0.3552 -1.2650 -0.0492
 6783SOL     OW31984   2.165   3.026   9.316  0.0617  0.3127 -0.2230
 6783SOL    HW131985   2.190   3.068   9.234 -2.3101  2.3329  0.1152
 6783SOL    HW231986   2.247   3.024   9.365  0.0708 -0.5296 -0.2723
 6784SOL     OW31987   2.169   2.068   6.220  0.5535  1.5032 -0.5147
 6784SOL    HW131988   2.165   2.041   6.129 -1.1791  2.2447 -0.6572
 6784SOL    HW231989   2.127   1.999   6.271  1.2276  1.8527  0.5190
 6785SOL     OW31990   0.108   2.301  16.694  0.6746  0.4850  0.1857
 6785SOL    HW131991   0.130   2.219  16.738 -0.8390 -0.0945 -0.1399
 6785SOL    HW231992   0.174   2.293  16.625  0.2388  1.3873 -0.3402
 6786SOL     OW31993   0.747   0.381   0.722  0.1754 -0.7557  0.0083
 6786SOL    HW131994   0.776   0.469   0.742  0.7797 -1.3594  1.7714
 6786SOL    HW231995   0.667   0.367   0.773  0.2042  2.6086  0.9420
 6787SOL     OW31996   2.320   0.025   1.637  0.0508 -0.1247 -0.0277
 6787SOL    HW131997   2.243   0.076   1.613  0.5792  1.7705  2.2746
 6787SOL    HW231998   2.372   0.026   1.557 -1.9087 -3.7134 -1.3851
 6788SOL     OW31999   1.232   1.084   3.829 -0.4972  0.2762  0.2943
 6788SOL    HW132000   1.256   0.994   3.849  0.2541  0.2773 -0.6073
 6788SOL    HW232001   1.258   1.124   3.912 -0.8712  3.1993 -1.0107
 6789SOL     OW32002   3.942   2.953  11.760  0.1820 -0.6200 -0.0306
 6789SOL    HW132003   3.974   2.883  11.703 -1.3834 -1.6449  0.3680
 6789SOL    HW232004   4.009   3.021  11.746 -0.3220 -0.2600 -0.6618
 6790SOL     OW32005   2.816   3.910   8.547  0.0534  0.2405  0.0907
 6790SOL    HW132006   2.890   3.852   8.532 -2.3318 -2.4019 -1.5827
 6790SOL    HW232007   2.813   3.905   8.643  0.9621 -0.9496  0.0587
 6791SOL     OW32008   1.778   1.220   8.377 -0.3850  0.5707  0.7355
 6791SOL    HW132009   1.701   1.217   8.434  0.3072  0.7383  1.6802
 6791SOL    HW232010   1.745   1.151   8.320 -1.5069  0.6618  1.2822
 6792SOL     OW32011   4.008   4.587   7.123 -0.1454 -0.1331 -0.5303
 6792SOL    HW132012   3.987   4.616   7.034  4.3593  1.3068 -1.1430
 6792SOL    HW232013   4.103   4.594   7.112  0.1122 -1.0514  1.1430
 6793SOL     OW32014   1.087   2.022   4.630  0.1832  0.4558  0.5935
 6793SOL    HW132015   1.029   2.093   4.658  2.4705  2.3317  0.5427
 6793SOL    HW232016   1.033   1.976   4.565 -2.2209  2.0592  1.4756
 6794SOL     OW32017   1.606   3.328   9.604 -0.6596 -0.0460  0.8556
 6794SOL    HW132018   1.612   3.241   9.565  0.7030  1.2212 -1.7230
 6794SOL    HW232019   1.548   3.313   9.679  1.5670  1.6626  2.9044
 6795SOL     OW32020   4.080   2.058   5.153  0.4308  0.1365 -0.2622
 6795SOL    HW132021   4.054   2.109   5.229 -0.8560 -0.7558 -0.1007
 6795SOL    HW232022   4.026   1.981   5.172  0.0981  1.1606  2.9211
 6796SOL     OW32023   3.662   0.074   9.807 -0.2264 -0.2567 -0.1267
 6796SOL    HW132024   3.739   0.042   9.854  0.6384  1.3982 -0.4189
 6796SOL    HW232025   3.595   0.014   9.839 -1.1302  1.4574  1.1871
 6797SOL     OW32026   4.327   1.817   4.308  0.4139 -0.4349 -0.1962
 6797SOL    HW132027   4.263   1.766   4.359  0.5211 -0.1370  0.2363
 6797SOL    HW232028   4.310   1.778   4.222  1.0813 -0.0225 -0.5084
 6798SOL     OW32029   3.525   4.396   5.185 -0.2532 -0.0216  0.0419
 6798SOL    HW132030   3.486   4.482   5.200  1.2766  0.9296 -1.5559
 6798SOL    HW232031   3.447   4.341   5.194 -1.0157  0.7610 -1.7856
 6799SOL     OW32032   0.123   0.553   3.346  0.1785  0.6168  0.1358
 6799SOL    HW132033   0.119   0.469   3.301 -1.1611 -0.0577  1.5222
 6799SOL    HW232034   0.149   0.529   3.435 -0.1658  2.3641  0.7091
 6800SOL     OW32035   4.410   2.096   3.940  0.8579  0.1721  0.4618
 6800SOL    HW132036   4.329   2.123   3.984  0.5106  0.4630 -0.3583
 6800SOL    HW232037   4.466   2.174   3.942  0.2696  0.5590  2.1924
 6801SOL     OW32038   1.231   1.437   8.169 -0.5094 -0.0618 -0.2593
 6801SOL    HW132039   1.302   1.499   8.150  0.4739 -0.4854  2.0655
 6801SOL    HW232040   1.192   1.434   8.081 -1.1776  0.0769  0.0360
 6802SOL     OW32041   3.030   0.134   2.561  0.4217 -0.2251  0.3313
 6802SOL    HW132042   2.941   0.136   2.596  0.3327  1.1337  0.0403
 6802SOL    HW232043   3.077   0.068   2.612  0.2853 -2.2884 -2.2169
 6803SOL     OW32044   0.326   2.793   5.987 -0.0885 -0.3157 -0.1790
 6803SOL    HW132045   0.287   2.711   5.958 -1.2979  0.6485 -1.3012
 6803SOL    HW232046   0.268   2.820   6.058  0.2667  0.6283 -0.2448
 6804SOL     OW32047   1.524   0.965   7.762  0.3750  0.4231 -0.3802
 6804SOL    HW132048   1.537   1.030   7.692  0.5518  0.4032 -0.3668
 6804SOL    HW232049   1.589   0.897   7.745  1.2770  1.6570 -1.9946
 6805SOL     OW32050   3.020   0.049   7.463 -0.6660 -0.0012 -0.4682
 6805SOL    HW132051   2.947   0.101   7.430 -0.6877  1.4498  1.8813
 6805SOL    HW232052   3.079   0.121   7.485  3.1312 -3.8119  1.7402
 6806SOL     OW32053   3.774   3.790   2.936 -0.0651 -1.2205 -0.1989
 6806SOL    HW132054   3.785   3.862   2.999 -1.8503  0.9336 -2.3545
 6806SOL    HW232055   3.861   3.785   2.898  0.3585  1.9307  0.3767
 6807SOL     OW32056   3.495   3.134   8.645  0.3546 -0.2852 -0.3676
 6807SOL    HW132057   3.566   3.165   8.701 -1.8307 -0.7932  2.7411
 6807SOL    HW232058   3.427   3.119   8.711  2.1342  1.2492  1.7991
 6808SOL     OW32059   0.108   0.084   7.978  0.0073 -0.1569 -0.4898
 6808SOL    HW132060   0.079   0.071   7.888  1.9772 -0.1021 -1.1284
 6808SOL    HW232061   0.203   0.096   7.969 -0.0698  0.0048 -1.0717
 6809SOL     OW32062   1.382   1.088   6.606 -0.0443 -0.4441 -0.4410
 6809SOL    HW132063   1.347   1.012   6.558  0.5962 -0.5969 -0.6718
 6809SOL    HW232064   1.331   1.156   6.562 -1.3889  0.4477  2.5089
 6810SOL     OW32065   3.479   3.205   6.960  0.0442  0.1746  0.0544
 6810SOL    HW132066   3.509   3.295   6.974  0.3336 -0.2488  2.1090
 6810SOL    HW232067   3.534   3.186   6.884  1.0265  0.8142  0.6039
 6811SOL     OW32068   0.455   0.694   8.162 -0.2501 -0.1608  0.3680
 6811SOL    HW132069   0.496   0.726   8.242  0.5919 -0.2001 -0.0479
 6811SOL    HW232070   0.482   0.603   8.176 -0.0783 -0.4981 -2.2524
 6812SOL     OW32071   4.026   0.400   6.009 -0.6200 -0.4273  0.1234
 6812SOL    HW132072   4.039   0.489   5.975  1.4778 -0.5868  0.4863
 6812SOL    HW232073   3.965   0.366   5.943 -1.7360  0.4499  0.6959
 6813SOL     OW32074   3.186   1.318   8.904  0.1492 -0.8983  0.7140
 6813SOL    HW132075   3.204   1.276   8.820  2.5981 -0.4505  1.0192
 6813SOL    HW232076   3.091   1.333   8.899  0.5216  0.0897 -3.3002
 6814SOL     OW32077   1.860   2.598  17.025  0.8211 -0.2118  0.0825
 6814SOL    HW132078   1.775   2.583  16.983 -0.0403  2.0338  1.0184
 6814SOL    HW232079   1.850   2.684  17.066  1.5923 -0.1884  0.2180
 6815SOL     OW32080   2.372   0.463  14.006  0.6145 -0.2451  0.4818
 6815SOL    HW132081   2.359   0.371  13.980 -2.2708  0.3272 -0.1121
 6815SOL    HW232082   2.283   0.494  13.987  1.1923  0.9086 -0.3024
 6816SOL     OW32083   2.146   4.093   6.175 -0.2217  0.0075 -0.1798
 6816SOL    HW132084   2.051   4.105   6.187  0.3438  1.6950  2.6972
 6816SOL    HW232085   2.161   4.133   6.090  0.1341 -0.2948 -0.2592
 6817SOL     OW32086   2.218   0.649   9.667 -0.1449  0.0600 -0.2874
 6817SOL    HW132087   2.293   0.637   9.608 -0.2636 -3.0803  0.1938
 6817SOL    HW232088   2.261   0.645   9.752 -1.7392  3.0547  0.6679
 6818SOL     OW32089   0.776   4.435  17.386 -0.2126  0.3539  0.2414
 6818SOL    HW132090   0.819   4.475  17.310 -1.1237 -1.0323 -0.9928
 6818SOL    HW232091   0.683   4.445  17.366 -0.0921  0.4946 -0.2434
 6819SOL     OW32092   1.592   3.414  15.179  0.0859 -0.1717 -0.3932
 6819SOL    HW132093   1.595   3.489  15.119  0.8028  0.7435  0.7919
 6819SOL    HW232094   1.509   3.378  15.149  0.3404  0.5443 -1.9504
 6820SOL     OW32095   4.549   1.152   6.903 -0.1991  0.4700  0.2646
 6820SOL    HW132096   4.594   1.073   6.933  0.1898  0.9997  1.0772
 6820SOL    HW232097   4.501   1.174   6.983  1.8620  1.1329  1.3294
 6821SOL     OW32098   1.184   3.415   6.515  0.4956 -0.6118 -0.9484
 6821SOL    HW132099   1.164   3.395   6.607  3.0799 -1.6284 -0.6089
 6821SOL    HW232100   1.190   3.509   6.501 -0.0358 -0.4691 -0.2586
 6822SOL     OW32101   0.122   1.903   2.391 -0.0151  0.5007 -0.4022
 6822SOL    HW132102   0.045   1.848   2.380 -0.5691  1.1869  0.0541
 6822SOL    HW232103   0.146   1.918   2.300 -1.1097 -0.7807 -0.8933
 6823SOL     OW32104   1.803   2.225   1.332  0.4301  0.0304 -0.7184
 6823SOL    HW132105   1.819   2.319   1.323 -0.2529  0.1765 -0.3920
 6823SOL    HW232106   1.893   2.191   1.338  0.1820 -0.0403  2.7301
 6824SOL     OW32107   0.494   1.303  16.265  0.0723  0.6271 -0.3574
 6824SOL    HW132108   0.505   1.398  16.267  1.2307  0.4592  2.1571
 6824SOL    HW232109   0.575   1.278  16.222  2.1128 -0.1107  3.9694
 6825SOL     OW32110   3.090   3.110   4.339  0.6486  0.0971 -0.0298
 6825SOL    HW132111   3.141   3.077   4.413  1.1788 -0.4526 -0.6479
 6825SOL    HW232112   3.045   3.186   4.376  2.8581  0.2217  2.4998
 6826SOL     OW32113   3.833   3.357   3.991 -0.0893 -0.1943  0.0490
 6826SOL    HW132114   3.893   3.283   3.982 -1.2807 -1.2350  0.7717
 6826SOL    HW232115   3.894   3.422   4.026 -3.3291  1.3699  2.7409
 6827SOL     OW32116   1.448   4.004   4.160 -0.0015  0.1487 -0.6802
 6827SOL    HW132117   1.500   3.941   4.110  0.8780  1.7788 -1.8233
 6827SOL    HW232118   1.515   4.066   4.188 -1.2537  1.4823 -0.6761
 6828SOL     OW32119   1.354   1.052   5.126  0.2786 -0.0310  0.1512
 6828SOL    HW132120   1.290   1.084   5.063 -0.2040  0.7062  1.0242
 6828SOL    HW232121   1.332   1.097   5.207 -1.8692 -1.5153  0.3905
 6829SOL     OW32122   3.970   2.158   5.388 -0.5027 -0.9264  0.6012
 6829SOL    HW132123   3.971   2.190   5.478  0.6664 -0.3380  0.3868
 6829SOL    HW232124   3.876   2.167   5.376 -0.0911 -0.2801 -2.0013
 6830SOL     OW32125   4.443   0.690   7.436  0.2332 -0.3652 -0.5992
 6830SOL    HW132126   4.501   0.634   7.383 -1.7336 -1.2695 -1.7898
 6830SOL    HW232127   4.475   0.780   7.441  3.4711 -1.5906  0.5733
 6831SOL     OW32128   2.149   2.302   1.929 -0.4338  0.0877 -0.3757
 6831SOL    HW132129   2.181   2.386   1.898  0.5528 -0.0127  0.3406
 6831SOL    HW232130   2.221   2.290   1.991  0.4600  1.0757 -1.2262
 6832SOL     OW32131   2.972   4.621   8.789  0.1950  0.9300  0.4322
 6832SOL    HW132132   2.938   4.585   8.871 -0.9243  2.6288  0.7068
 6832SOL    HW232133   3.067   4.620   8.801  0.1386 -0.9270  0.6491
 6833SOL     OW32134   1.153   4.486   9.094 -0.1923 -0.1376 -0.0889
 6833SOL    HW132135   1.100   4.473   9.015  1.1621  1.4771 -1.2863
 6833SOL    HW232136   1.084   4.477   9.160 -0.1527  1.3949  0.1780
 6834SOL     OW32137   3.833   3.484  11.502  0.2975 -0.1026  0.2275
 6834SOL    HW132138   3.829   3.523  11.415  1.0149  2.1359  1.1975
 6834SOL    HW232139   3.830   3.560  11.560 -0.0344 -1.1672  1.5991
 6835SOL     OW32140   4.066   0.502   5.403  0.4110  0.3765 -0.0938
 6835SOL    HW132141   4.095   0.544   5.484  2.8452  1.2516 -1.4234
 6835SOL    HW232142   3.971   0.491   5.408  0.4567  0.5491  1.4218
 6836SOL     OW32143   4.693   2.461   7.700 -0.0282 -0.3703  0.2036
 6836SOL    HW132144   4.710   2.442   7.608 -2.2541 -2.5342  0.2466
 6836SOL    HW232145   4.708   2.375   7.740  0.6120  0.7444  2.3166
 6837SOL     OW32146   0.597   3.908   9.367  0.1525  0.3349  0.0397
 6837SOL    HW132147   0.549   3.847   9.311 -2.4314  0.3773  2.2166
 6837SOL    HW232148   0.637   3.852   9.434 -1.4970 -0.7385  0.1259
 6838SOL     OW32149   4.007   3.189  16.864  0.2062 -0.0660  0.4184
 6838SOL    HW132150   3.981   3.122  16.801  0.2300  2.8312 -2.6662
 6838SOL    HW232151   4.083   3.220  16.815 -0.5123  1.8070  0.4831
 6839SOL     OW32152   1.166   2.238   7.582  0.3715 -0.0608 -0.1523
 6839SOL    HW132153   1.091   2.245   7.524  0.4570 -0.4231 -0.3075
 6839SOL    HW232154   1.154   2.316   7.637  0.0484 -0.4887  0.3889
 6840SOL     OW32155   4.199   2.006   2.227  0.2878  0.4377 -0.0351
 6840SOL    HW132156   4.281   1.994   2.274 -0.0697 -0.2156  0.4279
 6840SOL    HW232157   4.214   2.095   2.197  1.4369 -0.0298 -0.8285
 6841SOL     OW32158   2.191   2.975   1.914  0.4378  0.1068 -0.4910
 6841SOL    HW132159   2.172   3.068   1.926  0.4877 -0.2144  2.1103
 6841SOL    HW232160   2.216   2.973   1.822  2.7381 -1.4514  0.1620
 6842SOL     OW32161   3.517   2.478   4.157 -0.1790  0.0444 -0.1827
 6842SOL    HW132162   3.462   2.485   4.235 -1.6891  3.0361 -1.5093
 6842SOL    HW232163   3.513   2.382   4.146  0.4344  0.0397 -0.3297
 6843SOL     OW32164   3.254   1.506   6.362  0.0004  0.2140 -0.0809
 6843SOL    HW132165   3.189   1.442   6.387 -1.3107  0.1177 -3.6646
 6843SOL    HW232166   3.198   1.582   6.376 -0.5313 -0.0976 -0.5212
 6844SOL     OW32167   2.076   0.605   5.936 -0.1261  0.2037  0.2813
 6844SOL    HW132168   2.108   0.694   5.947 -0.9010  0.7721 -2.0466
 6844SOL    HW232169   2.149   0.565   5.889  0.2497  0.9927  0.1883
 6845SOL     OW32170   0.449   3.458   0.932 -0.0230 -0.3631 -0.0830
 6845SOL    HW132171   0.462   3.458   0.837 -2.4722 -1.1500 -0.4291
 6845SOL    HW232172   0.376   3.395   0.928 -1.8660  1.7779 -0.3613
 6846SOL     OW32173   0.617   4.233  16.485  0.1601 -0.3710 -0.1712
 6846SOL    HW132174   0.548   4.251  16.549 -0.9258  1.9075 -1.9532
 6846SOL    HW232175   0.690   4.289  16.511 -0.0272  0.0590 -0.5674
 6847SOL     OW32176   2.786   3.659   7.672 -0.0821  0.1198  0.1153
 6847SOL    HW132177   2.868   3.648   7.624 -0.6980 -0.1352 -0.8716
 6847SOL    HW232178   2.755   3.734   7.622 -1.8847  0.3291  1.5571
 6848SOL     OW32179   4.671   0.892   6.675  0.2630  0.2603  0.0526
 6848SOL    HW132180   4.623   0.818   6.636  0.7678 -0.4409  0.7661
 6848SOL    HW232181   4.674   0.871   6.768 -0.0573 -1.0054 -0.2224
 6849SOL     OW32182   1.020   4.388   6.952  0.0615  0.3436  0.3011
 6849SOL    HW132183   0.969   4.468   6.967 -1.5286 -0.4893 -0.6731
 6849SOL    HW232184   1.068   4.378   7.034  0.4845  1.6874  0.2171
 6850SOL     OW32185   4.203   2.631   6.268  0.1047 -0.0531  0.0640
 6850SOL    HW132186   4.204   2.713   6.218 -2.4190 -1.3175 -2.0304
 6850SOL    HW232187   4.212   2.574   6.191 -0.3843 -1.1745  0.8495
 6851SOL     OW32188   2.456   3.969   7.459 -0.4931  0.5290  0.0595
 6851SOL    HW132189   2.402   3.944   7.534 -0.8068 -0.1417 -0.3873
 6851SOL    HW232190   2.397   3.939   7.390  0.0883 -0.9687  0.2101
 6852SOL     OW32191   0.180   4.284  14.147 -0.2706  0.6217 -0.4206
 6852SOL    HW132192   0.125   4.284  14.069 -0.0668  1.6563 -0.5559
 6852SOL    HW232193   0.260   4.269  14.097  1.2489  1.4614  1.7643
 6853SOL     OW32194   2.112   0.858   3.319 -0.0102  0.4283 -0.3508
 6853SOL    HW132195   2.130   0.951   3.333 -2.3219  0.9847 -1.0210
 6853SOL    HW232196   2.021   0.867   3.290 -0.3217  0.6260  0.6868
 6854SOL     OW32197   4.421   3.408  12.208 -0.0276 -0.0342  0.2785
 6854SOL    HW132198   4.348   3.435  12.263 -0.9476 -1.7348 -0.0888
 6854SOL    HW232199   4.412   3.456  12.126  0.4224  1.8556  1.3576
 6855SOL     OW32200   2.694   4.059   8.340  0.0156  0.2243 -0.3187
 6855SOL    HW132201   2.733   4.019   8.418 -1.9706  0.2774  0.6963
 6855SOL    HW232202   2.683   4.148   8.371  1.0108  0.9852 -2.1432
 6856SOL     OW32203   3.729   3.795   5.212  0.0889 -0.2317 -0.0632
 6856SOL    HW132204   3.736   3.763   5.302  2.6976  1.5536  0.3493
 6856SOL    HW232205   3.677   3.873   5.231  0.1204 -0.5022  1.1375
 6857SOL     OW32206   1.394   3.563   4.773  0.1644 -0.0191 -0.1756
 6857SOL    HW132207   1.338   3.496   4.812 -0.7516 -0.8926 -2.9660
 6857SOL    HW232208   1.381   3.641   4.825  1.4306 -0.2744  0.5296
 6858SOL     OW32209   4.396   1.639  16.299 -0.2237 -0.2900  0.2526
 6858SOL    HW132210   4.425   1.600  16.216  1.1773 -0.8595  1.0158
 6858SOL    HW232211   4.354   1.559  16.329  1.5926 -1.4710 -0.3442
 6859SOL     OW32212   1.257   2.630   1.982  0.1497 -0.1089  0.0502
 6859SOL    HW132213   1.282   2.582   1.904  1.2988  0.7221 -0.1005
 6859SOL    HW232214   1.162   2.617   1.983 -0.2041  2.3856 -0.9062
 6860SOL     OW32215   4.327   0.560  14.692  0.2460  0.3112  0.3070
 6860SOL    HW132216   4.358   0.604  14.772 -1.1979  0.2817  0.8701
 6860SOL    HW232217   4.253   0.505  14.717  1.4202 -0.7616  1.4270
 6861SOL     OW32218   4.527   3.546   6.935 -0.0659  0.0903  0.3134
 6861SOL    HW132219   4.519   3.636   6.905 -0.1145  0.2299  0.7463
 6861SOL    HW232220   4.436   3.519   6.925  0.0444  0.5699 -1.9346
 6862SOL     OW32221   4.707   1.011  15.336  0.2299 -0.0129 -0.3322
 6862SOL    HW132222   0.015   0.983  15.255 -0.8374  0.0990 -0.9174
 6862SOL    HW232223   4.702   1.106  15.325 -0.2983  0.1244  1.0043
 6863SOL     OW32224   0.218   3.019   7.080  0.2149  0.3341 -0.3690
 6863SOL    HW132225   0.140   2.998   7.029  0.1832 -1.8324  0.5678
 6863SOL    HW232226   0.191   3.087   7.142 -0.8687 -2.1899  1.9154
 6864SOL     OW32227   0.594   2.645   0.179 -0.2582 -0.1126  0.0488
 6864SOL    HW132228   0.602   2.597   0.262  2.2519 -0.2383 -0.2566
 6864SOL    HW232229   0.677   2.692   0.174 -1.6682  2.4036  0.0473
 6865SOL     OW32230   0.525   0.680   4.712  0.0344 -0.6680  0.3439
 6865SOL    HW132231   0.527   0.627   4.791 -1.5418 -2.6425 -0.9194
 6865SOL    HW232232   0.486   0.760   4.747 -0.6893  0.4139 -2.8732
 6866SOL     OW32233   2.856   4.106   5.899  0.3094  0.0684  0.1645
 6866SOL    HW132234   2.883   4.179   5.955  0.1369 -0.0851  0.4481
 6866SOL    HW232235   2.762   4.101   5.917  0.1427 -1.8894 -1.2680
 6867SOL     OW32236   2.923   0.806   8.672  0.7037 -0.1824 -0.1423
 6867SOL    HW132237   2.945   0.863   8.745 -2.2226  0.4831  0.2249
 6867SOL    HW232238   2.851   0.755   8.709  2.2593 -2.1801  0.1317
 6868SOL     OW32239   1.718   3.500  13.913 -0.5835  0.0011 -0.3391
 6868SOL    HW132240   1.770   3.526  13.837  0.9867 -1.1886  0.3419
 6868SOL    HW232241   1.640   3.556  13.911 -0.4914  0.1337 -0.2297
 6869SOL     OW32242   0.788   4.209   4.175 -0.0720 -0.0820  0.3579
 6869SOL    HW132243   0.820   4.174   4.092 -1.2982  0.9210 -0.5484
 6869SOL    HW232244   0.852   4.158   4.224  0.8435 -1.0047 -1.7937
 6870SOL     OW32245   0.342   4.214  15.914  0.0667  0.0083  0.0288
 6870SOL    HW132246   0.420   4.231  15.861 -1.1240 -0.6323 -1.8738
 6870SOL    HW232247   0.275   4.268  15.874  0.3220  0.6064  0.4028
 6871SOL     OW32248   3.302   2.667   6.567 -0.1468 -0.0030  0.5084
 6871SOL    HW132249   3.252   2.638   6.491 -0.3153 -1.3510  1.1388
 6871SOL    HW232250   3.231   2.714   6.611 -1.8037 -0.3196 -1.7935
 6872SOL     OW32251   2.158   2.544   1.792 -0.4154  0.3044 -0.4626
 6872SOL    HW132252   2.192   2.479   1.730 -0.0160 -2.9111  3.1315
 6872SOL    HW232253   2.138   2.619   1.736  0.3897  1.3342  0.6193
 6873SOL     OW32254   0.903   4.594   9.440  0.0467 -0.2234  0.0371
 6873SOL    HW132255   0.823   4.585   9.492  0.1796 -2.0823 -0.1016
 6873SOL    HW232256   0.874   4.670   9.389  1.5641  0.9549  0.9164
 6874SOL     OW32257   1.393   1.378  10.695  0.4280  0.1186  0.5738
 6874SOL    HW132258   1.428   1.344  10.613 -0.5047 -0.8456  0.5623
 6874SOL    HW232259   1.304   1.342  10.682  0.0823  0.5349  1.7950
 6875SOL     OW32260   3.497   3.401  13.723 -0.8338  0.4694  0.0252
 6875SOL    HW132261   3.585   3.384  13.755  0.4552  0.0861 -3.8136
 6875SOL    HW232262   3.443   3.347  13.781  0.3969 -0.3558  0.3953
 6876SOL     OW32263   4.689   1.229   5.224  0.1246  0.0329  0.2231
 6876SOL    HW132264   4.704   1.227   5.318 -0.2402 -3.9506  0.1854
 6876SOL    HW232265   4.598   1.255   5.209  0.3737  1.6247  1.4707
 6877SOL     OW32266   0.224   1.008   3.385 -0.4359 -0.1512 -0.3068
 6877SOL    HW132267   0.249   1.065   3.313  0.4573 -0.6658 -0.3988
 6877SOL    HW232268   0.171   0.946   3.335 -1.2988 -0.8376  1.4567
 6878SOL     OW32269   1.449   2.707   6.456 -0.1109  0.1999  0.3374
 6878SOL    HW132270   1.474   2.617   6.435 -1.8804 -0.5651  1.4295
 6878SOL    HW232271   1.532   2.749   6.479 -1.0700  1.5715  1.2889
 6879SOL     OW32272   3.818   0.831   0.210  0.4617 -0.0057 -0.1762
 6879SOL    HW132273   3.781   0.864   0.128  0.7631 -0.1777 -0.3803
 6879SOL    HW232274   3.886   0.769   0.184 -0.6850 -0.7936 -1.2718
 6880SOL     OW32275   1.477   3.957  14.860  0.7132  0.5953 -0.1809
 6880SOL    HW132276   1.542   4.028  14.860  2.9542 -1.4647 -0.9213
 6880SOL    HW232277   1.480   3.928  14.952  3.3845 -0.0388 -0.4508
 6881SOL     OW32278   1.067   0.473   0.572  0.1167 -0.2122 -0.0180
 6881SOL    HW132279   1.000   0.454   0.506  0.0932 -0.8185  0.1787
 6881SOL    HW232280   1.021   0.526   0.637 -0.8086  1.4059 -1.9877
 6882SOL     OW32281   0.002   1.703   3.135  0.4611 -0.1367 -0.4326
 6882SOL    HW132282   0.018   1.759   3.212  0.2442  0.2094 -0.6405
 6882SOL    HW232283   0.033   1.616   3.160  0.7524  0.4899  1.3924
 6883SOL     OW32284   2.039   1.881   3.738 -0.0142 -0.0470 -0.5195
 6883SOL    HW132285   2.085   1.904   3.658 -2.0826  0.8641 -1.4561
 6883SOL    HW232286   1.991   1.810   3.694 -2.0222  1.2554 -0.4409
 6884SOL     OW32287   3.987   4.494   2.937 -0.7228  0.1411 -0.2349
 6884SOL    HW132288   3.937   4.514   2.858  0.0045 -0.5533 -0.8728
 6884SOL    HW232289   3.955   4.405   2.950  1.7725 -0.5594  1.1267
 6885SOL     OW32290   4.619   1.037  11.120  0.7138  0.3938  0.6513
 6885SOL    HW132291   4.661   0.952  11.105 -1.9924 -1.0035  1.0492
 6885SOL    HW232292   4.537   1.002  11.154  0.3059 -0.0282 -0.7524
 6886SOL     OW32293   4.253   0.321   9.257  0.2284  0.0801 -1.1140
 6886SOL    HW132294   4.177   0.377   9.243 -0.9040 -1.7215 -2.2492
 6886SOL    HW232295   4.276   0.336   9.348  2.5887 -0.3308 -1.6433
 6887SOL     OW32296   0.640   4.661   9.517 -0.7547  0.4790 -0.1171
 6887SOL    HW132297   0.602   4.679   9.432  1.9126 -2.4235 -1.9257
 6887SOL    HW232298   0.599   4.576   9.537  0.4772 -0.2724 -0.7803
 6888SOL     OW32299   2.712   2.122   6.294  1.2997  0.4483  0.0125
 6888SOL    HW132300   2.779   2.099   6.230  1.5096  1.5157 -0.1459
 6888SOL    HW232301   2.670   2.198   6.253  0.9275  0.5904  0.6626
 6889SOL     OW32302   1.670   2.777  14.156  0.3662 -0.3684  0.3530
 6889SOL    HW132303   1.663   2.800  14.249  1.3626 -0.6814  0.5001
 6889SOL    HW232304   1.748   2.722  14.158  0.1063 -0.8183 -1.6266
 6890SOL     OW32305   3.461   0.290   5.988 -0.4163 -0.2154 -0.4418
 6890SOL    HW132306   3.520   0.365   5.983  0.1227 -0.6620 -0.7913
 6890SOL    HW232307   3.507   0.243   6.058  0.1342  1.1784  0.1230
 6891SOL     OW32308   0.459   1.690  16.511 -0.4365 -0.3921  0.1012
 6891SOL    HW132309   0.377   1.645  16.493 -1.0371  0.2511  1.2358
 6891SOL    HW232310   0.455   1.702  16.606  3.0668  1.2643  0.0235
 6892SOL     OW32311   1.777   1.103   5.176  0.4415  0.3244  0.2516
 6892SOL    HW132312   1.795   1.060   5.259 -0.3218 -1.5098 -0.5356
 6892SOL    HW232313   1.706   1.048   5.142  2.0069 -1.4205 -0.2023
 6893SOL     OW32314   4.334   4.188   4.587 -0.3957  0.2314 -0.3820
 6893SOL    HW132315   4.335   4.237   4.505 -0.7830 -1.9695 -1.6867
 6893SOL    HW232316   4.311   4.256   4.650 -0.9099 -1.3739  1.1783
 6894SOL     OW32317   1.339   4.575  15.199  0.1107  0.2377  0.2250
 6894SOL    HW132318   1.360   4.564  15.292  0.5807  2.2268  0.3618
 6894SOL    HW232319   1.243   4.571  15.204 -0.1421  1.5182 -3.6080
 6895SOL     OW32320   3.309   2.097  16.075  0.3775  0.2159 -0.4358
 6895SOL    HW132321   3.292   2.050  15.993 -0.0204 -2.4290  1.1467
 6895SOL    HW232322   3.403   2.112  16.063  0.4609  0.0798  0.0645
 6896SOL     OW32323   3.450   1.985   7.041 -0.1262 -0.4451  0.4341
 6896SOL    HW132324   3.529   1.967   7.092 -0.3811  1.2974  1.4274
 6896SOL    HW232325   3.391   1.928   7.090 -1.4909 -1.2773 -2.1644
 6897SOL     OW32326   2.226   4.307   5.195  0.0510  0.1603  0.2322
 6897SOL    HW132327   2.309   4.350   5.174  0.0348 -0.2143 -0.6112
 6897SOL    HW232328   2.244   4.221   5.156  1.7365  0.0825  1.1795
 6898SOL     OW32329   3.649   2.369   6.320 -0.1254 -0.0457 -0.0275
 6898SOL    HW132330   3.595   2.311   6.267  0.5580 -1.2341  0.5750
 6898SOL    HW232331   3.593   2.447   6.320  0.2140  0.1966  0.0135
 6899SOL     OW32332   3.496   3.835  17.289 -0.4280  0.1342 -0.3209
 6899SOL    HW132333   3.486   3.742  17.307 -1.0086 -0.0985 -1.8448
 6899SOL    HW232334   3.505   3.830  17.194  0.3007  1.2604 -0.3190
 6900SOL     OW32335   4.316   0.758  13.649 -0.2822  0.5733 -0.7143
 6900SOL    HW132336   4.240   0.816  13.645 -0.8842 -0.1825 -0.0354
 6900SOL    HW232337   4.387   0.819  13.629 -2.5813  3.4953 -0.0293
 6901SOL     OW32338   3.869   3.792  11.599 -0.2230 -0.1669 -0.3086
 6901SOL    HW132339   3.818   3.785  11.680  0.0958 -1.8884 -0.2572
 6901SOL    HW232340   3.946   3.745  11.630 -1.1373 -1.4850 -0.0421
 6902SOL     OW32341   1.503   1.984   3.537 -0.2301  0.5059 -0.1907
 6902SOL    HW132342   1.578   1.970   3.596 -0.6576 -0.7593  0.0575
 6902SOL    HW232343   1.458   1.900   3.533 -0.4039  0.7193 -2.8079
 6903SOL     OW32344   2.804   3.212   5.864  1.0316  0.2370 -0.5154
 6903SOL    HW132345   2.873   3.227   5.799  1.5212 -0.9599 -0.2781
 6903SOL    HW232346   2.859   3.179   5.935  0.2046  0.8738  0.4228
 6904SOL     OW32347   4.031   1.381  10.971  0.0367  0.7247 -0.1745
 6904SOL    HW132348   4.056   1.405  11.060  0.0829 -1.1852  0.3330
 6904SOL    HW232349   4.117   1.366  10.931  0.1236 -0.3874  0.4176
 6905SOL     OW32350   3.864   0.267   6.202  0.3294 -0.3305 -0.1899
 6905SOL    HW132351   3.905   0.307   6.126 -0.1072 -0.8741 -0.7099
 6905SOL    HW232352   3.941   0.230   6.246 -0.0086  0.2316  0.8900
 6906SOL     OW32353   2.880   2.993   4.199 -0.5819 -0.1179  0.1814
 6906SOL    HW132354   2.802   3.031   4.240 -1.0569  0.5464 -1.3207
 6906SOL    HW232355   2.951   3.020   4.257 -0.4837 -1.0770  0.5064
 6907SOL     OW32356   3.948   1.041   2.580 -0.2789  0.1130  0.7593
 6907SOL    HW132357   3.889   1.100   2.532  1.4695  0.6584 -0.7198
 6907SOL    HW232358   3.912   1.041   2.668  0.5056 -1.0414  1.0809
 6908SOL     OW32359   0.633   2.640   9.186 -0.2422 -0.0426  0.4778
 6908SOL    HW132360   0.619   2.642   9.092  0.3203  0.2281  0.3973
 6908SOL    HW232361   0.542   2.642   9.216  0.7973 -3.1315  3.8284
 6909SOL     OW32362   2.649   2.908   0.206  0.3264  0.3343  0.0589
 6909SOL    HW132363   2.728   2.963   0.206  0.8908 -0.4761  0.6772
 6909SOL    HW232364   2.629   2.905   0.300 -0.8505 -0.5506 -0.2182
 6910SOL     OW32365   3.388   1.756  16.950  0.1986  0.2312  0.4651
 6910SOL    HW132366   3.455   1.737  16.884  0.6369  1.4321  0.5568
 6910SOL    HW232367   3.380   1.850  16.933 -0.6675 -0.1368 -1.1475
 6911SOL     OW32368   2.958   0.617  15.162  0.1566  0.3284 -0.2077
 6911SOL    HW132369   2.892   0.678  15.131 -0.1926  0.5105  0.8856
 6911SOL    HW232370   3.038   0.670  15.161 -0.6793  1.5356 -2.4585
 6912SOL     OW32371   3.356   2.659  17.184 -0.3121 -0.4442  0.3041
 6912SOL    HW132372   3.394   2.574  17.204  0.5401 -0.1460 -0.0686
 6912SOL    HW232373   3.321   2.685  17.269  0.2672  0.2206  0.3348
 6913SOL     OW32374   2.040   3.136   1.555  0.1656 -0.0813 -0.3480
 6913SOL    HW132375   1.983   3.213   1.556  0.0101 -0.2072  0.8019
 6913SOL    HW232376   1.991   3.075   1.610 -0.6543 -1.5223 -2.6703
 6914SOL     OW32377   0.351   1.193   2.687  0.2626  0.0505 -0.0586
 6914SOL    HW132378   0.262   1.162   2.667  0.3754 -0.5032  0.2945
 6914SOL    HW232379   0.391   1.214   2.603  1.4723  3.4611  1.3857
 6915SOL     OW32380   2.380   3.723  14.792  0.3167  0.0667  0.2438
 6915SOL    HW132381   2.304   3.693  14.841  0.1952  0.0479  0.0421
 6915SOL    HW232382   2.434   3.750  14.867  0.5970 -1.1152  0.4681
 6916SOL     OW32383   3.744   0.361   4.830  0.4340 -0.3304  0.4441
 6916SOL    HW132384   3.654   0.333   4.843  0.4622  0.0318  1.3725
 6916SOL    HW232385   3.790   0.353   4.914 -1.0584 -0.5500  1.2278
 6917SOL     OW32386   1.929   2.472  14.069 -0.4174  0.2757  0.4398
 6917SOL    HW132387   1.909   2.393  14.019 -3.5311  1.0569  0.4775
 6917SOL    HW232388   1.995   2.447  14.134 -0.1055  0.6233  0.2572
 6918SOL     OW32389   1.853   3.353   8.270  0.5153  0.8344  0.3460
 6918SOL    HW132390   1.801   3.324   8.345  0.2844  0.0614 -0.1213
 6918SOL    HW232391   1.797   3.320   8.200 -1.1521  1.2577  1.4601
 6919SOL     OW32392   0.597   0.500   3.255 -0.6218  0.0462  0.3194
 6919SOL    HW132393   0.661   0.498   3.326 -1.6071  1.9775  1.2635
 6919SOL    HW232394   0.547   0.418   3.256  0.0566 -0.3507  1.0836
 6920SOL     OW32395   4.141   2.454   4.385 -0.0681 -0.0606 -0.3469
 6920SOL    HW132396   4.149   2.548   4.371 -1.2544  0.1317  0.2559
 6920SOL    HW232397   4.118   2.428   4.296  1.1177 -2.1870 -0.0264
 6921SOL     OW32398   3.810   1.310   4.456 -0.1360 -0.5042  0.0180
 6921SOL    HW132399   3.822   1.396   4.415  3.4041 -0.5772  0.9278
 6921SOL    HW232400   3.815   1.330   4.549  1.4584  0.8570 -0.3686
 6922SOL     OW32401   4.424   0.565  15.515  0.4592  0.0337  0.2729
 6922SOL    HW132402   4.467   0.553  15.430 -1.6533  2.2434 -1.0742
 6922SOL    HW232403   4.332   0.553  15.491 -0.1931  2.9347  1.3476
 6923SOL     OW32404   4.466   0.833  15.292  0.0463 -0.2198  0.0400
 6923SOL    HW132405   4.505   0.774  15.227 -1.2692  1.2144 -2.0485
 6923SOL    HW232406   4.532   0.902  15.302 -0.9970  0.7780  0.0434
 6924SOL     OW32407   0.949   2.711  11.617  0.3414  0.3080 -0.0689
 6924SOL    HW132408   0.895   2.660  11.557  1.3509  0.0803 -0.7901
 6924SOL    HW232409   0.923   2.801  11.597 -1.5665 -0.3853 -0.6904
 6925SOL     OW32410   1.004   1.524   6.446  0.0323  0.2618  0.9965
 6925SOL    HW132411   1.060   1.599   6.467  0.9209  0.2848 -1.4613
 6925SOL    HW232412   0.946   1.554   6.376 -1.0023  0.2934  1.8754
 6926SOL     OW32413   3.132   4.054   1.921  0.6607 -0.3624  0.3472
 6926SOL    HW132414   3.195   4.057   1.849  0.2991  0.4107  0.0664
 6926SOL    HW232415   3.153   4.137   1.964  0.2559 -1.7199  3.1698
 6927SOL     OW32416   0.806   0.751   1.342  0.4807  0.3596  0.1582
 6927SOL    HW132417   0.749   0.772   1.268  0.6444  0.5551  0.0866
 6927SOL    HW232418   0.888   0.729   1.298 -0.4265  1.7972 -2.2944
 6928SOL     OW32419   4.674   0.923   7.753  0.4399 -0.2413  0.0483
 6928SOL    HW132420   4.639   1.002   7.711  1.6605  0.5524  0.5089
 6928SOL    HW232421   4.709   0.862   7.687  0.1412 -2.1419  1.6564
 6929SOL     OW32422   1.355   4.432   6.504  0.1401 -0.6421 -0.2464
 6929SOL    HW132423   1.415   4.499   6.538  0.2453 -0.7324 -0.2516
 6929SOL    HW232424   1.304   4.407   6.581 -1.2042  0.0860 -0.9065
 6930SOL     OW32425   3.373   0.923   7.227  0.2179 -0.4210 -0.4984
 6930SOL    HW132426   3.377   0.872   7.146  0.2710  0.2721 -0.9275
 6930SOL    HW232427   3.442   0.984   7.199  0.1492  0.1556  0.5921
 6931SOL     OW32428   0.116   3.337  10.275  0.1090 -0.2317  0.2769
 6931SOL    HW132429   0.048   3.271  10.291 -0.5051 -0.3917 -3.1601
 6931SOL    HW232430   0.178   3.313  10.345 -3.1384  0.4391  3.4032
 6932SOL     OW32431   0.063   0.553   7.303  0.0843 -0.1116  0.1815
 6932SOL    HW132432   0.141   0.559   7.359  1.3441 -1.7683 -1.3929
 6932SOL    HW232433   0.070   0.463   7.270 -0.4485 -1.1554  2.9383
 6933SOL     OW32434   2.803   1.554   1.429 -0.1341  0.2350 -0.0314
 6933SOL    HW132435   2.818   1.459   1.426 -0.4284  0.1956 -0.2349
 6933SOL    HW232436   2.797   1.561   1.334  0.5005  3.1009  0.1314
 6934SOL     OW32437   3.824   2.313  15.571 -0.1262 -0.0314 -0.9040
 6934SOL    HW132438   3.744   2.340  15.615  0.2680  3.2329 -2.2602
 6934SOL    HW232439   3.877   2.306  15.651 -2.3965 -1.4927  0.4548
 6935SOL     OW32440   0.697   2.811   7.935  0.1674  0.2668 -0.4515
 6935SOL    HW132441   0.725   2.815   7.844 -1.3135 -1.8237 -0.9792
 6935SOL    HW232442   0.608   2.776   7.937  0.0527  0.5203 -1.1613
 6936SOL     OW32443   2.782   1.458   5.426  0.0933  0.2962 -0.0877
 6936SOL    HW132444   2.868   1.498   5.431  0.3071 -0.5545  2.9065
 6936SOL    HW232445   2.808   1.366   5.419  0.8570  0.4532  0.8643
 6937SOL     OW32446   3.253   0.800   6.178  0.2403 -0.0269  0.3194
 6937SOL    HW132447   3.167   0.781   6.215 -0.1878  0.7455 -0.2781
 6937SOL    HW232448   3.274   0.888   6.209 -0.6543  0.0246  0.7855
 6938SOL     OW32449   2.199   2.497   4.175 -0.0645  0.1302  0.4817
 6938SOL    HW132450   2.231   2.422   4.126 -1.6569  0.0171 -0.3915
 6938SOL    HW232451   2.242   2.486   4.260  0.8874 -1.4832 -0.2239
 6939SOL     OW32452   1.621   3.320   3.419 -0.0439  0.1499  0.0004
 6939SOL    HW132453   1.627   3.351   3.329  0.0132  0.0188 -0.0400
 6939SOL    HW232454   1.528   3.300   3.434 -0.2622  2.2478  1.4034
 6940SOL     OW32455   0.107   3.972   7.486  0.9941 -0.4970  0.7692
 6940SOL    HW132456   0.073   4.061   7.482  1.4023 -0.3062  1.6997
 6940SOL    HW232457   0.195   3.992   7.455  0.7869 -0.2899  0.3199
 6941SOL     OW32458   4.067   0.685  13.353 -0.2274  0.2680 -0.0617
 6941SOL    HW132459   4.117   0.767  13.353 -1.6682  1.1562 -1.2569
 6941SOL    HW232460   3.984   0.734  13.350 -1.6534 -2.0482  1.8400
 6942SOL     OW32461   2.320   4.445   7.045 -0.5046 -0.1571  0.2286
 6942SOL    HW132462   2.236   4.406   7.069  0.0804 -2.8659 -2.1580
 6942SOL    HW232463   2.374   4.432   7.124 -1.4059 -1.1846  0.6682
 6943SOL     OW32464   3.326   1.468   3.463 -0.1724  0.4313  0.0897
 6943SOL    HW132465   3.376   1.387   3.459 -1.7738 -0.6129  0.9332
 6943SOL    HW232466   3.394   1.510   3.515  1.2672 -0.8508 -0.7687
 6944SOL     OW32467   3.172   2.929   8.342 -0.1428 -0.5477 -0.2701
 6944SOL    HW132468   3.248   2.952   8.395 -0.2289  0.3916 -0.5518
 6944SOL    HW232469   3.215   2.905   8.260  0.2784 -0.6831 -0.0127
 6945SOL     OW32470   2.482   3.690   2.113 -0.1891  0.4718  0.7243
 6945SOL    HW132471   2.546   3.619   2.104  0.3088  0.9772  0.2484
 6945SOL    HW232472   2.544   3.748   2.067  1.1884  0.1394  2.1646
 6946SOL     OW32473   0.222   4.625  12.026 -0.3341  0.0518  0.2269
 6946SOL    HW132474   0.155   4.593  11.965 -0.2649  0.2896  0.0256
 6946SOL    HW232475   0.294   4.622  11.963  0.7251  0.2742  1.4297
 6947SOL     OW32476   1.196   1.822  11.872  0.0539 -0.0976  0.0279
 6947SOL    HW132477   1.117   1.773  11.895  0.9757 -1.4346  0.3592
 6947SOL    HW232478   1.225   1.877  11.945 -2.1036  0.6145  0.3564
 6948SOL     OW32479   2.815   1.126   8.832 -0.1901 -0.4374 -0.1970
 6948SOL    HW132480   2.724   1.101   8.841  0.0198 -0.6096  1.5552
 6948SOL    HW232481   2.852   1.045   8.866  2.1240  0.5227 -0.4140
 6949SOL     OW32482   1.106   0.605   3.555 -0.1018 -0.1528  0.7776
 6949SOL    HW132483   1.011   0.605   3.542 -0.3037  0.3813  2.2829
 6949SOL    HW232484   1.134   0.693   3.533 -1.5824  0.0104 -0.4023
 6950SOL     OW32485   2.300   0.991   4.829  0.1653 -0.0379  0.5022
 6950SOL    HW132486   2.212   0.962   4.806  1.2579 -1.5090 -1.8718
 6950SOL    HW232487   2.287   1.057   4.896 -0.3633 -2.6075  2.9274
 6951SOL     OW32488   4.303   2.393   8.691 -0.6147  0.0717 -0.1490
 6951SOL    HW132489   4.292   2.347   8.608  1.1827 -1.1118  0.2783
 6951SOL    HW232490   4.352   2.471   8.666 -0.0528 -0.8540 -1.8829
 6952SOL     OW32491   1.799   3.895  12.815 -0.4624  0.0994  0.4404
 6952SOL    HW132492   1.751   3.839  12.877 -2.5315  0.1915 -1.0861
 6952SOL    HW232493   1.798   3.844  12.734  0.8929 -0.0844  0.5441
 6953SOL     OW32494   3.193   0.716  17.532 -0.0248  0.2124 -0.0479
 6953SOL    HW132495   3.099   0.735  17.536  0.0158  0.6645 -1.2607
 6953SOL    HW232496   3.231   0.795  17.494 -0.8845  1.0396  0.8130
 6954SOL     OW32497   1.152   2.476   5.653 -0.1624 -0.3697 -0.3262
 6954SOL    HW132498   1.207   2.514   5.722 -0.4530 -2.5361  1.1338
 6954SOL    HW232499   1.180   2.531   5.580  0.3869 -0.0965  0.0911
 6955SOL     OW32500   2.376   3.829  10.337  0.5507  0.1114  0.0735
 6955SOL    HW132501   2.460   3.866  10.309  0.9052  0.1098  1.1664
 6955SOL    HW232502   2.357   3.897  10.402  0.0309 -0.7121  0.7792
 6956SOL     OW32503   4.434   1.315   8.562 -0.0606  0.4254 -0.2852
 6956SOL    HW132504   4.391   1.265   8.632  0.1694 -0.1020 -0.5195
 6956SOL    HW232505   4.401   1.404   8.575 -3.3617 -0.7993 -0.2275
 6957SOL     OW32506   3.073   4.176   8.520  0.2259  0.0565 -0.3006
 6957SOL    HW132507   3.088   4.083   8.536  0.6329  0.1123 -0.3543
 6957SOL    HW232508   3.009   4.202   8.586 -0.2720 -1.0378 -0.3407
 6958SOL     OW32509   0.921   0.136   1.707 -1.0316  0.0283 -0.7326
 6958SOL    HW132510   0.936   0.164   1.617 -1.9134 -0.4529 -1.0373
 6958SOL    HW232511   0.838   0.088   1.708 -0.3995 -1.0329  1.8100
 6959SOL     OW32512   2.942   0.685   9.913  0.5638  0.3832  0.1785
 6959SOL    HW132513   2.991   0.684   9.831  1.9235  2.9178  0.9653
 6959SOL    HW232514   2.946   0.591   9.930 -0.6136  0.7719  2.6253
 6960SOL     OW32515   1.333   1.163   9.085  0.0601  0.3293 -0.4549
 6960SOL    HW132516   1.245   1.199   9.097  1.1242  2.3953  1.1728
 6960SOL    HW232517   1.382   1.205   9.155 -1.3245 -1.5004  1.6112
 6961SOL     OW32518   4.288   0.014   1.589  0.1135  0.1423  0.1760
 6961SOL    HW132519   4.259   4.729   1.678  0.3005 -0.0508  0.1956
 6961SOL    HW232520   4.331   4.665   1.568 -1.2119 -0.6865  0.7240
 6962SOL     OW32521   1.428   0.343   6.910 -0.3230 -0.0119  0.7661
 6962SOL    HW132522   1.342   0.330   6.872  0.7320  3.1053 -2.7172
 6962SOL    HW232523   1.412   0.415   6.970 -1.3306  0.5891 -0.2400
 6963SOL     OW32524   0.456   2.301  16.424  0.1625  0.0033 -0.1353
 6963SOL    HW132525   0.419   2.222  16.464  2.7113 -0.3626  1.5304
 6963SOL    HW232526   0.522   2.250  16.378  0.3743  0.0038  0.1661
 6964SOL     OW32527   1.116   3.983  11.520  0.2833 -0.1242  0.4250
 6964SOL    HW132528   1.065   4.017  11.593 -0.4131  1.9010 -1.0151
 6964SOL    HW232529   1.185   4.047  11.500  2.7504 -2.3692  1.6467
 6965SOL     OW32530   1.443   3.563  13.291  0.3060 -0.5901 -0.0727
 6965SOL    HW132531   1.472   3.653  13.308  0.1797 -0.9005  1.8347
 6965SOL    HW232532   1.438   3.576  13.196  0.1062 -1.9275 -0.2372
 6966SOL     OW32533   0.894   0.218   5.409  0.0925  0.5990 -0.0331
 6966SOL    HW132534   0.949   0.183   5.339 -1.7372 -4.6762  1.1737
 6966SOL    HW232535   0.814   0.221   5.357  0.3748 -0.8199 -0.5475
 6967SOL     OW32536   3.492   2.296   0.996 -0.3976  0.0487 -0.0097
 6967SOL    HW132537   3.571   2.346   1.019  0.0419 -0.1413 -1.0907
 6967SOL    HW232538   3.513   2.275   0.905  0.0761 -0.4524  0.2114
 6968SOL     OW32539   2.901   0.658  16.323  0.3809  0.1999 -0.1667
 6968SOL    HW132540   2.821   0.673  16.272 -0.1384  2.7098  1.3623
 6968SOL    HW232541   2.948   0.594  16.269 -0.6012 -0.2518 -0.4851
 6969SOL     OW32542   3.370   0.474  11.250  0.3032 -0.1634  0.3408
 6969SOL    HW132543   3.448   0.507  11.294 -0.9268  2.1787  0.8050
 6969SOL    HW232544   3.306   0.542  11.273  0.4067 -0.2360  0.8543
 6970SOL     OW32545   0.419   4.678   9.335  0.2467  0.3128  0.0892
 6970SOL    HW132546   0.485   4.646   9.273  0.5081 -0.5731  0.8224
 6970SOL    HW232547   0.346   4.616   9.328 -0.4422  1.3133 -1.6885
 6971SOL     OW32548   2.771   2.682   0.368  0.2387 -0.1493  0.2533
 6971SOL    HW132549   2.730   2.761   0.404  0.0321  0.3023 -0.9448
 6971SOL    HW232550   2.862   2.711   0.373  0.2437 -0.7964  3.7008
 6972SOL     OW32551   4.396   0.864   8.757  0.4656 -0.0338 -0.3159
 6972SOL    HW132552   4.426   0.782   8.717  0.1009  0.0813 -0.8356
 6972SOL    HW232553   4.313   0.866   8.709  1.3283 -0.6643 -1.8680
 6973SOL     OW32554   0.243   4.089   8.503  0.0290  0.5300  0.0192
 6973SOL    HW132555   0.289   4.117   8.582  0.8380 -0.8576  0.0500
 6973SOL    HW232556   0.296   4.116   8.428  0.0831  1.9357  0.5621
 6974SOL     OW32557   3.913   0.104   5.172  0.1307  0.1314 -0.1661
 6974SOL    HW132558   3.836   0.094   5.228  1.8240 -2.4004  1.6681
 6974SOL    HW232559   3.884   0.165   5.103  0.6140 -0.1907 -0.6519
 6975SOL     OW32560   1.000   2.525  17.423 -0.1358 -0.0770 -0.1942
 6975SOL    HW132561   0.917   2.550  17.465 -0.2872 -0.8809 -0.0253
 6975SOL    HW232562   1.040   2.609  17.401 -0.0793  0.6207  2.5875
 6976SOL     OW32563   0.456   3.674  11.523  0.1133  0.1962 -0.0813
 6976SOL    HW132564   0.478   3.581  11.536 -0.0085  0.0760 -0.7275
 6976SOL    HW232565   0.466   3.706  11.612  1.2674  0.8577 -0.4555
 6977SOL     OW32566   1.719   1.992   5.551  0.1730  0.4881 -0.2161
 6977SOL    HW132567   1.688   2.049   5.621  1.2061 -1.7837  2.1221
 6977SOL    HW232568   1.668   2.024   5.477  1.5469  1.6852 -0.6349
 6978SOL     OW32569   1.215   2.783   7.411  0.6411 -0.1491  0.2176
 6978SOL    HW132570   1.139   2.733   7.442 -0.0422 -0.6858 -2.2737
 6978SOL    HW232571   1.187   2.873   7.392  1.4480 -0.1561 -0.9832
 6979SOL     OW32572   1.493   0.419   0.825  0.3578  0.0167 -0.3784
 6979SOL    HW132573   1.561   0.378   0.878  0.5392  0.5862 -0.1763
 6979SOL    HW232574   1.530   0.400   0.739  0.4835  0.3055 -0.3868
 6980SOL     OW32575   3.835   3.102   7.688  0.0000 -0.4597 -0.4754
 6980SOL    HW132576   3.827   3.187   7.645 -2.4248 -0.5683 -0.2062
 6980SOL    HW232577   3.872   3.136   7.769 -2.0288  0.5998 -0.0138
 6981SOL     OW32578   4.233   2.053   4.393  0.0179  0.0465 -0.1709
 6981SOL    HW132579   4.281   1.986   4.344  0.0540 -0.8341  1.0386
 6981SOL    HW232580   4.144   2.020   4.383 -0.3674 -0.3670  4.4422
 6982SOL     OW32581   4.647   2.275  14.507 -0.2306  0.8591  0.3957
 6982SOL    HW132582   4.725   2.327  14.487 -0.1842  0.4168 -0.5922
 6982SOL    HW232583   4.662   2.236  14.593  0.5430  1.2778  0.4445
 6983SOL     OW32584   0.284   2.331   3.193  0.0190 -0.1025  0.0189
 6983SOL    HW132585   0.198   2.371   3.176 -0.7692 -1.9096 -0.2581
 6983SOL    HW232586   0.269   2.279   3.272  1.0241 -1.9818 -1.0090
 6984SOL     OW32587   1.820   1.509   7.161 -1.0633 -0.1022  0.2994
 6984SOL    HW132588   1.770   1.518   7.080 -1.5544  0.5734  0.6709
 6984SOL    HW232589   1.806   1.596   7.199  0.7279  0.7078 -0.9373
 6985SOL     OW32590   4.264   2.790   1.944 -0.0083  0.1628  0.0098
 6985SOL    HW132591   4.184   2.748   1.914 -0.9380  1.2501  0.9694
 6985SOL    HW232592   4.252   2.880   1.973 -2.8421 -0.3281  0.4213
 6986SOL     OW32593   0.711   1.562   0.679 -0.3113 -0.0908 -0.0607
 6986SOL    HW132594   0.773   1.515   0.735  1.6528  1.4454 -0.9534
 6986SOL    HW232595   0.673   1.623   0.742 -1.1060 -0.0921 -0.5515
 6987SOL     OW32596   0.634   2.419   6.337 -0.8999  0.4184  0.2470
 6987SOL    HW132597   0.591   2.398   6.253  1.4709 -2.3293 -0.2883
 6987SOL    HW232598   0.629   2.514   6.341  1.2563  0.6694 -2.6571
 6988SOL     OW32599   2.895   2.761   5.820  0.4240  0.3941  0.3990
 6988SOL    HW132600   2.988   2.779   5.833  0.8071 -0.1870 -1.6045
 6988SOL    HW232601   2.893   2.686   5.879 -1.0677 -0.9963 -1.4291
 6989SOL     OW32602   2.649   0.348   2.933 -0.6362  0.2251  0.0680
 6989SOL    HW132603   2.630   0.441   2.949 -2.5365 -0.5895  2.4276
 6989SOL    HW232604   2.744   0.338   2.944 -0.7871  0.0008  1.1798
 6990SOL     OW32605   3.635   4.451   8.665 -0.1636  0.2237  0.5923
 6990SOL    HW132606   3.667   4.536   8.636 -1.8846  0.1342 -1.6226
 6990SOL    HW232607   3.568   4.436   8.598 -0.6844 -1.7467  1.5547
 6991SOL     OW32608   4.524   1.203   4.216  0.1388 -0.6166  0.8746
 6991SOL    HW132609   4.460   1.262   4.177  1.3697 -0.2767 -0.6690
 6991SOL    HW232610   4.501   1.124   4.168 -2.2643  0.7899 -0.2910
 6992SOL     OW32611   0.303   0.621   3.112  0.5942 -0.2705  0.5172
 6992SOL    HW132612   0.217   0.607   3.072  1.3572  0.1306 -1.3100
 6992SOL    HW232613   0.296   0.578   3.196  3.2064  1.2214  1.5088
 6993SOL     OW32614   2.005   2.922   1.307  0.3620  0.6848  0.6651
 6993SOL    HW132615   1.925   2.973   1.291 -1.2565 -3.0380 -2.9376
 6993SOL    HW232616   2.062   2.999   1.313  0.5798  0.6179 -0.4512
 6994SOL     OW32617   2.973   0.501  14.574 -0.1424  0.0745 -0.3118
 6994SOL    HW132618   2.948   0.499  14.481  0.0166  0.7183 -0.3711
 6994SOL    HW232619   2.899   0.548  14.614  0.8856  1.2518  0.2031
 6995SOL     OW32620   0.124   3.118  17.326  0.0199  0.0344 -0.1741
 6995SOL    HW132621   0.106   3.026  17.349  0.9341 -0.6593 -2.2288
 6995SOL    HW232622   0.161   3.150  17.408 -2.2250  1.4257  0.2773
 6996SOL     OW32623   2.062   1.805   4.245 -0.8103  0.0832  0.3571
 6996SOL    HW132624   2.145   1.760   4.234  0.4149  2.1058  1.3428
 6996SOL    HW232625   2.019   1.800   4.160 -1.9857  1.8464  0.8441
 6997SOL     OW32626   2.641   2.294   9.294  0.4570 -0.6017 -0.0530
 6997SOL    HW132627   2.559   2.268   9.335  1.1844 -1.6990  0.6971
 6997SOL    HW232628   2.624   2.376   9.248 -0.0375 -0.6196  0.1061
 6998SOL     OW32629   4.207   2.663  17.684 -0.0995  0.1372  0.1838
 6998SOL    HW132630   4.219   2.697  17.596 -0.3563 -0.2449  0.0055
 6998SOL    HW232631   4.120   2.624  17.682  0.9941 -2.2882  0.2008
 6999SOL     OW32632   0.903   3.715  11.984  0.4023  0.5727  0.7004
 6999SOL    HW132633   0.811   3.688  11.980 -0.2486  2.4902  2.0628
 6999SOL    HW232634   0.910   3.761  12.068  0.3688  0.5541  0.7133
 7000SOL     OW32635   3.766   4.267   5.223 -0.1342  0.3252  0.4164
 7000SOL    HW132636   3.683   4.313   5.210 -0.7283 -1.1693 -1.0292
 7000SOL    HW232637   3.827   4.338   5.244  2.2865 -1.4263 -0.7316
 7001SOL     OW32638   4.617   1.824   8.572  0.1190  0.1614 -0.2005
 7001SOL    HW132639   4.631   1.777   8.654  2.7827  2.3161  0.6017
 7001SOL    HW232640   4.642   1.756   8.509  0.6010 -0.7506  0.9816
 7002SOL     OW32641   1.157   0.706   2.639  0.7851 -0.2254  0.2770
 7002SOL    HW132642   1.123   0.720   2.550  3.7172  1.3967 -0.5770
 7002SOL    HW232643   1.160   0.795   2.674 -1.0244 -0.5338  1.2337
 7003SOL     OW32644   1.975   3.513   6.763 -0.1105 -0.6133 -0.0353
 7003SOL    HW132645   1.898   3.484   6.812 -0.5345 -0.2737 -0.5009
 7003SOL    HW232646   2.043   3.448   6.782 -1.2183 -0.9874  2.6091
 7004SOL     OW32647   3.299   0.227   5.405 -0.6313  1.1452 -0.0257
 7004SOL    HW132648   3.303   0.201   5.313 -0.5707 -2.1541  0.9173
 7004SOL    HW232649   3.328   0.149   5.451 -2.0382 -1.1905 -3.1079
 7005SOL     OW32650   1.721   4.682   2.247 -0.3672  0.1995  0.3833
 7005SOL    HW132651   1.774   4.666   2.325  1.2886 -1.9032 -1.1975
 7005SOL    HW232652   1.687   4.593   2.243 -3.9427  1.6148 -0.2462
 7006SOL     OW32653   0.383   0.502  16.989 -0.2909 -0.3031  0.2717
 7006SOL    HW132654   0.326   0.524  17.062  0.2968  0.7462  0.4104
 7006SOL    HW232655   0.321   0.455  16.933  0.2639  1.1156 -1.5215
 7007SOL     OW32656   0.652   3.053   6.713 -0.2001  0.1402 -0.2966
 7007SOL    HW132657   0.674   3.090   6.798  0.7130 -0.6811 -0.1810
 7007SOL    HW232658   0.585   3.113   6.678 -0.8454 -0.2463  0.2869
 7008SOL     OW32659   0.996   1.938   1.297 -0.7573 -0.4175 -0.7605
 7008SOL    HW132660   0.982   1.944   1.202 -0.9551  2.7764 -0.5093
 7008SOL    HW232661   1.056   1.863   1.299 -0.0258  0.2337  1.1712
 7009SOL     OW32662   3.655   4.647   1.689  0.4965  0.2274 -0.5840
 7009SOL    HW132663   3.676   4.567   1.737 -0.8682 -0.2271 -0.7449
 7009SOL    HW232664   3.727   4.655   1.626  1.6710  1.5142  0.9351
 7010SOL     OW32665   2.541   0.264   1.609 -0.0269  0.0396  0.0619
 7010SOL    HW132666   2.603   0.333   1.628 -0.5905  0.6389 -0.2850
 7010SOL    HW232667   2.562   0.204   1.681 -2.2277 -0.4026  0.3510
 7011SOL     OW32668   2.845   1.342   1.699  0.1201 -0.3455 -0.1979
 7011SOL    HW132669   2.790   1.326   1.623  1.3905  0.3686 -1.2713
 7011SOL    HW232670   2.805   1.295   1.772  0.7628 -0.1291  0.2941
 7012SOL     OW32671   3.276   1.517   6.088  0.6248 -0.7993 -0.2787
 7012SOL    HW132672   3.307   1.508   6.178  1.5621 -0.6342 -0.5850
 7012SOL    HW232673   3.216   1.443   6.079  1.6541 -1.8504  1.3003
 7013SOL     OW32674   0.678   3.726   8.072 -0.0862 -0.2289  0.1749
 7013SOL    HW132675   0.742   3.794   8.047 -1.3251  0.7438 -0.3721
 7013SOL    HW232676   0.704   3.720   8.164 -0.2848 -1.3632  0.1558
 7014SOL     OW32677   4.417   0.506  15.162 -0.5840 -0.1656 -0.7531
 7014SOL    HW132678   4.357   0.439  15.131 -0.2370 -1.3440  1.1006
 7014SOL    HW232679   4.503   0.465  15.170  0.4752  2.3049  0.6279
 7015SOL     OW32680   4.590   1.472   6.792  0.3637 -0.2717 -0.1457
 7015SOL    HW132681   4.628   1.486   6.706  0.0065  1.4601 -0.0232
 7015SOL    HW232682   4.541   1.391   6.779 -0.6610  0.2204  0.6344
 7016SOL     OW32683   2.001   2.526   4.841  0.4733  0.1664  0.0833
 7016SOL    HW132684   1.998   2.431   4.850  2.3831  0.0544 -0.3439
 7016SOL    HW232685   1.911   2.543   4.813  0.2175 -2.2027 -0.5431
 7017SOL     OW32686   0.149   1.065   5.623  0.1394 -0.0997 -0.0820
 7017SOL    HW132687   0.166   1.087   5.714 -1.0639  1.9031 -0.3467
 7017SOL    HW232688   0.133   0.971   5.634 -2.5260  0.3612  0.1282
 7018SOL     OW32689   3.260   0.006  17.268  0.2258  0.2175  0.2521
 7018SOL    HW132690   3.328   0.051  17.319 -0.6447  0.2926  1.3510
 7018SOL    HW232691   3.272   4.656  17.313 -0.2492  0.9297  1.7155
 7019SOL     OW32692   3.755   2.654   3.468  0.1955 -0.4654  0.1782
 7019SOL    HW132693   3.716   2.736   3.438  1.3391  0.2135  0.5515
 7019SOL    HW232694   3.802   2.630   3.388  0.9652 -1.7852  1.0274
 7020SOL     OW32695   3.861   0.979  11.811  0.0679  0.4371 -0.1365
 7020SOL    HW132696   3.839   1.023  11.893 -1.1307 -0.6478  0.1101
 7020SOL    HW232697   3.935   0.933  11.850 -1.4644 -0.9961  1.0320
 7021SOL     OW32698   4.730   1.788  13.720 -0.1862 -0.6724 -0.4704
 7021SOL    HW132699   4.643   1.793  13.681  0.2432  0.6034 -1.2725
 7021SOL    HW232700   4.702   1.748  13.803 -1.5687 -0.5297 -0.8711
 7022SOL     OW32701   0.271   2.943   8.005 -0.1618  0.0604 -0.3402
 7022SOL    HW132702   0.271   3.028   7.960 -1.2550  1.2508  1.9478
 7022SOL    HW232703   0.178   2.920   8.006 -0.1686  0.1356  0.6307
 7023SOL     OW32704   0.182   1.832   1.968 -0.2192  0.3099 -0.2017
 7023SOL    HW132705   0.099   1.817   2.014 -0.3779  1.3495 -0.1555
 7023SOL    HW232706   0.224   1.898   2.023  1.7075  1.0519 -2.5794
 7024SOL     OW32707   4.572   4.365   9.973 -0.1287 -0.1677 -0.0915
 7024SOL    HW132708   4.610   4.324   9.895  0.9393 -1.3938  1.0931
 7024SOL    HW232709   4.633   4.434   9.999 -0.0843 -0.2215 -0.0554
 7025SOL     OW32710   2.347   2.471  10.588 -0.5318 -0.5410  0.4104
 7025SOL    HW132711   2.416   2.439  10.647 -1.0654 -0.1224  1.2704
 7025SOL    HW232712   2.332   2.559  10.624 -0.9595 -1.1750  1.7651
 7026SOL     OW32713   1.157   4.542   3.376 -0.2582  0.2413 -1.1668
 7026SOL    HW132714   1.111   4.615   3.334 -0.6980  1.1526  0.9219
 7026SOL    HW232715   1.210   4.501   3.307 -0.2385 -0.3829 -0.7836
 7027SOL     OW32716   4.545   3.947  15.060 -0.0465  0.3947 -0.6606
 7027SOL    HW132717   4.588   4.032  15.058  0.7646 -0.0042 -0.3563
 7027SOL    HW232718   4.619   3.887  15.055 -0.3198 -0.0251  0.2124
 7028SOL     OW32719   4.447   3.439   3.130 -0.1981  0.7147 -0.2468
 7028SOL    HW132720   4.431   3.489   3.210  0.4586  0.2449  0.1716
 7028SOL    HW232721   4.462   3.353   3.171  0.2677  1.3895  0.9974
 7029SOL     OW32722   3.739   1.728  14.135 -0.5029 -0.5875  0.6477
 7029SOL    HW132723   3.684   1.711  14.212 -0.2567  1.9973  1.3799
 7029SOL    HW232724   3.682   1.715  14.059 -1.0337  0.5377  0.8625
 7030SOL     OW32725   2.100   4.263   8.569 -0.5901 -0.1578  0.1978
 7030SOL    HW132726   2.189   4.267   8.534 -0.2337 -0.1523  1.1321
 7030SOL    HW232727   2.075   4.355   8.572 -0.6993 -0.0759 -2.7363
 7031SOL     OW32728   2.533   0.405   7.651  0.1750  0.5414  0.3118
 7031SOL    HW132729   2.526   0.477   7.588  0.6415  0.8448  0.6080
 7031SOL    HW232730   2.602   0.444   7.705 -0.2364  1.1435  0.4065
 7032SOL     OW32731   4.344   4.628   6.717  0.0345 -0.1472 -0.0113
 7032SOL    HW132732   4.256   4.658   6.736  0.7985  2.1099  0.0573
 7032SOL    HW232733   4.357   4.556   6.778  0.6291  0.3665  0.4753
 7033SOL     OW32734   0.479   3.114  12.864 -0.0167 -0.3841 -0.0143
 7033SOL    HW132735   0.465   3.034  12.914 -1.1158  1.3161  2.4011
 7033SOL    HW232736   0.391   3.146  12.843 -0.6203 -0.1073  3.0007
 7034SOL     OW32737   1.072   4.288   7.246  0.1957  0.5248  0.4321
 7034SOL    HW132738   1.085   4.193   7.247  0.6120  0.5943  1.2141
 7034SOL    HW232739   0.977   4.298   7.258 -0.0683 -0.0728 -1.1061
 7035SOL     OW32740   3.414   2.813   6.035  0.1758 -0.0386 -0.2592
 7035SOL    HW132741   3.462   2.857   5.965 -0.4449 -1.2933 -1.4576
 7035SOL    HW232742   3.397   2.889   6.091 -4.4170 -1.2151 -0.1054
 7036SOL     OW32743   4.653   1.195   3.917 -0.1300  1.2931 -0.2684
 7036SOL    HW132744   4.561   1.211   3.895 -0.1075 -0.2567 -1.4781
 7036SOL    HW232745   4.668   1.264   3.982 -2.1535 -0.3173  1.9283
 7037SOL     OW32746   3.533   3.175   2.937 -0.5836 -0.8100 -0.0080
 7037SOL    HW132747   3.458   3.161   2.879 -0.9067 -0.4596  0.3245
 7037SOL    HW232748   3.518   3.100   2.994  0.5752 -0.3204  0.9267
 7038SOL     OW32749   2.646   4.357   2.441  0.3386 -0.7846  0.5451
 7038SOL    HW132750   2.637   4.309   2.359  0.6563  2.1946 -1.2721
 7038SOL    HW232751   2.740   4.354   2.457  0.6319  1.6586 -0.5931
 7039SOL     OW32752   1.327   0.327   9.521  0.1499 -0.4574  0.1903
 7039SOL    HW132753   1.278   0.263   9.469  1.1390  0.0534 -1.3675
 7039SOL    HW232754   1.270   0.403   9.519  2.1203  1.0155  0.1706
 7040SOL     OW32755   1.046   3.009   8.148  0.1781 -0.2143 -0.6448
 7040SOL    HW132756   0.951   3.010   8.148  0.1801  0.1175  4.2467
 7040SOL    HW232757   1.070   2.926   8.106 -0.8025 -0.3224 -0.9763
 7041SOL     OW32758   3.105   1.951   0.112 -0.4370  0.2383  0.5952
 7041SOL    HW132759   3.190   1.990   0.133 -0.6129  0.9908 -0.0633
 7041SOL    HW232760   3.094   1.978   0.021  1.5347  1.3596  0.6956
 7042SOL     OW32761   3.651   2.483   1.102 -0.2835  0.3029  0.3463
 7042SOL    HW132762   3.691   2.528   1.028 -3.2199 -1.4590 -2.2991
 7042SOL    HW232763   3.604   2.555   1.143  0.4893  2.1886 -2.0989
 7043SOL     OW32764   4.602   3.845  10.838 -0.4000 -0.0680 -0.3848
 7043SOL    HW132765   4.645   3.759  10.841 -0.5981 -0.1864 -1.1531
 7043SOL    HW232766   4.629   3.867  10.749  2.3795  0.3524  0.5555
 7044SOL     OW32767   2.855   2.410   0.306  0.1609  0.1489  0.7204
 7044SOL    HW132768   2.837   2.504   0.310 -0.2936  0.0121  2.2257
 7044SOL    HW232769   2.861   2.397   0.401  2.5413 -1.1862  0.3985
 7045SOL     OW32770   2.141   2.713   4.658  0.2719  0.0107  0.4947
 7045SOL    HW132771   2.124   2.650   4.729 -2.7988 -0.3221 -0.5303
 7045SOL    HW232772   2.078   2.783   4.675 -0.0694  0.2473 -1.7616
 7046SOL     OW32773   2.270   4.030   8.726 -0.2721 -0.2801 -0.1028
 7046SOL    HW132774   2.218   4.065   8.799  0.5927 -0.6750  0.7093
 7046SOL    HW232775   2.208   3.986   8.669 -0.6290  1.8395 -1.3538
 7047SOL     OW32776   2.315   4.230  14.428 -0.2011  0.4340  0.5956
 7047SOL    HW132777   2.246   4.211  14.365 -0.5511  0.1399  1.0718
 7047SOL    HW232778   2.282   4.301  14.481  0.9745  0.0596  1.8249
 7048SOL     OW32779   4.092   1.324   2.960 -0.1044 -0.4196 -0.0298
 7048SOL    HW132780   4.016   1.366   3.000  0.6961  3.8354 -3.0435
 7048SOL    HW232781   4.115   1.253   3.021  3.3729 -0.2176 -1.1019
 7049SOL     OW32782   0.350   1.530  15.726  0.0908  0.7729  0.4054
 7049SOL    HW132783   0.436   1.533  15.683  0.6725  1.5138  1.6110
 7049SOL    HW232784   0.291   1.503  15.656 -1.4832  1.0623  1.6391
 7050SOL     OW32785   4.063   0.112   6.357 -0.0008 -0.1198 -0.1177
 7050SOL    HW132786   4.045   0.110   6.451  1.0621 -1.1096  0.0657
 7050SOL    HW232787   4.156   0.091   6.345  0.1954 -0.4270  1.9798
 7051SOL     OW32788   0.186   2.921   6.211  0.0729  0.4439 -0.2588
 7051SOL    HW132789   0.277   2.921   6.243 -0.3474 -1.0231  0.8905
 7051SOL    HW232790   0.145   2.896   6.294  2.4808 -2.6341 -0.0206
 7052SOL     OW32791   0.201   2.312  14.156  0.6196 -0.1752  0.1147
 7052SOL    HW132792   0.286   2.317  14.112 -0.6442  0.6633 -2.2742
 7052SOL    HW232793   0.153   2.347  14.080  0.0510 -1.6267 -0.2123
 7053SOL     OW32794   2.542   4.200   4.958  0.3408 -0.3056  0.1001
 7053SOL    HW132795   2.608   4.199   4.889 -0.0700  0.6629 -0.3087
 7053SOL    HW232796   2.501   4.115   4.942 -1.7937  0.4580  1.4775
 7054SOL     OW32797   2.038   0.508   4.247  0.6311  0.0947 -0.1867
 7054SOL    HW132798   2.005   0.434   4.196 -0.7001 -0.4106  1.4049
 7054SOL    HW232799   2.083   0.458   4.315  0.4959 -1.4897 -1.2607
 7055SOL     OW32800   1.805   3.436   3.605  0.4858 -0.2812  0.5565
 7055SOL    HW132801   1.749   3.388   3.543 -1.0400 -0.3823  1.9966
 7055SOL    HW232802   1.742   3.504   3.631  0.4687  0.8930 -2.5487
 7056SOL     OW32803   1.893   2.539   8.598 -0.0826  0.0083 -0.3909
 7056SOL    HW132804   1.923   2.528   8.688  0.1644  1.4934 -0.3043
 7056SOL    HW232805   1.975   2.556   8.554  0.5467  0.0470  0.7912
 7057SOL     OW32806   1.483   2.037   6.847 -0.5191 -0.3086  0.3638
 7057SOL    HW132807   1.409   2.080   6.804  0.0786  1.7399  1.3751
 7057SOL    HW232808   1.470   2.073   6.935  3.8599 -1.2582  1.3977
 7058SOL     OW32809   1.768   2.896   2.003  0.5797 -0.3294  0.5600
 7058SOL    HW132810   1.694   2.948   2.035  1.8433  0.5014  2.1893
 7058SOL    HW232811   1.723   2.812   1.994 -0.1010 -0.1538  2.3520
 7059SOL     OW32812   2.416   0.375   9.775 -0.0192  0.0392 -0.5172
 7059SOL    HW132813   2.403   0.346   9.865  0.7159  3.5440  0.7351
 7059SOL    HW232814   2.504   0.413   9.779  0.3834 -1.2695  2.9128
 7060SOL     OW32815   0.338   0.801  13.130  0.3642  0.2694 -0.2497
 7060SOL    HW132816   0.432   0.804  13.152 -0.1695 -1.3615  2.2409
 7060SOL    HW232817   0.332   0.856  13.052 -0.2423 -1.1704 -1.2052
 7061SOL     OW32818   1.565   4.628   3.290 -0.3767 -0.8713  0.3182
 7061SOL    HW132819   1.484   4.656   3.248  1.8785 -0.2126 -3.6214
 7061SOL    HW232820   1.594   4.712   3.328 -0.3728 -0.2453 -1.0710
 7062SOL     OW32821   0.439   0.289   3.190 -0.1709 -0.0799  0.1599
 7062SOL    HW132822   0.411   0.313   3.101 -3.0033  0.8087  1.2808
 7062SOL    HW232823   0.360   0.285   3.245 -0.9136 -1.4636 -0.9947
 7063SOL     OW32824   1.998   1.537   1.954  0.3164 -0.1018 -0.5932
 7063SOL    HW132825   1.933   1.597   1.919 -2.0144 -1.7050  0.9737
 7063SOL    HW232826   2.062   1.596   1.995  0.4731 -0.2227 -0.6624
 7064SOL     OW32827   4.093   4.124  15.278  0.3987 -0.0329  0.1077
 7064SOL    HW132828   4.155   4.129  15.206 -1.5207 -0.4413 -1.5813
 7064SOL    HW232829   4.095   4.031  15.302  0.1476  0.1210  0.7371
 7065SOL     OW32830   0.003   2.942   8.003  0.0644 -0.4225 -0.1228
 7065SOL    HW132831   0.001   3.007   8.073 -0.0760  0.2256 -0.7374
 7065SOL    HW232832   4.657   2.893   8.023 -0.9425  1.2032 -0.1451
 7066SOL     OW32833   2.612   3.731   8.473  0.0821  0.2314 -0.0182
 7066SOL    HW132834   2.635   3.817   8.509 -1.1734 -0.1578  1.7376
 7066SOL    HW232835   2.697   3.706   8.438 -0.1866 -0.3270 -0.2667
 7067SOL     OW32836   1.005   3.642  13.493 -0.0804  0.2825 -0.5463
 7067SOL    HW132837   1.049   3.693  13.562  2.7389 -0.9298 -1.4517
 7067SOL    HW232838   0.991   3.710  13.428 -1.9280 -1.3701 -1.8540
 7068SOL     OW32839   1.662   3.266   4.334  0.0120  0.0166  0.1120
 7068SOL    HW132840   1.668   3.197   4.268 -0.6718  0.3826 -0.3344
 7068SOL    HW232841   1.636   3.214   4.410  1.3386  0.6306  0.9980
 7069SOL     OW32842   2.906   2.021   6.152 -0.1765 -0.0340  0.0924
 7069SOL    HW132843   2.862   1.938   6.133 -0.6583  0.6367 -1.6890
 7069SOL    HW232844   2.996   2.005   6.125 -1.4326 -2.5339 -2.6167
 7070SOL     OW32845   3.527   2.618   7.155  0.2512  0.4516 -0.0776
 7070SOL    HW132846   3.622   2.622   7.168  0.3672  1.0174 -1.0744
 7070SOL    HW232847   3.496   2.706   7.176 -2.4929 -0.2821 -1.0272
 7071SOL     OW32848   3.776   1.586   8.783 -0.4424 -0.2159 -0.5488
 7071SOL    HW132849   3.751   1.636   8.860  1.0100 -0.5378  0.1162
 7071SOL    HW232850   3.834   1.525   8.827 -4.2739 -1.7525  2.3895
 7072SOL     OW32851   2.341   0.224  17.187 -1.0072 -0.3113 -0.3901
 7072SOL    HW132852   2.435   0.206  17.186 -1.1813 -1.1311 -2.4254
 7072SOL    HW232853   2.331   0.289  17.257  0.4264 -1.9398  1.3548
 7073SOL     OW32854   2.413   3.652   4.105  0.0093  0.0068 -0.5464
 7073SOL    HW132855   2.428   3.557   4.105  0.2859  0.0478  1.1123
 7073SOL    HW232856   2.367   3.665   4.022 -0.2764 -1.3261 -0.6037
 7074SOL     OW32857   3.795   1.923   4.624 -0.2615 -0.6552  0.2290
 7074SOL    HW132858   3.711   1.967   4.633 -0.2975 -0.9633  1.4077
 7074SOL    HW232859   3.847   1.966   4.556  1.2873 -2.3815  0.3124
 7075SOL     OW32860   2.092   0.184  17.074  0.2622  0.1853 -0.6998
 7075SOL    HW132861   2.110   0.210  16.983 -0.1640 -3.5578 -1.8249
 7075SOL    HW232862   2.181   0.179  17.110 -0.2936  0.3741  0.6942
 7076SOL     OW32863   4.550   1.687   0.368  0.0772  0.5493  0.2580
 7076SOL    HW132864   4.590   1.645   0.291  1.9936 -2.7332  3.0424
 7076SOL    HW232865   4.468   1.639   0.373  0.3029 -0.0826 -1.9818
 7077SOL     OW32866   2.681   1.538  10.533  0.3147 -0.6921  0.2423
 7077SOL    HW132867   2.716   1.590  10.606 -0.4863 -0.2216  0.2859
 7077SOL    HW232868   2.704   1.597  10.461  1.4794 -0.0652  1.1233
 7078SOL     OW32869   1.667   0.705   8.820 -0.4693  0.0810 -0.1355
 7078SOL    HW132870   1.583   0.750   8.819 -1.0746 -1.0556 -0.4392
 7078SOL    HW232871   1.705   0.736   8.738  0.9009  1.6764  1.0989
 7079SOL     OW32872   0.346   0.508   4.053 -0.4230  0.3738  0.4283
 7079SOL    HW132873   0.316   0.438   4.111  0.2380 -0.5618 -0.3542
 7079SOL    HW232874   0.265   0.559   4.047 -0.9802 -0.2307  2.7528
 7080SOL     OW32875   3.557   0.616   7.847 -0.7777 -0.4782 -0.2186
 7080SOL    HW132876   3.562   0.527   7.879 -3.0308 -0.3150  0.5570
 7080SOL    HW232877   3.469   0.642   7.874 -0.5982  0.3884 -0.4414
 7081SOL     OW32878   2.352   2.746   3.160  0.1078  0.6234  0.3704
 7081SOL    HW132879   2.407   2.821   3.138  0.7586  0.1689  0.4545
 7081SOL    HW232880   2.313   2.787   3.238 -0.0809  1.6571 -0.2631
 7082SOL     OW32881   1.116   0.967   1.605  0.4684  0.2068  0.1634
 7082SOL    HW132882   1.046   0.906   1.626  1.3390 -1.0056 -0.4899
 7082SOL    HW232883   1.187   0.929   1.657  1.7822  1.7254 -0.5089
 7083SOL     OW32884   2.606   2.083  13.884  0.1759 -0.3543 -0.2053
 7083SOL    HW132885   2.594   2.004  13.830 -2.8202  0.4825 -0.7366
 7083SOL    HW232886   2.673   2.123  13.829 -1.0628  2.7781  0.5979
 7084SOL     OW32887   0.018   2.655  15.027  0.4101  0.4046  0.4154
 7084SOL    HW132888   0.096   2.687  14.981  1.1053 -2.3564 -0.2856
 7084SOL    HW232889   0.053   2.628  15.112  0.1686  1.8973  1.0035
 7085SOL     OW32890   3.756   1.309  11.012  0.3470 -0.2210 -0.4317
 7085SOL    HW132891   3.839   1.353  10.999 -0.7233  2.5483  2.0830
 7085SOL    HW232892   3.732   1.342  11.099  1.5356 -0.4913  0.0020
 7086SOL     OW32893   4.728   2.096   2.015  0.1388 -0.5389  0.0085
 7086SOL    HW132894   4.720   2.042   1.936  3.6075  0.2526 -0.8771
 7086SOL    HW232895   0.078   2.140   2.006 -0.9132  1.4669 -0.1030
 7087SOL     OW32896   1.611   3.404  13.580  0.0184  0.0963 -0.0242
 7087SOL    HW132897   1.647   3.338  13.522  0.8825 -0.9643  1.6993
 7087SOL    HW232898   1.653   3.479  13.538  0.4087 -0.2944 -0.3245
 7088SOL     OW32899   1.040   1.328   4.586  0.5414 -0.2487  0.1790
 7088SOL    HW132900   1.095   1.269   4.637 -0.6917 -0.6943  0.9783
 7088SOL    HW232901   0.990   1.261   4.540  1.5868 -0.3969 -0.7570
 7089SOL     OW32902   4.021   0.153   2.246  0.0822 -0.1042 -0.0991
 7089SOL    HW132903   3.968   0.074   2.233  0.5949 -0.6428  1.1496
 7089SOL    HW232904   4.026   0.159   2.341  2.3727 -2.4463 -0.0836
 7090SOL     OW32905   4.474   0.024  13.122  0.5640 -0.3723  0.7044
 7090SOL    HW132906   4.419   0.044  13.046  1.0460  1.4712  0.8462
 7090SOL    HW232907   4.417   0.036  13.197  0.4928  0.9629  0.4401
 7091SOL     OW32908   2.695   0.867  12.128  0.2562  0.0032 -0.0253
 7091SOL    HW132909   2.705   0.785  12.176 -2.6772 -1.6313 -2.1855
 7091SOL    HW232910   2.617   0.852  12.075 -0.2659  1.1690  0.4257
 7092SOL     OW32911   4.555   2.101   9.576 -0.0659 -0.2230 -0.4698
 7092SOL    HW132912   4.481   2.068   9.626 -0.7219  1.2902 -0.4461
 7092SOL    HW232913   4.580   2.019   9.532  2.5726 -0.0835  0.7838
 7093SOL     OW32914   4.183   1.647   7.391 -0.3925  0.4427  0.1513
 7093SOL    HW132915   4.112   1.652   7.455 -2.2594  2.7322 -2.0872
 7093SOL    HW232916   4.257   1.651   7.452 -0.3406  0.1063  0.1094
 7094SOL     OW32917   4.081   2.770  17.445 -0.3832 -0.5186 -0.1426
 7094SOL    HW132918   4.023   2.814  17.508  0.4357  1.9082 -1.0572
 7094SOL    HW232919   4.020   2.708  17.404  0.5969 -1.9435  0.5604
 7095SOL     OW32920   3.581   3.140  17.432 -0.0723  0.5535  0.2179
 7095SOL    HW132921   3.515   3.132  17.364  1.8733 -1.0201 -1.5083
 7095SOL    HW232922   3.537   3.162  17.514 -0.0881  0.0974  0.3335
 7096SOL     OW32923   0.964   2.715   3.428 -0.1642  0.5775 -0.7227
 7096SOL    HW132924   0.981   2.659   3.353 -2.0281  0.3408 -0.9704
 7096SOL    HW232925   0.945   2.659   3.503  0.6930 -0.4245 -1.2608
 7097SOL     OW32926   1.646   4.528  10.012  0.3530 -0.2985 -0.2514
 7097SOL    HW132927   1.609   4.509  10.098 -0.4819  0.4751 -0.4379
 7097SOL    HW232928   1.644   4.442   9.969 -0.6220 -0.3579 -0.0827
 7098SOL     OW32929   2.710   2.895   3.484  0.3443  0.0385 -0.5578
 7098SOL    HW132930   2.776   2.958   3.512  0.5128 -0.6647  0.6063
 7098SOL    HW232931   2.678   2.865   3.569 -2.1561  0.5464 -1.3035
 7099SOL     OW32932   2.553   4.451   1.880 -0.3792  0.6669  0.1184
 7099SOL    HW132933   2.475   4.506   1.873  0.0998  1.4354  0.8276
 7099SOL    HW232934   2.517   4.364   1.865 -1.3682  1.3728 -1.5271
 7100SOL     OW32935   1.648   2.882   2.651  0.2822  0.1389 -0.7668
 7100SOL    HW132936   1.697   2.897   2.570  1.3615  0.7077 -0.0140
 7100SOL    HW232937   1.603   2.798   2.643 -0.1626  0.3641 -0.6388
 7101SOL     OW32938   1.162   3.405   4.883  0.5135  0.4505  0.2939
 7101SOL    HW132939   1.106   3.475   4.850  0.3274 -0.0937 -0.5695
 7101SOL    HW232940   1.125   3.331   4.834 -1.4177  0.1581  2.1849
 7102SOL     OW32941   2.623   1.617  10.130 -0.5627  0.0547  0.6510
 7102SOL    HW132942   2.609   1.524  10.143 -2.4376  0.3867  1.0690
 7102SOL    HW232943   2.678   1.649  10.202 -1.3471 -0.8338  1.6376
 7103SOL     OW32944   2.935   0.538   3.567 -0.4866  0.6362  0.1223
 7103SOL    HW132945   2.903   0.452   3.595  0.4788  0.5175  0.8571
 7103SOL    HW232946   2.887   0.598   3.624  1.4774 -0.5566  2.9970
 7104SOL     OW32947   3.649   4.513  14.239 -0.1742 -0.4574  0.2065
 7104SOL    HW132948   3.734   4.526  14.196 -0.0480 -1.8389  0.0439
 7104SOL    HW232949   3.653   4.418  14.248  0.6351 -0.5128 -0.7638
 7105SOL     OW32950   1.787   3.201   7.782  0.0890  0.4252  0.0119
 7105SOL    HW132951   1.730   3.272   7.752 -1.0906  0.0287  1.2913
 7105SOL    HW232952   1.870   3.209   7.736 -0.0478  1.1366 -0.1225
 7106SOL     OW32953   4.220   1.759   5.207 -0.0775 -0.4259 -0.3950
 7106SOL    HW132954   4.229   1.683   5.149  2.7152 -0.5514  0.1879
 7106SOL    HW232955   4.256   1.830   5.153  0.3201 -0.8394 -0.6766
 7107SOL     OW32956   1.967   4.174   9.792 -0.0770  0.3603  0.2953
 7107SOL    HW132957   2.047   4.132   9.821 -0.5795  1.0141  2.6187
 7107SOL    HW232958   1.968   4.254   9.846  1.9690  0.9873 -0.6801
 7108SOL     OW32959   0.999   4.421   8.868  0.6732 -0.1167 -0.2609
 7108SOL    HW132960   0.946   4.370   8.929 -0.4187  0.5989 -0.6021
 7108SOL    HW232961   0.933   4.477   8.828  0.7378 -0.4257 -0.7952
 7109SOL     OW32962   3.977   2.011   9.549 -0.5138 -0.0815  0.3891
 7109SOL    HW132963   3.901   1.971   9.508  1.6119 -2.1032 -1.5739
 7109SOL    HW232964   4.041   2.011   9.478 -0.9716 -0.7216 -0.0329
 7110SOL     OW32965   1.392   2.434  17.653 -0.5785  0.1841 -0.3995
 7110SOL    HW132966   1.415   2.438   0.011 -1.3112 -0.3687 -0.1908
 7110SOL    HW232967   1.302   2.402  17.665 -0.5607 -0.5011 -2.1575
 7111SOL     OW32968   2.113   2.298   0.572  0.0107  0.1792  0.0933
 7111SOL    HW132969   2.112   2.277   0.478  2.5554 -3.8300  0.9319
 7111SOL    HW232970   2.208   2.307   0.581 -0.1736  0.2770  1.9077
 7112SOL     OW32971   0.816   4.352   5.182 -0.9240 -0.1050 -0.1854
 7112SOL    HW132972   0.890   4.364   5.122 -0.3275  1.3402  0.8293
 7112SOL    HW232973   0.788   4.442   5.201 -0.8577  0.1524 -1.2683
 7113SOL     OW32974   3.309   1.394   2.155  0.8534 -0.0179 -0.0596
 7113SOL    HW132975   3.221   1.400   2.118  0.3133  0.1354  1.2879
 7113SOL    HW232976   3.347   1.470   2.110 -1.3120  0.7472 -0.5716
 7114SOL     OW32977   1.583   1.357   5.102  0.4143 -0.7552 -0.5393
 7114SOL    HW132978   1.498   1.314   5.109  0.4835  0.0090  4.8176
 7114SOL    HW232979   1.634   1.305   5.165 -0.4224 -0.4372  0.4050
 7115SOL     OW32980   4.592   1.989  16.716 -0.5556 -0.1300  0.8246
 7115SOL    HW132981   4.679   2.005  16.752  0.9807 -2.1816 -1.9598
 7115SOL    HW232982   4.601   1.901  16.678 -0.2979  0.3109 -0.1514
 7116SOL     OW32983   4.484   2.354   2.023 -0.8146 -0.6509  0.2888
 7116SOL    HW132984   4.506   2.446   2.013 -1.7257 -0.1447  2.8771
 7116SOL    HW232985   4.469   2.333   1.931 -1.1978  1.1924 -0.0605
 7117SOL     OW32986   2.863   3.682   4.055  0.3754 -0.2853  0.5941
 7117SOL    HW132987   2.815   3.660   4.135 -2.2310  0.5324 -0.7429
 7117SOL    HW232988   2.813   3.646   3.982 -0.0850 -2.9308  2.2354
 7118SOL     OW32989   1.101   3.719  11.504  0.1645  0.3707  0.4302
 7118SOL    HW132990   1.113   3.814  11.495  1.0737  0.3902  1.8836
 7118SOL    HW232991   1.164   3.696  11.436  0.5006  2.2161  0.1162
 7119SOL     OW32992   2.287   2.803   4.219  0.1846 -0.3094  0.0900
 7119SOL    HW132993   2.375   2.804   4.180  0.0774  0.3451 -0.1395
 7119SOL    HW232994   2.291   2.865   4.292 -0.7252 -0.3642  0.1845
 7120SOL     OW32995   0.582   2.966  11.395  0.3674 -0.1918  0.1415
 7120SOL    HW132996   0.577   3.001  11.306 -1.6264 -0.5066  0.1339
 7120SOL    HW232997   0.623   2.886  11.362 -0.8696 -0.9671  0.5048
 7121SOL     OW32998   0.787   1.692   1.318 -0.0904 -0.1399 -0.1941
 7121SOL    HW132999   0.837   1.687   1.399 -1.0048 -1.5793  0.2599
 7121SOL    HW233000   0.775   1.600   1.295 -2.1015  0.3548 -1.0962
 7122SOL     OW33001   4.579   2.916   6.114  0.0595  0.1962 -0.1942
 7122SOL    HW133002   4.616   2.931   6.200 -0.0891  1.0841 -0.2900
 7122SOL    HW233003   4.659   2.882   6.074 -0.6041 -0.8660 -0.6190
 7123SOL     OW33004   1.480   3.154   9.801 -0.2916  0.6020 -0.0303
 7123SOL    HW133005   1.454   3.063   9.789  0.1663  0.1573  2.2070
 7123SOL    HW233006   1.549   3.151   9.867  0.4000  2.2068 -0.6932
 7124SOL     OW33007   2.147   3.261   3.242 -0.3063  0.3748 -0.1933
 7124SOL    HW133008   2.172   3.185   3.295  1.9970  0.2512 -1.4567
 7124SOL    HW233009   2.068   3.226   3.201 -1.0359 -0.3557  1.8024
 7125SOL     OW33010   2.555   0.502  16.012  0.0423  0.1261  0.1079
 7125SOL    HW133011   2.536   0.504  15.918 -0.7788 -0.5918  0.2583
 7125SOL    HW233012   2.476   0.464  16.050  0.8147 -0.0721  1.5261
 7126SOL     OW33013   2.157   4.594  14.812  0.4410 -0.7458  0.5206
 7126SOL    HW133014   2.084   4.533  14.800  0.1684 -0.7196  2.0652
 7126SOL    HW233015   2.229   4.537  14.841  1.3622 -0.0147 -0.3527
 7127SOL     OW33016   3.603   2.039  12.932  0.0904 -0.0613  0.4619
 7127SOL    HW133017   3.511   2.046  12.905  1.3267 -0.9185 -3.8896
 7127SOL    HW233018   3.628   1.947  12.920  2.3161  0.7020 -0.7097
 7128SOL     OW33019   3.113   2.702  14.972  0.4537 -0.0448 -0.1325
 7128SOL    HW133020   3.172   2.766  14.933  0.5770 -0.3924 -0.5175
 7128SOL    HW233021   3.161   2.677  15.051 -0.6233  0.3809  0.6565
 7129SOL     OW33022   4.425   2.082   5.952  0.5304  0.2131 -0.4405
 7129SOL    HW133023   4.519   2.070   5.968  0.1710 -2.3955 -0.3412
 7129SOL    HW233024   4.417   2.054   5.861  3.9491  0.8909 -0.9448
 7130SOL     OW33025   1.699   4.415  14.740 -0.0227  0.0166 -0.4926
 7130SOL    HW133026   1.659   4.353  14.801  0.8625 -0.0963 -0.0312
 7130SOL    HW233027   1.652   4.399  14.658 -0.4868  0.4130 -0.3065
 7131SOL     OW33028   4.695   0.224   0.593  0.0863  0.0130 -0.6364
 7131SOL    HW133029   4.637   0.175   0.652 -1.7520  3.4737  0.4459
 7131SOL    HW233030   0.013   0.152   0.557 -1.5727 -1.4941 -0.0035
 7132SOL     OW33031   4.371   1.549  11.846  0.6383  0.1727  0.2867
 7132SOL    HW133032   4.389   1.459  11.876 -3.0110 -0.3276  1.0540
 7132SOL    HW233033   4.368   1.595  11.930  1.2374 -0.2232  0.5231
 7133SOL     OW33034   4.131   0.496   4.028 -0.1006 -0.6361  0.4838
 7133SOL    HW133035   4.179   0.414   4.016 -2.4976 -1.3807 -4.0460
 7133SOL    HW233036   4.202   0.556   4.051  0.1693 -0.9065  0.3585
 7134SOL     OW33037   0.108   3.599  11.674  0.3446  0.3135  0.4587
 7134SOL    HW133038   0.022   3.562  11.691  0.5957  0.1846  1.4248
 7134SOL    HW233039   0.083   3.662  11.606 -0.7516  0.1338  0.7099
 7135SOL     OW33040   3.758   3.963   4.329 -0.0982 -0.2207 -0.0250
 7135SOL    HW133041   3.669   3.999   4.329 -0.0290 -0.0477 -1.1672
 7135SOL    HW233042   3.728   3.873   4.321 -0.4631 -0.2426  1.5443
 7136SOL     OW33043   0.192   2.858  14.063  0.2029 -0.0746  0.1098
 7136SOL    HW133044   0.186   2.817  13.977  1.0218 -0.2047  0.1165
 7136SOL    HW233045   0.283   2.840  14.085  0.2623  0.8907  0.6581
 7137SOL     OW33046   3.336   1.084  17.189  0.1467  0.2497 -0.0779
 7137SOL    HW133047   3.270   1.142  17.227  1.3085  0.8190  1.0972
 7137SOL    HW233048   3.320   1.086  17.095  0.8611  0.6365 -0.1866
 7138SOL     OW33049   3.384   1.362   3.824  0.8338 -0.3577  0.1415
 7138SOL    HW133050   3.434   1.333   3.901  0.9610  0.1088  0.2341
 7138SOL    HW233051   3.439   1.426   3.780  1.2687  0.4746  1.8921
 7139SOL     OW33052   0.027   2.778   5.956  0.3200  0.0851  0.6435
 7139SOL    HW133053   4.687   2.734   5.915  2.3716 -0.0636 -2.9320
 7139SOL    HW233054   0.068   2.715   6.015  0.3776  1.2549  1.8555
 7140SOL     OW33055   0.313   0.658   9.536 -0.2953 -0.2835  0.3371
 7140SOL    HW133056   0.384   0.672   9.599 -1.3566 -1.2338  1.7509
 7140SOL    HW233057   0.288   0.566   9.546 -1.4201  0.2066  2.2118
 7141SOL     OW33058   2.589   0.122  17.228 -0.2718  0.1767  0.0696
 7141SOL    HW133059   2.643   0.115  17.307  0.4701 -0.8476 -0.5318
 7141SOL    HW233060   2.616   0.048  17.175  1.8809 -0.0838  1.5235
 7142SOL     OW33061   1.288   4.578   6.182  0.0629  0.3341  0.4640
 7142SOL    HW133062   1.281   4.498   6.234 -1.3191  0.3950  0.3714
 7142SOL    HW233063   1.323   4.553   6.097 -0.7555 -2.9539  1.1026
 7143SOL     OW33064   3.725   2.512   2.468  0.0485  0.1940 -0.0004
 7143SOL    HW133065   3.791   2.573   2.502 -0.1746  0.6521 -0.3788
 7143SOL    HW233066   3.714   2.465   2.551 -0.2128 -1.2324 -0.8593
 7144SOL     OW33067   3.787   1.993   7.483  0.5280 -0.5054 -0.6019
 7144SOL    HW133068   3.880   2.004   7.501  0.4635  0.0469 -0.5808
 7144SOL    HW233069   3.762   1.933   7.553 -2.4007 -0.1817 -1.3701
 7145SOL     OW33070   3.261   0.492   4.408 -0.0320 -0.6227 -0.5340
 7145SOL    HW133071   3.306   0.546   4.343 -0.8945  0.9814  0.2070
 7145SOL    HW233072   3.220   0.428   4.350 -0.9465  0.8566 -1.5340
 7146SOL     OW33073   3.897   3.879  13.243 -0.4646 -0.4510  0.1664
 7146SOL    HW133074   3.988   3.894  13.268 -1.2402  2.0058  1.5755
 7146SOL    HW233075   3.916   3.842  13.157  0.5325  1.6421 -0.5209
 7147SOL     OW33076   2.949   1.650   4.014  0.3552 -0.0385 -0.4837
 7147SOL    HW133077   3.001   1.571   4.027  0.8690  0.4537  0.4432
 7147SOL    HW233078   2.898   1.624   3.937 -0.8832  0.5799  0.1227
 7148SOL     OW33079   3.527   2.541   6.052  0.9007 -0.2369  0.4767
 7148SOL    HW133080   3.511   2.624   6.008 -2.7184 -0.8145  0.7405
 7148SOL    HW233081   3.494   2.567   6.138  1.3949  2.0527 -0.0219
 7149SOL     OW33082   4.638   1.909   9.957  0.1693 -0.4085  0.7207
 7149SOL    HW133083   4.613   1.913   9.865 -3.8785  0.6518  1.8945
 7149SOL    HW233084   4.558   1.870   9.992 -1.2838  0.6180 -1.5160
 7150SOL     OW33085   1.275   2.895  14.880  0.2554 -1.0097  0.2384
 7150SOL    HW133086   1.319   2.964  14.831  1.0248 -0.4238  1.7703
 7150SOL    HW233087   1.187   2.933  14.871 -0.5957 -2.7333  1.2009
 7151SOL     OW33088   0.639   0.570  13.930 -0.7266 -0.4598  0.1929
 7151SOL    HW133089   0.607   0.599  14.015  0.3105  1.5941 -0.1367
 7151SOL    HW233090   0.558   0.530  13.899 -0.4575 -2.1146  1.5874
 7152SOL     OW33091   0.908   3.087   8.573 -0.1731 -0.4230 -0.6684
 7152SOL    HW133092   0.925   2.996   8.550  3.1851 -0.4164  1.8328
 7152SOL    HW233093   0.989   3.135   8.559  0.6183 -1.3119  0.8210
 7153SOL     OW33094   2.348   4.492   4.295  0.2166  0.0441  0.2610
 7153SOL    HW133095   2.357   4.401   4.324 -0.4771  0.1033  0.6534
 7153SOL    HW233096   2.362   4.481   4.201 -2.6177 -2.4095  0.1133
 7154SOL     OW33097   1.484   2.849   3.983 -0.1848  0.1323  0.4468
 7154SOL    HW133098   1.490   2.837   4.077  0.3649 -2.8575  0.0430
 7154SOL    HW233099   1.394   2.881   3.971 -1.5775 -3.2036  1.9980
 7155SOL     OW33100   0.347   0.937   6.697 -0.0208 -0.2418 -0.1157
 7155SOL    HW133101   0.264   0.898   6.727 -0.0762  0.7029  0.9277
 7155SOL    HW233102   0.394   0.959   6.777  2.5858 -0.5716 -1.5841
 7156SOL     OW33103   0.994   0.093   4.245 -0.1949 -0.0466  0.0269
 7156SOL    HW133104   0.971   0.102   4.153  1.2105  1.2853 -0.2037
 7156SOL    HW233105   1.050   0.171   4.247  1.0710 -1.0057  2.2413
 7157SOL     OW33106   1.630   1.617   4.535  0.2573 -0.1352  0.3895
 7157SOL    HW133107   1.654   1.561   4.461  3.1970  0.3412  0.9718
 7157SOL    HW233108   1.615   1.544   4.596 -3.1822  1.3777  1.3462
 7158SOL     OW33109   0.791   3.856  11.782 -0.4342  0.0931 -0.4480
 7158SOL    HW133110   0.836   3.819  11.858 -1.0623 -1.0860 -0.6549
 7158SOL    HW233111   0.776   3.951  11.788 -2.0215 -0.4679  4.2646
 7159SOL     OW33112   4.528   3.482   8.541  0.2290 -0.1656 -0.1450
 7159SOL    HW133113   4.582   3.541   8.594 -0.8413  1.9212 -1.3858
 7159SOL    HW233114   4.444   3.525   8.526 -0.3040 -1.6094 -1.1987
 7160SOL     OW33115   1.615   2.213   5.336  0.5862  0.2286 -0.3422
 7160SOL    HW133116   1.550   2.236   5.269 -0.4501 -1.4642  0.0906
 7160SOL    HW233117   1.577   2.225   5.423 -1.0628 -2.5259 -0.6552
 7161SOL     OW33118   2.655   4.703  14.552 -0.2391  0.3194  0.1026
 7161SOL    HW133119   2.656   0.003  14.641  1.3400  0.2416  0.1217
 7161SOL    HW233120   2.563   4.719  14.534 -0.2649 -1.5296 -1.4083
 7162SOL     OW33121   0.057   4.107   3.173  1.2252  0.0645  0.3251
 7162SOL    HW133122   0.141   4.138   3.205 -0.2197  2.1836  2.1157
 7162SOL    HW233123   0.019   4.056   3.245  1.7400 -0.1956  0.4057
 7163SOL     OW33124   0.667   1.295  13.082  0.1059  0.2095  0.7687
 7163SOL    HW133125   0.703   1.317  12.996 -0.4518  1.5070  0.8692
 7163SOL    HW233126   0.666   1.384  13.116 -1.8931  0.4607  0.0652
 7164SOL     OW33127   4.700   3.979  15.364  0.6450 -0.2083  0.0150
 7164SOL    HW133128   4.716   3.971  15.270 -0.3319  0.0289 -0.1680
 7164SOL    HW233129   0.057   4.002  15.386  0.4139 -0.2635  1.0339
 7165SOL     OW33130   2.857   1.064   2.985 -0.8300  0.2416 -0.0135
 7165SOL    HW133131   2.856   1.138   3.046 -0.3101 -0.0922  0.4011
 7165SOL    HW233132   2.764   1.043   2.974 -1.2792  0.5956  3.1966
 7166SOL     OW33133   3.777   1.543   4.614  0.3726 -0.4985  0.4353
 7166SOL    HW133134   3.839   1.487   4.662  2.1492  1.4557  0.4269
 7166SOL    HW233135   3.778   1.614   4.678 -2.2379  1.9999 -2.3250
 7167SOL     OW33136   3.886   0.997   6.601 -0.1726 -0.5217 -0.5893
 7167SOL    HW133137   3.959   0.989   6.540 -0.5960 -2.2012 -0.8878
 7167SOL    HW233138   3.879   1.092   6.594  0.3466 -0.5284 -1.1847
 7168SOL     OW33139   1.601   0.524   2.230  0.2844  0.1684 -0.7645
 7168SOL    HW133140   1.600   0.429   2.243 -2.6634  0.2399 -0.4013
 7168SOL    HW233141   1.669   0.551   2.292 -0.0531  0.2071 -0.4113
 7169SOL     OW33142   4.262   1.135  17.074 -0.0424  0.3566 -0.0403
 7169SOL    HW133143   4.332   1.187  17.035 -0.7279  0.0449 -1.6788
 7169SOL    HW233144   4.270   1.169  17.163  0.9527  0.3570 -0.1310
 7170SOL     OW33145   3.489   0.561   3.698  0.6768 -0.7164  0.1628
 7170SOL    HW133146   3.439   0.484   3.671  0.4986 -0.0657 -1.3522
 7170SOL    HW233147   3.509   0.601   3.613 -1.4338 -2.0014 -0.9322
 7171SOL     OW33148   3.251   4.395  17.193  0.0823 -0.3005 -0.3962
 7171SOL    HW133149   3.235   4.406  17.287  2.0345 -0.0528 -0.1034
 7171SOL    HW233150   3.272   4.303  17.180  1.7576 -0.3867  3.1397
 7172SOL     OW33151   1.480   4.292  15.257  0.0151 -0.4830 -0.0938
 7172SOL    HW133152   1.403   4.343  15.233 -0.5910 -1.1424  0.4427
 7172SOL    HW233153   1.444   4.205  15.275 -1.4782 -0.4261 -2.8088
 7173SOL     OW33154   3.197   1.335  17.165 -0.2018  0.1842 -0.3007
 7173SOL    HW133155   3.264   1.377  17.111  0.6303 -0.0343  0.5661
 7173SOL    HW233156   3.213   1.376  17.250 -1.4937 -0.4959  0.2759
 7174SOL     OW33157   1.376   1.793   9.514  0.1613 -0.4548 -0.5235
 7174SOL    HW133158   1.436   1.817   9.585 -0.8713 -2.0445  0.8917
 7174SOL    HW233159   1.384   1.868   9.456  1.3099 -1.4092 -1.6147
 7175SOL     OW33160   3.265   3.079   2.853 -0.4115  0.6394  0.5457
 7175SOL    HW133161   3.277   2.987   2.875  1.9716  0.5114 -1.3080
 7175SOL    HW233162   3.192   3.081   2.791  1.1565 -0.3480 -1.3114
 7176SOL     OW33163   3.047   4.372   4.204 -0.6952 -0.0801  0.0934
 7176SOL    HW133164   3.008   4.285   4.215  0.0691 -0.3162  0.9401
 7176SOL    HW233165   3.087   4.372   4.117 -0.0852  0.8540  0.3744
 7177SOL     OW33166   0.128   4.296   4.724 -0.0881 -0.1342  0.3146
 7177SOL    HW133167   0.060   4.311   4.790  0.0141 -0.1867  0.4330
 7177SOL    HW233168   0.071   4.252   4.661 -1.4486 -0.5616  1.8233
 7178SOL     OW33169   1.826   1.665   1.799 -0.0616  0.0194 -0.2979
 7178SOL    HW133170   1.802   1.621   1.717  0.3668  1.2268 -1.0673
 7178SOL    HW233171   1.775   1.743   1.780 -0.1617 -0.4491 -2.0200
 7179SOL     OW33172   4.391   1.162   3.847  0.0016  0.2918 -0.2813
 7179SOL    HW133173   4.356   1.073   3.856  0.5354  0.3012  1.8967
 7179SOL    HW233174   4.368   1.174   3.755  0.5477  1.0403 -0.3222
 7180SOL     OW33175   2.559   2.017   7.894  0.3895  0.2245  0.2094
 7180SOL    HW133176   2.473   1.976   7.904  0.3490 -0.1994 -1.8034
 7180SOL    HW233177   2.567   2.076   7.969 -0.9935  1.1731 -0.3908
 7181SOL     OW33178   1.208   2.307   7.988 -0.5970  0.1458  0.4514
 7181SOL    HW133179   1.268   2.311   8.063  0.6628  1.0001 -0.6022
 7181SOL    HW233180   1.137   2.265   8.036 -0.2141  0.8515  1.6261
 7182SOL     OW33181   3.469   1.077   7.805  0.3026 -0.0048 -0.0029
 7182SOL    HW133182   3.564   1.073   7.795  0.3676  0.1988  0.5337
 7182SOL    HW233183   3.444   1.123   7.725 -1.2994  2.9423  2.2069
 7183SOL     OW33184   3.977   2.520  17.636 -0.3844 -0.6025 -0.0176
 7183SOL    HW133185   3.969   2.509  17.541 -0.1535 -1.1489  0.0266
 7183SOL    HW233186   4.014   2.436  17.664  1.1046  0.2541  0.5855
 7184SOL     OW33187   1.771   3.995   5.049  0.8130  0.3824 -0.1950
 7184SOL    HW133188   1.730   3.910   5.059  1.3049 -0.0772 -1.9343
 7184SOL    HW233189   1.836   3.968   4.983  0.9279  1.6698 -0.6146
 7185SOL     OW33190   3.855   1.587   4.351 -0.1576  0.0719 -0.1608
 7185SOL    HW133191   3.807   1.626   4.423  0.8252 -3.2774  2.2778
 7185SOL    HW233192   3.944   1.599   4.385  0.0907  1.7158 -1.3580
 7186SOL     OW33193   0.248   0.723   6.464 -0.3084 -0.0512  0.1153
 7186SOL    HW133194   0.221   0.709   6.555 -3.1067  1.4283 -0.5021
 7186SOL    HW233195   0.299   0.643   6.453 -0.9299 -0.3206 -0.7763
 7187SOL     OW33196   3.071   4.089   5.421 -0.6370 -0.2635 -0.2238
 7187SOL    HW133197   3.069   4.076   5.516  1.7141  0.2891 -0.1120
 7187SOL    HW233198   2.992   4.141   5.407 -0.4272  1.0087  3.3124
 7188SOL     OW33199   3.744   2.044   3.341 -0.7133  0.3881  0.7455
 7188SOL    HW133200   3.789   2.127   3.325  2.4009 -1.4223  0.1017
 7188SOL    HW233201   3.785   2.000   3.266 -0.7858  2.5614 -0.5510
 7189SOL     OW33202   2.105   0.149   2.544  0.0967  0.5045 -0.1572
 7189SOL    HW133203   2.124   0.165   2.452  1.6437 -0.7465 -0.0545
 7189SOL    HW233204   2.079   0.234   2.579 -1.1682 -0.8879  2.3200
 7190SOL     OW33205   4.078   3.288  12.178 -0.1857  0.2256 -0.3296
 7190SOL    HW133206   3.993   3.277  12.136 -0.4474 -2.0160  0.8227
 7190SOL    HW233207   4.118   3.283  12.091  0.3244 -3.2825  0.1188
 7191SOL     OW33208   2.950   3.664   8.727  0.2486 -0.3973 -0.5919
 7191SOL    HW133209   2.857   3.684   8.722  0.1022 -0.9090  0.2750
 7191SOL    HW233210   2.984   3.744   8.768  0.7684 -0.5895 -0.6414
 7192SOL     OW33211   1.827   2.332   7.957 -0.7422  0.2942  0.8563
 7192SOL    HW133212   1.756   2.371   8.008 -1.4910  0.6127 -0.4549
 7192SOL    HW233213   1.890   2.330   8.030 -0.5726  0.9415  0.7295
 7193SOL     OW33214   4.608   2.802  12.743  0.0477 -0.6317  0.2999
 7193SOL    HW133215   4.587   2.795  12.836 -1.9621 -1.1564 -0.1725
 7193SOL    HW233216   4.667   2.727  12.739 -1.9474 -2.3111  2.2016
 7194SOL     OW33217   4.062   2.106   8.779  0.5871 -0.7117  0.0977
 7194SOL    HW133218   4.032   2.197   8.783 -2.3944 -1.6304 -0.9091
 7194SOL    HW233219   4.015   2.070   8.854  1.1438 -1.9063 -0.1270
 7195SOL     OW33220   0.107   1.150   3.701 -0.3734 -0.2926 -0.4690
 7195SOL    HW133221   0.059   1.137   3.783 -0.1051  1.2543 -0.0735
 7195SOL    HW233222   0.066   1.235   3.682  1.5270  0.3514 -1.6676
 7196SOL     OW33223   0.503   1.365   1.709 -0.4319 -0.6513  0.3713
 7196SOL    HW133224   0.494   1.425   1.635 -0.5641 -0.3483  0.6314
 7196SOL    HW233225   0.413   1.356   1.741  0.4669  0.1587  3.1086
 7197SOL     OW33226   1.686   0.104   7.619 -0.5556 -0.0698  0.1623
 7197SOL    HW133227   1.627   0.079   7.690 -1.4904  1.1343 -0.1993
 7197SOL    HW233228   1.662   0.040   7.552 -1.3003  0.7934 -0.3892
 7198SOL     OW33229   2.571   0.154   2.189  0.6437  0.2323 -0.3070
 7198SOL    HW133230   2.533   0.137   2.275  0.8940 -2.9196 -0.8115
 7198SOL    HW233231   2.608   0.070   2.163 -0.5964  0.1497 -1.7862
 7199SOL     OW33232   0.569   1.030   4.486  0.0204  0.0791 -0.1972
 7199SOL    HW133233   0.478   1.001   4.492  0.3132 -0.5621  1.0204
 7199SOL    HW233234   0.583   0.990   4.399  1.2672  1.1598 -0.4906
 7200SOL     OW33235   0.787   0.910   4.839 -0.6127  0.0158  0.7650
 7200SOL    HW133236   0.701   0.897   4.880 -0.7057  0.3504  0.6781
 7200SOL    HW233237   0.835   0.933   4.918  1.3084  2.1273 -1.0015
 7201SOL     OW33238   1.911   1.660   5.172  0.2790 -0.3137 -0.0871
 7201SOL    HW133239   1.918   1.645   5.266 -1.3132  2.6947  0.5084
 7201SOL    HW233240   1.899   1.754   5.160  1.3138 -0.3054 -1.1451
 7202SOL     OW33241   4.171   1.996   3.224 -0.1549  0.1653 -0.3944
 7202SOL    HW133242   4.262   1.966   3.223  0.5514  2.2870  1.0621
 7202SOL    HW233243   4.177   2.081   3.267 -0.0123  0.1374 -0.3570
 7203SOL     OW33244   2.332   0.907   3.526  0.3327  0.2728  0.3402
 7203SOL    HW133245   2.352   0.979   3.466 -0.0199 -0.1340 -0.2712
 7203SOL    HW233246   2.298   0.849   3.458 -0.0802  2.4175 -1.3241
 7204SOL     OW33247   4.222   1.089  12.639 -0.6010 -0.1829 -0.1028
 7204SOL    HW133248   4.181   1.017  12.687  0.6471 -1.7404 -1.3750
 7204SOL    HW233249   4.256   1.040  12.564  0.5337  0.5740 -0.0693
 7205SOL     OW33250   3.414   2.191   2.021 -0.4809 -0.3090 -0.1315
 7205SOL    HW133251   3.356   2.246   2.074  2.1235  0.6156  1.7517
 7205SOL    HW233252   3.393   2.236   1.938 -1.0967 -1.7572 -0.7512
 7206SOL     OW33253   0.741   3.914   8.499  0.1228 -0.0240  0.1945
 7206SOL    HW133254   0.834   3.895   8.487 -0.1062 -1.0412 -0.0347
 7206SOL    HW233255   0.705   3.843   8.444  1.5232  1.4056 -2.5648
 7207SOL     OW33256   0.628   2.706  11.677  0.2597  0.5202  0.6382
 7207SOL    HW133257   0.643   2.716  11.771  0.9117 -0.3126  0.6275
 7207SOL    HW233258   0.596   2.786  11.636 -2.0211 -0.5452  0.3301
 7208SOL     OW33259   1.495   3.159   2.929  0.3458  0.3972  0.0641
 7208SOL    HW133260   1.546   3.214   2.869  0.6300 -0.3487 -0.3735
 7208SOL    HW233261   1.414   3.205   2.951  0.6515  1.6612 -1.4198
 7209SOL     OW33262   4.368   3.922   2.845 -0.4262 -0.2834  0.3822
 7209SOL    HW133263   4.400   3.999   2.799 -1.9096 -0.4313 -0.8890
 7209SOL    HW233264   4.275   3.943   2.846 -0.6850 -1.2953 -1.0459
 7210SOL     OW33265   0.583   3.199  11.562 -0.0045  0.5144 -0.1074
 7210SOL    HW133266   0.560   3.139  11.492 -1.0097 -1.8625  2.2423
 7210SOL    HW233267   0.561   3.150  11.642  0.7353  0.6996  0.2111
 7211SOL     OW33268   2.921   4.189  11.249  0.2682 -0.1075 -0.0304
 7211SOL    HW133269   3.011   4.188  11.282  0.1609  1.8802  0.3036
 7211SOL    HW233270   2.897   4.271  11.291 -1.6853 -1.0384  0.6900
 7212SOL     OW33271   3.477   1.045   8.834 -0.2457  0.1983 -0.9522
 7212SOL    HW133272   3.382   1.037   8.827 -0.6550  1.3714  3.3670
 7212SOL    HW233273   3.494   1.117   8.773  0.0701  0.9544  0.0298
 7213SOL     OW33274   1.805   1.171   2.252  0.7175 -0.2737  0.0033
 7213SOL    HW133275   1.793   1.078   2.235 -0.6769 -0.2359  0.8041
 7213SOL    HW233276   1.767   1.181   2.339  1.0271  2.2343 -0.1251
 7214SOL     OW33277   0.136   2.317   7.082 -0.0014 -0.2755  0.3988
 7214SOL    HW133278   0.166   2.312   7.173 -1.7332  1.1993  1.0517
 7214SOL    HW233279   0.081   2.395   7.078 -0.1419 -0.2452  2.9390
 7215SOL     OW33280   2.496   2.255   8.974  0.0930 -0.0474 -0.2562
 7215SOL    HW133281   2.434   2.279   9.043  0.4428 -2.8193  1.0087
 7215SOL    HW233282   2.565   2.316   9.001  2.3082 -2.3832 -0.6919
 7216SOL     OW33283   3.609   3.635   3.621 -0.4096 -0.5001  0.1067
 7216SOL    HW133284   3.639   3.574   3.688 -1.1753 -0.2710  0.6490
 7216SOL    HW233285   3.685   3.693   3.628 -0.6281 -0.1296 -0.5360
 7217SOL     OW33286   0.379   1.332   5.340  0.1570  0.3116  0.0780
 7217SOL    HW133287   0.473   1.335   5.325  0.0736  0.1224 -0.4754
 7217SOL    HW233288   0.360   1.425   5.353 -0.1560  0.7658 -3.6074
 7218SOL     OW33289   2.067   0.693  14.583  0.6515  0.4463  0.7370
 7218SOL    HW133290   2.105   0.639  14.653 -1.6269 -1.2681  0.6557
 7218SOL    HW233291   2.027   0.768  14.626  0.1959  1.1034 -0.8326
 7219SOL     OW33292   1.869   1.132   3.480 -0.4933  0.2706  0.3389
 7219SOL    HW133293   1.842   1.063   3.420 -0.1553 -0.3919  0.9565
 7219SOL    HW233294   1.955   1.145   3.441 -0.2051  1.9963  1.5204
 7220SOL     OW33295   1.114   3.654   6.893  0.3114  0.6898 -0.8622
 7220SOL    HW133296   1.164   3.710   6.833 -1.3004  1.9259 -1.0646
 7220SOL    HW233297   1.071   3.600   6.827 -0.9502  0.6456 -0.0100
 7221SOL     OW33298   3.981   4.682  12.745 -0.5634 -0.3246 -0.2666
 7221SOL    HW133299   3.943   4.608  12.793  0.4141 -0.9902 -0.5284
 7221SOL    HW233300   3.930   4.692  12.665 -0.7092  0.7284 -0.0383
 7222SOL     OW33301   0.012   2.212   6.587  0.1343 -0.9599 -0.2823
 7222SOL    HW133302   0.097   2.230   6.629  1.1508  0.5676 -3.0210
 7222SOL    HW233303   4.704   2.156   6.653 -0.8096 -0.6530 -0.6266
 7223SOL     OW33304   1.716   1.965   3.739 -0.5964  0.3552  0.5461
 7223SOL    HW133305   1.797   2.000   3.775 -1.2484  0.3001  2.0752
 7223SOL    HW233306   1.700   1.886   3.790  4.1336 -2.1724 -1.9632
 7224SOL     OW33307   2.700   0.215   3.505  0.3022 -0.4040 -0.1270
 7224SOL    HW133308   2.667   0.126   3.491  0.8495 -0.5944 -0.1992
 7224SOL    HW233309   2.731   0.253   3.423 -1.7420 -0.2097 -0.8047
 7225SOL     OW33310   2.810   3.749   7.946  0.0672 -0.1965  0.6353
 7225SOL    HW133311   2.897   3.757   7.907 -0.4463  2.7255  0.0997
 7225SOL    HW233312   2.800   3.656   7.963 -1.2892 -0.3866 -1.1766
 7226SOL     OW33313   1.834   1.505   6.186  0.4017  0.1503 -0.2154
 7226SOL    HW133314   1.761   1.466   6.137 -0.5740 -0.9211  2.0765
 7226SOL    HW233315   1.846   1.441   6.256  1.2252 -1.7375 -2.0851
 7227SOL     OW33316   2.714   2.825  13.769  0.2840 -0.0716 -0.5932
 7227SOL    HW133317   2.651   2.787  13.708  1.2949 -2.1643 -0.3160
 7227SOL    HW233318   2.666   2.796  13.847  0.0779 -0.4795 -0.8720
 7228SOL     OW33319   0.844   4.592  17.155 -0.6959  0.0968 -0.5389
 7228SOL    HW133320   0.775   4.639  17.109  1.1455  1.9121 -1.4456
 7228SOL    HW233321   0.915   4.598  17.091 -1.2285 -0.6506 -1.1907
 7229SOL     OW33322   3.214   3.048  10.011  0.4211  0.0469 -0.2741
 7229SOL    HW133323   3.250   3.136  10.008 -0.3925  0.3951  0.1759
 7229SOL    HW233324   3.253   3.019  10.094 -0.7734  2.8306  1.2548
 7230SOL     OW33325   3.114   2.259   1.650  0.0330  0.0655 -0.0446
 7230SOL    HW133326   3.072   2.250   1.565  0.5531  1.3230 -0.4430
 7230SOL    HW233327   3.196   2.299   1.623 -0.2824  0.0694 -0.9716
 7231SOL     OW33328   0.073   4.442   7.848 -0.6967  0.2231  0.0501
 7231SOL    HW133329   0.033   4.465   7.932  1.9806  2.0866  0.8091
 7231SOL    HW233330   0.085   4.347   7.853 -0.9571  0.1889  0.0460
 7232SOL     OW33331   1.810   3.450  12.392 -0.6146  0.0664  0.4172
 7232SOL    HW133332   1.764   3.534  12.393 -0.1609  0.3156  0.1420
 7232SOL    HW233333   1.886   3.474  12.339 -0.9592  1.0944  0.3938
 7233SOL     OW33334   3.759   1.708   9.034  0.6550  0.4729  0.3769
 7233SOL    HW133335   3.745   1.659   9.115 -0.9760 -1.0629 -0.8426
 7233SOL    HW233336   3.708   1.786   9.057 -1.6537 -0.5663 -1.3404
 7234SOL     OW33337   2.159   4.179  12.892 -0.1453 -0.3495  0.0639
 7234SOL    HW133338   2.113   4.225  12.822  1.2611  1.2588  0.1827
 7234SOL    HW233339   2.226   4.244  12.912  1.8182 -1.3618 -3.2608
 7235SOL     OW33340   2.282   0.584   7.294 -0.0323 -0.4351  0.2164
 7235SOL    HW133341   2.235   0.665   7.311  1.2526  0.5490 -0.9762
 7235SOL    HW233342   2.288   0.572   7.199  1.6113 -0.9361  0.3809
 7236SOL     OW33343   3.523   1.849   7.844  0.9946  0.0523  0.3162
 7236SOL    HW133344   3.431   1.877   7.850  0.8891 -0.6790  2.0118
 7236SOL    HW233345   3.562   1.878   7.926 -1.3632 -2.0231  2.1927
 7237SOL     OW33346   3.469   4.716   5.163  0.3420  0.5408  0.4123
 7237SOL    HW133347   3.542   0.011   5.217  2.0010 -1.1091 -0.9253
 7237SOL    HW233348   3.508   4.708   5.076 -1.4301  1.3279 -0.4594
 7238SOL     OW33349   1.661   0.333   9.697  0.2865 -0.0925 -0.1690
 7238SOL    HW133350   1.612   0.381   9.631  0.2437 -1.3315 -1.0316
 7238SOL    HW233351   1.722   0.276   9.651  0.4436  0.2236 -0.3454
 7239SOL     OW33352   3.878   3.507   9.091  0.3923 -0.0770 -0.8292
 7239SOL    HW133353   3.863   3.423   9.046  0.0626 -0.1033 -0.6748
 7239SOL    HW233354   3.799   3.560   9.077 -2.9022 -4.2720  1.8764
 7240SOL     OW33355   2.217   0.548   3.778  0.4125 -0.4365 -0.1301
 7240SOL    HW133356   2.133   0.510   3.750  0.6980 -0.3484 -1.1024
 7240SOL    HW233357   2.197   0.641   3.766  1.6569 -0.2123 -0.4543
 7241SOL     OW33358   3.796   1.232   2.337 -0.4985 -0.0127 -0.3198
 7241SOL    HW133359   3.867   1.281   2.379  0.1924  1.0233 -2.6503
 7241SOL    HW233360   3.728   1.220   2.403 -0.1111 -1.3819 -0.1775
 7242SOL     OW33361   1.081   3.396  13.497  0.1307 -0.8019 -0.4798
 7242SOL    HW133362   1.170   3.395  13.463 -0.4016  3.4210 -1.9036
 7242SOL    HW233363   1.046   3.480  13.470  0.5849 -0.3484  0.3513
 7243SOL     OW33364   0.053   3.149  14.357  0.2488 -0.2125 -0.0355
 7243SOL    HW133365   4.713   3.189  14.401  0.1160 -1.0421  0.4949
 7243SOL    HW233366   0.045   3.057  14.382 -0.0311 -0.1068  0.2484
 7244SOL     OW33367   0.712   1.476   9.374  0.0521 -0.4130 -0.2289
 7244SOL    HW133368   0.650   1.526   9.322  1.4634  1.4780 -0.1017
 7244SOL    HW233369   0.731   1.405   9.312  4.4388  1.9892 -1.6210
 7245SOL     OW33370   1.853   0.347   2.368 -0.6776 -0.3845 -0.1617
 7245SOL    HW133371   1.862   0.436   2.335 -0.3148 -0.1451  0.6065
 7245SOL    HW233372   1.908   0.300   2.305  0.1329  0.3866 -0.0152
 7246SOL     OW33373   1.010   0.072   7.451 -0.0365 -0.4756  0.1599
 7246SOL    HW133374   1.031   0.140   7.387  1.3294  0.1374  1.2799
 7246SOL    HW233375   0.958   0.117   7.517 -0.2636 -1.3882  0.6044
 7247SOL     OW33376   3.282   3.784   7.606 -0.0556 -0.4886 -0.1353
 7247SOL    HW133377   3.306   3.876   7.594 -1.2023 -0.0977  0.5498
 7247SOL    HW233378   3.368   3.746   7.624  0.0951  0.1188  0.4232
 7248SOL     OW33379   4.164   1.894   9.192  0.5376  0.0510 -0.0819
 7248SOL    HW133380   4.138   1.810   9.231 -2.0050  0.7109 -0.3503
 7248SOL    HW233381   4.150   1.868   9.101 -0.1035  4.7153 -1.2966
 7249SOL     OW33382   0.383   2.727  16.669 -0.1944 -0.2654  0.1500
 7249SOL    HW133383   0.373   2.717  16.574  0.0157 -3.0314  0.4190
 7249SOL    HW233384   0.312   2.791  16.676 -0.1730 -0.1297 -0.7974
 7250SOL     OW33385   2.235   0.526   1.652 -0.1661  0.2054  0.3794
 7250SOL    HW133386   2.292   0.598   1.626  0.8045 -0.1770  1.4529
 7250SOL    HW233387   2.290   0.487   1.720  1.9345  1.3657 -0.6690
 7251SOL     OW33388   4.590   3.721   4.803  0.2627  0.1715  0.3126
 7251SOL    HW133389   4.609   3.627   4.814  1.6281  0.4617  0.5486
 7251SOL    HW233390   4.564   3.728   4.712  0.8287 -0.0325  0.1346
 7252SOL     OW33391   2.601   2.273   7.749 -0.3578  0.5920 -0.0607
 7252SOL    HW133392   2.614   2.225   7.831 -4.2348  0.2393  0.3185
 7252SOL    HW233393   2.656   2.350   7.766  1.5611 -0.9344  0.6780
 7253SOL     OW33394   1.751   2.079  17.029  0.2764  0.5371 -0.4400
 7253SOL    HW133395   1.725   2.170  17.044  1.0664  0.2811  2.5953
 7253SOL    HW233396   1.815   2.075  17.100 -1.1298 -0.1284  0.7988
 7254SOL     OW33397   1.009   3.896   5.973  0.7468 -0.3332 -0.5516
 7254SOL    HW133398   1.050   3.810   5.983  3.5066  1.1301  0.6867
 7254SOL    HW233399   1.085   3.949   5.999  1.1446 -1.8445  1.3484
 7255SOL     OW33400   0.743   2.323   2.055  0.3335 -0.1336 -0.1039
 7255SOL    HW133401   0.796   2.285   1.985 -1.0284 -1.5445 -0.3587
 7255SOL    HW233402   0.721   2.246   2.106 -0.3447 -0.4409 -0.8713
 7256SOL     OW33403   4.325   0.184   6.283 -0.0034  0.6195  0.2560
 7256SOL    HW133404   4.278   0.261   6.315 -1.0054 -0.3732  1.1976
 7256SOL    HW233405   4.368   0.137   6.354  0.3156 -0.0371 -0.3719
 7257SOL     OW33406   0.974   2.458   5.324 -0.0537  0.0906 -0.2846
 7257SOL    HW133407   0.909   2.446   5.393 -0.0432  1.1262 -0.0974
 7257SOL    HW233408   0.949   2.547   5.301 -0.1426  0.3962  1.0404
 7258SOL     OW33409   0.499   1.903  16.978 -1.1465  0.0603 -0.0907
 7258SOL    HW133410   0.583   1.938  17.006 -1.1956 -0.1985  0.3840
 7258SOL    HW233411   0.477   1.869  17.065 -3.0816  1.0789 -0.1825
 7259SOL     OW33412   0.271   3.606   6.861  0.2201  0.0912  0.5433
 7259SOL    HW133413   0.285   3.698   6.838  0.9204  0.0717  0.8865
 7259SOL    HW233414   0.253   3.575   6.773  2.7520 -2.0574  0.7912
 7260SOL     OW33415   2.816   3.152   3.338  0.4449  0.1217  0.2740
 7260SOL    HW133416   2.874   3.129   3.411 -2.2123 -1.0515  2.0411
 7260SOL    HW233417   2.745   3.202   3.379  0.0428 -0.4959  0.3307
 7261SOL     OW33418   2.834   2.054   1.183 -0.3783 -0.0415 -0.1733
 7261SOL    HW133419   2.843   2.102   1.265 -1.4677 -0.6686  0.3034
 7261SOL    HW233420   2.740   2.058   1.166 -0.4645  3.4386  1.0630
 7262SOL     OW33421   1.136   3.171  12.104 -0.1644 -0.2684 -0.1639
 7262SOL    HW133422   1.108   3.213  12.023  1.4971  0.7436 -0.2061
 7262SOL    HW233423   1.082   3.092  12.109  2.3369 -1.9264  0.2624
 7263SOL     OW33424   2.425   3.729   7.144 -0.3355 -0.3048  0.2853
 7263SOL    HW133425   2.437   3.824   7.138  0.3571 -0.4165 -0.1136
 7263SOL    HW233426   2.519   3.713   7.153  0.1921  2.1869 -0.8855
 7264SOL     OW33427   2.059   4.031   2.586 -0.7940 -0.1709 -0.3592
 7264SOL    HW133428   2.052   4.123   2.610  1.2900 -0.3245  0.7537
 7264SOL    HW233429   2.133   3.999   2.637 -0.8942 -0.5425 -0.4436
 7265SOL     OW33430   3.103   3.594   8.120 -0.3533  0.0563  0.1096
 7265SOL    HW133431   3.016   3.555   8.128 -1.0233  1.1667 -1.5016
 7265SOL    HW233432   3.150   3.537   8.180 -1.1162 -0.1042  0.5600
 7266SOL     OW33433   3.879   1.094  15.620 -0.7072  0.4702  0.1723
 7266SOL    HW133434   3.875   1.118  15.528 -0.9316  1.1143  0.3513
 7266SOL    HW233435   3.792   1.113  15.654 -0.4496  0.4778  0.8408
 7267SOL     OW33436   3.961   1.371   4.727 -0.8374  0.3380  0.6559
 7267SOL    HW133437   3.999   1.376   4.815  1.5390 -0.0568 -0.3289
 7267SOL    HW233438   4.038   1.360   4.671 -1.5620  0.5827 -0.3934
 7268SOL     OW33439   1.275   0.116  13.357  0.2872  0.4017 -0.0097
 7268SOL    HW133440   1.317   0.137  13.274 -0.2925 -2.3115 -0.9848
 7268SOL    HW233441   1.255   0.205  13.386 -0.3793  0.4637 -0.6660
 7269SOL     OW33442   3.267   2.368   8.793 -0.0253 -0.4309  0.2887
 7269SOL    HW133443   3.345   2.316   8.776  2.2665  3.6724 -1.8309
 7269SOL    HW233444   3.202   2.315   8.747  2.4179 -2.0564 -1.2397
 7270SOL     OW33445   0.271   1.783  10.005 -0.5618  0.2223 -0.2696
 7270SOL    HW133446   0.330   1.735   9.947 -0.5408 -0.8215  0.6149
 7270SOL    HW233447   0.328   1.799  10.081  0.3361 -0.3503 -0.8158
 7271SOL     OW33448   1.634   3.706   2.124 -0.1880 -1.0287  0.4490
 7271SOL    HW133449   1.714   3.695   2.175  0.3342 -2.3565 -0.6644
 7271SOL    HW233450   1.617   3.800   2.125  0.3198 -0.9097 -2.3130
 7272SOL     OW33451   2.170   2.547  10.328 -0.1328 -0.6046  0.6417
 7272SOL    HW133452   2.085   2.503  10.337 -0.2099 -1.0177 -1.9952
 7272SOL    HW233453   2.206   2.539  10.416 -0.4000  0.6935  0.8754
 7273SOL     OW33454   4.536   1.886   3.139  0.2622  0.1266  0.3792
 7273SOL    HW133455   4.609   1.824   3.140  0.2527  0.0623 -1.9201
 7273SOL    HW233456   4.507   1.879   3.048 -0.8230 -0.4997  0.7711
 7274SOL     OW33457   0.699   0.701   7.721 -0.2812 -0.8578  0.4902
 7274SOL    HW133458   0.782   0.653   7.721  0.5744  0.6158  0.1359
 7274SOL    HW233459   0.724   0.778   7.772  2.4005 -0.3125 -1.5786
 7275SOL     OW33460   4.661   2.155   5.568  0.4396 -0.3108  0.0876
 7275SOL    HW133461   4.695   2.142   5.480 -0.5840 -0.8869 -0.2254
 7275SOL    HW233462   4.727   2.114   5.623  0.5788 -2.3007 -1.5720
 7276SOL     OW33463   4.297   4.261   3.557  0.3464 -0.1240 -0.9026
 7276SOL    HW133464   4.369   4.317   3.584 -1.8525  2.4264 -0.2814
 7276SOL    HW233465   4.342   4.186   3.518  0.4133 -0.5719  0.0283
 7277SOL     OW33466   0.017   0.859  14.782 -0.2836 -0.2714  0.2016
 7277SOL    HW133467   0.096   0.812  14.807 -1.1084 -3.0600 -2.4979
 7277SOL    HW233468   4.679   0.796  14.782  0.4531 -1.1119 -0.1181
 7278SOL     OW33469   0.302   1.357   8.161  0.1398  0.0226  0.2735
 7278SOL    HW133470   0.216   1.343   8.199  0.0223 -1.2007 -0.4079
 7278SOL    HW233471   0.347   1.281   8.199 -1.0368 -1.1236 -0.5848
 7279SOL     OW33472   2.026   4.326  10.655 -0.1182  0.0786  0.3683
 7279SOL    HW133473   2.040   4.331  10.560 -1.8265 -0.1854  0.1172
 7279SOL    HW233474   1.979   4.409  10.659 -0.2423  0.0009  0.5374
 7280SOL     OW33475   2.747   0.634   2.732 -0.3173 -0.1038 -0.2754
 7280SOL    HW133476   2.656   0.614   2.755  0.0918 -1.1148  0.4823
 7280SOL    HW233477   2.742   0.728   2.719 -0.3090 -0.1435 -0.5579
 7281SOL     OW33478   3.424   0.627   6.656  0.2975 -0.1283 -0.1532
 7281SOL    HW133479   3.478   0.653   6.581  1.2594 -4.1324 -0.8614
 7281SOL    HW233480   3.470   0.669   6.729  1.9880 -2.3402  0.0855
 7282SOL     OW33481   3.238   4.147   8.091  0.9615  0.5331 -0.6697
 7282SOL    HW133482   3.226   4.058   8.123 -3.0023  0.9178 -1.1651
 7282SOL    HW233483   3.163   4.191   8.130  1.0728 -1.6947  2.0158
 7283SOL     OW33484   3.488   3.005   3.142  0.3476  0.8373 -0.0878
 7283SOL    HW133485   3.454   3.050   3.219 -2.6856  0.1295 -0.9959
 7283SOL    HW233486   3.508   2.915   3.166 -0.7384  0.7712  0.5418
 7284SOL     OW33487   4.689   2.430   8.370 -0.2990  0.1612  0.0515
 7284SOL    HW133488   4.636   2.481   8.309 -0.9228 -0.6557 -0.0938
 7284SOL    HW233489   0.042   2.460   8.346 -0.2024  1.0885  1.5547
 7285SOL     OW33490   1.004   3.343   8.505  0.5836 -0.0147  0.3704
 7285SOL    HW133491   1.071   3.372   8.566  0.7386  2.0323 -0.7833
 7285SOL    HW233492   0.938   3.412   8.511  0.9873  0.2891  1.2037
 7286SOL     OW33493   1.166   3.911   9.497 -0.3814 -0.3700  0.0610
 7286SOL    HW133494   1.149   3.854   9.572 -0.2132 -0.1941  0.2305
 7286SOL    HW233495   1.213   3.979   9.545 -1.6222  0.4234  0.1496
 7287SOL     OW33496   0.833   0.140   7.679  0.1545 -0.2210 -0.6433
 7287SOL    HW133497   0.795   0.056   7.705  0.8021 -0.0397  0.8868
 7287SOL    HW233498   0.908   0.131   7.737 -0.5267  1.2733  0.4938
 7288SOL     OW33499   1.249   2.114   6.169  0.4707  0.0814 -0.4656
 7288SOL    HW133500   1.198   2.045   6.210 -1.4461  0.2241 -2.6030
 7288SOL    HW233501   1.244   2.180   6.239 -1.4469  0.7212 -1.2028
 7289SOL     OW33502   1.522   4.308   6.090  0.5688  0.3262  0.3071
 7289SOL    HW133503   1.573   4.275   6.016  0.9380  2.8487 -0.5489
 7289SOL    HW233504   1.483   4.386   6.052  0.7926 -0.4568 -1.5059
 7290SOL     OW33505   1.918   1.383  14.316  0.0715 -0.2709  0.0604
 7290SOL    HW133506   1.983   1.422  14.256  0.8027 -1.8377 -0.1682
 7290SOL    HW233507   1.857   1.457  14.308  0.3607  0.0316  0.6885
 7291SOL     OW33508   3.791   3.628  17.447  0.3220  0.5177  0.7837
 7291SOL    HW133509   3.705   3.602  17.415  2.4050 -2.5408 -2.2343
 7291SOL    HW233510   3.839   3.546  17.459 -2.3090 -0.8925  1.7284
 7292SOL     OW33511   3.490   1.003   3.177 -0.8524 -0.2579  0.2062
 7292SOL    HW133512   3.486   0.974   3.269  1.3002 -0.4112  0.2455
 7292SOL    HW233513   3.428   0.937   3.146  0.8366 -2.5729  1.7795
 7293SOL     OW33514   2.694   1.794   4.152  0.1752 -0.3274  0.5017
 7293SOL    HW133515   2.664   1.881   4.181  0.5253  0.2749 -0.9675
 7293SOL    HW233516   2.729   1.815   4.065  0.5219 -0.5510  0.5899
 7294SOL     OW33517   2.708   3.680  11.049 -0.1783 -0.3226 -0.3177
 7294SOL    HW133518   2.704   3.586  11.065  2.6438 -0.4294 -0.1423
 7294SOL    HW233519   2.762   3.704  11.124  1.2069 -0.5275 -1.2453
 7295SOL     OW33520   3.817   4.034  12.102  0.2190  0.3639 -0.0929
 7295SOL    HW133521   3.869   4.104  12.142 -1.2439  1.3973  0.0276
 7295SOL    HW233522   3.823   3.965  12.168 -0.7346 -0.2274 -0.6206
 7296SOL     OW33523   4.099   3.682  10.813 -0.4885  0.6686  0.1105
 7296SOL    HW133524   4.194   3.669  10.817 -0.1772  2.3715 -1.9148
 7296SOL    HW233525   4.090   3.747  10.744  0.3135  1.1660  0.4756
 7297SOL     OW33526   3.206   3.480  15.815 -0.2629 -0.2514  0.0324
 7297SOL    HW133527   3.204   3.389  15.784  1.2923  0.1923 -1.3622
 7297SOL    HW233528   3.140   3.522  15.761 -1.6125 -2.7971 -0.3201
 7298SOL     OW33529   4.134   1.425   1.605  0.7465 -0.6999 -0.6969
 7298SOL    HW133530   4.098   1.398   1.521 -1.1990 -0.6505  0.1160
 7298SOL    HW233531   4.068   1.390   1.665  0.9925 -0.9323 -0.5611
 7299SOL     OW33532   1.382   2.314   5.172 -0.3615 -0.1040 -0.4443
 7299SOL    HW133533   1.334   2.375   5.115  0.7907  2.3786  1.2490
 7299SOL    HW233534   1.334   2.236   5.143  0.7630 -1.0433  0.2286
 7300SOL     OW33535   0.648   2.592   3.409 -0.9326 -0.0153 -0.3646
 7300SOL    HW133536   0.731   2.582   3.455 -1.2245 -0.7763 -0.0084
 7300SOL    HW233537   0.676   2.598   3.318  1.6823 -2.9773  0.2519
 7301SOL     OW33538   1.155   4.496  16.686  0.0495 -0.1729  0.9494
 7301SOL    HW133539   1.123   4.578  16.650  1.7446  0.5172  1.0414
 7301SOL    HW233540   1.215   4.459  16.622  2.4472 -1.7673  4.0616
 7302SOL     OW33541   2.998   0.172   6.692  0.3679  0.4887 -0.1120
 7302SOL    HW133542   2.937   0.197   6.623 -0.2957 -0.1974  0.2163
 7302SOL    HW233543   2.938   0.140   6.759 -1.2834  1.3624 -1.1671
 7303SOL     OW33544   1.731   0.032   4.437 -0.2696  0.3782  0.2956
 7303SOL    HW133545   1.772   0.101   4.488 -0.0108  0.7809 -0.4687
 7303SOL    HW233546   1.666   0.075   4.382 -0.8161 -2.0656 -0.9607
 7304SOL     OW33547   1.799   1.117   6.877  0.0726  0.3260 -0.0299
 7304SOL    HW133548   1.795   1.032   6.921 -0.0991  0.3785  0.0536
 7304SOL    HW233549   1.755   1.093   6.795  0.5698  0.0843 -0.2267
 7305SOL     OW33550   2.389   1.807   8.189  0.3467  0.0011  0.1614
 7305SOL    HW133551   2.446   1.737   8.221 -2.0941 -1.7240  0.7358
 7305SOL    HW233552   2.315   1.772   8.237 -0.2153  0.2589 -0.5145
 7306SOL     OW33553   3.591   4.100   2.880 -0.1246 -0.2341  0.0494
 7306SOL    HW133554   3.532   4.088   2.805 -1.1245  2.1921  0.4466
 7306SOL    HW233555   3.565   4.030   2.940 -1.1192  0.2501  0.1932
 7307SOL     OW33556   0.579   4.379  17.070  0.6150  0.0968  0.7188
 7307SOL    HW133557   0.541   4.315  17.010  0.6413  0.2482  0.5399
 7307SOL    HW233558   0.666   4.397  17.034  0.0602  3.6745  1.1151
 7308SOL     OW33559   3.768   3.324  13.088 -0.3185  0.0619 -0.2565
 7308SOL    HW133560   3.719   3.402  13.063  0.9792  0.3748 -1.7874
 7308SOL    HW233561   3.793   3.345  13.178  2.6151 -1.2040 -0.7600
 7309SOL     OW33562   2.732   2.146   5.007 -0.0306  0.4754 -0.9795
 7309SOL    HW133563   2.738   2.173   5.099  0.9723  0.4765 -1.0443
 7309SOL    HW233564   2.736   2.227   4.956 -1.1478  0.8200 -0.5268
 7310SOL     OW33565   0.542   3.049   7.737 -0.3002  0.3372  0.1150
 7310SOL    HW133566   0.524   3.115   7.804 -1.1459  2.2584 -1.9565
 7310SOL    HW233567   0.634   3.073   7.726 -0.0055 -0.7474  0.2225
 7311SOL     OW33568   3.313   2.853   1.138 -0.0748 -0.2699 -0.2815
 7311SOL    HW133569   3.338   2.946   1.139 -0.9040 -0.0435 -1.4137
 7311SOL    HW233570   3.393   2.803   1.155  0.7030  0.7017 -1.0761
 7312SOL     OW33571   3.437   1.951   1.769 -0.2121 -0.2072  0.3725
 7312SOL    HW133572   3.531   1.945   1.749 -0.0376  1.9472  0.5275
 7312SOL    HW233573   3.395   1.952   1.684 -4.8122  0.7711  2.6725
 7313SOL     OW33574   2.553   3.334   8.225  0.9341  0.4388 -0.1631
 7313SOL    HW133575   2.483   3.333   8.291  1.9351  2.3656  0.9693
 7313SOL    HW233576   2.551   3.244   8.195 -1.3819  0.5526 -0.3795
 7314SOL     OW33577   0.820   3.491  11.374 -0.2807  0.0951 -0.7151
 7314SOL    HW133578   0.866   3.529  11.449 -3.0358 -0.6944  1.3752
 7314SOL    HW233579   0.890   3.471  11.312 -0.7080 -1.2667 -0.7484
 7315SOL     OW33580   3.491   4.406   4.900 -0.1637 -0.6949 -0.5116
 7315SOL    HW133581   3.516   4.396   4.992  0.4378  1.8092 -0.4150
 7315SOL    HW233582   3.460   4.497   4.896  0.7800 -0.2950  1.1838
 7316SOL     OW33583   0.055   4.573  10.121 -0.0894  0.4418  0.8374
 7316SOL    HW133584   0.132   4.588  10.066 -0.5459 -1.5301 -0.3467
 7316SOL    HW233585   0.101   4.533  10.194  1.3951  2.7072  1.1454
 7317SOL     OW33586   1.343   2.899   5.065 -0.2235  0.6242  0.5347
 7317SOL    HW133587   1.395   2.978   5.049  1.2015 -0.7351 -1.6165
 7317SOL    HW233588   1.374   2.862   5.148  0.5109  1.3406  0.5863
 7318SOL     OW33589   2.521   1.241   7.217 -0.0371  0.2469 -0.2021
 7318SOL    HW133590   2.453   1.259   7.281  0.3221 -1.7859  0.7326
 7318SOL    HW233591   2.467   1.267   7.143 -0.4391  1.0344  0.3659
 7319SOL     OW33592   2.074   1.711  16.724 -0.4836 -0.7042  0.0991
 7319SOL    HW133593   1.981   1.716  16.746  0.2169  0.5104  2.8527
 7319SOL    HW233594   2.109   1.796  16.749 -2.5769  0.1064  0.2786
 7320SOL     OW33595   0.690   3.069   2.837  0.1226  0.5298  0.1065
 7320SOL    HW133596   0.774   3.115   2.843  0.0917  0.5360  0.4830
 7320SOL    HW233597   0.641   3.103   2.911  1.8161  0.9846  1.0297
 7321SOL     OW33598   1.514   0.044   6.046  0.0317  0.2912  0.1505
 7321SOL    HW133599   1.457   0.096   6.102 -2.3222 -1.7299 -0.4216
 7321SOL    HW233600   1.560   4.729   6.114 -0.3875  0.1081  0.2976
 7322SOL     OW33601   4.616   0.010   4.897 -0.3645  0.3426 -0.0339
 7322SOL    HW133602   4.560   0.006   4.820 -0.2207  1.0085 -0.1732
 7322SOL    HW233603   4.703   4.733   4.859 -0.2774  1.4202 -0.1604
 7323SOL     OW33604   4.648   0.705   7.137  0.3862 -0.1737  0.6956
 7323SOL    HW133605   4.657   0.638   7.070  0.8985 -0.6304  1.2146
 7323SOL    HW233606   4.705   0.666   7.203 -0.2947  1.6413  2.3567
 7324SOL     OW33607   2.829   1.150   6.693 -0.3277  0.0898  0.2453
 7324SOL    HW133608   2.901   1.113   6.744 -1.6283 -0.3638  1.7506
 7324SOL    HW233609   2.858   1.239   6.671 -2.1456  0.4712 -0.6017
 7325SOL     OW33610   3.995   1.380   7.833  0.1375 -0.1415  0.4318
 7325SOL    HW133611   3.915   1.369   7.885 -0.5011 -0.9370 -0.7407
 7325SOL    HW233612   4.005   1.296   7.789  0.7257 -0.4878  1.2208
 7326SOL     OW33613   4.617   3.461   2.923  0.4842 -0.7546  0.1980
 7326SOL    HW133614   4.578   3.528   2.865  0.0718  0.7285  2.2001
 7326SOL    HW233615   4.572   3.482   3.005 -2.2468  1.1616 -1.7830
 7327SOL     OW33616   3.318   2.786  15.667  0.1333  0.0582  0.2882
 7327SOL    HW133617   3.250   2.837  15.711  0.5935  0.2809  0.7493
 7327SOL    HW233618   3.391   2.848  15.676  0.6470 -0.2525 -1.8118
 7328SOL     OW33619   0.554   3.927   5.356 -0.0090  0.2046  0.1445
 7328SOL    HW133620   0.514   3.894   5.436 -0.2525  0.7883  0.2627
 7328SOL    HW233621   0.607   3.853   5.326  0.2294  0.7537 -0.7890
 7329SOL     OW33622   2.239   2.474  11.343  0.0324 -0.5614  0.3023
 7329SOL    HW133623   2.229   2.379  11.342  4.1962 -0.9395 -2.8679
 7329SOL    HW233624   2.241   2.497  11.250 -0.9251  1.4267  0.7647
 7330SOL     OW33625   2.771   3.365  17.680 -0.1425 -0.4316  0.5594
 7330SOL    HW133626   2.853   3.360  17.631 -0.5895 -0.8192 -0.1473
 7330SOL    HW233627   2.723   3.322  17.610 -1.3781  1.5339  0.2106
 7331SOL     OW33628   0.434   2.520  13.161  0.4264 -0.0836  0.4644
 7331SOL    HW133629   0.360   2.559  13.114 -0.5997  0.1338  2.2711
 7331SOL    HW233630   0.466   2.453  13.101 -1.0261  0.8760 -1.3747
 7332SOL     OW33631   1.999   3.907   6.397 -0.4832 -0.4564 -0.5209
 7332SOL    HW133632   2.048   3.828   6.376  2.5010  1.1103  0.5510
 7332SOL    HW233633   1.947   3.906   6.317 -1.9008 -3.0527  0.4421
 7333SOL     OW33634   4.463   1.420  11.558  0.2046 -0.5296  0.1703
 7333SOL    HW133635   4.426   1.403  11.644 -2.7855  0.5500 -0.9020
 7333SOL    HW233636   4.451   1.335  11.516 -1.8443  0.2972 -0.8802
 7334SOL     OW33637   3.326   0.515   3.145  0.2306 -0.4180 -0.2366
 7334SOL    HW133638   3.368   0.585   3.195  0.4557 -0.3997 -0.4522
 7334SOL    HW233639   3.234   0.539   3.155  0.3321 -0.3081  0.4077
 7335SOL     OW33640   1.852   2.449  13.794 -0.2962 -0.1180 -0.6480
 7335SOL    HW133641   1.845   2.354  13.806  0.9065  0.1290  2.0877
 7335SOL    HW233642   1.796   2.483  13.863  0.8956  1.5077 -0.4808
 7336SOL     OW33643   4.098   4.055   5.880  0.0193 -0.0889  0.4369
 7336SOL    HW133644   4.154   4.132   5.878 -1.2762  0.8445 -0.8290
 7336SOL    HW233645   4.095   4.050   5.784  0.2861  1.6073  0.3446
 7337SOL     OW33646   2.502   3.387   9.809  0.3550  0.6896  0.2633
 7337SOL    HW133647   2.552   3.377   9.890  0.4341  0.5231  0.1937
 7337SOL    HW233648   2.461   3.300   9.810  1.9611 -0.0581 -0.6708
 7338SOL     OW33649   4.684   0.992   8.043 -0.1896  0.3211 -0.3322
 7338SOL    HW133650   0.042   1.017   8.050 -0.0306  0.4982 -3.3391
 7338SOL    HW233651   4.672   0.969   7.951  1.3419  0.7653 -0.6428
 7339SOL     OW33652   0.005   2.266   7.998  0.0006  0.3978  0.0842
 7339SOL    HW133653   0.009   2.205   8.071  1.6255 -0.8481 -1.0343
 7339SOL    HW233654   0.081   2.325   8.005 -0.5984  1.4205 -1.8389
 7340SOL     OW33655   3.781   2.963   8.743 -0.3843 -0.3075 -0.8524
 7340SOL    HW133656   3.694   2.930   8.723 -1.2755  0.8803  1.0061
 7340SOL    HW233657   3.800   2.922   8.828 -1.5221  1.1932  0.1353
 7341SOL     OW33658   0.584   1.959   6.885  0.6016  0.0259  0.0921
 7341SOL    HW133659   0.659   1.965   6.944 -0.4666 -0.2930  1.4966
 7341SOL    HW233660   0.627   1.934   6.804  2.3965 -0.4780  1.1922
 7342SOL     OW33661   3.483   2.229   6.147 -0.5507 -0.1903 -0.0349
 7342SOL    HW133662   3.500   2.264   6.060  1.0487  0.0965  0.4086
 7342SOL    HW233663   3.503   2.135   6.142  1.8892  0.2236  1.6625
 7343SOL     OW33664   3.527   1.577   6.036  0.4842  0.2924 -0.4815
 7343SOL    HW133665   3.433   1.558   6.037  0.4846  0.2830 -0.5809
 7343SOL    HW233666   3.532   1.652   5.976 -4.3157  0.6342 -0.4548
 7344SOL     OW33667   4.216   1.602   6.915  0.1809 -0.5956  0.1851
 7344SOL    HW133668   4.228   1.555   6.833 -2.2146  1.1360 -1.1768
 7344SOL    HW233669   4.120   1.605   6.912  0.2182  1.4627  1.2866
 7345SOL     OW33670   0.611   3.590   9.298 -0.6990  0.3006 -0.6047
 7345SOL    HW133671   0.630   3.503   9.263 -2.5528  0.4246 -1.9045
 7345SOL    HW233672   0.679   3.636   9.247  0.7479  0.3972  1.3963
 7346SOL     OW33673   2.514   3.312  10.790  0.1210 -0.1795  0.0927
 7346SOL    HW133674   2.490   3.400  10.820  0.8881  0.4957 -1.2466
 7346SOL    HW233675   2.483   3.261  10.864  0.6752 -1.9158 -0.8709
 7347SOL     OW33676   1.261   1.552   5.136  0.4304  0.1089  0.1638
 7347SOL    HW133677   1.307   1.505   5.067  2.8621 -0.4740  2.2102
 7347SOL    HW233678   1.172   1.521   5.121  0.6208 -0.2333 -0.2307
 7348SOL     OW33679   0.418   2.067   3.145  0.3500  0.0223 -1.0630
 7348SOL    HW133680   0.365   2.111   3.079 -2.3317 -0.3075  0.8585
 7348SOL    HW233681   0.445   2.150   3.184 -0.4523 -1.7667  3.3641
 7349SOL     OW33682   2.835   1.247  15.845  0.0587 -0.0944  0.5710
 7349SOL    HW133683   2.802   1.332  15.815 -0.3003 -0.4514 -0.0300
 7349SOL    HW233684   2.766   1.190  15.811  2.0048 -2.1403  0.0499
 7350SOL     OW33685   2.548   2.960   3.239 -0.6085 -0.2691 -0.1269
 7350SOL    HW133686   2.623   2.948   3.297 -1.6772 -0.6284  1.1696
 7350SOL    HW233687   2.594   2.979   3.157 -0.6341  0.3499 -0.0030
 7351SOL     OW33688   3.838   3.563   6.918  0.3493 -0.7284 -0.1699
 7351SOL    HW133689   3.885   3.540   6.838 -0.5048  0.5459 -1.0374
 7351SOL    HW233690   3.904   3.619   6.960  0.0035 -0.2606 -0.2647
 7352SOL     OW33691   0.822   3.378   0.730  0.1771 -0.3926  0.5521
 7352SOL    HW133692   0.782   3.423   0.655  1.2625 -1.1434 -0.4741
 7352SOL    HW233693   0.751   3.332   0.776  0.1109 -0.5396  0.3013
 7353SOL     OW33694   0.536   2.859  13.224 -0.0862 -0.1761 -0.2755
 7353SOL    HW133695   0.576   2.946  13.222 -0.8955  0.1677 -1.5272
 7353SOL    HW233696   0.558   2.804  13.149  3.6534  1.7132 -0.5709
 7354SOL     OW33697   1.512   2.301   4.626  0.4507 -0.2527  0.1327
 7354SOL    HW133698   1.461   2.223   4.603  1.7852 -0.6856 -1.3441
 7354SOL    HW233699   1.591   2.282   4.575 -0.2469 -0.2528 -0.9565
 7355SOL     OW33700   1.029   1.114   1.279 -0.1095 -0.1017  0.4514
 7355SOL    HW133701   1.105   1.165   1.307  1.7128 -0.7743 -3.3372
 7355SOL    HW233702   1.069   1.034   1.244  0.7023  1.0323 -1.2191
 7356SOL     OW33703   4.585   2.607   2.728  0.3214  0.2669 -0.3447
 7356SOL    HW133704   4.533   2.529   2.709 -0.6984  0.1691  2.8606
 7356SOL    HW233705   4.521   2.673   2.702  1.2569  1.4139  0.2584
 7357SOL     OW33706   2.494   3.889   8.719  0.3131 -0.5378 -0.7309
 7357SOL    HW133707   2.427   3.958   8.720  0.2757 -0.5759 -0.5967
 7357SOL    HW233708   2.440   3.811   8.703  0.1259 -0.9310  1.7521
 7358SOL     OW33709   2.880   3.079   5.081 -0.4824 -0.7682  0.3801
 7358SOL    HW133710   2.956   3.090   5.139 -0.5012 -1.7922  0.6160
 7358SOL    HW233711   2.883   3.156   5.025 -0.1143 -1.4102 -0.5003
 7359SOL     OW33712   0.063   2.069   7.306  0.2262  0.0428 -0.2362
 7359SOL    HW133713   0.074   2.129   7.380  2.0364 -0.3698 -0.1758
 7359SOL    HW233714   0.084   1.983   7.344  1.1265 -0.1327 -1.1449
 7360SOL     OW33715   0.452   4.614  11.876  0.2005 -0.7159 -0.1139
 7360SOL    HW133716   0.515   4.605  11.947 -0.3219 -1.9789  0.1833
 7360SOL    HW233717   0.497   4.592  11.794  1.7217 -3.5263  1.4909
 7361SOL     OW33718   0.901   2.835   0.730  1.0424 -0.1623  0.1392
 7361SOL    HW133719   0.978   2.802   0.778  2.0786  1.3895 -0.4536
 7361SOL    HW233720   0.891   2.925   0.763  1.6936 -0.5919  1.5456
 7362SOL     OW33721   0.982   1.885   9.408 -0.4704 -0.4170 -0.1502
 7362SOL    HW133722   0.898   1.901   9.451 -0.6567 -0.5169 -0.4827
 7362SOL    HW233723   0.956   1.833   9.333 -1.6252  1.3402 -0.9687
 7363SOL     OW33724   0.004   3.960   3.421 -0.0252 -0.4253 -0.5762
 7363SOL    HW133725   4.719   4.048   3.453 -1.3627 -0.5913 -0.8874
 7363SOL    HW233726   4.712   3.915   3.502 -3.6734  0.1106 -1.4529
 7364SOL     OW33727   1.700   0.737   7.737  0.9814 -0.3553  0.8938
 7364SOL    HW133728   1.776   0.688   7.708  0.9592  0.3239 -0.3103
 7364SOL    HW233729   1.630   0.696   7.686  1.9249 -2.0638  0.9934
 7365SOL     OW33730   2.856   3.272   6.714 -0.2958 -0.7286  0.2281
 7365SOL    HW133731   2.913   3.333   6.761  0.3215 -1.3828  0.3444
 7365SOL    HW233732   2.780   3.292   6.769 -0.9369 -4.0657  0.5709
 7366SOL     OW33733   1.995   0.890   5.650  0.1823 -0.0227 -0.3498
 7366SOL    HW133734   1.935   0.938   5.593  2.0978  1.5274 -1.0834
 7366SOL    HW233735   1.970   0.798   5.642  1.5743 -0.2709 -1.8646
 7367SOL     OW33736   4.508   0.229   7.284  0.3815  0.5106  0.4455
 7367SOL    HW133737   4.555   0.180   7.351 -0.4124 -0.4090  0.3261
 7367SOL    HW233738   4.414   0.214   7.293  0.3229  1.6822  1.8633
 7368SOL     OW33739   3.377   1.082  10.020 -0.2156  0.2574 -0.5621
 7368SOL    HW133740   3.434   1.057   9.948 -1.4308  1.6911 -2.0203
 7368SOL    HW233741   3.425   1.146  10.072  0.4184 -0.3861 -0.3537
 7369SOL     OW33742   1.994   0.017  15.357  0.0087 -0.7656 -0.0757
 7369SOL    HW133743   2.061   4.719  15.417 -0.1339 -1.6103 -0.3634
 7369SOL    HW233744   2.034   0.102  15.339 -0.7676 -0.5733 -0.9017
 7370SOL     OW33745   1.482   3.508   2.899 -0.3243  0.7250  0.6532
 7370SOL    HW133746   1.504   3.440   2.836 -1.8067  2.9634 -2.2803
 7370SOL    HW233747   1.410   3.475   2.953 -1.9842  3.7190  0.3161
 7371SOL     OW33748   2.191   1.961  10.017 -0.1107  0.2444 -0.6038
 7371SOL    HW133749   2.182   1.946  10.111  1.7747  0.5465 -0.3728
 7371SOL    HW233750   2.249   1.889   9.990  0.0512  0.5090 -0.9634
 7372SOL     OW33751   2.480   1.569   1.880 -0.1175  0.3581  0.1393
 7372SOL    HW133752   2.458   1.637   1.943  0.6989  0.9578 -0.2285
 7372SOL    HW233753   2.574   1.568   1.898  0.1945  0.2034 -1.4968
 7373SOL     OW33754   3.097   4.680  13.993  0.6641 -0.2229  0.0165
 7373SOL    HW133755   3.073   4.684  14.086  1.1984 -0.5574  0.1680
 7373SOL    HW233756   3.011   4.681  13.952  1.5499  0.1393 -1.8217
 7374SOL     OW33757   3.026   0.234   3.974 -0.0243  0.1637  0.2576
 7374SOL    HW133758   3.114   0.217   3.940  0.1969  2.2992 -0.2139
 7374SOL    HW233759   3.012   0.324   3.946  0.9163 -0.1636 -1.2997
 7375SOL     OW33760   3.137   3.300   6.142  0.4844  0.2170  0.0776
 7375SOL    HW133761   3.101   3.288   6.054  1.7718  0.7876 -0.5258
 7375SOL    HW233762   3.072   3.244   6.185 -1.0350  1.2382 -0.8805
 7376SOL     OW33763   2.851   3.728  12.932 -0.2144 -0.4440 -0.2052
 7376SOL    HW133764   2.791   3.668  12.976 -0.9305 -1.9331 -3.2906
 7376SOL    HW233765   2.878   3.688  12.850 -0.7662  0.2684 -0.7367
 7377SOL     OW33766   4.010   0.710  16.172  0.2871 -0.1537  0.5575
 7377SOL    HW133767   4.043   0.758  16.096  0.2112  2.1352  1.9641
 7377SOL    HW233768   4.020   0.773  16.243  1.7288  2.3194 -1.8379
 7378SOL     OW33769   4.492   4.293   2.045 -0.7153 -0.4490  0.0522
 7378SOL    HW133770   4.543   4.371   2.024 -1.8404 -0.1943 -1.6798
 7378SOL    HW233771   4.549   4.250   2.109 -2.4103  0.2175  2.0079
 7379SOL     OW33772   3.613   3.656   2.732  0.2194 -0.2640 -0.0765
 7379SOL    HW133773   3.658   3.720   2.787 -1.9475  2.7574 -1.8258
 7379SOL    HW233774   3.576   3.596   2.796  0.6145  0.9849  1.3217
 7380SOL     OW33775   2.739   1.355   8.383 -0.4057 -0.3399  0.0364
 7380SOL    HW133776   2.701   1.410   8.452  0.2526  0.4738 -0.2473
 7380SOL    HW233777   2.732   1.263   8.406  3.6850 -0.4878  0.6698
 7381SOL     OW33778   4.414   4.364   9.140 -0.1473  0.0054  0.0254
 7381SOL    HW133779   4.362   4.333   9.214  0.4785 -0.1707  0.3949
 7381SOL    HW233780   4.385   4.456   9.138 -0.7334 -0.2202 -1.8180
 7382SOL     OW33781   3.316   1.579   4.118  0.0367  0.1039 -0.1284
 7382SOL    HW133782   3.351   1.646   4.059  1.1296 -0.0007  0.3937
 7382SOL    HW233783   3.230   1.557   4.082  1.2405  0.2911 -3.0942
 7383SOL     OW33784   1.286   2.540   4.446  0.0269 -0.4486  0.3714
 7383SOL    HW133785   1.195   2.526   4.471 -0.4130  0.5595 -0.6645
 7383SOL    HW233786   1.310   2.450   4.424  1.2486 -0.4722  1.7769
 7384SOL     OW33787   1.131   2.580  12.772 -0.0668  0.6207  0.1538
 7384SOL    HW133788   1.174   2.505  12.814 -2.3453 -1.2930 -0.8752
 7384SOL    HW233789   1.155   2.558  12.682  2.7500  0.2191  1.0149
 7385SOL     OW33790   1.256   3.918   3.419 -0.2608 -0.6013 -0.3517
 7385SOL    HW133791   1.195   3.846   3.412 -0.4643 -0.4303 -0.3245
 7385SOL    HW233792   1.289   3.906   3.508 -0.7318 -1.0699 -0.2470
 7386SOL     OW33793   2.207   4.208  14.722 -0.0105  0.2557  0.6157
 7386SOL    HW133794   2.265   4.158  14.780  2.3241  0.2852 -1.7244
 7386SOL    HW233795   2.207   4.149  14.647 -0.0278 -1.3339  1.8747
 7387SOL     OW33796   2.870   4.538   2.576 -0.0938  0.3701  0.2336
 7387SOL    HW133797   2.910   4.454   2.598  1.8858  1.8680  2.3545
 7387SOL    HW233798   2.930   4.596   2.623 -0.3549  1.1571 -0.4014
 7388SOL     OW33799   3.163   4.654   6.574  0.7872  0.0775  0.1536
 7388SOL    HW133800   3.193   4.631   6.661 -1.4293  1.7452  1.3601
 7388SOL    HW233801   3.226   4.719   6.542  0.5626  0.5992  0.7868
 7389SOL     OW33802   1.971   2.203   4.774 -0.2201  0.0321 -0.2650
 7389SOL    HW133803   1.950   2.175   4.863 -1.8461  0.1452 -0.6094
 7389SOL    HW233804   2.016   2.124   4.747 -0.2516  0.0849 -0.4744
 7390SOL     OW33805   4.568   3.631   3.394 -0.5612 -0.0764 -0.3668
 7390SOL    HW133806   4.547   3.698   3.459  2.6817  0.2691  0.3182
 7390SOL    HW233807   4.660   3.619   3.418 -1.0303  0.6354  1.7542
 7391SOL     OW33808   1.036   2.535   7.325  0.6436 -0.3499  0.2466
 7391SOL    HW133809   0.993   2.451   7.339 -0.4184  0.6964  3.4154
 7391SOL    HW233810   0.993   2.549   7.240  0.0063 -3.6523  0.0436
 7392SOL     OW33811   2.208   0.721   6.212 -0.8956  0.1775  0.0709
 7392SOL    HW133812   2.300   0.709   6.234 -0.4825  0.6239 -1.4145
 7392SOL    HW233813   2.218   0.761   6.126  1.4400  1.3926  0.9022
 7393SOL     OW33814   2.415   0.740   8.875 -0.2329  0.0641 -0.0976
 7393SOL    HW133815   2.506   0.720   8.853  0.5123  1.8530  1.4042
 7393SOL    HW233816   2.408   0.761   8.968 -0.7205  0.9983 -0.3360
 7394SOL     OW33817   3.642   2.473   8.921 -0.5222  0.1569 -0.0841
 7394SOL    HW133818   3.621   2.491   9.013 -0.2326  0.8981 -0.1681
 7394SOL    HW233819   3.735   2.481   8.901 -0.2329 -0.4327  1.0147
 7395SOL     OW33820   4.270   3.451   2.867  0.1675  0.0423 -0.7093
 7395SOL    HW133821   4.309   3.413   2.945 -1.8245 -0.1138  0.1862
 7395SOL    HW233822   4.272   3.538   2.906 -1.2370 -1.3365  2.3507
 7396SOL     OW33823   1.666   0.127  13.761 -0.4961  0.7042 -0.1704
 7396SOL    HW133824   1.588   0.156  13.810  0.5014 -0.9623  2.4149
 7396SOL    HW233825   1.627   0.108  13.676  1.3424 -0.5750 -0.7184
 7397SOL     OW33826   1.661   3.447   8.102 -0.3350  1.0179 -0.7803
 7397SOL    HW133827   1.610   3.423   8.178  0.4851  0.7665 -0.3058
 7397SOL    HW233828   1.605   3.447   8.024 -0.2816 -0.1577 -0.8122
 7398SOL     OW33829   2.133   0.107  14.922  0.5388 -0.3063 -0.4888
 7398SOL    HW133830   2.139   0.018  14.887  0.5922 -1.0589  1.4291
 7398SOL    HW233831   2.041   0.108  14.950 -0.0088 -1.2026 -2.2758
 7399SOL     OW33832   1.963   4.364   6.797  0.2787 -0.7273 -0.2495
 7399SOL    HW133833   2.016   4.444   6.797 -0.4201 -0.2562 -1.9266
 7399SOL    HW233834   2.025   4.297   6.767  2.5028  1.4920 -0.6851
 7400SOL     OW33835   0.138   4.582   0.403  0.5088  0.0358  0.1397
 7400SOL    HW133836   0.220   4.561   0.449 -0.7670  0.0010  2.3909
 7400SOL    HW233837   0.172   4.650   0.345  1.6215 -1.2251 -0.6928
 7401SOL     OW33838   1.537   1.469   8.869  0.7673 -0.1068 -0.1705
 7401SOL    HW133839   1.617   1.420   8.850  0.7083  0.4458 -1.8470
 7401SOL    HW233840   1.530   1.459   8.964 -2.6183 -0.7562 -0.5160
 7402SOL     OW33841   0.906   3.591   5.762  0.0388 -0.2314 -0.4433
 7402SOL    HW133842   0.942   3.632   5.683  0.0209 -1.0758 -0.8875
 7402SOL    HW233843   0.986   3.571   5.813  0.4182 -0.9378 -1.3156
 7403SOL     OW33844   4.172   2.429  17.394  0.4391 -0.1322 -0.1572
 7403SOL    HW133845   4.250   2.457  17.442 -0.9574  1.9062  0.9377
 7403SOL    HW233846   4.179   2.335  17.411 -1.5168 -0.1606  0.4417
 7404SOL     OW33847   0.576   3.637  14.660 -0.7474  0.4206 -0.0138
 7404SOL    HW133848   0.670   3.622  14.661 -0.9678 -1.0457 -0.3939
 7404SOL    HW233849   0.562   3.716  14.712 -0.4890  1.3005 -1.2906
 7405SOL     OW33850   2.870   3.663   8.378  0.2311 -0.1809  0.0532
 7405SOL    HW133851   2.858   3.609   8.300  0.9002 -1.2121  0.6659
 7405SOL    HW233852   2.964   3.649   8.394  0.2575 -0.0710 -0.0054
 7406SOL     OW33853   0.043   2.970  12.930  0.2925  0.4098 -0.4202
 7406SOL    HW133854   0.030   2.918  13.010 -2.3584 -0.5227 -1.4739
 7406SOL    HW233855   4.704   3.031  12.945  2.4273  1.8034  4.4584
 7407SOL     OW33856   4.436   1.073   0.948 -0.6646  0.1545  0.4279
 7407SOL    HW133857   4.410   0.983   0.966 -0.1749 -0.1635 -0.4616
 7407SOL    HW233858   4.356   1.118   0.975 -1.9247 -1.5721 -0.4710
 7408SOL     OW33859   0.777   3.432   9.835  0.0259  0.2181 -0.2398
 7408SOL    HW133860   0.720   3.506   9.817  0.9071  2.1271  4.7666
 7408SOL    HW233861   0.740   3.371   9.771  0.3768  0.0683 -0.3007
 7409SOL     OW33862   1.708   0.857   8.580  0.4411  0.1186  0.2329
 7409SOL    HW133863   1.612   0.858   8.579  0.4512  1.6339  0.8626
 7409SOL    HW233864   1.721   0.855   8.485  0.1045 -1.9355  0.2368
 7410SOL     OW33865   3.711   3.926   7.198 -0.3847 -0.3576 -0.1800
 7410SOL    HW133866   3.707   4.016   7.230 -1.5675 -0.1688 -0.8769
 7410SOL    HW233867   3.704   3.950   7.105 -0.3582 -0.2833 -0.1629
 7411SOL     OW33868   0.812   2.877   3.622  0.0095 -0.1029 -0.2555
 7411SOL    HW133869   0.863   2.844   3.548  0.5093  1.0023 -0.4103
 7411SOL    HW233870   0.873   2.862   3.694 -0.7523 -0.2834  0.3526
 7412SOL     OW33871   4.640   3.564   4.059  0.0410 -0.8003  0.3415
 7412SOL    HW133872   4.607   3.498   4.120  1.2906 -0.9955  0.8183
 7412SOL    HW233873   4.578   3.636   4.071 -0.0209 -0.4815 -1.9389
 7413SOL     OW33874   3.129   2.245   7.143  0.5966  0.4149 -0.1307
 7413SOL    HW133875   3.057   2.289   7.098  3.4110  2.0068 -3.0372
 7413SOL    HW233876   3.180   2.232   7.064  0.9735 -0.3692  0.2419
 7414SOL     OW33877   0.370   4.075   6.132 -0.0564 -0.2781  0.0285
 7414SOL    HW133878   0.416   4.151   6.097 -1.3143  0.5377  0.1807
 7414SOL    HW233879   0.351   4.104   6.221  3.1275  0.6151  0.4218
 7415SOL     OW33880   3.275   2.273   6.917 -0.0254 -0.6204 -0.3249
 7415SOL    HW133881   3.318   2.203   6.868  0.8058  0.4090 -1.0518
 7415SOL    HW233882   3.276   2.340   6.849 -2.0268 -2.1992 -1.9386
 7416SOL     OW33883   3.535   4.609   9.952  0.1923 -0.5743  0.6996
 7416SOL    HW133884   3.465   4.551   9.921 -0.8828  1.7814 -1.2510
 7416SOL    HW233885   3.593   4.552  10.002 -0.2859 -0.7343  1.0688
 7417SOL     OW33886   4.011   3.361   5.539  0.4000  0.2079  0.4084
 7417SOL    HW133887   3.974   3.314   5.614  1.5846 -1.4732 -0.0624
 7417SOL    HW233888   4.095   3.318   5.524 -1.0477 -2.3372 -0.3290
 7418SOL     OW33889   2.677   3.836   5.126  0.6572  0.0918  0.0063
 7418SOL    HW133890   2.713   3.755   5.090  0.8594 -0.4304  1.3868
 7418SOL    HW233891   2.729   3.911   5.096  0.2126  0.8637  1.1726
 7419SOL     OW33892   1.495   1.214   1.306  0.2287  0.0234 -0.0311
 7419SOL    HW133893   1.511   1.202   1.213  1.1983  0.0693  0.1233
 7419SOL    HW233894   1.584   1.237   1.334 -0.2269  1.1927  0.4144
 7420SOL     OW33895   1.748   3.000  10.864 -0.5374  0.1991 -0.0050
 7420SOL    HW133896   1.657   3.026  10.875 -0.4404 -0.4235  2.1836
 7420SOL    HW233897   1.763   2.967  10.953 -1.1955 -1.0292 -0.3614
 7421SOL     OW33898   3.475   3.862  14.039 -0.3191  0.2673  0.5837
 7421SOL    HW133899   3.503   3.814  13.961 -1.3984  1.1668 -0.3576
 7421SOL    HW233900   3.451   3.791  14.099  0.7045 -0.1038  0.5544
 7422SOL     OW33901   1.001   4.605   5.520  0.4987  0.3942  0.1697
 7422SOL    HW133902   0.950   4.601   5.601  0.4777 -1.9158  0.0555
 7422SOL    HW233903   0.934   4.578   5.457  1.0944 -1.0890  0.1752
 7423SOL     OW33904   4.577   0.377   5.501  0.2326 -0.3131  0.4368
 7423SOL    HW133905   4.661   0.330   5.494 -0.3371 -1.3383  0.4618
 7423SOL    HW233906   4.526   0.343   5.427 -0.4579  1.0767  0.2890
 7424SOL     OW33907   1.940   3.387  12.937 -0.0536 -0.7097 -0.5359
 7424SOL    HW133908   1.981   3.360  13.020  2.7186  1.8350 -1.0523
 7424SOL    HW233909   1.885   3.459  12.969 -1.0960 -0.7815 -2.2190
 7425SOL     OW33910   1.618   2.416  14.181 -0.2056  0.4589  0.2641
 7425SOL    HW133911   1.615   2.329  14.220  1.9674  1.0625  1.7605
 7425SOL    HW233912   1.711   2.426  14.163  0.1392 -2.3205  0.5634
 7426SOL     OW33913   0.127   2.571  13.065  0.0763  0.0076  0.1575
 7426SOL    HW133914   0.090   2.598  12.981 -2.4641  1.1097  1.6455
 7426SOL    HW233915   0.047   2.577  13.117 -0.8312 -2.0503 -1.0285
 7427SOL     OW33916   1.835   1.080  15.981 -0.0638 -0.5531 -0.1751
 7427SOL    HW133917   1.810   0.988  15.966 -2.5561 -0.2324  2.0277
 7427SOL    HW233918   1.920   1.082  16.023 -2.0786 -0.1432  3.8829
 7428SOL     OW33919   3.975   1.117   5.040 -0.0318 -0.1657  0.3157
 7428SOL    HW133920   4.068   1.112   5.062 -0.9863 -1.6462  4.0096
 7428SOL    HW233921   3.944   1.079   5.122  2.0061  1.4550  1.8477
 7429SOL     OW33922   2.584   0.724  15.503 -0.4563 -0.2513 -0.1596
 7429SOL    HW133923   2.560   0.805  15.546  2.0615  0.7338 -0.5752
 7429SOL    HW233924   2.522   0.728  15.431  2.1120  0.2932 -2.3268
 7430SOL     OW33925   3.162   3.570   5.343  0.2122 -0.5585  0.1352
 7430SOL    HW133926   3.128   3.659   5.358  0.8528  0.0140 -1.7988
 7430SOL    HW233927   3.249   3.582   5.306 -0.9942 -0.5832 -2.7380
 7431SOL     OW33928   2.508   2.518   8.034 -0.0272  0.0333  0.1393
 7431SOL    HW133929   2.441   2.539   7.968 -1.9392  1.5939  2.5357
 7431SOL    HW233930   2.487   2.582   8.103 -2.2378 -1.2298  0.6358
 7432SOL     OW33931   4.346   0.137  10.210  0.2524  0.5386  0.5757
 7432SOL    HW133932   4.428   0.107  10.171  0.7441 -0.0307  2.0248
 7432SOL    HW233933   4.281   0.085  10.163  1.1997 -0.5682  0.4645
 7433SOL     OW33934   3.764   3.349   6.292 -0.1043 -0.3641 -0.0682
 7433SOL    HW133935   3.838   3.405   6.314 -0.6392 -0.4368  1.9067
 7433SOL    HW233936   3.771   3.285   6.362  1.6891 -1.0402 -0.8769
 7434SOL     OW33937   3.688   1.872   2.575 -0.2208 -0.3825  0.3519
 7434SOL    HW133938   3.620   1.807   2.589  1.8805 -2.3657  1.3011
 7434SOL    HW233939   3.722   1.842   2.491 -1.3095 -2.4712  0.6683
 7435SOL     OW33940   1.699   2.875   8.366  0.2503  0.0644  0.3616
 7435SOL    HW133941   1.685   2.905   8.276  0.0926  0.7781  0.6265
 7435SOL    HW233942   1.727   2.783   8.364 -1.3708 -0.4054 -0.5887
 7436SOL     OW33943   4.683   4.157   8.296  0.1846  0.0108  0.1864
 7436SOL    HW133944   4.632   4.214   8.240 -1.8181 -1.6172  0.3381
 7436SOL    HW233945   4.657   4.199   8.378  3.1302  1.0825  0.5664
 7437SOL     OW33946   1.693   3.742   6.950  0.2503  0.1043 -0.0028
 7437SOL    HW133947   1.622   3.685   6.977 -0.5264  0.6859 -0.8400
 7437SOL    HW233948   1.745   3.761   7.029  0.2906  0.8687 -0.2096
 7438SOL     OW33949   1.887   1.958   1.589  0.3277 -0.6640  0.7677
 7438SOL    HW133950   1.945   2.024   1.628 -1.0368  0.8468  0.2306
 7438SOL    HW233951   1.804   1.973   1.634 -0.1989  1.2330 -0.8568
 7439SOL     OW33952   2.321   3.332  17.295 -0.2231 -0.1373  0.6567
 7439SOL    HW133953   2.266   3.324  17.373 -0.3072  1.4469  0.7564
 7439SOL    HW233954   2.347   3.423  17.307 -1.1094  0.4566 -1.9612
 7440SOL     OW33955   3.881   2.697   1.925 -0.5189  0.6572 -0.2201
 7440SOL    HW133956   3.786   2.708   1.929 -0.1105  4.0144  0.0857
 7440SOL    HW233957   3.908   2.766   1.865 -0.0916  1.6013  1.0712
 7441SOL     OW33958   3.576   1.890   8.671  0.0538 -0.5210  0.3565
 7441SOL    HW133959   3.504   1.828   8.680 -0.9677  0.7623  0.8782
 7441SOL    HW233960   3.527   1.971   8.658  1.6739  0.2206 -1.1417
 7442SOL     OW33961   1.468   2.317   7.436  0.5396  0.0247 -0.1427
 7442SOL    HW133962   1.449   2.396   7.385 -2.2535 -0.5086  0.0790
 7442SOL    HW233963   1.383   2.285   7.466  0.6676 -1.3278 -1.1855
 7443SOL     OW33964   0.882   3.630  11.607  0.1030  0.0039 -0.1457
 7443SOL    HW133965   0.971   3.660  11.587  0.0500  0.4692  0.3123
 7443SOL    HW233966   0.840   3.691  11.668 -1.1692  0.6470 -1.6891
 7444SOL     OW33967   3.762   1.849   7.712 -0.5928  0.2988  0.1910
 7444SOL    HW133968   3.807   1.817   7.791 -1.4278  3.1706  1.8609
 7444SOL    HW233969   3.675   1.868   7.749 -0.5755 -0.1992  0.4837
 7445SOL     OW33970   1.680   3.044   4.811 -0.4951 -0.0826 -0.0101
 7445SOL    HW133971   1.645   2.961   4.844 -0.6703  0.5775  1.4367
 7445SOL    HW233972   1.659   3.050   4.718 -0.5651  1.9593  0.1388
 7446SOL     OW33973   2.771   1.574  16.590 -0.6270  0.1055 -0.0540
 7446SOL    HW133974   2.790   1.523  16.668  0.7166 -0.0454 -0.4758
 7446SOL    HW233975   2.684   1.539  16.570 -0.8818 -0.5118  2.1692
 7447SOL     OW33976   3.511   1.595   6.426 -0.1465 -0.3049  0.3548
 7447SOL    HW133977   3.418   1.604   6.406 -0.2927 -1.8430  0.3211
 7447SOL    HW233978   3.495   1.533   6.497  1.4455  0.0546  1.0371
 7448SOL     OW33979   4.666   0.196   3.245 -0.3911  0.7723  0.0730
 7448SOL    HW133980   4.671   0.232   3.333  2.4520 -0.7793  0.5652
 7448SOL    HW233981   4.700   0.110   3.268 -0.1489  1.0465  0.7316
 7449SOL     OW33982   3.676   0.849   6.700  0.0165 -0.0530  0.3940
 7449SOL    HW133983   3.762   0.874   6.666  0.1871  0.3940  1.1372
 7449SOL    HW233984   3.680   0.862   6.795  0.0584 -0.1683  0.4083
 7450SOL     OW33985   0.915   1.116   4.088 -0.3797 -0.4451 -0.4215
 7450SOL    HW133986   0.944   1.207   4.097 -1.8749 -0.3847  3.9001
 7450SOL    HW233987   0.820   1.123   4.100 -0.0855  0.5725  1.3994
 7451SOL     OW33988   3.940   1.018   5.275  0.6590 -0.3577  0.0164
 7451SOL    HW133989   3.887   0.953   5.320  0.9995  0.2847  1.3407
 7451SOL    HW233990   3.983   1.062   5.349  2.6726  1.0545 -1.9838
 7452SOL     OW33991   1.807   3.841  13.159  0.2063 -0.2091  0.1602
 7452SOL    HW133992   1.862   3.845  13.237  2.2892  0.7126 -1.3534
 7452SOL    HW233993   1.821   3.929  13.124 -0.3080 -0.2816 -0.2399
 7453SOL     OW33994   0.081   1.868   8.823 -0.2577  0.2401 -0.2326
 7453SOL    HW133995   0.136   1.790   8.827 -1.1233 -0.4966 -2.7453
 7453SOL    HW233996   0.110   1.914   8.744 -1.1397  0.5441 -0.3764
 7454SOL     OW33997   3.191   2.101   6.207  0.4030 -0.1541 -0.5647
 7454SOL    HW133998   3.205   2.196   6.216 -2.3890  0.5278 -3.4150
 7454SOL    HW233999   3.246   2.071   6.279 -1.5859 -1.9862  0.1594
 7455SOL     OW34000   0.998   4.174  15.707  0.0614  0.3301 -0.4804
 7455SOL    HW134001   0.910   4.190  15.674  0.1002  1.6635  0.0528
 7455SOL    HW234002   0.990   4.135  15.794 -0.5274 -3.0771 -2.0802
 7456SOL     OW34003   0.618   3.439   2.400 -0.3184  0.3421  0.2537
 7456SOL    HW134004   0.705   3.416   2.432 -1.6389 -2.4900  1.8442
 7456SOL    HW234005   0.620   3.521   2.351  2.5125 -0.4471 -0.9513
 7457SOL     OW34006   4.148   1.591  10.628  0.3209 -0.3640  0.0342
 7457SOL    HW134007   4.076   1.648  10.656 -0.8850 -1.8967  0.0389
 7457SOL    HW234008   4.223   1.616  10.682 -0.4031 -0.0785  0.8963
 7458SOL     OW34009   2.755   2.919  11.449  0.4002  0.4242  0.4649
 7458SOL    HW134010   2.789   3.005  11.472  0.4443  1.4361 -3.4037
 7458SOL    HW234011   2.678   2.923  11.506  0.7054 -2.8975  1.1059
 7459SOL     OW34012   3.690   2.702   6.637  0.3135  0.1210 -0.3641
 7459SOL    HW134013   3.671   2.613   6.607  3.3707 -1.2608  1.8383
 7459SOL    HW234014   3.626   2.758   6.592  1.8584  1.3024 -1.0909
 7460SOL     OW34015   2.098   2.793  14.254  0.5246  0.4002  0.3988
 7460SOL    HW134016   2.072   2.825  14.167 -1.8041  1.7022  1.5958
 7460SOL    HW234017   2.118   2.873  14.303  1.3354  0.9921 -0.8853
 7461SOL     OW34018   2.732   1.703  14.156 -0.1880 -0.9843  0.0194
 7461SOL    HW134019   2.753   1.626  14.209 -1.1101 -0.8983  0.5083
 7461SOL    HW234020   2.743   1.773  14.220  0.0281 -0.6031 -0.4337
 7462SOL     OW34021   3.733   0.564   8.244 -0.0155  0.4347  0.4067
 7462SOL    HW134022   3.781   0.508   8.305 -0.2537  0.4028  0.5670
 7462SOL    HW234023   3.717   0.513   8.165  0.3087 -0.9482  1.2230
 7463SOL     OW34024   4.633   1.762   2.352 -0.4853 -0.0552  0.3880
 7463SOL    HW134025   4.641   1.668   2.339 -0.3000  0.1308 -0.8277
 7463SOL    HW234026   4.546   1.764   2.392 -1.8255 -2.8077 -2.4260
 7464SOL     OW34027   0.684   1.585   4.810 -0.7881  0.3705 -0.0839
 7464SOL    HW134028   0.664   1.493   4.827  0.7946 -0.5849 -3.2730
 7464SOL    HW234029   0.592   1.612   4.804 -0.5179  2.1899  3.9862
 7465SOL     OW34030   0.525   1.584  11.430 -0.0958 -0.2378  1.0094
 7465SOL    HW134031   0.526   1.584  11.526  2.4003 -1.4399  0.9810
 7465SOL    HW234032   0.449   1.638  11.408  1.0442  1.0195  0.1695
 7466SOL     OW34033   2.875   2.152   3.652 -0.4613 -0.4720 -0.0872
 7466SOL    HW134034   2.913   2.133   3.738 -1.8517  1.5452  0.9576
 7466SOL    HW234035   2.929   2.229   3.635  0.4313 -0.6050  2.0796
 7467SOL     OW34036   4.431   1.343   4.908  0.3316  0.8956  0.1541
 7467SOL    HW134037   4.438   1.418   4.848  2.2330  0.7459  0.1730
 7467SOL    HW234038   4.520   1.325   4.939  0.9269 -0.5535 -2.4524
 7468SOL     OW34039   3.429   4.731  10.252  0.8124 -0.1259  0.4110
 7468SOL    HW134040   3.508   4.690  10.216 -0.6895 -0.2075 -2.8524
 7468SOL    HW234041   3.447   0.000  10.346  0.7114  1.0281  0.3875
 7469SOL     OW34042   2.400   4.178   5.487  0.4134 -0.0828  0.1094
 7469SOL    HW134043   2.466   4.142   5.547  0.5969 -0.3023 -0.2247
 7469SOL    HW234044   2.449   4.202   5.409 -0.7751  1.9356 -0.0203
 7470SOL     OW34045   2.633   0.995   6.591  0.7964 -0.8424 -0.5329
 7470SOL    HW134046   2.713   1.045   6.604  1.1051 -2.0820  2.3605
 7470SOL    HW234047   2.607   0.991   6.684  0.5375  1.9274 -0.4769
 7471SOL     OW34048   4.363   0.472   8.846 -0.0838 -0.1640 -0.2170
 7471SOL    HW134049   4.349   0.543   8.909  2.5892  0.8149 -0.6945
 7471SOL    HW234050   4.444   0.508   8.809 -0.7963  1.8001  0.1255
 7472SOL     OW34051   3.285   3.243   6.702  0.3859 -0.1174 -0.4366
 7472SOL    HW134052   3.231   3.319   6.680  0.5850 -0.3410 -1.7230
 7472SOL    HW234053   3.358   3.280   6.751 -0.0875 -0.9130  0.8480
 7473SOL     OW34054   3.723   2.146   8.314  0.2732 -0.1250 -0.2703
 7473SOL    HW134055   3.775   2.222   8.340 -0.3180  0.3485 -0.4706
 7473SOL    HW234056   3.647   2.144   8.372  1.1951  0.1967  0.9422
 7474SOL     OW34057   1.937   3.881   4.871 -0.3377 -0.0557 -0.3749
 7474SOL    HW134058   2.017   3.838   4.901 -0.6085 -0.1344  0.2350
 7474SOL    HW234059   1.986   3.948   4.823 -0.7766 -0.6508 -1.6557
 7475SOL     OW34060   0.248   1.643  14.564 -0.7919  0.2189  0.1109
 7475SOL    HW134061   0.168   1.685  14.532 -0.6280 -0.1557 -0.7617
 7475SOL    HW234062   0.245   1.677  14.654  1.3753  1.6172 -0.3528
 7476SOL     OW34063   0.586   2.178   7.165 -0.4801  0.1572  0.1706
 7476SOL    HW134064   0.675   2.183   7.131 -0.1832  2.8249  1.3457
 7476SOL    HW234065   0.551   2.254   7.119 -0.2126  1.0444  1.4567
 7477SOL     OW34066   2.716   0.807   7.877 -0.8127 -0.0381 -0.0294
 7477SOL    HW134067   2.627   0.792   7.847  0.0018 -0.8093 -2.0854
 7477SOL    HW234068   2.748   0.866   7.809 -0.3537 -1.6413 -1.2122
 7478SOL     OW34069   0.534   3.362   7.743  0.0973 -0.5436 -0.4803
 7478SOL    HW134070   0.573   3.450   7.740 -0.2106 -0.3451  1.0641
 7478SOL    HW234071   0.502   3.375   7.654  1.8095 -3.8869 -1.5795
 7479SOL     OW34072   4.675   0.953   5.989  0.4372 -0.2247 -0.2417
 7479SOL    HW134073   4.705   0.868   6.024  1.2585  0.2649  0.2390
 7479SOL    HW234074   0.025   0.990   5.961  0.8993 -0.7262  0.4443
 7480SOL     OW34075   0.992   3.830  13.305  0.3909 -1.2389 -0.3798
 7480SOL    HW134076   1.077   3.850  13.265  1.1683  0.9895  2.4056
 7480SOL    HW234077   0.971   3.916  13.342 -3.0013 -1.8768 -0.8301
 7481SOL     OW34078   0.603   0.323   4.355  0.6760 -0.5305  0.5740
 7481SOL    HW134079   0.673   0.385   4.375 -1.5926  3.0615 -2.5965
 7481SOL    HW234080   0.537   0.352   4.418 -0.0778  2.6243 -1.6627
 7482SOL     OW34081   4.058   2.816   3.314  0.3362  0.5099  0.3849
 7482SOL    HW134082   4.024   2.847   3.398 -1.6156  1.7293 -0.8848
 7482SOL    HW234083   4.073   2.726   3.345  2.0665  0.7585  0.2493
 7483SOL     OW34084   2.068   4.364   7.082  0.2857  0.1256  0.3291
 7483SOL    HW134085   2.067   4.268   7.072 -3.0210  0.0413  1.7054
 7483SOL    HW234086   2.019   4.392   7.004  0.9302  1.1869  0.3124
 7484SOL     OW34087   3.571   4.536   8.023  0.0278  0.3116  0.0813
 7484SOL    HW134088   3.637   4.501   8.083  0.3743 -0.8159 -0.9464
 7484SOL    HW234089   3.522   4.456   8.003  0.1440  0.4716 -0.8613
 7485SOL     OW34090   4.623   2.823  15.956  0.2095 -0.4730 -0.6313
 7485SOL    HW134091   4.677   2.806  16.034 -0.3964  0.6964  0.0327
 7485SOL    HW234092   4.563   2.749  15.955 -0.9632  0.4821 -0.7968
 7486SOL     OW34093   2.565   0.766   8.324  0.0049 -0.3709  0.1304
 7486SOL    HW134094   2.589   0.674   8.341 -2.2536 -0.8028  1.0605
 7486SOL    HW234095   2.639   0.792   8.270  1.0492  1.2673  2.3519
 7487SOL     OW34096   1.705   4.355   3.333 -0.4074 -0.8311 -0.7338
 7487SOL    HW134097   1.645   4.325   3.264 -0.5328 -0.4614 -0.7821
 7487SOL    HW234098   1.668   4.443   3.334 -1.2485 -1.2044  2.4557
 7488SOL     OW34099   2.301   2.290   6.100  0.6419 -0.2082  1.1010
 7488SOL    HW134100   2.255   2.207   6.115  2.0820 -0.3799  4.4519
 7488SOL    HW234101   2.224   2.344   6.085  0.1601 -0.6438  2.0434
 7489SOL     OW34102   1.820   4.300   4.567 -0.1341  0.2120  0.1789
 7489SOL    HW134103   1.786   4.268   4.651 -0.1681  0.5461  0.2946
 7489SOL    HW234104   1.831   4.390   4.599 -0.1908 -0.6254  2.5386
 7490SOL     OW34105   4.623   4.004  11.248 -0.0624 -0.4015  0.1961
 7490SOL    HW134106   4.698   3.945  11.234  1.3318  1.9592 -2.3195
 7490SOL    HW234107   4.598   4.024  11.158 -0.5025  2.9596  1.0663
 7491SOL     OW34108   3.326   0.415   3.970 -0.8627  0.5252 -0.3132
 7491SOL    HW134109   3.275   0.451   3.897 -2.3604 -0.8664  0.0413
 7491SOL    HW234110   3.304   0.322   3.975  1.4286  0.0202  0.0870
 7492SOL     OW34111   0.586   4.233   6.545 -0.5559  0.0399 -0.4147
 7492SOL    HW134112   0.657   4.297   6.548 -2.1939  1.8328  0.3781
 7492SOL    HW234113   0.584   4.214   6.639  1.9296  1.7334 -0.0342
 7493SOL     OW34114   0.800   2.201  14.348  0.6184  0.0378  0.9244
 7493SOL    HW134115   0.813   2.188  14.442 -1.3859  0.2223  1.2185
 7493SOL    HW234116   0.864   2.268  14.322  0.1901  0.2159  0.3110
 7494SOL     OW34117   4.330   1.111   3.362 -0.3883 -0.3539  0.3679
 7494SOL    HW134118   4.270   1.181   3.340  0.5002  1.2286  2.9735
 7494SOL    HW234119   4.269   1.072   3.425 -0.9717 -1.1817 -0.7072
 7495SOL     OW34120   4.729   0.520  14.815  0.0438 -0.0675  0.0882
 7495SOL    HW134121   4.641   0.557  14.814 -1.0814 -2.6862  0.1093
 7495SOL    HW234122   4.704   0.436  14.853  0.9801  0.1085  1.1046
 7496SOL     OW34123   0.573   2.164  14.198 -0.8402 -0.3742 -0.0106
 7496SOL    HW134124   0.664   2.144  14.220 -1.0563 -2.9867 -1.5798
 7496SOL    HW234125   0.576   2.162  14.103  0.2130  3.3945 -0.0695
 7497SOL     OW34126   3.896   4.302   6.086 -0.3148  0.2065 -0.3269
 7497SOL    HW134127   3.971   4.347   6.124  0.4900 -1.6862  0.3200
 7497SOL    HW234128   3.897   4.325   5.993 -1.3784 -0.0861 -0.4118
 7498SOL     OW34129   2.674   1.476  11.484  0.0763  0.0873 -0.2714
 7498SOL    HW134130   2.660   1.393  11.438 -0.4717  1.3800 -2.3922
 7498SOL    HW234131   2.653   1.450  11.574 -0.1526 -2.0811 -0.9444
 7499SOL     OW34132   0.073   0.704   7.610 -0.8642  0.1786 -0.7149
 7499SOL    HW134133   0.090   0.682   7.518 -1.8466 -1.2415 -0.5590
 7499SOL    HW234134   0.047   0.618   7.643 -0.3642  0.2951 -0.0129
 7500SOL     OW34135   2.768   2.120   9.470 -0.0271 -0.3212 -0.4475
 7500SOL    HW134136   2.729   2.186   9.413 -0.2961  0.4019  0.5651
 7500SOL    HW234137   2.737   2.042   9.425 -0.8198 -1.5482  2.2019
 7501SOL     OW34138   0.462   2.439   0.311 -0.0770 -0.1115  0.0783
 7501SOL    HW134139   0.405   2.514   0.326  0.6015  0.5213 -0.4856
 7501SOL    HW234140   0.426   2.400   0.231 -0.5115  2.2433 -0.8804
 7502SOL     OW34141   4.731   0.715  17.120 -0.1243  0.0498  0.0879
 7502SOL    HW134142   4.676   0.793  17.124 -0.9663 -0.4626 -1.9099
 7502SOL    HW234143   4.656   0.664  17.150  2.1949 -2.2700  1.9082
 7503SOL     OW34144   1.239   0.167   2.229  0.3403  0.4185  0.1068
 7503SOL    HW134145   1.324   0.206   2.248  0.5600 -0.8297  1.7689
 7503SOL    HW234146   1.205   0.226   2.162 -0.3922 -2.8365 -2.3949
 7504SOL     OW34147   2.018   1.866   2.921  0.2755 -0.1215 -0.3880
 7504SOL    HW134148   2.040   1.869   3.014 -1.6239 -0.8244  0.0782
 7504SOL    HW234149   1.973   1.949   2.904  0.2721  0.1865  1.1457
 7505SOL     OW34150   0.153   3.394   4.970 -0.6736  0.2332  0.3021
 7505SOL    HW134151   0.167   3.470   5.026  0.9201 -0.0722  0.3092
 7505SOL    HW234152   0.244   3.369   4.953  0.1099  3.5209 -0.2599
 7506SOL     OW34153   0.064   4.724   9.712  0.0255 -0.2677 -0.7442
 7506SOL    HW134154   4.732   4.656   9.695 -1.1014  0.1732  1.9088
 7506SOL    HW234155   0.110   4.694   9.790  0.9642  1.1041 -0.7727
 7507SOL     OW34156   0.274   2.262   5.521 -0.2710 -0.0773  0.0279
 7507SOL    HW134157   0.196   2.229   5.475 -0.8070 -0.6135  1.3210
 7507SOL    HW234158   0.281   2.353   5.494  1.9863  0.0557  1.0918
 7508SOL     OW34159   0.507   0.040  13.625  0.2339  0.4381  0.3269
 7508SOL    HW134160   0.496   4.711  13.696  1.1465 -2.1197 -1.8064
 7508SOL    HW234161   0.582   0.002  13.580  0.8319  0.2324  1.5207
 7509SOL     OW34162   3.473   1.012   4.095 -0.7287  0.3845  0.3066
 7509SOL    HW134163   3.493   1.104   4.082  0.1117  0.2197  0.4181
 7509SOL    HW234164   3.377   1.015   4.091 -0.6023  2.4920 -1.1423
 7510SOL     OW34165   0.513   2.862  14.421  0.0998  0.1380 -0.2598
 7510SOL    HW134166   0.519   2.782  14.369  0.1388  0.2352 -0.4042
 7510SOL    HW234167   0.598   2.902  14.404 -0.7863  1.9881 -0.3157
 7511SOL     OW34168   2.391   3.913   4.209  0.5553  0.0489  0.1859
 7511SOL    HW134169   2.357   3.900   4.297  0.4957 -0.3445  0.1065
 7511SOL    HW234170   2.414   3.823   4.185  1.6585  0.6339 -0.9403
 7512SOL     OW34171   0.632   2.170  13.922  0.1034 -0.6731  0.0538
 7512SOL    HW134172   0.614   2.101  13.858 -0.1986  1.5269 -2.2239
 7512SOL    HW234173   0.726   2.155  13.934  0.4911  1.0329 -0.8891
 7513SOL     OW34174   2.140   2.228   8.291 -0.1541  0.2838  0.2757
 7513SOL    HW134175   2.115   2.137   8.301  1.2787  0.4186  4.8926
 7513SOL    HW234176   2.234   2.239   8.303 -0.4265  1.5406  1.3168
 7514SOL     OW34177   1.168   1.460   2.271 -0.2188  0.2071 -0.0061
 7514SOL    HW134178   1.181   1.553   2.251 -2.1151  0.9384  2.1039
 7514SOL    HW234179   1.142   1.454   2.363 -2.9798 -0.8355 -0.8657
 7515SOL     OW34180   4.403   2.985   6.713 -0.0372 -0.2928  0.4287
 7515SOL    HW134181   4.332   2.995   6.649 -0.9398  2.7685  1.8989
 7515SOL    HW234182   4.402   3.074   6.747 -2.5691  0.1850 -0.9018
 7516SOL     OW34183   2.491   1.176   8.372  0.1094  0.3612 -0.4147
 7516SOL    HW134184   2.399   1.199   8.366 -0.4673 -1.4700  1.3835
 7516SOL    HW234185   2.518   1.221   8.452 -3.9745 -0.9512  1.6693
 7517SOL     OW34186   0.771   3.701  13.171 -0.5261  0.2403  0.0423
 7517SOL    HW134187   0.836   3.753  13.217  0.2077  0.1284 -0.8609
 7517SOL    HW234188   0.786   3.613  13.207  0.9809  0.8392  0.8814
 7518SOL     OW34189   3.683   2.669  15.812 -0.1952  0.5003 -0.4652
 7518SOL    HW134190   3.753   2.664  15.877  0.2491 -2.1708 -1.1385
 7518SOL    HW234191   3.606   2.691  15.863  1.5542  0.9267  1.9900
 7519SOL     OW34192   0.001   2.173   3.026  0.0075 -0.5777 -0.4199
 7519SOL    HW134193   0.052   2.092   3.029 -0.1075 -0.6788 -1.1481
 7519SOL    HW234194   0.025   2.205   2.939 -2.0681  0.3662 -0.6520
 7520SOL     OW34195   1.557   3.368   7.557  0.3088 -0.0954  0.1974
 7520SOL    HW134196   1.504   3.448   7.555  1.3487  0.5761 -0.3656
 7520SOL    HW234197   1.636   3.404   7.596  0.7784  0.1218 -0.9455
 7521SOL     OW34198   0.891   2.260   1.203  0.0214  0.4258 -0.8588
 7521SOL    HW134199   0.979   2.261   1.165  0.9270  1.2735  1.2404
 7521SOL    HW234200   0.831   2.276   1.131  1.2722 -2.4731 -2.5562
 7522SOL     OW34201   2.069   3.889  10.055 -0.5596  0.3005  0.4306
 7522SOL    HW134202   2.041   3.841   9.976 -1.8323  2.5615 -0.4853
 7522SOL    HW234203   2.131   3.945  10.008 -1.0063  1.9947  1.8855
 7523SOL     OW34204   3.084   1.261   6.583 -0.0167 -0.1488  0.0400
 7523SOL    HW134205   3.096   1.170   6.608  0.0055 -0.4511 -1.0677
 7523SOL    HW234206   3.057   1.259   6.492  1.4833 -0.2821 -0.4075
 7524SOL     OW34207   2.481   1.151  12.112 -0.1150  0.0064 -0.2605
 7524SOL    HW134208   2.434   1.211  12.054 -1.2530  0.4521  1.1354
 7524SOL    HW234209   2.556   1.208  12.129  1.3376 -1.7595 -0.7571
 7525SOL     OW34210   1.706   2.840   9.820 -0.0655  0.0446  0.1227
 7525SOL    HW134211   1.724   2.933   9.803 -1.2541  0.3955  0.7251
 7525SOL    HW234212   1.770   2.821   9.888  2.3163  2.1131 -1.5655
 7526SOL     OW34213   3.094   4.518  16.980 -0.4936  0.6454 -0.7912
 7526SOL    HW134214   3.122   4.496  17.069  1.9569  0.0284 -1.7192
 7526SOL    HW234215   3.118   4.610  16.978 -0.2402  0.6346  1.7320
 7527SOL     OW34216   3.109   2.324   4.161 -0.5284 -0.6670 -0.3326
 7527SOL    HW134217   3.061   2.273   4.226  0.0130 -0.3117  0.3461
 7527SOL    HW234218   3.168   2.258   4.124 -0.4243 -0.2220 -0.9646
 7528SOL     OW34219   1.325   1.275  10.369  0.0376  0.1416  0.2178
 7528SOL    HW134220   1.389   1.284  10.298 -0.0446  0.7575  0.2189
 7528SOL    HW234221   1.367   1.200  10.412  1.9821  1.7755  1.1754
 7529SOL     OW34222   1.000   3.474   5.105  0.0740 -0.1134 -0.1128
 7529SOL    HW134223   1.070   3.444   5.046  0.8047  0.3518  0.5076
 7529SOL    HW234224   0.940   3.505   5.038 -0.7385 -0.7660  0.3249
 7530SOL     OW34225   0.231   0.326   0.966 -0.2200 -0.2409  0.1463
 7530SOL    HW134226   0.181   0.397   0.924 -0.7594 -0.8654 -0.2621
 7530SOL    HW234227   0.173   0.250   0.960 -1.0093  0.6090 -2.7465
 7531SOL     OW34228   4.376   2.045   8.141 -0.5139  0.1120 -0.3101
 7531SOL    HW134229   4.295   2.001   8.166  0.2590 -0.7620  0.6397
 7531SOL    HW234230   4.357   2.130   8.101 -0.4709  0.5663  0.6411
 7532SOL     OW34231   3.583   2.415   3.355 -0.1143 -0.3471  0.4015
 7532SOL    HW134232   3.593   2.366   3.436 -2.4487  1.3909  1.7442
 7532SOL    HW234233   3.505   2.470   3.362  0.0603 -0.0999  0.4111
 7533SOL     OW34234   3.061   0.073  11.973 -0.0244 -0.1022  0.1998
 7533SOL    HW134235   3.042   0.165  11.954 -0.7205 -0.7359 -2.1554
 7533SOL    HW234236   2.974   0.034  11.984 -1.2753  2.7476  0.4922
 7534SOL     OW34237   3.606   0.937   6.134  0.6708 -0.2564 -0.8219
 7534SOL    HW134238   3.650   1.022   6.138 -0.2674  0.1388  1.4117
 7534SOL    HW234239   3.607   0.905   6.225 -0.8900 -0.1796 -0.7621
 7535SOL     OW34240   0.676   4.671   4.467  0.1984  0.9133 -0.2050
 7535SOL    HW134241   0.748   4.648   4.526  1.7459  0.1285 -2.4265
 7535SOL    HW234242   0.708   4.668   4.377 -2.5633 -0.3849 -1.1706
 7536SOL     OW34243   0.091   3.578   0.008  0.1538  0.5912  0.3554
 7536SOL    HW134244   0.185   3.577  17.731  0.0824  2.6304 -0.3012
 7536SOL    HW234245   0.076   3.489  17.711 -2.0462  1.4018 -0.8727
 7537SOL     OW34246   0.820   4.633   7.133  0.0559  0.2331 -0.8021
 7537SOL    HW134247   0.776   4.549   7.144 -0.3217  0.3740 -1.2624
 7537SOL    HW234248   0.902   4.614   7.180 -0.9069 -1.5485  0.1418
 7538SOL     OW34249   2.503   2.888  11.519  0.2818 -0.0353 -0.4044
 7538SOL    HW134250   2.498   2.837  11.600  0.5638  1.1299  0.3588
 7538SOL    HW234251   2.434   2.853  11.463 -0.1078  0.4829 -0.2530
 7539SOL     OW34252   3.728   1.147   0.334 -0.6496 -0.2199 -0.4154
 7539SOL    HW134253   3.805   1.163   0.279  0.3515  2.3704  1.7711
 7539SOL    HW234254   3.734   1.057   0.365 -0.7717 -0.3089 -0.6434
 7540SOL     OW34255   0.053   2.277   2.759 -0.1611 -0.2397 -0.2019
 7540SOL    HW134256   0.096   2.357   2.732  1.1142 -1.6146 -2.2172
 7540SOL    HW234257   0.100   2.213   2.706  1.7128  1.0416 -0.0676
 7541SOL     OW34258   2.181   4.723   7.178  0.8502 -0.4917 -0.5635
 7541SOL    HW134259   2.118   4.662   7.216 -0.9373  1.9609  0.4518
 7541SOL    HW234260   2.126   0.012   7.104 -0.3338  2.0122  1.0746
 7542SOL     OW34261   3.224   3.571   6.897  0.0499 -0.1895 -0.0282
 7542SOL    HW134262   3.213   3.655   6.853  0.2556 -0.1856 -0.0736
 7542SOL    HW234263   3.301   3.543   6.847  0.2499 -1.4837  1.0223
 7543SOL     OW34264   0.130   2.729   5.548 -0.6763 -0.2329  0.0764
 7543SOL    HW134265   0.074   2.803   5.526 -1.0142 -0.4787  0.1133
 7543SOL    HW234266   0.075   2.676   5.605  0.4880 -0.9982  0.5056
 7544SOL     OW34267   1.549   4.190   2.575  0.1521 -0.4469 -0.9397
 7544SOL    HW134268   1.614   4.221   2.512  0.5144  0.8794  0.0838
 7544SOL    HW234269   1.553   4.096   2.558 -0.8758 -1.0482  2.0750
 7545SOL     OW34270   2.909   3.249   5.354  0.0402 -0.2182  0.7384
 7545SOL    HW134271   2.994   3.209   5.335  1.1639  2.0777  0.9954
 7545SOL    HW234272   2.910   3.322   5.292 -2.6305 -0.6807  0.1833
 7546SOL     OW34273   3.127   2.772   3.366 -0.3274 -0.2941 -0.3022
 7546SOL    HW134274   3.083   2.850   3.332  0.9883  0.3898 -0.4177
 7546SOL    HW234275   3.136   2.712   3.292  0.6430  2.8279 -2.7005
 7547SOL     OW34276   1.667   1.043   5.921  0.1323 -0.1976  0.1547
 7547SOL    HW134277   1.583   1.086   5.942  1.1676  2.6178 -1.4921
 7547SOL    HW234278   1.676   1.058   5.827 -0.8584  0.8461  0.2168
 7548SOL     OW34279   2.766   0.867   8.148 -0.3974 -0.1057  0.1688
 7548SOL    HW134280   2.737   0.839   8.062  0.1987  0.0731 -0.0848
 7548SOL    HW234281   2.750   0.961   8.143 -1.1864 -0.2140  0.5155
 7549SOL     OW34282   1.228   2.608   3.820  0.4656 -0.3036  0.1389
 7549SOL    HW134283   1.204   2.520   3.850  1.1540  0.1741  2.0846
 7549SOL    HW234284   1.317   2.593   3.788  0.3228 -1.5520  0.3092
 7550SOL     OW34285   1.805   1.012   9.583  0.2464 -0.6183 -0.1599
 7550SOL    HW134286   1.868   0.940   9.579  1.7398  0.7730 -1.6989
 7550SOL    HW234287   1.742   0.987   9.516 -0.2042 -1.7760  0.6984
 7551SOL     OW34288   0.872   1.695   5.945  0.5235  0.0221  0.7443
 7551SOL    HW134289   0.791   1.648   5.927  1.1620  0.0281 -2.1920
 7551SOL    HW234290   0.843   1.784   5.965  1.9234  0.6440  0.0463
 7552SOL     OW34291   3.828   3.791   5.894 -0.3453 -0.2032  0.4848
 7552SOL    HW134292   3.825   3.881   5.926 -1.1797  0.7189 -2.1889
 7552SOL    HW234293   3.910   3.790   5.844  0.7938 -0.3395  2.3473
 7553SOL     OW34294   0.987   0.250   3.978  0.3085 -0.6851 -0.0617
 7553SOL    HW134295   0.969   0.170   3.929  0.2556  0.3463 -1.6966
 7553SOL    HW234296   1.058   0.285   3.924 -0.9562  0.8091 -0.7573
 7554SOL     OW34297   0.566   0.245  14.830  0.3529  0.3384  0.1904
 7554SOL    HW134298   0.605   0.313  14.885  0.3900 -0.4132  1.0859
 7554SOL    HW234299   0.532   0.297  14.757  0.1007  1.4047  1.0724
 7555SOL     OW34300   2.574   2.946   8.257 -0.1324  0.4306  0.8003
 7555SOL    HW134301   2.488   2.986   8.265 -0.6999 -0.6925  0.2636
 7555SOL    HW234302   2.612   2.985   8.336  2.1212  1.5386 -0.8181
 7556SOL     OW34303   3.540   1.500   8.679  0.2056  0.3443 -0.2057
 7556SOL    HW134304   3.623   1.524   8.720  0.0371  2.3819 -1.0356
 7556SOL    HW234305   3.480   1.556   8.729  0.2091  0.2809 -0.1310
 7557SOL     OW34306   3.914   4.226   6.924  0.3501  0.1687 -0.1377
 7557SOL    HW134307   3.867   4.142   6.927 -0.8956  0.9455  1.4946
 7557SOL    HW234308   3.889   4.263   6.839  2.8969  3.7736  0.6784
 7558SOL     OW34309   1.868   0.642   5.563  0.4425 -0.0443  0.4142
 7558SOL    HW134310   1.914   0.570   5.519  0.7935  1.5901 -1.8538
 7558SOL    HW234311   1.779   0.606   5.558 -0.7727  3.1276 -0.6758
 7559SOL     OW34312   2.978   4.211  10.172  0.0917  0.3083  0.3899
 7559SOL    HW134313   2.951   4.235  10.083 -2.3223 -1.3989  0.6528
 7559SOL    HW234314   2.972   4.300  10.204 -0.4408  0.1779  0.6563
 7560SOL     OW34315   0.714   1.962   7.710 -0.3403 -0.2199 -0.5557
 7560SOL    HW134316   0.772   2.018   7.761  0.3513 -0.3973 -1.1497
 7560SOL    HW234317   0.719   1.879   7.758  2.7600  0.7607  0.7855
 7561SOL     OW34318   1.600   3.601  15.981 -0.3487  0.0607 -0.0598
 7561SOL    HW134319   1.667   3.611  15.914 -0.2147 -0.7402 -0.0460
 7561SOL    HW234320   1.647   3.610  16.064 -0.1416 -0.3670 -0.1302
 7562SOL     OW34321   2.688   0.273   8.763 -0.3001  0.4488 -0.1047
 7562SOL    HW134322   2.652   0.195   8.803 -0.7695  0.5584 -0.3066
 7562SOL    HW234323   2.776   0.247   8.735 -1.1272  0.6917 -2.9465
 7563SOL     OW34324   3.109   4.119  12.929  0.7824 -0.3008 -0.0325
 7563SOL    HW134325   3.057   4.162  12.861 -0.0838 -2.5342 -0.8041
 7563SOL    HW234326   3.195   4.153  12.906 -0.5770  2.3616 -1.1198
 7564SOL     OW34327   3.489   2.217   4.248  0.1572 -0.7488 -0.4484
 7564SOL    HW134328   3.433   2.269   4.305 -0.7192 -2.0143 -0.1507
 7564SOL    HW234329   3.541   2.167   4.310 -1.1428 -2.5210 -0.7868
 7565SOL     OW34330   0.693   2.139   8.237 -0.3831 -0.1907  0.0578
 7565SOL    HW134331   0.610   2.118   8.195  0.2964  0.7407 -1.7534
 7565SOL    HW234332   0.673   2.171   8.325  2.2825 -0.8677  0.9285
 7566SOL     OW34333   0.299   4.071   0.914 -0.1959  0.1466 -0.7922
 7566SOL    HW134334   0.264   4.159   0.926  0.4515  0.4469 -1.1315
 7566SOL    HW234335   0.304   4.033   1.002 -2.5848 -0.2197 -0.8175
 7567SOL     OW34336   0.771   1.661  12.623 -0.4157 -0.3356  0.8190
 7567SOL    HW134337   0.864   1.679  12.615 -0.5468 -0.6580 -1.3001
 7567SOL    HW234338   0.741   1.682  12.534  0.0913  0.4122  0.8185
 7568SOL     OW34339   3.010   0.064   5.927  0.2102  0.5694  0.3659
 7568SOL    HW134340   3.071   0.126   5.966  2.1920 -0.8025 -0.5648
 7568SOL    HW234341   2.953   0.037   5.999  0.3653  1.0188  0.6611
 7569SOL     OW34342   3.947   0.723   8.295  0.3925  0.3480 -0.3954
 7569SOL    HW134343   4.007   0.649   8.307  0.3836  0.4695  0.4094
 7569SOL    HW234344   3.871   0.678   8.257 -0.7644  0.2056  2.0122
 7570SOL     OW34345   0.360   3.808   0.243  0.2581  0.3554 -0.4395
 7570SOL    HW134346   0.404   3.868   0.303 -0.6722 -0.6952  1.2956
 7570SOL    HW234347   0.358   3.865   0.166 -0.5389  1.7027  0.5794
 7571SOL     OW34348   4.731   1.413  12.164 -0.2756 -0.0957  0.2515
 7571SOL    HW134349   0.035   1.447  12.083  0.3064  0.6345  0.8352
 7571SOL    HW234350   4.686   1.333  12.138 -0.9333  0.6676 -0.9666
 7572SOL     OW34351   2.108   1.404   1.737 -0.5271 -0.6125 -0.1524
 7572SOL    HW134352   2.194   1.397   1.779 -0.3240  0.0363 -0.4649
 7572SOL    HW234353   2.062   1.464   1.795 -2.3059 -1.3243 -0.8288
 7573SOL     OW34354   2.923   3.036   3.104 -0.1849 -0.4759  0.0583
 7573SOL    HW134355   2.882   3.069   3.184  3.3479  1.4232  1.0849
 7573SOL    HW234356   2.852   3.046   3.041 -0.9323  2.3065  1.3674
 7574SOL     OW34357   1.760   4.292   7.245  0.0328 -0.2924 -0.1451
 7574SOL    HW134358   1.772   4.335   7.160 -0.1419 -0.1470 -0.0963
 7574SOL    HW234359   1.671   4.257   7.254 -0.3898  0.8826  0.3002
 7575SOL     OW34360   3.534   0.284   1.090  0.3323 -0.3539  0.3389
 7575SOL    HW134361   3.503   0.351   1.150 -0.1061  0.2227 -0.5250
 7575SOL    HW234362   3.549   0.207   1.144  0.4001 -0.8164 -0.3354
 7576SOL     OW34363   2.320   3.616   7.777  0.9189  0.1795  0.0325
 7576SOL    HW134364   2.230   3.588   7.791  1.2804 -0.4576  1.0553
 7576SOL    HW234365   2.361   3.530   7.766  0.1367  0.0239 -1.7429
 7577SOL     OW34366   2.623   3.366   2.990  0.0579  0.5588  0.4594
 7577SOL    HW134367   2.529   3.351   2.983  0.4426 -1.7947  0.3628
 7577SOL    HW234368   2.631   3.401   3.079 -0.3966 -0.0971  0.7558
 7578SOL     OW34369   1.294   2.869  16.078  0.1413  0.2757 -0.0869
 7578SOL    HW134370   1.348   2.814  16.135  1.8112  1.2202 -0.7567
 7578SOL    HW234371   1.351   2.863  16.001  0.6337 -1.1731  0.3921
 7579SOL     OW34372   2.581   1.526  17.437  0.1486 -0.5360 -0.2576
 7579SOL    HW134373   2.547   1.524  17.348 -2.0431  2.2695  0.5355
 7579SOL    HW234374   2.533   1.451  17.472 -1.0598 -0.3941 -1.6150
 7580SOL     OW34375   3.551   1.722   7.520  0.4753 -0.0366  0.2786
 7580SOL    HW134376   3.456   1.739   7.517  0.2781 -1.2268 -0.2953
 7580SOL    HW234377   3.577   1.706   7.610 -0.9704 -2.6531  0.2224
 7581SOL     OW34378   2.623   2.042   1.453 -0.6980  0.2695  0.2196
 7581SOL    HW134379   2.664   2.100   1.516  0.7595  2.2339 -2.5303
 7581SOL    HW234380   2.671   1.961   1.471  1.1878  0.7248 -2.6484
 7582SOL     OW34381   2.268   2.164  10.784 -0.8312 -0.1178 -0.2814
 7582SOL    HW134382   2.227   2.244  10.817  0.0711 -0.1327  0.8684
 7582SOL    HW234383   2.284   2.189  10.692 -0.2439  0.8191  0.0770
 7583SOL     OW34384   3.519   2.835  11.077 -0.0300  0.4825 -0.6561
 7583SOL    HW134385   3.453   2.904  11.085  0.9475  1.3819 -0.3089
 7583SOL    HW234386   3.568   2.876  11.006  0.3885 -0.4473 -0.8927
 7584SOL     OW34387   4.121   3.703   9.922  0.0923  0.1510 -0.2383
 7584SOL    HW134388   4.123   3.737  10.011 -0.4255  0.5871 -0.3891
 7584SOL    HW234389   4.034   3.731   9.892 -0.0644 -1.1498 -0.9779
 7585SOL     OW34390   4.251   3.904   4.087 -0.2460 -0.1658 -0.4922
 7585SOL    HW134391   4.176   3.956   4.115  1.1996  1.6508 -0.0160
 7585SOL    HW234392   4.255   3.839   4.158  1.7651 -0.1032 -0.5292
 7586SOL     OW34393   1.940   1.105   9.868 -0.0835 -0.4636 -0.5020
 7586SOL    HW134394   1.937   1.168   9.940  1.7120  0.5390 -1.3028
 7586SOL    HW234395   1.895   1.030   9.906  2.2677 -2.3558 -1.4788
 7587SOL     OW34396   1.574   2.474  10.655  0.1308  0.6798 -0.5475
 7587SOL    HW134397   1.568   2.421  10.735  1.9724 -0.8893 -1.4516
 7587SOL    HW234398   1.482   2.495  10.638 -0.9471 -1.6017  2.4039
 7588SOL     OW34399   2.710   3.771   8.802 -0.5010  0.3136  0.3363
 7588SOL    HW134400   2.711   3.826   8.881 -0.4370 -0.9203  1.2033
 7588SOL    HW234401   2.628   3.805   8.767  0.3399  1.2432 -0.7256
 7589SOL     OW34402   0.254   4.327  11.736 -0.7451 -0.1993  0.4186
 7589SOL    HW134403   0.289   4.282  11.813 -2.1083 -2.4380 -0.2677
 7589SOL    HW234404   0.336   4.362  11.704 -1.4218 -0.6807 -1.8220
 7590SOL     OW34405   1.858   3.908   7.378  0.3108  0.0649 -0.0831
 7590SOL    HW134406   1.783   3.945   7.424 -0.3415  1.4501 -2.2240
 7590SOL    HW234407   1.884   3.989   7.333 -2.8330 -0.0377 -2.1117
 7591SOL     OW34408   2.340   3.605   6.281  0.3213  0.3078 -0.4326
 7591SOL    HW134409   2.283   3.678   6.260  2.4526  2.7482  2.1278
 7591SOL    HW234410   2.321   3.558   6.200  1.8766 -0.3101 -0.4424
 7592SOL     OW34411   2.844   2.840   1.733 -0.5806 -0.5493  0.2098
 7592SOL    HW134412   2.902   2.785   1.785  0.5383 -1.5314 -2.0883
 7592SOL    HW234413   2.807   2.781   1.668 -3.4050  0.9585  0.4339
 7593SOL     OW34414   3.681   0.991   8.558 -0.4535  0.4408  0.2249
 7593SOL    HW134415   3.597   0.953   8.531 -0.4513  1.4171 -1.1525
 7593SOL    HW234416   3.651   1.066   8.610 -1.4486  1.2138 -1.4749
 7594SOL     OW34417   4.091   3.963   9.721 -0.3909 -0.4440  0.8641
 7594SOL    HW134418   4.183   3.942   9.708 -0.2696 -1.0337  2.6634
 7594SOL    HW234419   4.095   4.058   9.734 -0.7523 -0.3036 -0.0504
 7595SOL     OW34420   0.257   2.511   8.686  0.2533  0.5261 -1.1736
 7595SOL    HW134421   0.184   2.469   8.640 -2.1533 -0.7694  3.8076
 7595SOL    HW234422   0.253   2.486   8.778 -1.9405 -0.9084 -1.6623
 7596SOL     OW34423   3.683   1.848   0.647 -0.0107 -0.2250 -0.2345
 7596SOL    HW134424   3.663   1.834   0.555 -2.6020  3.2826 -0.1986
 7596SOL    HW234425   3.747   1.919   0.644  1.1144 -1.1847  0.7687
 7597SOL     OW34426   2.328   0.979   2.200 -0.0398 -0.9926  0.1527
 7597SOL    HW134427   2.293   1.016   2.119  2.4007 -0.8852 -0.8619
 7597SOL    HW234428   2.272   1.032   2.257 -2.5873 -1.0210 -2.3647
 7598SOL     OW34429   2.798   3.616  17.009 -0.2575  0.0914  0.0461
 7598SOL    HW134430   2.716   3.646  16.970 -1.3017 -1.8940  0.6642
 7598SOL    HW234431   2.774   3.528  17.038 -0.5913  0.3408  0.5190
 7599SOL     OW34432   1.496   2.518   4.031 -0.3762 -0.5898 -0.0507
 7599SOL    HW134433   1.584   2.535   4.067 -0.5786  0.5787 -0.0978
 7599SOL    HW234434   1.486   2.571   3.951  0.7881 -0.9205 -0.4222
 7600SOL     OW34435   3.002   2.431   5.508  0.0460  0.1786 -0.2956
 7600SOL    HW134436   3.054   2.511   5.512 -0.0350  0.1557  1.0925
 7600SOL    HW234437   2.934   2.448   5.442  0.3019 -1.9431 -1.1286
 7601SOL     OW34438   1.047   1.519  12.731 -0.7743 -0.0878 -0.5028
 7601SOL    HW134439   1.141   1.502  12.737 -0.8034 -0.0311  0.0896
 7601SOL    HW234440   1.039   1.489  12.640 -0.9437 -1.0342 -0.1752
 7602SOL     OW34441   1.208   3.089   7.144 -0.0644 -0.5111  0.3233
 7602SOL    HW134442   1.165   3.137   7.073 -0.8509 -0.3228  0.9244
 7602SOL    HW234443   1.220   3.164   7.203  0.6587 -2.2175  2.3225
 7603SOL     OW34444   0.623   1.241   4.652  0.2712 -0.0648 -0.7158
 7603SOL    HW134445   0.603   1.165   4.597 -1.2701 -0.7054  0.7028
 7603SOL    HW234446   0.717   1.237   4.636  0.5634 -0.8908  1.1486
 7604SOL     OW34447   3.980   2.686   7.564 -0.3514 -0.1810 -0.6245
 7604SOL    HW134448   3.976   2.593   7.587 -0.7211 -0.0293 -0.0649
 7604SOL    HW234449   3.886   2.701   7.549 -0.4859 -0.1727  0.1780
 7605SOL     OW34450   3.052   3.802   5.414 -0.3242  0.1981  0.5350
 7605SOL    HW134451   3.039   3.875   5.353 -0.1624 -1.6654 -1.6896
 7605SOL    HW234452   3.071   3.855   5.492  2.4412  0.0092 -0.0267
 7606SOL     OW34453   1.962   1.547   8.979 -0.5126 -0.1148  0.1271
 7606SOL    HW134454   1.992   1.590   9.059 -2.4583 -0.4136  1.0035
 7606SOL    HW234455   1.911   1.472   9.011 -0.4334 -0.8566 -1.4620
 7607SOL     OW34456   1.614   2.419   8.194 -0.0379  0.5248  0.1235
 7607SOL    HW134457   1.573   2.337   8.166  1.7502  0.0001 -0.9392
 7607SOL    HW234458   1.554   2.473   8.246 -0.2827 -0.2779  0.6644
 7608SOL     OW34459   1.012   1.186   6.217 -0.4201 -0.2790  0.0520
 7608SOL    HW134460   1.027   1.143   6.133 -0.8177 -0.8088  0.2536
 7608SOL    HW234461   1.059   1.268   6.202 -2.3730  0.9184  0.5333
 7609SOL     OW34462   2.534   0.495   8.806 -0.1094  0.2631  0.4237
 7609SOL    HW134463   2.451   0.450   8.822 -2.2822  3.7745 -1.0374
 7609SOL    HW234464   2.580   0.415   8.780 -0.7254  1.1635 -3.3524
 7610SOL     OW34465   2.820   4.538   9.332 -0.3801  0.0413 -0.6175
 7610SOL    HW134466   2.894   4.576   9.380 -1.8837  1.1901  0.8089
 7610SOL    HW234467   2.787   4.626   9.312 -0.1839  0.4464  0.8719
 7611SOL     OW34468   4.578   1.261   9.967 -0.4751 -0.4014  0.8712
 7611SOL    HW134469   4.495   1.227   9.934 -0.8259  0.0661  1.2773
 7611SOL    HW234470   4.630   1.181   9.968 -1.2984 -1.0093 -2.8718
 7612SOL     OW34471   2.638   2.747   2.437  0.5129 -0.1307  0.1739
 7612SOL    HW134472   2.588   2.808   2.384 -0.9161 -1.5267 -0.0811
 7612SOL    HW234473   2.576   2.727   2.508  0.5459  0.6097  0.4040
 7613SOL     OW34474   1.431   0.107  12.383 -0.3377 -0.5317  0.1446
 7613SOL    HW134475   1.392   0.174  12.439 -1.0335 -2.2416  1.6906
 7613SOL    HW234476   1.522   0.110  12.414 -0.4924  1.0840  0.4326
 7614SOL     OW34477   4.724   0.643   6.367 -0.0107  0.4080 -0.4554
 7614SOL    HW134478   0.028   0.558   6.344 -1.7340 -1.3740  3.2029
 7614SOL    HW234479   0.072   0.685   6.391  0.2267 -0.8415  0.8665
 7615SOL     OW34480   0.736   1.201   8.246 -0.1504 -0.5383  0.4180
 7615SOL    HW134481   0.685   1.273   8.211 -0.2872 -0.6931  0.3001
 7615SOL    HW234482   0.668   1.156   8.296  2.1064 -0.8038  3.3009
 7616SOL     OW34483   1.570   0.431  17.180 -0.4344 -0.0594  0.0959
 7616SOL    HW134484   1.559   0.526  17.188 -0.3111 -0.2093  1.9449
 7616SOL    HW234485   1.621   0.438  17.099 -1.9711 -1.1782 -0.9609
 7617SOL     OW34486   1.360   3.568   5.281 -0.1907  0.1654 -0.2472
 7617SOL    HW134487   1.299   3.619   5.228  1.3675  1.2623 -0.9815
 7617SOL    HW234488   1.326   3.574   5.370  1.4228  1.5259  0.2651
 7618SOL     OW34489   3.177   2.633   6.281  0.0821  0.0040  0.0606
 7618SOL    HW134490   3.204   2.555   6.233  2.4146  0.9013 -0.0707
 7618SOL    HW234491   3.082   2.629   6.281  0.0667  0.3654  0.3407
 7619SOL     OW34492   0.398   1.954   5.474  0.4763 -0.5564 -0.0622
 7619SOL    HW134493   0.410   1.882   5.537  1.9637  0.9421  1.3536
 7619SOL    HW234494   0.356   2.018   5.532 -1.0122 -3.2293  1.8073
 7620SOL     OW34495   2.008   4.406  16.199 -0.1448 -0.0794 -0.3852
 7620SOL    HW134496   2.080   4.446  16.151 -0.2353  0.2195 -0.2687
 7620SOL    HW234497   2.061   4.335  16.235  0.8580  1.8251  1.8685
 7621SOL     OW34498   1.450   1.970   2.594 -0.3846  0.3808 -0.4939
 7621SOL    HW134499   1.413   1.949   2.508 -2.6457  1.1984  0.2876
 7621SOL    HW234500   1.378   2.020   2.632  0.4286  1.2268 -0.0773
 7622SOL     OW34501   3.483   1.301   5.117  0.3814 -0.7217  0.1610
 7622SOL    HW134502   3.533   1.231   5.076 -0.1650  0.6048 -2.7821
 7622SOL    HW234503   3.428   1.327   5.043  0.3468 -1.2043  0.0179
 7623SOL     OW34504   0.785   4.615  16.764 -0.0587  0.0612 -0.5107
 7623SOL    HW134505   0.754   4.702  16.786  1.2367  0.3030  0.3210
 7623SOL    HW234506   0.873   4.648  16.746 -0.5483  1.3426 -0.5156
 7624SOL     OW34507   1.167   3.059   5.633  0.3034  0.1670  0.1606
 7624SOL    HW134508   1.183   3.000   5.560 -0.5766  0.4753 -0.2773
 7624SOL    HW234509   1.079   3.093   5.618  1.1695  2.8864  1.1718
 7625SOL     OW34510   1.986   2.671   3.457 -0.0236 -0.3391 -0.0149
 7625SOL    HW134511   2.058   2.708   3.507  1.0755  0.9171 -2.5475
 7625SOL    HW234512   1.966   2.740   3.394 -0.8538 -0.6465 -0.0989
 7626SOL     OW34513   3.091   2.792   4.029  0.6721 -0.1858  0.3138
 7626SOL    HW134514   3.121   2.875   4.067  0.8374  0.4775 -1.2759
 7626SOL    HW234515   3.141   2.725   4.076 -0.3671  0.0011  1.6809
 7627SOL     OW34516   3.554   0.804   4.314 -0.3284  1.0598  0.4405
 7627SOL    HW134517   3.492   0.858   4.364 -1.2726 -0.6709  1.1433
 7627SOL    HW234518   3.491   0.756   4.260  1.6068 -1.9368  0.8573
 7628SOL     OW34519   3.028   1.405   4.711 -0.2272 -0.9807  0.1451
 7628SOL    HW134520   3.003   1.315   4.731  0.4838 -1.1105  0.4494
 7628SOL    HW234521   2.961   1.441   4.653  1.3529 -0.5729 -1.4364
 7629SOL     OW34522   2.848   4.329   5.431  0.1741  0.7866  0.2585
 7629SOL    HW134523   2.930   4.352   5.388 -0.6565 -0.0919 -1.7549
 7629SOL    HW234524   2.810   4.417   5.424  0.7070  1.2076  2.6302
 7630SOL     OW34525   3.673   4.052  10.339 -0.1132 -0.0299 -0.1229
 7630SOL    HW134526   3.602   4.032  10.400 -0.1681  1.3208  0.2612
 7630SOL    HW234527   3.747   4.052  10.401  0.3675  0.2112 -0.7007
 7631SOL     OW34528   0.806   2.650  17.585  0.1684 -0.0148 -0.0296
 7631SOL    HW134529   0.712   2.656  17.574  0.5745  1.6171 -2.6916
 7631SOL    HW234530   0.816   2.703  17.664  0.5749 -1.7407  1.0808
 7632SOL     OW34531   0.128   3.573   6.065 -0.1870 -0.4771 -0.1125
 7632SOL    HW134532   0.219   3.581   6.095  0.1626 -1.6779 -0.7966
 7632SOL    HW234533   0.131   3.485   6.025  1.7016 -1.9169  3.1716
 7633SOL     OW34534   1.821   3.126   6.657 -0.3618 -0.2562 -0.7959
 7633SOL    HW134535   1.791   3.038   6.680 -0.6339 -0.0147 -0.2180
 7633SOL    HW234536   1.760   3.148   6.587  0.4388 -1.0181 -1.7275
 7634SOL     OW34537   3.212   4.003   6.999  0.4070  0.5874 -0.5432
 7634SOL    HW134538   3.210   3.945   7.075 -0.7412 -0.0150 -1.0329
 7634SOL    HW234539   3.122   4.007   6.967 -0.2565  1.5926  1.5031
 7635SOL     OW34540   0.362   0.100   4.005  0.2167  0.1397 -0.4307
 7635SOL    HW134541   0.428   0.163   4.030 -1.0005  2.3747 -2.8383
 7635SOL    HW234542   0.303   0.153   3.952 -1.0991 -0.3982  0.4912
 7636SOL     OW34543   0.065   2.203   1.214 -0.1857  0.0705  0.3421
 7636SOL    HW134544   0.047   2.297   1.220 -1.1915 -0.0953 -0.0345
 7636SOL    HW234545   0.004   2.185   1.142 -0.2627 -1.8017  0.8623
 7637SOL     OW34546   1.165   2.687  14.094  0.0045  0.1131  0.2546
 7637SOL    HW134547   1.121   2.745  14.157  1.0788  1.6286 -0.3957
 7637SOL    HW234548   1.251   2.671  14.135  0.1356  1.8244  0.6405
 7638SOL     OW34549   2.070   0.224   6.313  0.2649  0.6586  0.6978
 7638SOL    HW134550   2.145   0.196   6.366  2.6418  1.2960 -2.3608
 7638SOL    HW234551   1.996   0.194   6.367 -0.4775  0.1470 -0.6039
 7639SOL     OW34552   3.571   1.896   9.065 -0.5852 -0.1045 -0.4616
 7639SOL    HW134553   3.487   1.904   9.110  0.5086  1.3531  1.3213
 7639SOL    HW234554   3.540   1.938   8.984  0.1787  1.4774  0.0678
 7640SOL     OW34555   1.243   3.272   5.150 -0.5659 -0.3216 -0.2739
 7640SOL    HW134556   1.281   3.243   5.067 -0.3422  0.6994 -0.5338
 7640SOL    HW234557   1.210   3.353   5.111  0.6099 -0.6012 -1.8379
 7641SOL     OW34558   0.012   0.936   4.470 -0.1261 -0.2004 -0.1651
 7641SOL    HW134559   4.686   0.917   4.542 -0.8615  0.5465 -0.5793
 7641SOL    HW234560   0.016   1.031   4.480 -1.2704  0.3199 -4.4794
 7642SOL     OW34561   1.221   0.340   8.766  0.4529 -0.0926 -0.6365
 7642SOL    HW134562   1.218   0.433   8.744  0.2827 -0.2708 -1.3480
 7642SOL    HW234563   1.291   0.335   8.832  1.4037 -0.6897 -1.6946
 7643SOL     OW34564   1.507   2.729  14.660 -0.0350 -0.2296  0.0409
 7643SOL    HW134565   1.596   2.734  14.696  0.0375  0.1074 -0.1921
 7643SOL    HW234566   1.456   2.725  14.741 -3.0134  1.3230 -1.7649
 7644SOL     OW34567   2.324   2.549   9.801 -0.0341 -0.1342  0.0635
 7644SOL    HW134568   2.323   2.453   9.800 -2.0224 -0.0992 -0.9725
 7644SOL    HW234569   2.390   2.567   9.868 -0.3277  0.2014  0.2646
 7645SOL     OW34570   3.859   1.971   2.118  0.2974  0.0820 -0.3744
 7645SOL    HW134571   3.935   2.029   2.115  0.0351  0.4723  0.5615
 7645SOL    HW234572   3.793   2.028   2.079 -0.4632  0.7394  1.8628
 7646SOL     OW34573   0.888   0.081   9.776 -0.0667 -0.4321  0.6300
 7646SOL    HW134574   0.853   0.018   9.840  0.9762  0.2760  1.9069
 7646SOL    HW234575   0.982   0.064   9.784 -0.3466 -1.3378  2.0045
 7647SOL     OW34576   0.386   2.247   9.249 -0.6800 -0.1249  0.4660
 7647SOL    HW134577   0.334   2.326   9.235  0.0936  0.3608  0.3274
 7647SOL    HW234578   0.464   2.272   9.298 -1.7866 -0.5083  2.4365
 7648SOL     OW34579   3.966   4.563   4.310  0.0146  0.4558 -0.2369
 7648SOL    HW134580   3.937   4.473   4.295 -1.1964  0.7899  0.0892
 7648SOL    HW234581   3.949   4.598   4.223  0.8186  1.5355  0.0286
 7649SOL     OW34582   4.226   3.104   8.195  0.4399  0.3509  0.8646
 7649SOL    HW134583   4.226   3.122   8.101  2.9641 -4.1989  0.0204
 7649SOL    HW234584   4.251   3.013   8.210  0.0308 -0.2404 -1.9279
 7650SOL     OW34585   2.816   0.898   4.973  0.0079 -0.5740  0.1767
 7650SOL    HW134586   2.857   0.982   4.990 -0.2119 -0.4391  0.0338
 7650SOL    HW234587   2.725   0.925   4.961  0.6329  0.3842 -2.3677
 7651SOL     OW34588   4.180   3.211   8.811  0.1052 -0.4912  0.2330
 7651SOL    HW134589   4.179   3.222   8.716  0.2377  2.6201  0.5997
 7651SOL    HW234590   4.262   3.252   8.837 -0.0129  0.4223 -0.8282
 7652SOL     OW34591   0.056   1.100   2.591 -0.1363 -0.5224  0.0434
 7652SOL    HW134592   4.703   1.090   2.554 -0.4600 -1.8575  1.1567
 7652SOL    HW234593   0.088   1.016   2.560 -1.0184 -0.6011 -0.6492
 7653SOL     OW34594   0.443   1.523   4.591  0.3272  0.0936 -0.1342
 7653SOL    HW134595   0.535   1.551   4.595  1.2033 -2.8125  0.1918
 7653SOL    HW234596   0.448   1.427   4.600 -0.1734  0.3399  2.9685
 7654SOL     OW34597   3.913   4.335  10.480  0.0653 -0.6658  0.0876
 7654SOL    HW134598   3.823   4.339  10.446 -0.4988 -1.2946  1.4981
 7654SOL    HW234599   3.918   4.241  10.496  0.0616 -0.7652 -0.5171
 7655SOL     OW34600   4.486   1.474   7.516 -0.2002 -0.0752  0.4519
 7655SOL    HW134601   4.573   1.509   7.493 -0.1813 -0.1779  0.3653
 7655SOL    HW234602   4.446   1.546   7.564 -0.5209 -0.4831  0.7927
 7656SOL     OW34603   1.617   3.558   8.614  0.3741 -0.1258  0.0661
 7656SOL    HW134604   1.610   3.624   8.545  1.1213 -0.8077 -0.6713
 7656SOL    HW234605   1.549   3.589   8.673  0.4119  0.6959 -0.3251
 7657SOL     OW34606   0.224   2.961  12.012  0.1431 -0.0066  0.0304
 7657SOL    HW134607   0.169   2.945  11.936 -0.0460  0.3547  0.0914
 7657SOL    HW234608   0.227   3.056  11.996  0.4928  0.0703  0.5311
 7658SOL     OW34609   3.095   2.755  14.705 -0.2443  0.1631 -0.3313
 7658SOL    HW134610   3.080   2.717  14.791 -2.3810  1.1277 -0.2920
 7658SOL    HW234611   3.184   2.788  14.720  0.1091 -0.7101 -0.5053
 7659SOL     OW34612   0.348   0.313   7.609 -0.1054 -0.3326  0.0962
 7659SOL    HW134613   0.387   0.337   7.693 -0.0337  0.5169 -0.1732
 7659SOL    HW234614   0.421   0.277   7.559  0.0460  1.1041 -0.7157
 7660SOL     OW34615   4.481   4.471  13.784 -0.3966 -0.2930  0.4579
 7660SOL    HW134616   4.416   4.541  13.792  0.6956  0.6673  0.8033
 7660SOL    HW234617   4.556   4.504  13.833 -0.5042  1.5642 -0.6549
 7661SOL     OW34618   2.860   0.079  13.141 -0.2960  0.3179  0.0621
 7661SOL    HW134619   2.890   0.041  13.223 -2.3607 -3.8958 -1.1337
 7661SOL    HW234620   2.875   0.172  13.158  0.0244  0.1431  0.7188
 7662SOL     OW34621   2.800   2.201   9.094  0.4211 -0.2781 -0.2035
 7662SOL    HW134622   2.814   2.107   9.099  0.0260 -0.2351  1.8904
 7662SOL    HW234623   2.750   2.228   9.171  0.9610  1.2117 -0.3794
 7663SOL     OW34624   1.987   0.316   6.720 -0.0008  0.0993 -0.8298
 7663SOL    HW134625   1.907   0.343   6.675 -0.8327 -0.1140  0.5118
 7663SOL    HW234626   2.038   0.397   6.716 -0.9724  0.7922  0.7914
 7664SOL     OW34627   2.583   3.792   3.755  0.3947 -0.2198 -0.1390
 7664SOL    HW134628   2.612   3.854   3.689  1.2720 -0.5097 -0.0266
 7664SOL    HW234629   2.505   3.759   3.711  0.6383  1.5429 -1.8739
 7665SOL     OW34630   3.527   3.589  14.770 -0.0607 -0.2678  0.4743
 7665SOL    HW134631   3.600   3.609  14.712  0.6989  0.3869  1.6636
 7665SOL    HW234632   3.505   3.504  14.733  2.7954 -0.8483  0.1508
 7666SOL     OW34633   2.659   4.341   8.868 -0.3202 -0.2296  0.4458
 7666SOL    HW134634   2.654   4.425   8.821  1.3158  0.2145  1.0610
 7666SOL    HW234635   2.580   4.295   8.842  0.3303 -0.8714 -0.4188
 7667SOL     OW34636   1.538   4.329  13.204  0.0592  0.3351 -0.1060
 7667SOL    HW134637   1.494   4.312  13.121 -0.8276  0.3634  0.3598
 7667SOL    HW234638   1.623   4.289  13.187  0.7017  1.5532  0.1958
 7668SOL     OW34639   0.541   1.590   6.346 -0.7093 -0.0344  0.2493
 7668SOL    HW134640   0.515   1.626   6.430  2.3067 -1.5935  1.8524
 7668SOL    HW234641   0.548   1.674   6.301  2.5045 -0.2454  0.3613
 7669SOL     OW34642   0.509   1.721   7.025  0.2929  0.2415  0.2696
 7669SOL    HW134643   0.459   1.643   7.001 -0.4258  0.1734  2.0369
 7669SOL    HW234644   0.483   1.794   6.970 -0.1316  0.8273  1.2483
 7670SOL     OW34645   1.134   3.221  11.275 -0.0046 -0.0010 -0.3780
 7670SOL    HW134646   1.112   3.304  11.234 -0.9863  0.2161  0.5894
 7670SOL    HW234647   1.055   3.212  11.328  0.9932 -0.0907  1.0975
 7671SOL     OW34648   3.976   3.144  14.377  0.5325 -0.3427 -0.1431
 7671SOL    HW134649   3.897   3.141  14.324 -0.9135 -3.1725  2.1831
 7671SOL    HW234650   3.941   3.169  14.462  1.3720 -0.3858  0.2188
 7672SOL     OW34651   0.620   1.936   4.993 -0.6355  0.6187 -0.0546
 7672SOL    HW134652   0.579   1.969   5.073 -0.7885  0.1045  0.0767
 7672SOL    HW234653   0.709   1.917   5.023  0.0598  1.6651 -1.4174
 7673SOL     OW34654   3.630   0.284   5.127  0.0098  0.1410  0.6472
 7673SOL    HW134655   3.646   0.368   5.171 -1.1171  0.5755  0.2427
 7673SOL    HW234656   3.656   0.216   5.189  0.3074 -0.7273 -0.4318
 7674SOL     OW34657   1.725   4.148   4.027 -0.0662  0.3810  0.4497
 7674SOL    HW134658   1.682   4.233   4.021 -2.3509 -0.8839 -1.0707
 7674SOL    HW234659   1.715   4.122   3.935  0.7116 -1.0412  0.7632
 7675SOL     OW34660   2.937   0.394   0.445 -0.1463  0.6465 -0.1502
 7675SOL    HW134661   2.942   0.422   0.353 -2.2853  0.6364 -0.2738
 7675SOL    HW234662   2.924   0.301   0.426  3.2578  0.0901  0.4037
 7676SOL     OW34663   2.830   0.230   4.529 -0.3366 -0.4617 -0.6262
 7676SOL    HW134664   2.881   0.289   4.585  1.3419 -0.0552 -2.6161
 7676SOL    HW234665   2.905   0.175   4.509 -0.1211 -0.4075  0.0309
 7677SOL     OW34666   3.224   1.330   9.199  0.0384  0.3323 -0.3278
 7677SOL    HW134667   3.272   1.413   9.196 -0.3049  0.5491  0.2145
 7677SOL    HW234668   3.200   1.327   9.106 -0.2483 -1.2110 -0.1959
 7678SOL     OW34669   0.370   0.457   6.517 -0.3771  0.0669  0.1997
 7678SOL    HW134670   0.354   0.372   6.558 -0.9462 -0.7649 -1.7540
 7678SOL    HW234671   0.392   0.518   6.588  0.0781 -1.4786  1.3909
 7679SOL     OW34672   2.035   0.203   8.404  0.5235  0.4933  0.0760
 7679SOL    HW134673   2.052   0.256   8.481 -0.4556 -0.1619  0.7451
 7679SOL    HW234674   2.035   0.272   8.338  1.0454  0.4677  0.0501
 7680SOL     OW34675   4.158   3.178   2.643  0.3276 -0.1359  0.1191
 7680SOL    HW134676   4.177   3.162   2.736  0.4017 -1.2003 -0.0761
 7680SOL    HW234677   4.122   3.090   2.629 -0.5200  0.4459 -1.2745
 7681SOL     OW34678   4.504   0.928   4.156  0.9746 -0.4670 -1.1382
 7681SOL    HW134679   4.504   0.869   4.081  1.0339 -0.1325 -1.3982
 7681SOL    HW234680   4.599   0.932   4.170  1.0399  3.0495 -2.4592
 7682SOL     OW34681   2.078   2.698   9.678  0.0013 -0.0950 -0.0948
 7682SOL    HW134682   2.110   2.696   9.768  0.9615  0.2552 -0.4328
 7682SOL    HW234683   2.144   2.647   9.632 -0.2835 -1.0461  0.5538
 7683SOL     OW34684   3.319   0.218   1.686  0.3290  0.0341  0.1488
 7683SOL    HW134685   3.276   0.226   1.771  1.2686  4.3595  0.2486
 7683SOL    HW234686   3.414   0.218   1.702  0.4198  0.9943 -0.3854
 7684SOL     OW34687   1.962   4.697   7.474 -0.1870 -0.0991  0.3312
 7684SOL    HW134688   1.869   4.674   7.478  0.0929 -1.3547 -0.4114
 7684SOL    HW234689   1.993   4.635   7.408 -0.4605  3.0830 -2.7708
 7685SOL     OW34690   2.648   2.623   6.521 -0.5080  0.2354 -0.0509
 7685SOL    HW134691   2.671   2.696   6.464 -0.5868  1.2223  1.1933
 7685SOL    HW234692   2.690   2.545   6.483 -0.3576  0.3582 -0.1347
 7686SOL     OW34693   0.556   2.635   8.933 -0.1551 -0.2546 -0.1175
 7686SOL    HW134694   0.575   2.612   8.842  0.0347 -1.0461  0.1241
 7686SOL    HW234695   0.516   2.549   8.949 -0.4800 -0.8302 -4.0591
 7687SOL     OW34696   2.229   4.635   3.790 -0.0135 -0.0789  0.0117
 7687SOL    HW134697   2.279   4.690   3.850  0.3992  1.5407 -1.8193
 7687SOL    HW234698   2.297   4.594   3.736 -0.0359 -1.1920  0.8196
 7688SOL     OW34699   1.757   0.010   5.261 -0.6153  0.3534 -0.5515
 7688SOL    HW134700   1.821   4.700   5.205 -0.6251  1.9115 -1.7647
 7688SOL    HW234701   1.808   0.050   5.331  1.3331  0.4766 -2.0384
 7689SOL     OW34702   3.632   3.337   4.998  0.2862 -0.6639 -0.3632
 7689SOL    HW134703   3.711   3.284   4.995  0.5337 -0.3426  0.5293
 7689SOL    HW234704   3.662   3.427   5.009  2.1507 -1.3289 -0.1551
 7690SOL     OW34705   1.124   1.406   2.891  0.2182 -0.0653 -0.2367
 7690SOL    HW134706   1.184   1.463   2.938  1.5482 -0.8050 -1.0465
 7690SOL    HW234707   1.147   1.324   2.934 -2.3598  0.0959  1.4781
 7691SOL     OW34708   2.339   1.511   2.586 -0.3031 -0.1824 -0.1273
 7691SOL    HW134709   2.298   1.526   2.671 -0.0939 -0.1451 -0.0342
 7691SOL    HW234710   2.410   1.456   2.617  0.2164  1.2211  1.1670
 7692SOL     OW34711   3.651   0.716   4.876 -0.5484 -0.3004 -0.2753
 7692SOL    HW134712   3.726   0.724   4.935 -1.2804  0.7202  0.5378
 7692SOL    HW234713   3.685   0.779   4.813 -0.8647  0.1326 -0.0149
 7693SOL     OW34714   2.916   1.038  15.007 -0.5176  0.7515 -0.4410
 7693SOL    HW134715   3.009   1.057  14.994  0.3028 -2.1053  1.2789
 7693SOL    HW234716   2.875   1.118  14.974 -0.0443  0.5191 -1.5838
 7694SOL     OW34717   2.962   3.059   6.001 -0.3117 -0.2307  0.1679
 7694SOL    HW134718   2.961   3.013   6.085 -1.4671  0.6179  0.6236
 7694SOL    HW234719   3.029   3.007   5.956  2.4362  1.3820  2.4565
 7695SOL     OW34720   2.763   1.879  11.439 -0.7503 -0.5279  0.3019
 7695SOL    HW134721   2.797   1.815  11.377  0.5663  1.8944 -1.4407
 7695SOL    HW234722   2.673   1.847  11.453 -1.5519  1.6390  0.0498
 7696SOL     OW34723   1.237   4.505   6.804 -0.1176  0.1355  0.0310
 7696SOL    HW134724   1.151   4.494   6.846  0.3101 -0.3555  0.7739
 7696SOL    HW234725   1.220   4.586   6.756  0.3758  0.9129  1.1591
 7697SOL     OW34726   3.136   0.593   1.840  0.0868  0.0890  0.1163
 7697SOL    HW134727   3.199   0.615   1.908 -0.0029  1.5519 -0.2769
 7697SOL    HW234728   3.095   0.510   1.864  0.2562 -0.0026  0.0887
 7698SOL     OW34729   3.135   2.829   4.652  0.2975  0.3553  0.3512
 7698SOL    HW134730   3.189   2.896   4.611  0.2672  0.2523  0.1410
 7698SOL    HW234731   3.059   2.822   4.594  0.0295  0.8854  0.6446
 7699SOL     OW34732   1.482   1.122   5.418  0.2765  0.3761  0.2735
 7699SOL    HW134733   1.386   1.122   5.415  0.3400  2.2699 -1.6567
 7699SOL    HW234734   1.485   1.027   5.414 -1.3628  0.1624  3.6681
 7700SOL     OW34735   2.180   3.361   5.151 -0.6433 -0.1848 -0.2933
 7700SOL    HW134736   2.239   3.289   5.170  1.7052  1.7057 -0.3368
 7700SOL    HW234737   2.163   3.354   5.057 -0.8877 -0.4782 -0.2256
 7701SOL     OW34738   3.666   2.072   9.745  0.1072  0.2475 -0.1414
 7701SOL    HW134739   3.703   2.155   9.716 -4.0928  2.5317  0.9688
 7701SOL    HW234740   3.578   2.072   9.708 -0.7168 -0.1884  1.7998
 7702SOL     OW34741   4.284   2.787  16.597 -0.2368  0.1570 -0.3240
 7702SOL    HW134742   4.375   2.776  16.624 -0.2851 -2.2986 -1.1758
 7702SOL    HW234743   4.238   2.719  16.646 -0.8239  0.3141 -0.6545
 7703SOL     OW34744   0.314   3.721   7.954 -0.4088 -0.4577 -0.6076
 7703SOL    HW134745   0.378   3.652   7.967 -0.5917 -0.0331  2.4582
 7703SOL    HW234746   0.245   3.697   8.015  0.3818 -3.6985 -1.0110
 7704SOL     OW34747   1.822   1.856   4.788 -0.4409  0.2747  0.1361
 7704SOL    HW134748   1.773   1.927   4.745  1.4577 -0.5330 -3.2699
 7704SOL    HW234749   1.764   1.783   4.767 -0.2067  0.4335 -1.0805
 7705SOL     OW34750   0.319   4.362   8.086  0.5101  0.0068  0.1304
 7705SOL    HW134751   0.296   4.274   8.116 -1.9993  0.2691 -1.0239
 7705SOL    HW234752   0.364   4.398   8.163  0.1620 -0.2077  0.4333
 7706SOL     OW34753   4.170   0.381   8.666  0.0977 -0.4639 -0.6448
 7706SOL    HW134754   4.128   0.463   8.640 -1.4529 -1.2044 -0.5019
 7706SOL    HW234755   4.198   0.406   8.754  0.0813 -0.7567 -0.5571
 7707SOL     OW34756   1.674   1.360  12.472  0.3052  0.0966  0.3808
 7707SOL    HW134757   1.674   1.265  12.487 -2.3662  0.3129  1.7065
 7707SOL    HW234758   1.733   1.395  12.538  1.1574 -0.5825 -0.0122
 7708SOL     OW34759   1.000   3.167  16.807 -0.3984  0.6239  0.1509
 7708SOL    HW134760   0.916   3.181  16.850 -0.2339  4.6628 -0.9067
 7708SOL    HW234761   0.975   3.134  16.721 -0.2367  1.5058 -0.2293
 7709SOL     OW34762   4.206   2.757  14.644 -0.0002  0.5696  0.0784
 7709SOL    HW134763   4.117   2.753  14.680 -0.6463 -0.7800 -1.6565
 7709SOL    HW234764   4.187   2.806  14.564 -1.6955 -0.3295 -0.0698
 7710SOL     OW34765   3.881   2.130   3.771  0.2746 -0.0637 -0.3152
 7710SOL    HW134766   3.976   2.134   3.757  0.2565 -3.2143 -1.3488
 7710SOL    HW234767   3.854   2.186   3.699 -3.9263  1.1107  2.1445
 7711SOL     OW34768   1.270   3.654   6.430 -0.2407  0.3599  0.3436
 7711SOL    HW134769   1.346   3.634   6.375 -0.0672 -4.0616  2.2407
 7711SOL    HW234770   1.225   3.720   6.377 -0.4241 -0.7378 -0.8767
 7712SOL     OW34771   3.576   3.216   5.550 -0.1485 -0.0164 -0.4076
 7712SOL    HW134772   3.646   3.186   5.608 -0.3325 -0.9649 -0.6868
 7712SOL    HW234773   3.506   3.152   5.559  1.9655 -2.1417  1.1759
 7713SOL     OW34774   3.524   2.507   4.970  0.1288  0.1126 -0.0219
 7713SOL    HW134775   3.493   2.453   4.898 -0.4307  0.3210  0.0626
 7713SOL    HW234776   3.444   2.525   5.020 -1.5390 -0.0847 -2.6213
 7714SOL     OW34777   4.178   1.431   5.374 -0.3713  0.4001  0.5100
 7714SOL    HW134778   4.150   1.384   5.453  0.7322 -0.6652  0.2631
 7714SOL    HW234779   4.224   1.509   5.405  0.5628  0.7162 -1.7010
 7715SOL     OW34780   3.581   0.050   4.248 -0.5327 -0.6775  0.6645
 7715SOL    HW134781   3.492   0.061   4.282 -0.1666 -0.2634  1.5035
 7715SOL    HW234782   3.596   0.140   4.218 -1.4654  0.0357  2.3089
 7716SOL     OW34783   4.174   1.314   3.325 -0.2822 -0.0802  0.1541
 7716SOL    HW134784   4.203   1.403   3.306  0.2910  0.0725  1.7875
 7716SOL    HW234785   4.106   1.330   3.390 -0.8148  0.0036 -0.4170
 7717SOL     OW34786   2.399   1.174   0.705  0.0229 -0.1811 -0.3020
 7717SOL    HW134787   2.310   1.203   0.685  0.6803  2.9815  1.3315
 7717SOL    HW234788   2.405   1.202   0.796  1.5519 -1.3758 -0.0301
 7718SOL     OW34789   2.713   4.173   4.742  0.1317  0.6109 -0.1321
 7718SOL    HW134790   2.677   4.185   4.655  1.1705 -0.5025 -0.7130
 7718SOL    HW234791   2.801   4.211   4.748  0.3989  0.2371 -1.7948
 7719SOL     OW34792   3.150   2.392   0.786  0.0457 -0.0966  0.1297
 7719SOL    HW134793   3.242   2.415   0.772 -0.1883  0.9061  0.2355
 7719SOL    HW234794   3.121   2.429   0.869  0.4492  0.6485 -0.0634
 7720SOL     OW34795   3.046   1.845   8.527  0.2928 -0.2977  0.0030
 7720SOL    HW134796   3.103   1.770   8.540 -1.2992 -1.6472 -0.7977
 7720SOL    HW234797   2.973   1.805   8.574 -0.6278  0.2548 -0.9679
 7721SOL     OW34798   4.385   0.805   3.185  0.3136 -0.1160 -0.2466
 7721SOL    HW134799   4.326   0.733   3.207  0.1621 -0.2939 -1.2012
 7721SOL    HW234800   4.465   0.791   3.236  0.0407  0.5652  0.3561
 7722SOL     OW34801   3.491   0.532   5.493 -0.4448  0.3537 -0.2416
 7722SOL    HW134802   3.544   0.600   5.535  1.6120 -0.5143 -1.4507
 7722SOL    HW234803   3.420   0.523   5.557  0.4335  0.1122  0.6960
 7723SOL     OW34804   2.862   1.951   9.153 -0.2349 -0.4102  0.0564
 7723SOL    HW134805   2.915   1.874   9.170 -0.0047  0.0296  1.3523
 7723SOL    HW234806   2.805   1.936   9.229 -0.5816 -2.7155 -0.6473
 7724SOL     OW34807   1.048   1.713  12.177  0.1270  0.8255  0.0656
 7724SOL    HW134808   0.960   1.720  12.140  0.3205 -0.8084 -0.7125
 7724SOL    HW234809   1.092   1.795  12.151 -0.2596  0.3892 -1.9921
 7725SOL     OW34810   3.625   1.055   5.017 -0.2908 -0.6385  0.2583
 7725SOL    HW134811   3.564   1.007   4.961 -1.1223 -1.2944  1.7244
 7725SOL    HW234812   3.693   1.083   4.955  0.5045 -3.3144 -0.0696
 7726SOL     OW34813   0.128   0.127   7.578  0.5194  0.1936 -0.4253
 7726SOL    HW134814   0.181   0.204   7.600 -0.8659  0.7790  0.8076
 7726SOL    HW234815   0.160   0.058   7.635 -1.2554 -0.9025 -0.7638
 7727SOL     OW34816   3.621   0.165   7.459  0.1108 -0.4912  0.1025
 7727SOL    HW134817   3.640   0.078   7.495  0.8019 -0.8880 -1.2540
 7727SOL    HW234818   3.589   0.215   7.535  0.9697 -0.4679  0.4413
 7728SOL     OW34819   3.988   0.074  13.015  0.0967  0.0483 -0.2504
 7728SOL    HW134820   3.994   0.169  13.004 -0.3371  0.1690  0.5621
 7728SOL    HW234821   3.995   0.044  12.925  1.2214 -0.7997  0.1220
 7729SOL     OW34822   1.089   3.528   9.092 -0.2944 -0.0296 -0.2927
 7729SOL    HW134823   0.995   3.547   9.100 -0.9855 -3.5131 -0.4808
 7729SOL    HW234824   1.130   3.597   9.146  0.4469 -0.9400  0.3012
 7730SOL     OW34825   1.146   1.958   7.823  0.4431 -0.0030 -0.1088
 7730SOL    HW134826   1.115   1.967   7.733  0.6239  0.0364 -0.1689
 7730SOL    HW234827   1.214   2.025   7.834 -0.8078  1.4025 -0.9251
 7731SOL     OW34828   2.189   3.824  12.141  0.5665  0.5044  0.0330
 7731SOL    HW134829   2.205   3.825  12.047  1.3184  1.8354  0.1752
 7731SOL    HW234830   2.269   3.778  12.166  0.3696  0.4843  0.6301
 7732SOL     OW34831   1.861   1.810   9.375 -0.2990 -0.3666  0.2344
 7732SOL    HW134832   1.949   1.847   9.370 -1.4703  2.2601 -1.2422
 7732SOL    HW234833   1.822   1.897   9.379  1.4987  0.3800  1.3623
 7733SOL     OW34834   2.478   1.610  13.500 -0.2075  0.3689  0.1565
 7733SOL    HW134835   2.525   1.669  13.441 -1.7622  0.8641 -0.5930
 7733SOL    HW234836   2.389   1.645  13.496 -0.1636  0.6160  1.4496
 7734SOL     OW34837   4.145   1.656  17.247 -0.2829 -0.6803 -0.0912
 7734SOL    HW134838   4.191   1.712  17.183 -2.0193  1.6028  0.6430
 7734SOL    HW234839   4.132   1.713  17.322 -0.8228 -0.5021 -0.3142
 7735SOL     OW34840   0.683   3.396   2.906 -0.0186  0.1627  0.1017
 7735SOL    HW134841   0.699   3.454   2.981  0.1340  1.4622 -0.9471
 7735SOL    HW234842   0.626   3.334   2.952 -0.8102 -1.6573 -3.3927
 7736SOL     OW34843   0.653   2.347  15.526 -0.8592  0.0655 -0.0752
 7736SOL    HW134844   0.719   2.407  15.562  1.5428 -1.4383 -2.0626
 7736SOL    HW234845   0.579   2.404  15.547  0.3270  0.9410  1.7662
 7737SOL     OW34846   2.345   4.491   0.527 -0.1579 -0.0501  0.5449
 7737SOL    HW134847   2.267   4.511   0.474 -0.6239 -2.1180  0.4609
 7737SOL    HW234848   2.318   4.426   0.592 -1.1701  3.1162  3.2520
 7738SOL     OW34849   2.960   2.521   5.952 -0.3521 -0.2752  0.3934
 7738SOL    HW134850   2.882   2.474   5.925 -0.6629  0.6534 -0.3401
 7738SOL    HW234851   3.040   2.469   5.946  1.5564  2.6385  0.1659
 7739SOL     OW34852   1.693   1.819   3.996  0.5253  0.0936 -0.4887
 7739SOL    HW134853   1.679   1.805   4.090  2.4020 -3.6318 -0.7702
 7739SOL    HW234854   1.788   1.806   4.001  0.2974 -0.5173  2.1841
 7740SOL     OW34855   0.177   1.624   8.926  0.4168  0.8364 -0.6927
 7740SOL    HW134856   0.198   1.540   8.885  0.9565  1.0085 -0.7613
 7740SOL    HW234857   0.266   1.638   8.957 -0.2039  2.6620  0.2688
 7741SOL     OW34858   3.092   1.172   0.766  0.0036 -0.3966 -0.3469
 7741SOL    HW134859   3.188   1.165   0.765  0.1251  1.0125  1.2403
 7741SOL    HW234860   3.076   1.103   0.831 -0.8200  1.1696  1.1076
 7742SOL     OW34861   2.658   2.119   3.491  0.5771 -0.0294  0.2821
 7742SOL    HW134862   2.725   2.141   3.556  1.4230  0.2092 -0.6813
 7742SOL    HW234863   2.602   2.056   3.536  1.5327 -1.6865 -0.8749
 7743SOL     OW34864   4.141   3.787   3.648  0.2038  0.5595  0.2384
 7743SOL    HW134865   4.160   3.810   3.557  0.2411  0.4959  0.2301
 7743SOL    HW234866   4.198   3.851   3.689  2.3112 -0.1039 -1.6680
 7744SOL     OW34867   3.645   0.922  15.790  0.0888 -0.3220  0.0828
 7744SOL    HW134868   3.591   0.869  15.732 -0.6102  1.3900 -0.8355
 7744SOL    HW234869   3.614   1.008  15.762  0.9010 -0.5826 -1.6380
 7745SOL     OW34870   3.558   3.187   3.756  0.3339  0.0288 -0.2610
 7745SOL    HW134871   3.527   3.157   3.841 -3.7577 -0.1900 -1.8351
 7745SOL    HW234872   3.596   3.102   3.733  1.1125  0.5746 -0.9781
 7746SOL     OW34873   1.408   3.556   1.278 -0.4148  0.1480 -0.1050
 7746SOL    HW134874   1.496   3.591   1.264  0.0004 -0.0851  1.9264
 7746SOL    HW234875   1.420   3.523   1.367 -0.1122 -0.7227 -0.4603
 7747SOL     OW34876   3.445   1.804   1.069 -0.7722 -0.1414  0.2769
 7747SOL    HW134877   3.373   1.859   1.039 -1.9811 -0.5791  2.3539
 7747SOL    HW234878   3.517   1.837   1.015  0.4575 -1.2692  1.2038
 7748SOL     OW34879   2.760   3.705  14.697  0.2598 -0.4249  0.2542
 7748SOL    HW134880   2.709   3.746  14.767 -0.1510 -2.5504  1.2020
 7748SOL    HW234881   2.733   3.737  14.611 -0.1359 -1.4979 -0.0276
 7749SOL     OW34882   3.918   1.994   2.653 -0.1056 -0.3282  0.5132
 7749SOL    HW134883   3.936   2.045   2.574  2.6228 -2.9676 -0.5566
 7749SOL    HW234884   3.854   1.926   2.631 -0.4524 -0.4027  1.7798
 7750SOL     OW34885   0.560   2.216   5.785 -0.3488 -0.4594  0.1402
 7750SOL    HW134886   0.644   2.174   5.765 -0.8698 -1.2892 -0.3224
 7750SOL    HW234887   0.580   2.298   5.831 -0.9475  0.7427 -1.7371
 7751SOL     OW34888   0.083   1.474   5.281  0.1548  0.0965 -0.8027
 7751SOL    HW134889   0.163   1.430   5.251  0.8431  0.2712  0.7713
 7751SOL    HW234890   0.052   1.427   5.359  0.6881  1.5894  0.3050
 7752SOL     OW34891   1.701   1.240   4.132  0.2722 -0.2445  0.5596
 7752SOL    HW134892   1.793   1.216   4.133 -0.3978 -2.8149  0.6317
 7752SOL    HW234893   1.668   1.151   4.147 -1.9366  0.3099 -0.8840
 7753SOL     OW34894   3.084   3.612  17.243  0.7526 -0.1700  0.4463
 7753SOL    HW134895   3.091   3.643  17.333 -3.3228 -0.8377  1.0055
 7753SOL    HW234896   2.989   3.600  17.235  0.9807 -0.2369 -2.4332
 7754SOL     OW34897   2.093   0.364  16.643  0.0923  0.3712 -0.1073
 7754SOL    HW134898   2.133   0.351  16.729  0.8201 -0.3476 -0.5433
 7754SOL    HW234899   2.101   0.277  16.603  1.3341  0.0272  0.8998
 7755SOL     OW34900   3.416   4.015   2.631  0.3132 -0.9698  0.4181
 7755SOL    HW134901   3.387   3.949   2.567 -0.7843  0.5655 -0.6526
 7755SOL    HW234902   3.381   3.985   2.715 -0.5737 -3.5548 -0.8746
 7756SOL     OW34903   4.327   2.046  17.142  0.0360 -0.7469 -1.0747
 7756SOL    HW134904   4.345   2.097  17.063 -0.5636  0.5882 -0.3402
 7756SOL    HW234905   4.308   1.964  17.097 -1.1086 -0.4412 -1.1489
 7757SOL     OW34906   2.742   2.178   4.602 -0.4543  0.0281 -0.1252
 7757SOL    HW134907   2.663   2.123   4.607 -0.4544  0.1216  1.0237
 7757SOL    HW234908   2.816   2.130   4.641  0.2228  0.9236 -0.3099
 7758SOL     OW34909   2.215   4.308   6.333 -0.4700  0.7517 -0.3715
 7758SOL    HW134910   2.300   4.339   6.301 -1.2745  1.3298 -1.9428
 7758SOL    HW234911   2.204   4.231   6.277  1.2280  1.4365 -1.6627
 7759SOL     OW34912   4.563   0.653   5.338 -0.2927  0.6045  0.2329
 7759SOL    HW134913   4.513   0.586   5.385 -0.4544  0.2777 -0.3983
 7759SOL    HW234914   4.489   0.711   5.321 -0.3050  0.6122  0.3134
 7760SOL     OW34915   4.623   2.928   3.148  0.0087  0.5802  0.6440
 7760SOL    HW134916   4.686   2.873   3.102 -1.6998  0.0384 -1.0426
 7760SOL    HW234917   4.543   2.900   3.104  0.6576  0.1922 -0.2898
 7761SOL     OW34918   0.382   3.179   7.417 -0.0547  0.4886  0.1606
 7761SOL    HW134919   0.327   3.200   7.342  1.3633 -0.6264 -1.1884
 7761SOL    HW234920   0.464   3.220   7.389  0.4055 -2.0403 -2.1986
 7762SOL     OW34921   0.929   0.987   8.192  0.3353  0.1832 -0.0482
 7762SOL    HW134922   0.855   1.046   8.206  0.8254  0.9033 -0.4988
 7762SOL    HW234923   0.949   0.977   8.285 -0.7247 -1.1628  0.0397
 7763SOL     OW34924   2.282   3.190  10.633 -0.2395 -0.2425 -0.2363
 7763SOL    HW134925   2.299   3.097  10.644 -2.1380 -0.7137 -1.3161
 7763SOL    HW234926   2.188   3.203  10.623  0.2504  1.2294 -2.9460
 7764SOL     OW34927   3.666   2.320   5.947  0.7669  0.0998 -0.0213
 7764SOL    HW134928   3.760   2.339   5.945  0.7483  0.0707 -1.2444
 7764SOL    HW234929   3.636   2.402   5.985 -3.3127 -0.9847 -0.9095
 7765SOL     OW34930   0.582   0.719   2.043 -0.4187 -0.0388 -0.3550
 7765SOL    HW134931   0.570   0.808   2.076 -1.7112 -0.1607 -0.4938
 7765SOL    HW234932   0.587   0.748   1.952 -2.0826 -3.0125 -1.4094
 7766SOL     OW34933   0.859   3.446  17.594  0.4933 -0.0563 -0.0105
 7766SOL    HW134934   0.916   3.375  17.564 -0.1494  0.3051 -2.0437
 7766SOL    HW234935   0.908   3.478  17.670 -0.7828  0.4855  0.5925
 7767SOL     OW34936   3.681   2.074   1.932 -0.1576 -0.6617 -0.3649
 7767SOL    HW134937   3.617   2.129   1.977 -0.8394 -1.5585 -0.2492
 7767SOL    HW234938   3.693   2.116   1.847  0.9902 -1.6047 -0.6716
 7768SOL     OW34939   2.258   4.159   7.660  0.3129  0.1837  0.2395
 7768SOL    HW134940   2.342   4.143   7.702 -0.4641  1.1413  2.1525
 7768SOL    HW234941   2.209   4.183   7.739  2.3005 -0.9542  1.7877
 7769SOL     OW34942   4.196   4.691   0.568 -0.0460  0.2394  0.5176
 7769SOL    HW134943   4.230   4.639   0.641 -2.2270 -0.6107  0.9398
 7769SOL    HW234944   4.253   4.669   0.494  0.4170 -1.7727  1.4913
 7770SOL     OW34945   3.770   2.610   5.065 -0.1051 -0.3559 -0.2423
 7770SOL    HW134946   3.768   2.695   5.022 -0.7248 -0.5106 -0.5300
 7770SOL    HW234947   3.694   2.582   5.013  0.2511 -0.8119 -0.5230
 7771SOL     OW34948   2.055   4.639  14.476 -0.1313 -0.3299  0.1813
 7771SOL    HW134949   2.065   4.703  14.547  1.0175  1.8591 -1.9426
 7771SOL    HW234950   2.113   4.661  14.403 -1.0043  3.0442  0.5255
 7772SOL     OW34951   2.701   2.312   2.131  0.5061 -0.3660  0.3858
 7772SOL    HW134952   2.752   2.324   2.050  0.6408 -2.0759  0.2356
 7772SOL    HW234953   2.613   2.319   2.095  1.6327 -2.0351 -2.7007
 7773SOL     OW34954   3.115   0.968   5.593 -0.1610  0.6983 -0.0058
 7773SOL    HW134955   3.085   0.878   5.600 -0.2645  0.5896 -1.7965
 7773SOL    HW234956   3.132   0.986   5.685  0.5479 -1.0623  0.2029
 7774SOL     OW34957   1.454   2.463   5.396 -0.1363 -0.3625  0.3220
 7774SOL    HW134958   1.446   2.437   5.304  0.1151 -0.4458  0.3223
 7774SOL    HW234959   1.368   2.499   5.414 -0.9266 -1.0221 -2.1093
 7775SOL     OW34960   0.929   4.073   3.990 -0.0376  0.7169 -0.1429
 7775SOL    HW134961   0.902   4.040   3.904  1.2755  0.4987 -0.4767
 7775SOL    HW234962   1.021   4.048   3.993  0.1823  1.4098 -1.0673
 7776SOL     OW34963   4.296   1.177   0.729 -0.0610 -0.2230  0.6251
 7776SOL    HW134964   4.277   1.237   0.802 -2.5674 -2.2262  1.6187
 7776SOL    HW234965   4.237   1.102   0.735 -1.4529  1.0300  2.4851
 7777SOL     OW34966   1.231   2.282   0.452  0.6097  0.1086 -0.7487
 7777SOL    HW134967   1.185   2.201   0.472 -3.2361  2.1854 -1.1185
 7777SOL    HW234968   1.177   2.357   0.475 -0.8692 -1.2941  0.3356
 7778SOL     OW34969   3.904   0.267  17.667  0.3896 -0.5771  0.7805
 7778SOL    HW134970   3.997   0.260  17.643  0.0574 -0.0086 -0.6469
 7778SOL    HW234971   3.863   0.270  17.581  3.1142 -1.3273 -0.5700
 7779SOL     OW34972   4.296   4.688   9.965 -0.5668  0.2309 -0.1466
 7779SOL    HW134973   4.288   4.648  10.052 -1.4362  0.2992 -0.1921
 7779SOL    HW234974   4.391   4.696   9.968 -0.7186  1.7022  1.0056
 7780SOL     OW34975   4.147   0.601   4.533  0.2063 -0.5095 -0.2741
 7780SOL    HW134976   4.090   0.551   4.591 -2.4536 -0.7369 -3.0287
 7780SOL    HW234977   4.140   0.548   4.453  1.3793 -2.1217  0.6996
 7781SOL     OW34978   3.853   4.540   5.326 -0.2308  0.0667 -0.2651
 7781SOL    HW134979   3.927   4.594   5.300 -1.0262 -0.1327 -2.8621
 7781SOL    HW234980   3.833   4.576   5.413  0.9761 -1.4793  0.6650
 7782SOL     OW34981   4.147   3.959   8.723  0.2821 -0.3699 -0.5698
 7782SOL    HW134982   4.111   3.888   8.777  0.2937 -0.2116 -0.3523
 7782SOL    HW234983   4.064   3.981   8.682 -0.1956  1.4429  1.3521
 7783SOL     OW34984   0.752   1.013  17.444 -0.1825 -0.1928 -0.8725
 7783SOL    HW134985   0.794   1.043  17.524 -1.9016 -1.3382  0.4691
 7783SOL    HW234986   0.765   1.093  17.391 -0.4902  1.7256  1.9651
 7784SOL     OW34987   1.038   4.003   0.177 -0.0292 -0.0734  0.2287
 7784SOL    HW134988   1.113   3.978   0.123  0.8556 -0.5892  1.6903
 7784SOL    HW234989   0.968   3.996   0.111 -0.8114 -0.0725  1.0609
 7785SOL     OW34990   2.558   0.749   5.891  0.2970  0.4112 -0.5979
 7785SOL    HW134991   2.634   0.750   5.949  0.8578  1.0926 -1.3482
 7785SOL    HW234992   2.584   0.792   5.810  2.6559  0.3292  0.1076
 7786SOL     OW34993   1.796   2.147   8.182  0.1424  0.2639 -0.2175
 7786SOL    HW134994   1.860   2.102   8.237 -1.3581 -0.7409  0.7102
 7786SOL    HW234995   1.755   2.208   8.244 -0.5303 -1.8438  1.4283
 7787SOL     OW34996   2.081   4.304   9.370 -0.4035 -0.0743 -0.6311
 7787SOL    HW134997   2.019   4.312   9.298 -1.8697 -0.7586  0.5452
 7787SOL    HW234998   2.079   4.397   9.394  1.4816  0.1224 -1.2202
 7788SOL     OW34999   0.369   0.367   5.751 -0.6390  0.1372  0.1758
 7788SOL    HW135000   0.283   0.328   5.767 -0.9210  0.6417 -0.1341
 7788SOL    HW235001   0.418   0.312   5.812  0.1917  0.5339 -0.1367
 7789SOL     OW35002   3.357   2.046   3.596 -0.2937 -0.0618 -0.3171
 7789SOL    HW135003   3.435   2.040   3.652 -1.6629 -0.7705  1.5076
 7789SOL    HW235004   3.319   1.958   3.600 -1.1505  0.3485  0.4345
 7790SOL     OW35005   1.357   4.332   2.454  0.8954  0.2395  0.3667
 7790SOL    HW135006   1.421   4.276   2.497 -0.9734 -1.1764  1.3045
 7790SOL    HW235007   1.409   4.374   2.385  0.9730  1.0674  0.9257
 7791SOL     OW35008   1.576   3.131  11.753 -0.4260  0.2031 -0.2790
 7791SOL    HW135009   1.514   3.082  11.700 -0.6455 -0.5470  0.6646
 7791SOL    HW235010   1.554   3.107  11.843 -0.1574  0.1037 -0.2386
 7792SOL     OW35011   0.185   1.704   1.706  0.3276 -0.0015 -0.1164
 7792SOL    HW135012   0.193   1.612   1.727  1.2183  0.3357  0.9941
 7792SOL    HW235013   0.190   1.740   1.794 -0.1396 -2.2058  0.8008
 7793SOL     OW35014   4.313   0.662   5.161  0.1431  0.2579 -0.0918
 7793SOL    HW135015   4.227   0.665   5.119  0.7482  2.4574 -1.2053
 7793SOL    HW235016   4.346   0.578   5.131  0.1946  0.5014 -0.7350
 7794SOL     OW35017   0.557   1.861  12.708  0.2894  0.1615 -0.2155
 7794SOL    HW135018   0.469   1.892  12.689  0.5816 -0.1105 -2.0253
 7794SOL    HW235019   0.604   1.861  12.624  0.3604  1.1760 -0.1799
 7795SOL     OW35020   0.438   3.232   6.601 -0.1782 -0.6869 -0.6289
 7795SOL    HW135021   0.497   3.220   6.528  0.9390  1.1255 -0.0260
 7795SOL    HW235022   0.395   3.317   6.591 -0.5117 -0.3296  3.7480
 7796SOL     OW35023   4.545   1.192  10.576  1.1492 -0.2498  0.1064
 7796SOL    HW135024   4.535   1.265  10.514  0.1631 -0.9090 -0.5176
 7796SOL    HW235025   4.526   1.228  10.662  1.4604  1.2084 -0.4332
 7797SOL     OW35026   2.645   4.269  10.220 -0.3466 -0.2400 -0.7227
 7797SOL    HW135027   2.631   4.184  10.262 -0.2931  0.6610  1.1076
 7797SOL    HW235028   2.719   4.296  10.274 -0.2426 -2.6754  0.3226
 7798SOL     OW35029   0.468   1.501  10.877  0.4713  0.5217 -0.1331
 7798SOL    HW135030   0.536   1.537  10.933  0.9448  0.3722 -0.6129
 7798SOL    HW235031   0.444   1.415  10.911  0.0652 -0.0611 -1.8735
 7799SOL     OW35032   0.470   3.117   8.901  0.0359 -0.3012  0.0760
 7799SOL    HW135033   0.532   3.129   8.829 -2.0570  0.8767 -1.5222
 7799SOL    HW235034   0.496   3.189   8.958  0.7287 -0.7741  0.3613
 7800SOL     OW35035   3.452   4.438   4.631 -0.7149 -0.4589  0.2591
 7800SOL    HW135036   3.440   4.530   4.655 -2.5340 -0.5247 -0.3780
 7800SOL    HW235037   3.407   4.397   4.705  1.3884 -1.8516  0.7672
 7801SOL     OW35038   3.648   1.838   6.690 -0.3274  0.0937  0.0303
 7801SOL    HW135039   3.716   1.771   6.682 -1.5490 -1.0933 -0.3948
 7801SOL    HW235040   3.572   1.802   6.645 -0.8524  0.4153  0.6566
 7802SOL     OW35041   3.573   0.827   9.430  0.1363  0.3419  0.1948
 7802SOL    HW135042   3.628   0.763   9.385  0.8525  0.4301  0.9493
 7802SOL    HW235043   3.633   0.902   9.436  1.2238 -0.5392  0.3791
 7803SOL     OW35044   3.209   0.901   9.748 -0.1216 -0.3623 -0.0399
 7803SOL    HW135045   3.193   0.808   9.730 -3.7640  0.2158  0.1976
 7803SOL    HW235046   3.158   0.911   9.828 -0.9643  0.8135 -0.7252
 7804SOL     OW35047   3.948   4.467   8.469  0.7073 -0.3060 -0.6513
 7804SOL    HW135048   3.868   4.518   8.480  1.7179  1.6015 -2.3299
 7804SOL    HW235049   3.912   4.378   8.465  0.9183 -0.3760 -1.0021
 7805SOL     OW35050   0.348   2.111  16.742 -0.1252  0.1561  0.2899
 7805SOL    HW135051   0.375   2.068  16.661  0.7401  2.4942 -0.6712
 7805SOL    HW235052   0.435   2.118  16.782  0.4539 -0.9501 -0.7860
 7806SOL     OW35053   0.499   2.839  12.598  0.0431  0.6470 -0.5732
 7806SOL    HW135054   0.485   2.905  12.665 -0.0502  0.7494 -0.6925
 7806SOL    HW235055   0.415   2.839  12.552  0.5527 -0.1582 -1.5161
 7807SOL     OW35056   1.503   3.104  10.902 -0.1811  0.1080 -0.6720
 7807SOL    HW135057   1.420   3.060  10.885 -0.2620  0.1534 -0.4046
 7807SOL    HW235058   1.506   3.099  10.998 -2.1226 -0.1433 -0.6368
 7808SOL     OW35059   2.909   3.565   5.752 -0.1686  0.1495  0.1865
 7808SOL    HW135060   2.947   3.479   5.732 -0.4314 -0.0754  0.6365
 7808SOL    HW235061   2.840   3.549   5.817  1.3945  0.4265  1.9359
 7809SOL     OW35062   4.550   0.994   9.801  0.6750  0.4856 -0.3993
 7809SOL    HW135063   4.539   0.920   9.741  0.2607  0.3567 -0.1631
 7809SOL    HW235064   4.461   1.030   9.800  0.1930 -0.7309 -1.6520
 7810SOL     OW35065   3.534   2.271   5.131  0.7189  0.7471 -0.8318
 7810SOL    HW135066   3.493   2.187   5.109  2.0911  0.3100 -1.7199
 7810SOL    HW235067   3.524   2.321   5.050 -0.1103 -1.7570 -2.2775
 7811SOL     OW35068   3.894   2.180   3.009  0.0686  0.6644 -0.1875
 7811SOL    HW135069   3.952   2.220   2.945  0.8682  1.3032  0.9278
 7811SOL    HW235070   3.827   2.136   2.956 -0.5371 -0.8567  1.8274
 7812SOL     OW35071   0.893   3.041   6.563 -0.1114  0.5502 -0.1859
 7812SOL    HW135072   0.824   3.062   6.625 -3.0989 -0.2603 -3.2638
 7812SOL    HW235073   0.868   2.954   6.532  0.9657 -0.7253  2.5322
 7813SOL     OW35074   2.104   3.994   4.696  0.2729 -0.1968  0.1306
 7813SOL    HW135075   2.196   4.019   4.700  0.6479 -1.9406  2.6137
 7813SOL    HW235076   2.081   4.036   4.613 -1.1428  0.0381  0.6419
 7814SOL     OW35077   1.029   4.322   6.503  0.3770  0.1405  0.5402
 7814SOL    HW135078   0.998   4.324   6.594 -0.9895 -1.1466  0.0993
 7814SOL    HW235079   0.978   4.394   6.466 -0.1001 -1.5308 -2.0082
 7815SOL     OW35080   3.984   3.267   8.164  0.1249 -0.0638  0.7806
 7815SOL    HW135081   4.063   3.255   8.217  0.6213 -0.7328 -0.0990
 7815SOL    HW235082   3.946   3.179   8.176  2.3011 -0.8537  1.9782
 7816SOL     OW35083   4.023   1.167  17.253  0.4743  0.6506  0.0584
 7816SOL    HW135084   4.066   1.249  17.278 -1.5959  1.9788 -0.7206
 7816SOL    HW235085   4.024   1.122  17.337 -1.1517  1.8578  0.7274
 7817SOL     OW35086   3.546   3.723   7.089  0.1790  0.2025 -0.7631
 7817SOL    HW135087   3.582   3.795   7.141  0.2917  0.2948 -0.9685
 7817SOL    HW235088   3.593   3.733   7.006 -1.2543 -0.2889 -1.6378
 7818SOL     OW35089   1.517   1.318   4.370  0.0796  0.0660 -0.2514
 7818SOL    HW135090   1.606   1.312   4.335 -0.1163  0.8511 -0.8801
 7818SOL    HW235091   1.483   1.233   4.345 -0.2355 -0.2880  1.3593
 7819SOL     OW35092   2.968   4.398   3.477  0.0459  0.0128 -0.2285
 7819SOL    HW135093   2.900   4.466   3.477  0.3610  0.3298  0.2560
 7819SOL    HW235094   2.953   4.360   3.391 -1.5363  2.6261 -1.1135
 7820SOL     OW35095   0.421   2.407   9.560  0.1167  0.4174 -0.1231
 7820SOL    HW135096   0.469   2.354   9.496  0.1667  0.1941  0.1015
 7820SOL    HW235097   0.333   2.368   9.558  0.6674 -0.7888 -1.2565
 7821SOL     OW35098   1.636   0.422  13.984  0.7266 -0.1643  0.2328
 7821SOL    HW135099   1.634   0.383  14.071  0.1820 -1.4641 -0.3534
 7821SOL    HW235100   1.575   0.360  13.943  0.3069  0.5215 -0.1863
 7822SOL     OW35101   0.418   0.254   7.974  0.3112  0.4030  0.2461
 7822SOL    HW135102   0.326   0.279   7.975 -0.7352 -3.3230 -1.4012
 7822SOL    HW235103   0.450   0.340   7.944  0.6516 -0.0991 -0.8514
 7823SOL     OW35104   4.397   3.306   2.098  0.5467  0.1837 -0.1187
 7823SOL    HW135105   4.369   3.254   2.023 -5.0161  2.0071  0.6430
 7823SOL    HW235106   4.312   3.333   2.134  1.3361  1.9073  0.4451
 7824SOL     OW35107   0.754   3.722   9.530  0.0578 -0.4479 -0.5077
 7824SOL    HW135108   0.788   3.642   9.490  0.1595 -0.8659  0.4182
 7824SOL    HW235109   0.698   3.688   9.600  2.1202 -0.2995  1.2094
 7825SOL     OW35110   2.432   2.793  10.017  0.1455  0.1819  0.4316
 7825SOL    HW135111   2.423   2.751  10.103  1.5065 -2.4744 -0.7133
 7825SOL    HW235112   2.459   2.882  10.036  0.7610  0.2025 -0.5706
 7826SOL     OW35113   3.108   3.210   0.482 -0.1825 -0.0836 -0.1322
 7826SOL    HW135114   3.159   3.273   0.532  0.9633 -2.1506  1.3459
 7826SOL    HW235115   3.158   3.187   0.404  0.6092 -0.3062  0.4389
 7827SOL     OW35116   1.189   1.522  10.444 -0.1908  0.0794 -0.5947
 7827SOL    HW135117   1.233   1.559  10.367  0.9101  0.5656  0.2767
 7827SOL    HW235118   1.226   1.434  10.447 -1.4561 -0.4112  0.9804
 7828SOL     OW35119   2.694   4.553  11.900 -0.1289  0.2846  0.8735
 7828SOL    HW135120   2.705   4.648  11.902  0.3162  0.2489  0.1270
 7828SOL    HW235121   2.781   4.517  11.912 -1.5294 -2.9889  1.3749
 7829SOL     OW35122   2.283   2.342   7.008 -0.0984 -0.2517 -0.2942
 7829SOL    HW135123   2.279   2.382   7.096 -1.0584  1.2056 -0.9916
 7829SOL    HW235124   2.222   2.389   6.952  0.9639  1.9621  0.3824
 7830SOL     OW35125   4.058   2.264   0.006 -0.3531 -0.5368 -0.6187
 7830SOL    HW135126   4.149   2.255  17.715 -0.6874 -1.3147 -1.5343
 7830SOL    HW235127   4.040   2.176   0.039 -1.9685  0.4580  1.2030
 7831SOL     OW35128   1.128   2.777   0.911  0.1464  0.2692 -0.2017
 7831SOL    HW135129   1.128   2.727   0.992 -0.4173  2.7739  1.3494
 7831SOL    HW235130   1.195   2.844   0.924 -0.6050  0.9470  0.1975
 7832SOL     OW35131   3.266   0.464   6.479  0.7248  0.0533 -0.2967
 7832SOL    HW135132   3.329   0.525   6.517  1.9983  0.4180 -3.0464
 7832SOL    HW235133   3.241   0.424   6.562 -0.8202 -0.4180 -0.9978
 7833SOL     OW35134   0.373   2.529   4.228  0.8045 -0.1501  0.0809
 7833SOL    HW135135   0.358   2.556   4.319  1.4469  0.7178 -0.0694
 7833SOL    HW235136   0.286   2.491   4.224  0.6058  0.4684 -1.3253
 7834SOL     OW35137   1.599   4.526  15.589  0.0277 -0.0542  0.2164
 7834SOL    HW135138   1.649   4.585  15.533 -0.5883 -1.1122 -1.4638
 7834SOL    HW235139   1.650   4.532  15.669 -0.8453  1.8206  0.6426
 7835SOL     OW35140   3.083   2.409   3.150  0.0718  0.1084  0.8451
 7835SOL    HW135141   3.080   2.314   3.141  0.8413  0.3754 -2.2955
 7835SOL    HW235142   2.997   2.435   3.118 -0.6090  0.5736  3.0728
 7836SOL     OW35143   1.605   0.921   5.659  0.1600 -0.1079  0.4874
 7836SOL    HW135144   1.610   0.831   5.692 -0.3237 -0.9146 -1.6826
 7836SOL    HW235145   1.512   0.933   5.641  0.3130 -1.4802 -1.0868
 7837SOL     OW35146   3.501   4.443   9.603 -0.3468  0.4318  0.9566
 7837SOL    HW135147   3.594   4.423   9.615 -0.8277 -2.3234  0.0878
 7837SOL    HW235148   3.464   4.363   9.565  0.6068  0.4391  0.0263
 7838SOL     OW35149   2.051   3.710  12.554  0.6404 -0.1667  0.4598
 7838SOL    HW135150   2.022   3.629  12.512 -0.5786  0.8484 -0.6329
 7838SOL    HW235151   1.978   3.733  12.611 -0.6996  0.1454 -1.3722
 7839SOL     OW35152   4.081   4.412   5.597  0.1861 -0.2179 -0.0765
 7839SOL    HW135153   4.065   4.353   5.523  0.4716 -0.1687 -0.1749
 7839SOL    HW235154   4.147   4.469   5.557  0.7051 -0.2404  0.7512
 7840SOL     OW35155   2.741   2.365   2.386  0.1047 -0.5689  0.3958
 7840SOL    HW135156   2.784   2.280   2.392 -0.6130 -0.9951 -0.5178
 7840SOL    HW235157   2.727   2.368   2.292 -1.0649  1.0586  0.6055
 7841SOL     OW35158   3.101   2.371  11.501  0.2837  0.1374  0.0017
 7841SOL    HW135159   3.095   2.295  11.443  1.3854  0.0936 -0.0646
 7841SOL    HW235160   3.192   2.396  11.484  0.0987 -0.0529 -1.2760
 7842SOL     OW35161   4.057   1.766   2.486 -0.1691  0.0017 -0.0033
 7842SOL    HW135162   4.032   1.847   2.441  0.8326  1.1575  1.5193
 7842SOL    HW235163   3.977   1.714   2.495 -0.4257  0.0770 -1.7428
 7843SOL     OW35164   1.181   4.511   3.877 -0.1511  0.4163  0.1447
 7843SOL    HW135165   1.166   4.475   3.789  3.2063  2.2964 -1.2050
 7843SOL    HW235166   1.096   4.497   3.918 -0.0008 -0.7466  0.0472
 7844SOL     OW35167   4.527   2.496   0.901  0.0247  0.1920  0.8794
 7844SOL    HW135168   4.610   2.542   0.903  0.4005 -0.5194  1.9634
 7844SOL    HW235169   4.524   2.444   0.821 -0.9506  0.7257  0.5665
 7845SOL     OW35170   2.519   3.069   6.509  0.1721 -0.5641  0.0415
 7845SOL    HW135171   2.522   3.096   6.601 -1.3276 -1.7948  0.4587
 7845SOL    HW235172   2.521   2.974   6.520 -1.4865 -0.7954 -1.6633
 7846SOL     OW35173   0.782   4.393  15.117 -0.3828 -0.3560  0.2671
 7846SOL    HW135174   0.716   4.325  15.109  0.6008 -1.0737 -1.8971
 7846SOL    HW235175   0.770   4.432  15.030 -1.0442 -0.4940  0.2987
 7847SOL     OW35176   3.857   0.537   8.954  0.3223 -0.1785 -0.5925
 7847SOL    HW135177   3.901   0.613   8.916 -0.8906  0.6532 -0.3304
 7847SOL    HW235178   3.812   0.503   8.877 -3.2597 -0.6858  1.7229
 7848SOL     OW35179   4.356   4.090  12.517  0.5175 -0.0370 -0.1888
 7848SOL    HW135180   4.394   4.156  12.460 -1.0509 -1.0544 -2.4234
 7848SOL    HW235181   4.366   4.130  12.604  2.1055 -2.5401  0.7945
 7849SOL     OW35182   0.870   2.549   8.438 -0.0693  0.6238  0.4200
 7849SOL    HW135183   0.785   2.511   8.414  0.7481  0.6876 -2.5567
 7849SOL    HW235184   0.924   2.489   8.387  0.3843  1.4173 -0.0347
 7850SOL     OW35185   2.425   1.272   5.969 -0.0991 -0.2435 -0.6627
 7850SOL    HW135186   2.394   1.268   6.059 -0.7457 -0.0715 -0.8762
 7850SOL    HW235187   2.419   1.367   5.956 -3.2202 -0.4069 -0.4087
 7851SOL     OW35188   3.217   4.159   1.668  0.0022  0.1543  0.4228
 7851SOL    HW135189   3.210   4.254   1.679 -1.0908  0.0008  1.0631
 7851SOL    HW235190   3.293   4.154   1.611 -0.2705  1.1456 -0.0215
 7852SOL     OW35191   4.602   3.721   2.768 -0.3158  0.3104  0.2851
 7852SOL    HW135192   4.649   3.775   2.706 -2.0274  1.4787 -0.0019
 7852SOL    HW235193   4.524   3.776   2.768 -0.6563 -0.1436  2.0977
 7853SOL     OW35194   0.518   0.765   3.252  0.2856  0.5225 -0.0463
 7853SOL    HW135195   0.435   0.750   3.207 -0.4121  0.0991  1.3579
 7853SOL    HW235196   0.542   0.672   3.256  0.0692  0.4071 -1.3310
 7854SOL     OW35197   0.769   4.142   9.554  0.5140  0.1972 -0.2324
 7854SOL    HW135198   0.837   4.209   9.557 -2.9265  3.8046 -2.2783
 7854SOL    HW235199   0.785   4.088   9.476  1.3291 -1.6895  1.2452
 7855SOL     OW35200   1.311   0.533  12.426 -0.1370  0.0302 -0.0777
 7855SOL    HW135201   1.327   0.557  12.335 -0.3983 -2.7656 -0.8790
 7855SOL    HW235202   1.247   0.600  12.451  0.5624  1.2576 -1.5692
 7856SOL     OW35203   3.720   0.824   7.113 -0.2944  0.1633  0.6754
 7856SOL    HW135204   3.687   0.758   7.051  2.5840  0.3243 -1.0124
 7856SOL    HW235205   3.813   0.822   7.091  0.0946 -0.7902  2.4018
 7857SOL     OW35206   3.741   4.383   4.340 -0.3056  0.4334 -0.4910
 7857SOL    HW135207   3.736   4.449   4.409  1.4988  0.4389 -0.3621
 7857SOL    HW235208   3.746   4.303   4.392 -0.5116  0.0435 -1.0706
 7858SOL     OW35209   2.590   1.573   2.659 -0.2940 -0.4061  0.0559
 7858SOL    HW135210   2.583   1.512   2.586 -1.4882 -1.4492  1.0494
 7858SOL    HW235211   2.655   1.526   2.711 -0.5454  2.0816  2.6396
 7859SOL     OW35212   2.180   3.412   0.171 -0.2703  0.4352  0.3767
 7859SOL    HW135213   2.183   3.356   0.249  2.3604 -1.4167 -1.0649
 7859SOL    HW235214   2.191   3.499   0.209  1.3448  0.3777  0.0102
 7860SOL     OW35215   1.190   4.360   8.112  0.3041  0.2367  0.6089
 7860SOL    HW135216   1.285   4.356   8.108  0.2002 -2.1436  0.6933
 7860SOL    HW235217   1.163   4.289   8.054  0.9343 -0.5408  1.2716
 7861SOL     OW35218   3.922   1.660   7.255  0.3183  0.3903  0.0497
 7861SOL    HW135219   4.009   1.698   7.272  0.2093  0.0627  1.3108
 7861SOL    HW235220   3.937   1.632   7.164  3.1397  2.5285 -0.1520
 7862SOL     OW35221   4.069   2.464   1.774 -0.5485 -0.0147  0.3956
 7862SOL    HW135222   4.006   2.425   1.835 -0.2596  0.3473  0.9197
 7862SOL    HW235223   4.147   2.411   1.790  0.8635  2.1439  0.6321
 7863SOL     OW35224   3.259   2.628   3.092  0.0928  0.3436  0.3690
 7863SOL    HW135225   3.194   2.557   3.096  1.1853 -0.5970  1.4162
 7863SOL    HW235226   3.213   2.709   3.071  1.9510  0.6978 -2.3520
 7864SOL     OW35227   2.812   3.518  17.350  0.5960  0.0800 -0.4433
 7864SOL    HW135228   2.783   3.450  17.289 -0.4536  1.1228 -1.1061
 7864SOL    HW235229   2.872   3.471  17.408 -1.1435 -0.6594  0.7371
 7865SOL     OW35230   1.966   3.936   8.790 -0.4896  0.2608 -0.8503
 7865SOL    HW135231   1.960   3.904   8.700 -1.6020  1.7411 -1.3231
 7865SOL    HW235232   1.928   3.864   8.841  0.6085 -0.1369 -0.6129
 7866SOL     OW35233   1.258   0.096   7.160  0.3266  0.0518 -0.9707
 7866SOL    HW135234   1.175   0.133   7.189  0.1141 -0.2646 -1.1750
 7866SOL    HW235235   1.322   0.163   7.183 -1.1310  1.2953 -0.5158
 7867SOL     OW35236   1.782   1.124  17.572  0.2385  0.2976  1.1149
 7867SOL    HW135237   1.862   1.088  17.612  0.6248  0.8036  0.7962
 7867SOL    HW235238   1.728   1.125  17.650  0.2751 -0.2402  1.1491
 7868SOL     OW35239   3.247   3.119   7.041  0.0899 -0.0281  0.2707
 7868SOL    HW135240   3.326   3.159   7.005 -0.7778  1.0610 -0.4064
 7868SOL    HW235241   3.243   3.043   6.983 -0.1398 -0.1959  0.5022
 7869SOL     OW35242   2.195   2.907  13.062 -0.3633 -0.3505 -0.2420
 7869SOL    HW135243   2.165   2.920  12.972 -1.7528 -2.5501 -0.0973
 7869SOL    HW235244   2.279   2.952  13.051 -1.3558  1.7531  0.8002
 7870SOL     OW35245   0.675   0.055   6.100  0.7672  0.0554  0.0949
 7870SOL    HW135246   0.665   0.002   6.021 -2.3667  1.0973 -0.2088
 7870SOL    HW235247   0.657   4.721   6.164  0.1164 -0.9482 -1.1704
 7871SOL     OW35248   0.438   3.977   9.613 -0.1666 -0.3112  0.0482
 7871SOL    HW135249   0.433   3.906   9.549  0.2583  0.0153 -0.3426
 7871SOL    HW235250   0.362   4.030   9.590  1.0502  1.0204 -0.9062
 7872SOL     OW35251   0.398   3.270   5.496  0.3709  0.5736 -0.1464
 7872SOL    HW135252   0.420   3.323   5.572  0.8661 -0.7344  0.6309
 7872SOL    HW235253   0.359   3.191   5.534 -1.9694  2.0288  0.4316
 7873SOL     OW35254   2.143   0.806   3.702 -0.3781  0.0184  0.3911
 7873SOL    HW135255   2.180   0.850   3.778  0.6083  0.1448 -0.1664
 7873SOL    HW235256   2.189   0.849   3.630  0.3314 -0.4193  0.5828
 7874SOL     OW35257   2.839   0.700   4.198 -0.4756 -0.6476 -0.3734
 7874SOL    HW135258   2.776   0.670   4.263  1.0716  0.2778  1.5707
 7874SOL    HW235259   2.837   0.630   4.133  2.8557 -2.6145  1.5909
 7875SOL     OW35260   1.653   4.068  15.417 -0.9831 -0.2968 -0.2989
 7875SOL    HW135261   1.743   4.099  15.407 -1.8581  1.4893 -2.7272
 7875SOL    HW235262   1.660   3.972  15.414  1.9548 -0.1472  1.6651
 7876SOL     OW35263   3.605   3.160   8.080 -0.4561  0.7407 -0.2775
 7876SOL    HW135264   3.635   3.140   7.991 -1.2559  0.4947 -0.4888
 7876SOL    HW235265   3.519   3.191   8.054  0.2967  1.0347 -2.4321
 7877SOL     OW35266   2.685   3.087   5.647 -1.0941  0.4994  0.2791
 7877SOL    HW135267   2.708   3.113   5.736  1.8383 -2.6373  0.4385
 7877SOL    HW235268   2.686   3.172   5.603  1.3848  0.9728  1.2419
 7878SOL     OW35269   0.808   4.617  16.318 -0.0545  0.0752  0.6589
 7878SOL    HW135270   0.896   4.625  16.355 -0.1551 -0.1204  0.9406
 7878SOL    HW235271   0.816   4.673  16.241 -2.8149 -1.5976 -0.8291
 7879SOL     OW35272   4.690   3.332   0.261  0.0791 -1.1695  0.4887
 7879SOL    HW135273   4.701   3.316   0.355  0.4153 -0.5315  0.5558
 7879SOL    HW235274   0.033   3.286   0.225  2.0276  0.3077  2.7874
 7880SOL     OW35275   2.683   4.407   7.752 -0.2544  0.5057  0.7844
 7880SOL    HW135276   2.740   4.480   7.776  0.9176 -0.2780  0.3905
 7880SOL    HW235277   2.607   4.442   7.704  1.5834  2.3016 -0.8085
 7881SOL     OW35278   2.783   1.193   3.281  1.0133 -0.9150 -1.1309
 7881SOL    HW135279   2.799   1.274   3.233 -0.7313 -0.3764 -0.8044
 7881SOL    HW235280   2.844   1.196   3.355  0.4823  0.9760 -0.7550
 7882SOL     OW35281   3.907   2.670   0.862  0.0070 -0.6492  0.7688
 7882SOL    HW135282   3.890   2.576   0.861  0.4718 -0.7536  1.7929
 7882SOL    HW235283   3.882   2.698   0.774 -2.2638 -2.2217  0.9367
 7883SOL     OW35284   0.387   4.339  10.188 -0.2016 -0.2833  0.1333
 7883SOL    HW135285   0.384   4.243  10.185 -2.3842 -0.2749  1.9514
 7883SOL    HW235286   0.297   4.351  10.216 -0.7463 -0.2997 -1.6424
 7884SOL     OW35287   4.676   4.151   6.750 -0.1462 -0.4879 -0.4587
 7884SOL    HW135288   4.674   4.097   6.829 -1.0386 -0.8522 -0.7320
 7884SOL    HW235289   0.022   4.200   6.769  0.0652 -2.2951  3.3636
 7885SOL     OW35290   1.756   3.484   7.339 -0.4549 -0.0547  0.1524
 7885SOL    HW135291   1.792   3.423   7.274  0.4759  2.4002 -1.6146
 7885SOL    HW235292   1.663   3.461   7.349 -0.9152  1.8670  0.3170
 7886SOL     OW35293   4.684   4.163   7.929  0.5891 -0.7940  0.7014
 7886SOL    HW135294   4.618   4.188   7.994  0.4607  0.6256  0.0347
 7886SOL    HW235295   4.678   4.070   7.949 -0.4163 -0.9935 -0.5022
 7887SOL     OW35296   2.773   2.611   4.412 -0.3238  0.9681 -0.0825
 7887SOL    HW135297   2.821   2.541   4.455 -1.6591 -0.4939 -0.9524
 7887SOL    HW235298   2.697   2.558   4.387 -0.6882  0.3855  2.2837
 7888SOL     OW35299   3.957   3.527   2.899 -0.0868  0.6791 -0.2544
 7888SOL    HW135300   3.912   3.463   2.844  1.9954  0.0288 -1.2118
 7888SOL    HW235301   4.030   3.467   2.919  0.0190  0.1153 -2.4191
 7889SOL     OW35302   1.940   0.686   6.234 -0.2804 -0.1231  0.5963
 7889SOL    HW135303   1.923   0.612   6.175 -2.3423  2.6943 -2.3586
 7889SOL    HW235304   2.034   0.697   6.216 -0.1182  0.6197  1.9286
 7890SOL     OW35305   3.313   4.029  12.017 -0.3253 -0.6707 -0.0108
 7890SOL    HW135306   3.408   4.025  12.012 -0.3147  0.3682 -0.8766
 7890SOL    HW235307   3.286   3.940  11.997 -2.0879  0.4877 -2.8426
 7891SOL     OW35308   1.202   1.870   9.719  0.2174 -0.2366  0.2176
 7891SOL    HW135309   1.285   1.901   9.755  1.5642 -2.1134 -1.2772
 7891SOL    HW235310   1.233   1.797   9.667 -1.7425 -1.0211  0.1702
 7892SOL     OW35311   1.137   4.708   2.420  0.3417 -0.0159 -0.3224
 7892SOL    HW135312   1.156   0.039   2.352 -0.8512  1.4825  0.7779
 7892SOL    HW235313   1.044   4.691   2.404  0.8487  0.1180 -3.4958
 7893SOL     OW35314   1.297   2.641  14.502  0.3131 -0.4304 -0.6139
 7893SOL    HW135315   1.302   2.716  14.442  2.7589 -0.2919 -0.2114
 7893SOL    HW235316   1.371   2.669  14.555 -0.0091 -1.8079  0.5300
 7894SOL     OW35317   3.892   1.760  15.970 -0.0024  0.2961  0.5303
 7894SOL    HW135318   3.962   1.795  16.025  1.4253  0.3311 -1.2952
 7894SOL    HW235319   3.933   1.718  15.894  0.9303  1.0728  0.5922
 7895SOL     OW35320   0.459   2.898   7.400  0.4666 -0.6045  0.6821
 7895SOL    HW135321   0.422   2.986   7.408  1.7303 -0.2694  2.8811
 7895SOL    HW235322   0.410   2.846   7.464  1.5164 -1.9510  0.3760
 7896SOL     OW35323   3.831   1.409   0.280  0.2316 -0.3528 -0.6023
 7896SOL    HW135324   3.814   1.499   0.254 -0.8443 -0.0799  1.0270
 7896SOL    HW235325   3.745   1.369   0.292  0.4871 -0.9509 -0.7530
 7897SOL     OW35326   2.263   0.316   5.726 -0.0642 -0.3318 -0.0321
 7897SOL    HW135327   2.236   0.318   5.818 -0.9237 -1.8759 -0.2517
 7897SOL    HW235328   2.294   0.406   5.726  2.2503 -1.1196 -0.3982
 7898SOL     OW35329   0.593   2.988   4.755 -0.3680  0.5111  0.2262
 7898SOL    HW135330   0.612   2.919   4.691  2.0298  0.2460  1.2061
 7898SOL    HW235331   0.524   2.951   4.810  1.3217 -2.8023  0.1350
 7899SOL     OW35332   1.348   1.499   1.034 -0.4363 -0.2614 -0.4196
 7899SOL    HW135333   1.279   1.476   1.097  0.0334  0.6930  0.4391
 7899SOL    HW235334   1.315   1.580   0.996 -2.0308 -0.5842  0.2537
 7900SOL     OW35335   2.669   4.444  17.474  0.8380  0.8092  0.1834
 7900SOL    HW135336   2.755   4.402  17.473  0.5852  0.2270  2.7538
 7900SOL    HW235337   2.675   4.539  17.466 -2.7392  1.1237  1.2116
 7901SOL     OW35338   1.955   1.142   9.247 -0.0784 -0.1511  0.0096
 7901SOL    HW135339   1.876   1.163   9.297  1.0896  2.0695  0.9064
 7901SOL    HW235340   2.027   1.165   9.306 -1.0042  0.3815  0.9234
 7902SOL     OW35341   0.725   1.483   7.827 -0.7363 -0.1952 -0.9250
 7902SOL    HW135342   0.777   1.441   7.896 -2.9840  1.2856  1.6428
 7902SOL    HW235343   0.662   1.533   7.879  2.3291  0.9270  1.6881
 7903SOL     OW35344   0.819   0.560   9.727  0.2036  0.5009 -0.2027
 7903SOL    HW135345   0.749   0.574   9.791  2.0602  3.0157  1.2989
 7903SOL    HW235346   0.770   0.524   9.654  0.6308  0.4552 -0.4638
 7904SOL     OW35347   4.019   3.057  13.570  0.4604 -0.1600  0.5633
 7904SOL    HW135348   4.040   3.148  13.551  0.8755 -0.4279 -0.2838
 7904SOL    HW235349   4.102   3.031  13.610  0.8625  0.8947  0.3893
 7905SOL     OW35350   3.153   1.480   4.456 -0.1969 -0.2542 -0.0679
 7905SOL    HW135351   3.152   1.449   4.546 -0.7214  2.0186  0.7012
 7905SOL    HW235352   3.165   1.399   4.407  0.0307 -0.9089  1.0822
 7906SOL     OW35353   0.960   2.118  14.836  0.0735 -0.5302  0.3104
 7906SOL    HW135354   0.974   2.054  14.906  1.5266  0.5739  1.0466
 7906SOL    HW235355   0.925   2.190  14.888 -0.0996 -0.4960  0.1453
 7907SOL     OW35356   0.200   2.106   8.594  0.3033 -0.5570  0.3078
 7907SOL    HW135357   0.153   2.187   8.613 -0.1361 -0.6731 -0.2686
 7907SOL    HW235358   0.263   2.149   8.536  0.9689 -4.0404 -1.5533
 7908SOL     OW35359   0.408   2.699   3.505 -0.2759 -0.2177  0.3187
 7908SOL    HW135360   0.357   2.673   3.429  0.7642  1.5443 -1.0005
 7908SOL    HW235361   0.493   2.672   3.470 -1.6791 -2.7715 -1.0823
 7909SOL     OW35362   3.902   2.528  10.146  0.7575 -0.3614 -0.5789
 7909SOL    HW135363   3.905   2.604  10.088 -0.8784  0.9425  1.0575
 7909SOL    HW235364   3.918   2.569  10.231 -0.9846  0.3136 -0.5811
 7910SOL     OW35365   0.852   1.534   6.237 -0.3107  0.0049  0.4067
 7910SOL    HW135366   0.781   1.474   6.217 -2.0425  2.9383 -2.1962
 7910SOL    HW235367   0.910   1.524   6.162 -0.8876  0.1463 -0.0565
 7911SOL     OW35368   0.891   0.013   3.848  0.5634  0.2416  0.1415
 7911SOL    HW135369   0.871   4.691   3.773  0.5682 -0.1717  0.4500
 7911SOL    HW235370   0.811   0.020   3.901  0.4324 -0.9404  0.0972
 7912SOL     OW35371   1.746   2.537   4.756  0.1674 -0.2149  0.2271
 7912SOL    HW135372   1.713   2.462   4.805  0.8408 -1.2903 -0.9674
 7912SOL    HW235373   1.666   2.562   4.710 -0.4356  0.8124  1.8176
 7913SOL     OW35374   3.802   4.226  15.981  0.4535 -0.4026  0.0386
 7913SOL    HW135375   3.870   4.171  16.018  1.0718  1.1387  1.2048
 7913SOL    HW235376   3.761   4.240  16.066 -0.4522 -1.2124 -0.2615
 7914SOL     OW35377   3.668   0.846   4.031 -0.2618 -0.2919 -0.0571
 7914SOL    HW135378   3.606   0.898   4.081  0.4983 -0.5425  1.1572
 7914SOL    HW235379   3.605   0.822   3.962 -1.0765 -1.0679  0.9585
 7915SOL     OW35380   2.409   4.067   0.925  0.1756 -0.1109 -0.0292
 7915SOL    HW135381   2.354   3.996   0.957 -0.8322  0.2194 -1.0484
 7915SOL    HW235382   2.399   4.137   0.989  0.2142 -0.1519  0.0216
 7916SOL     OW35383   0.374   0.479  13.850  0.0049 -0.1698  0.8209
 7916SOL    HW135384   0.295   0.468  13.903 -0.8313 -0.9401 -0.5741
 7916SOL    HW235385   0.376   0.394  13.806 -0.7675  0.0367  0.3794
 7917SOL     OW35386   1.417   0.284   7.323  0.0439 -0.6375 -0.1092
 7917SOL    HW135387   1.331   0.296   7.363  1.2378 -3.7163  3.3746
 7917SOL    HW235388   1.472   0.322   7.391  1.4944 -1.3857 -0.8559
 7918SOL     OW35389   1.082   2.039   0.509 -0.5500  0.0649 -0.2418
 7918SOL    HW135390   1.061   1.963   0.563  4.4731 -1.0513  0.1114
 7918SOL    HW235391   0.994   2.054   0.474 -0.4407 -0.1238 -0.5940
 7919SOL     OW35392   3.931   3.948   8.541  0.0974 -0.1388  0.7194
 7919SOL    HW135393   3.905   3.876   8.483 -3.2292  0.4453  1.4646
 7919SOL    HW235394   3.850   3.986   8.574 -0.4890 -1.6769  1.0632
 7920SOL     OW35395   4.660   3.568   7.441  0.6801 -0.3077  0.1245
 7920SOL    HW135396   4.615   3.653   7.448 -1.0466 -1.4795  3.3428
 7920SOL    HW235397   4.641   3.538   7.530 -2.4108 -1.3542 -0.8793
 7921SOL     OW35398   2.327   2.640   2.395 -0.0996 -0.1602 -0.5208
 7921SOL    HW135399   2.380   2.643   2.316 -0.7987  1.3069 -0.9439
 7921SOL    HW235400   2.270   2.717   2.390 -1.3457 -0.9836  1.0623
 7922SOL     OW35401   3.832   3.343   7.572  0.9046 -0.5651  0.2696
 7922SOL    HW135402   3.895   3.405   7.610 -0.2718  2.0445 -2.0135
 7922SOL    HW235403   3.753   3.392   7.548  0.8592 -0.6887  0.1638
 7923SOL     OW35404   3.677   4.623  10.805 -0.2920 -0.2214 -0.0140
 7923SOL    HW135405   3.601   4.567  10.786  0.0086 -0.5606 -0.2077
 7923SOL    HW235406   3.740   4.553  10.818 -2.1825 -2.2441 -1.7163
 7924SOL     OW35407   2.123   0.889   7.643 -0.0793  0.4230  0.4868
 7924SOL    HW135408   2.125   0.892   7.738 -2.0241 -3.0082  0.6676
 7924SOL    HW235409   2.085   0.973   7.617 -1.0020 -0.8253 -2.3009
 7925SOL     OW35410   2.708   3.864   7.530  0.2513  0.7820  0.5927
 7925SOL    HW135411   2.622   3.887   7.495 -0.4514  0.7608  2.3192
 7925SOL    HW235412   2.765   3.914   7.472  0.5554  1.3921  1.4181
 7926SOL     OW35413   2.933   2.891  13.308  0.0224  0.2056  0.4734
 7926SOL    HW135414   3.016   2.926  13.276  1.7074 -2.5629  1.8189
 7926SOL    HW235415   2.870   2.922  13.243  1.3612  0.8541 -0.5211
 7927SOL     OW35416   0.607   0.251  15.174 -0.1350  0.0748  0.0947
 7927SOL    HW135417   0.560   0.302  15.240 -1.0844 -0.2030 -0.3600
 7927SOL    HW235418   0.618   0.315  15.103 -3.5540 -0.3649 -0.8619
 7928SOL     OW35419   2.612   1.602   2.265 -0.1413 -0.6263  0.5169
 7928SOL    HW135420   2.681   1.627   2.204 -0.5560 -0.6722  0.0337
 7928SOL    HW235421   2.646   1.523   2.308 -0.3941 -0.8900  0.2336
 7929SOL     OW35422   3.248   2.564   2.280 -0.5359  0.2121  0.2013
 7929SOL    HW135423   3.210   2.575   2.367 -0.1877  0.4554  0.3204
 7929SOL    HW235424   3.338   2.540   2.301 -0.0667  0.5325 -1.4038
 7930SOL     OW35425   1.052   4.668   5.841 -0.1266  0.3385 -0.4438
 7930SOL    HW135426   0.988   4.625   5.784 -0.0809 -3.1163  2.0977
 7930SOL    HW235427   1.133   4.639   5.798  0.9301  1.3591  0.8787
 7931SOL     OW35428   1.138   0.570   1.775 -0.2857  0.0127  0.1352
 7931SOL    HW135429   1.124   0.480   1.805 -1.4366 -0.3985 -1.6557
 7931SOL    HW235430   1.228   0.592   1.797 -0.5843 -1.2705  2.7346
 7932SOL     OW35431   3.073   2.819  17.450  0.2777  0.0994 -0.3277
 7932SOL    HW135432   3.066   2.728  17.480 -0.1851  0.3865  0.4342
 7932SOL    HW235433   3.168   2.818  17.460  0.2919  0.6099 -0.4125
 7933SOL     OW35434   4.441   2.882   9.663 -0.0289 -0.0493 -0.1590
 7933SOL    HW135435   4.472   2.867   9.753  0.1264 -0.6137 -0.3042
 7933SOL    HW235436   4.399   2.807   9.622 -1.6276 -0.3177  1.9717
 7934SOL     OW35437   1.947   0.120   7.027 -0.6796 -0.6468  0.0320
 7934SOL    HW135438   1.949   0.140   7.121 -1.4199  1.2680 -0.3565
 7934SOL    HW235439   1.887   0.184   6.988 -0.5534  0.4453  1.6327
 7935SOL     OW35440   4.689   2.449  14.817 -0.1512  0.1672 -0.1215
 7935SOL    HW135441   0.047   2.463  14.796  0.0425 -2.4108 -1.0011
 7935SOL    HW235442   4.677   2.523  14.876 -0.7125 -0.5663  0.6963
 7936SOL     OW35443   0.837   0.788   2.155  0.0816  0.3964  0.4127
 7936SOL    HW135444   0.762   0.734   2.131 -1.1782  2.4847 -0.2553
 7936SOL    HW235445   0.848   0.844   2.078 -0.7381  1.3308  0.9791
 7937SOL     OW35446   0.035   2.596  12.793 -0.9388  0.0720 -0.4956
 7937SOL    HW135447   0.111   2.553  12.754 -0.8411  0.2900 -0.5486
 7937SOL    HW235448   4.702   2.529  12.781 -1.3936 -0.0409  2.7495
 7938SOL     OW35449   2.039   3.138   0.015 -0.6773  0.0989  0.0500
 7938SOL    HW135450   2.011   3.157   0.105  1.2922  4.0456 -0.1611
 7938SOL    HW235451   2.089   3.057   0.018 -1.1396 -0.1430  1.6789
 7939SOL     OW35452   2.319   3.067   3.795  0.5993  0.6769  0.1782
 7939SOL    HW135453   2.225   3.076   3.781  0.2299 -0.9997  1.4823
 7939SOL    HW235454   2.340   2.974   3.799 -0.4806  0.4055 -0.4112
 7940SOL     OW35455   1.751   4.101   2.251 -0.7147  0.9333 -0.1042
 7940SOL    HW135456   1.847   4.110   2.248 -0.5304 -0.4430  1.3301
 7940SOL    HW235457   1.751   4.078   2.344  1.7779  2.7851  0.3608
 7941SOL     OW35458   1.890   2.418   9.971 -0.5566  0.2326 -0.7540
 7941SOL    HW135459   1.952   2.348   9.956 -2.3623 -1.7219  0.9601
 7941SOL    HW235460   1.936   2.465  10.040  1.0443 -0.4063 -1.3989
 7942SOL     OW35461   1.750   3.914   8.090 -0.1014  0.1954  1.1011
 7942SOL    HW135462   1.802   3.837   8.108  1.8193  1.3590  0.4813
 7942SOL    HW235463   1.688   3.929   8.161 -0.5621 -2.6050  1.2931
 7943SOL     OW35464   0.664   2.034  13.477 -0.3748  0.5186 -0.2334
 7943SOL    HW135465   0.705   2.100  13.421  3.2883 -0.4538  1.3279
 7943SOL    HW235466   0.619   2.095  13.535  0.0921  0.9861 -0.3599
 7944SOL     OW35467   0.097   1.524   4.898 -0.1151  0.3718  0.1575
 7944SOL    HW135468   0.158   1.478   4.956 -0.5520  1.2378  1.2961
 7944SOL    HW235469   0.038   1.449   4.884 -1.3167  1.5184 -0.8482
 7945SOL     OW35470   3.240   3.898   5.639  0.1591  0.1843  0.6441
 7945SOL    HW135471   3.290   3.834   5.689  0.6422 -1.1015 -1.4889
 7945SOL    HW235472   3.153   3.881   5.675 -1.1657 -1.7111 -3.4023
 7946SOL     OW35473   4.546   4.227   7.120 -0.1359 -0.2524  0.2366
 7946SOL    HW135474   4.451   4.238   7.132 -0.0306  1.2077 -0.2815
 7946SOL    HW235475   4.548   4.146   7.070  1.1270  0.5821 -1.0788
 7947SOL     OW35476   3.276   1.099   6.207  0.0801 -0.0974  0.4880
 7947SOL    HW135477   3.361   1.143   6.211  0.5147 -0.8337 -0.6224
 7947SOL    HW235478   3.231   1.169   6.160  2.0981  0.5661 -0.4205
 7948SOL     OW35479   4.703   2.028   6.111 -0.1081  0.1895 -0.8270
 7948SOL    HW135480   4.672   2.074   6.190 -0.1970 -0.1687 -0.6542
 7948SOL    HW235481   0.064   2.036   6.114 -0.1444  0.6501 -0.9062
 7949SOL     OW35482   4.004   4.518  15.428 -0.6426 -0.4547 -0.1380
 7949SOL    HW135483   3.971   4.582  15.364  0.0610  0.0090 -0.0429
 7949SOL    HW235484   4.013   4.573  15.505  0.3696 -0.3718 -0.3112
 7950SOL     OW35485   1.898   2.266  11.370  0.2423 -0.0804 -0.0186
 7950SOL    HW135486   1.965   2.273  11.302  1.6666  0.1196  1.3780
 7950SOL    HW235487   1.824   2.322  11.345 -0.4304 -0.9899 -0.0435
 7951SOL     OW35488   2.214   3.259   7.012 -0.0522 -0.1464  0.7288
 7951SOL    HW135489   2.280   3.329   7.014 -1.1098  0.8738  0.5385
 7951SOL    HW235490   2.212   3.241   6.918  2.2296 -1.1749  0.8979
 7952SOL     OW35491   0.822   1.406   5.341  0.1642  0.0277  0.4232
 7952SOL    HW135492   0.902   1.404   5.393  1.1711 -0.3112 -1.1234
 7952SOL    HW235493   0.798   1.499   5.333  2.0007  0.5025  0.5348
 7953SOL     OW35494   0.221   3.147  14.113 -0.0067 -0.5259  0.0606
 7953SOL    HW135495   0.172   3.168  14.192 -0.6963 -2.1265  0.0505
 7953SOL    HW235496   0.224   3.052  14.119  0.1976 -0.5853 -0.8624
 7954SOL     OW35497   4.335   0.672   8.234 -0.4892  0.3984  0.1982
 7954SOL    HW135498   4.242   0.695   8.232 -0.4635  0.6007  1.3306
 7954SOL    HW235499   4.340   0.578   8.255 -0.2261  0.3874  0.0929
 7955SOL     OW35500   3.526   2.859   8.745  0.2237 -0.6909 -0.1827
 7955SOL    HW135501   3.450   2.860   8.804  0.4889  1.5514  0.1177
 7955SOL    HW235502   3.537   2.765   8.728 -2.8558 -1.1755  0.3691
 7956SOL     OW35503   4.337   3.326   4.544 -0.3906  0.4646  0.0606
 7956SOL    HW135504   4.254   3.372   4.537  1.1016  3.0000 -0.7831
 7956SOL    HW235505   4.306   3.239   4.517  0.0283  0.6496 -1.0229
 7957SOL     OW35506   3.931   1.167   7.383  0.2074 -0.4619 -0.2309
 7957SOL    HW135507   3.939   1.250   7.431  1.5140 -1.3977  1.1426
 7957SOL    HW235508   3.859   1.124   7.427  1.6601 -1.0601  1.5171
 7958SOL     OW35509   1.059   4.463  10.821  0.9337 -0.0328  0.0398
 7958SOL    HW135510   1.076   4.557  10.810  0.0754 -0.0319 -1.2744
 7958SOL    HW235511   1.149   4.431  10.812  0.7034 -1.3184  2.2348
 7959SOL     OW35512   2.623   1.403  12.572  1.0159  0.0431 -0.2431
 7959SOL    HW135513   2.657   1.453  12.498  1.3451 -0.4735 -0.4453
 7959SOL    HW235514   2.634   1.313  12.540 -0.1468  0.4827 -1.8837
 7960SOL     OW35515   0.341   2.727  12.038  0.3577  0.9455  0.2251
 7960SOL    HW135516   0.416   2.729  12.097  2.1003  1.9235 -2.0412
 7960SOL    HW235517   0.296   2.812  12.039 -1.0124  0.2348 -1.7057
 7961SOL     OW35518   0.926   0.633  11.017  0.3284 -0.2839 -0.2513
 7961SOL    HW135519   0.959   0.660  11.102  0.1427  1.0753 -0.6190
 7961SOL    HW235520   0.832   0.626  11.037  0.2968 -1.5738 -0.8308
 7962SOL     OW35521   3.793   1.933  15.594  0.1255  0.3567 -0.3536
 7962SOL    HW135522   3.743   1.898  15.668 -0.5558  2.3677  0.1178
 7962SOL    HW235523   3.848   1.855  15.581 -1.2230 -0.3833 -1.5838
 7963SOL     OW35524   0.637   3.262   7.381  0.2985 -0.2854 -0.3685
 7963SOL    HW135525   0.698   3.210   7.434 -0.2255  0.2707  0.7857
 7963SOL    HW235526   0.669   3.255   7.291  0.6466 -3.0502 -0.0431
 7964SOL     OW35527   4.607   1.538   4.627 -0.0159 -0.3079  0.1244
 7964SOL    HW135528   4.562   1.590   4.693  1.4135  0.1527  0.7358
 7964SOL    HW235529   4.698   1.559   4.644  1.3439 -3.7282 -2.8747
 7965SOL     OW35530   2.282   1.784   1.988  0.5019 -0.2504 -0.1100
 7965SOL    HW135531   2.226   1.827   2.052  0.3955 -1.3845  0.5574
 7965SOL    HW235532   2.279   1.699   2.033 -2.1096  0.1202  0.4585
 7966SOL     OW35533   1.827   2.231   3.495 -0.2035  0.3499 -0.2764
 7966SOL    HW135534   1.860   2.304   3.443  0.4293 -0.4661 -1.0112
 7966SOL    HW235535   1.901   2.219   3.554  1.8616  1.0588 -2.7148
 7967SOL     OW35536   2.339   3.184  11.855  0.1017  0.4438  0.1481
 7967SOL    HW135537   2.310   3.168  11.944  2.2175  0.0232  0.7685
 7967SOL    HW235538   2.354   3.279  11.859 -2.0985  0.7129  1.7978
 7968SOL     OW35539   2.303   2.216  10.510  0.4468 -0.0034 -0.0930
 7968SOL    HW135540   2.333   2.305  10.525  1.7854 -0.6898  1.3337
 7968SOL    HW235541   2.286   2.216  10.416 -0.6925  1.3185  0.1241
 7969SOL     OW35542   2.268   0.668  10.184 -0.1194  0.5803  0.3355
 7969SOL    HW135543   2.175   0.648  10.175  0.4390 -2.4152  1.2935
 7969SOL    HW235544   2.259   0.761  10.205  0.9931  1.1006 -1.4523
 7970SOL     OW35545   1.822   1.785   7.199 -0.1806 -0.1240  0.5790
 7970SOL    HW135546   1.732   1.767   7.229 -0.5065 -2.2490 -1.6718
 7970SOL    HW235547   1.873   1.809   7.277 -2.2250  2.3789  1.1509
 7971SOL     OW35548   2.372   4.504   1.298  0.8666  0.0776  0.5464
 7971SOL    HW135549   2.304   4.443   1.324  0.1380 -0.0169 -1.5647
 7971SOL    HW235550   2.435   4.448   1.252 -1.0181 -1.9064  0.3931
 7972SOL     OW35551   1.626   0.223   8.331 -0.2804 -0.0717 -0.4617
 7972SOL    HW135552   1.648   0.289   8.265  0.5754  0.0516 -0.0447
 7972SOL    HW235553   1.676   0.249   8.408 -0.3852 -0.3951 -0.2848
 7973SOL     OW35554   1.072   4.043   8.259 -0.8532 -0.0061 -0.6853
 7973SOL    HW135555   1.046   4.131   8.287  1.9976  1.3050 -2.2565
 7973SOL    HW235556   1.166   4.057   8.262 -0.8052 -0.9465  1.8667
 7974SOL     OW35557   1.285   1.642   4.522 -0.2518 -0.0315 -0.1204
 7974SOL    HW135558   1.283   1.630   4.427 -0.4253  0.3638 -0.1655
 7974SOL    HW235559   1.340   1.566   4.542 -1.6127 -0.4184  2.1843
 7975SOL     OW35560   4.328   1.037   3.022 -0.0963  0.5681  0.3047
 7975SOL    HW135561   4.295   0.963   3.074  1.7405  0.6026  1.5239
 7975SOL    HW235562   4.257   1.101   3.032 -0.5154  0.2210 -0.4305
 7976SOL     OW35563   1.828   0.177   6.417  0.0843 -0.3521  0.1732
 7976SOL    HW135564   1.803   0.088   6.443  1.3736 -0.8041 -0.1610
 7976SOL    HW235565   1.751   0.195   6.363 -1.9149  0.8883  3.4442
 7977SOL     OW35566   2.933   0.384   9.651 -0.0404  0.2919  0.1902
 7977SOL    HW135567   2.929   0.354   9.560 -1.3460  0.3848  0.2111
 7977SOL    HW235568   2.999   0.452   9.637  0.1671  0.2629  1.0324
 7978SOL     OW35569   4.676   3.314   6.317  0.1396 -0.3320 -0.0480
 7978SOL    HW135570   4.619   3.280   6.385  1.0484  2.0554  1.8847
 7978SOL    HW235571   0.004   3.244   6.293  0.6750  0.1403 -0.0392
 7979SOL     OW35572   1.834   4.679   6.839  0.0780  0.5729  0.0315
 7979SOL    HW135573   1.900   4.727   6.890 -0.5099  0.7216  0.6525
 7979SOL    HW235574   1.778   4.629   6.899  1.4305  0.6008  1.3351
 7980SOL     OW35575   3.074   4.106   7.589  0.0115  0.2869 -0.6442
 7980SOL    HW135576   3.128   4.120   7.668  1.4685 -0.0541 -1.5790
 7980SOL    HW235577   3.028   4.189   7.579  1.1424  0.8023 -1.5285
 7981SOL     OW35578   0.802   0.342   6.382 -0.3150 -0.4684 -0.0057
 7981SOL    HW135579   0.730   0.406   6.390  0.7824  0.8214 -0.3981
 7981SOL    HW235580   0.800   0.322   6.288 -0.8323 -1.3752  0.2035
 7982SOL     OW35581   3.271   2.022  15.829 -0.2572  0.1986 -0.2222
 7982SOL    HW135582   3.200   1.981  15.780  0.0329  0.8463 -1.1911
 7982SOL    HW235583   3.250   2.114  15.818  0.8322  0.3218 -1.2882
 7983SOL     OW35584   2.718   4.477   5.814 -0.2370 -0.1930  0.5128
 7983SOL    HW135585   2.653   4.419   5.852 -3.1117  2.2181 -0.7329
 7983SOL    HW235586   2.655   4.537   5.774  0.3805  0.6025  0.7299
 7984SOL     OW35587   0.418   0.565   4.958 -0.6006  0.1665  0.3160
 7984SOL    HW135588   0.327   0.554   4.931  0.0221 -2.1182 -0.8233
 7984SOL    HW235589   0.406   0.638   5.019  3.0661  1.4821 -0.5306
 7985SOL     OW35590   1.534   4.387   8.366 -0.3494  0.2478  0.0359
 7985SOL    HW135591   1.603   4.330   8.400  0.1804  2.8630  3.2267
 7985SOL    HW235592   1.584   4.448   8.312 -2.8939  2.0418 -0.3076
 7986SOL     OW35593   0.004   2.181   7.745 -0.0508 -0.2077 -0.0670
 7986SOL    HW135594   0.009   2.214   7.834  0.4050  1.5137 -0.7324
 7986SOL    HW235595   0.095   2.154   7.729  0.4728  1.0065  0.9275
 7987SOL     OW35596   1.515   3.929  13.007  0.3710 -0.5609 -0.5608
 7987SOL    HW135597   1.516   3.896  12.917 -1.8945  0.9124 -1.0989
 7987SOL    HW235598   1.466   4.010  12.994  2.4259  0.6129 -1.0823
 7988SOL     OW35599   2.678   1.351  12.102 -0.8876 -0.0424 -0.0532
 7988SOL    HW135600   2.668   1.439  12.066  2.5359 -0.5278 -2.2420
 7988SOL    HW235601   2.675   1.367  12.196 -0.2632  0.4387 -0.1212
 7989SOL     OW35602   4.193   2.873   5.926 -0.9622  0.1746  0.4991
 7989SOL    HW135603   4.233   2.807   5.870 -0.4179  0.0949  0.9855
 7989SOL    HW235604   4.244   2.851   6.004 -1.3179 -1.5650  0.2322
 7990SOL     OW35605   0.399   0.571   3.761 -0.1941  0.0495  0.6144
 7990SOL    HW135606   0.384   0.563   3.855 -0.8954 -1.3156  0.3823
 7990SOL    HW235607   0.448   0.654   3.756  1.1011 -0.7722 -0.2118
 7991SOL     OW35608   0.728   0.041   5.738  0.4291 -0.0743  0.0226
 7991SOL    HW135609   0.640   0.017   5.708  0.4558 -0.9983  0.6855
 7991SOL    HW235610   0.759   4.686   5.756  1.9059 -0.0671 -2.5072
 7992SOL     OW35611   2.000   2.148   9.173 -0.3731 -0.5860 -0.0417
 7992SOL    HW135612   1.970   2.231   9.137 -1.3766 -0.9458 -0.0489
 7992SOL    HW235613   1.974   2.158   9.265 -1.4888  0.4771 -0.4886
 7993SOL     OW35614   3.446   3.655   8.153 -0.8412  1.1797  0.0763
 7993SOL    HW135615   3.424   3.643   8.246  0.1088  0.7677  0.2481
 7993SOL    HW235616   3.508   3.582   8.147 -0.1247  1.7677  0.3527
 7994SOL     OW35617   3.342   1.794   4.843 -0.3317  0.0822  0.3872
 7994SOL    HW135618   3.296   1.711   4.856 -1.7812  0.5760 -1.5934
 7994SOL    HW235619   3.346   1.812   4.749 -2.1981 -1.5076  0.0069
 7995SOL     OW35620   2.870   4.178  11.749  0.1313  0.1348  0.3244
 7995SOL    HW135621   2.935   4.131  11.697 -0.3035  0.2976 -0.3693
 7995SOL    HW235622   2.792   4.145  11.705 -0.0411 -1.3131  1.7014
 7996SOL     OW35623   3.777   3.068  12.323 -0.2586  0.5546 -0.3275
 7996SOL    HW135624   3.745   3.133  12.261 -0.4115  1.2691  0.4954
 7996SOL    HW235625   3.819   3.123  12.389  2.5831 -2.5430  0.4608
 7997SOL     OW35626   1.960   3.534   1.996 -0.0041  0.3964 -0.3146
 7997SOL    HW135627   2.048   3.567   2.015  0.8464 -2.8501  1.2955
 7997SOL    HW235628   1.907   3.584   2.059 -0.6208  0.4810 -0.8967
 7998SOL     OW35629   4.163   1.135   9.776 -0.4595 -0.1710  0.0642
 7998SOL    HW135630   4.170   1.202   9.843 -2.3263  0.8748 -0.8020
 7998SOL    HW235631   4.243   1.147   9.725 -2.1332  1.7771 -2.1155
 7999SOL     OW35632   4.706   4.500   9.428  0.4825 -0.0066 -0.1645
 7999SOL    HW135633   4.682   4.493   9.336  1.5904 -0.9886 -0.3698
 7999SOL    HW235634   4.627   4.480   9.479  1.8788  1.1957  2.4601
 8000SOL     OW35635   4.418   2.227   4.288  0.5974  0.5745  0.1218
 8000SOL    HW135636   4.496   2.182   4.255 -0.7686 -1.1020 -0.8091
 8000SOL    HW235637   4.357   2.161   4.319 -0.6666  2.6488  2.0656
 8001SOL     OW35638   2.107   0.323  13.321 -0.2035  0.1088  0.2840
 8001SOL    HW135639   2.104   0.377  13.400 -0.9433 -1.4592  1.3169
 8001SOL    HW235640   2.040   0.368  13.270 -0.1918  0.2567  0.4008
 8002SOL     OW35641   0.919   3.316  11.636 -0.4144  0.0269  0.1552
 8002SOL    HW135642   0.954   3.405  11.644  2.3855 -0.9216 -1.4943
 8002SOL    HW235643   0.907   3.286  11.726  0.1513 -0.5411  0.0440
 8003SOL     OW35644   0.219   4.527  16.150  0.0376 -0.1654  0.0326
 8003SOL    HW135645   0.221   4.500  16.058 -0.8768  0.6685 -0.2259
 8003SOL    HW235646   0.173   4.453  16.188 -1.1718  0.8681  0.5831
 8004SOL     OW35647   1.028   2.791   4.378 -0.2926 -0.0612  0.0858
 8004SOL    HW135648   1.102   2.782   4.437  0.6338 -0.6357 -1.1743
 8004SOL    HW235649   0.979   2.854   4.431  0.5366  1.5511 -1.0777
 8005SOL     OW35650   3.704   3.042   4.270  0.2573  0.3522  0.1589
 8005SOL    HW135651   3.790   3.066   4.304  0.2218  1.2687 -0.4098
 8005SOL    HW235652   3.647   3.070   4.342  1.7126 -2.2940  2.3598
 8006SOL     OW35653   3.289   0.738   2.070 -0.1863  0.4417 -1.3576
 8006SOL    HW135654   3.322   0.656   2.105  1.2754  0.2044 -3.2742
 8006SOL    HW235655   3.375   0.773   2.049  0.2447  0.5341  0.6610
 8007SOL     OW35656   1.660   1.710   5.549  0.2847 -0.2603 -0.2915
 8007SOL    HW135657   1.655   1.804   5.534 -2.0097 -0.7258 -2.5652
 8007SOL    HW235658   1.645   1.675   5.461 -0.9249 -2.7094  0.9092
 8008SOL     OW35659   0.316   1.799   1.474  0.3253  0.2331  0.4261
 8008SOL    HW135660   0.275   1.785   1.559 -0.0569 -0.1844  0.1687
 8008SOL    HW235661   0.264   1.869   1.434 -1.0803 -1.1413 -0.1583
 8009SOL     OW35662   4.085   1.135   7.687  0.1622 -0.2340 -0.4960
 8009SOL    HW135663   4.159   1.111   7.632  1.7375  0.4747  1.3199
 8009SOL    HW235664   4.025   1.062   7.672 -0.4057  0.0284  0.4870
 8010SOL     OW35665   0.659   4.722  14.786  0.0232  0.6825 -0.5391
 8010SOL    HW135666   0.748   4.720  14.751 -0.4398 -1.0803 -1.5855
 8010SOL    HW235667   0.647   0.082  14.794  3.0193  1.0253 -0.3411
 8011SOL     OW35668   1.808   2.712   7.050  0.1741 -0.2765  0.0392
 8011SOL    HW135669   1.867   2.787   7.041  0.7449 -0.8906 -1.4215
 8011SOL    HW235670   1.851   2.675   7.126  0.2835 -0.0694  0.0778
 8012SOL     OW35671   3.410   4.101   6.333  0.1360 -0.1218  0.3592
 8012SOL    HW135672   3.320   4.079   6.307  0.2499 -1.4571  1.0530
 8012SOL    HW235673   3.456   4.087   6.250 -1.4444 -1.4018 -0.3130
 8013SOL     OW35674   1.785   3.769   5.300  0.6620 -0.3950 -0.0049
 8013SOL    HW135675   1.795   3.723   5.384  1.3405  1.3903  0.8881
 8013SOL    HW235676   1.727   3.709   5.254  0.5582  0.4071 -0.9104
 8014SOL     OW35677   4.503   2.907   3.888  0.0128 -0.4240  0.4021
 8014SOL    HW135678   4.483   2.877   3.800 -1.1858 -0.4284  0.6849
 8014SOL    HW235679   4.541   2.992   3.865  1.8819 -1.2182  0.5022
 8015SOL     OW35680   2.256   2.640   7.646 -0.3353  0.3778 -0.3321
 8015SOL    HW135681   2.212   2.559   7.670  0.2745 -0.1710 -1.0775
 8015SOL    HW235682   2.307   2.592   7.581  0.1816  0.6076 -0.0904
 8016SOL     OW35683   2.727   1.817   7.644 -0.1329  0.0136 -0.2999
 8016SOL    HW135684   2.752   1.878   7.714 -0.2412 -0.1533 -0.1154
 8016SOL    HW235685   2.771   1.736   7.669 -2.6330 -0.8428  1.2452
 8017SOL     OW35686   1.150   1.051  15.426 -0.3586  0.0692  0.4305
 8017SOL    HW135687   1.060   1.081  15.416 -0.2756  0.2103  0.1278
 8017SOL    HW235688   1.183   1.053  15.337  1.3896  2.4574  1.1553
 8018SOL     OW35689   0.243   3.274  13.376 -0.0339 -0.5123 -0.0362
 8018SOL    HW135690   0.192   3.195  13.391  2.2596 -2.1829 -1.1366
 8018SOL    HW235691   0.245   3.305  13.467 -1.5979 -1.2295  0.2362
 8019SOL     OW35692   4.194   3.560   5.851  0.2216  0.1252 -0.4603
 8019SOL    HW135693   4.242   3.643   5.853 -0.5434  0.5468  0.0105
 8019SOL    HW235694   4.198   3.541   5.757 -2.7336 -0.5649 -0.4456
 8020SOL     OW35695   4.231   2.503   8.359  0.4842  0.0870  0.4182
 8020SOL    HW135696   4.304   2.553   8.324  0.5066  0.8271  1.5221
 8020SOL    HW235697   4.170   2.487   8.287 -1.5264  0.7421  1.9561
 8021SOL     OW35698   2.459   2.357   6.398 -0.2471 -0.9714  0.4229
 8021SOL    HW135699   2.480   2.310   6.318  1.3346 -0.4744  0.5354
 8021SOL    HW235700   2.535   2.415   6.409  0.6216 -1.3681 -3.4642
 8022SOL     OW35701   2.970   2.127   3.112  0.3215  0.2819 -0.0618
 8022SOL    HW135702   2.938   2.085   3.032 -1.7529  1.2075  0.2865
 8022SOL    HW235703   2.882   2.147   3.144  0.4387 -1.8954  1.6113
 8023SOL     OW35704   4.603   1.164   0.752  0.1927  0.4344 -0.4572
 8023SOL    HW135705   4.534   1.147   0.815 -0.8508 -1.2604 -2.0696
 8023SOL    HW235706   4.561   1.214   0.682 -0.2008  1.0044  0.1951
 8024SOL     OW35707   3.402   2.102   6.764 -0.1554 -0.1219 -0.1127
 8024SOL    HW135708   3.487   2.141   6.784 -0.2372  0.8489 -1.6652
 8024SOL    HW235709   3.417   2.048   6.686 -0.2412 -0.0645 -0.1698
 8025SOL     OW35710   0.247   2.208   1.903  0.4522 -0.0927  0.3416
 8025SOL    HW135711   0.326   2.158   1.879 -0.8309 -1.4832 -0.9579
 8025SOL    HW235712   0.276   2.299   1.896 -0.5933  0.1400 -1.0576
 8026SOL     OW35713   4.332   1.367   4.039  0.0203  0.0513 -0.5699
 8026SOL    HW135714   4.246   1.379   3.999 -0.6845 -3.9102 -0.2337
 8026SOL    HW235715   4.385   1.338   3.965 -0.0432 -0.8256 -0.2652
 8027SOL     OW35716   0.940   3.493   9.542  0.3840 -0.4260 -0.5239
 8027SOL    HW135717   1.023   3.446   9.549  0.2228 -0.3107  2.4557
 8027SOL    HW235718   0.875   3.424   9.552  1.1504 -1.3098 -1.6679
 8028SOL     OW35719   1.194   1.742   8.394  0.0205 -0.4799 -0.5786
 8028SOL    HW135720   1.278   1.700   8.375  0.3248  0.1748 -0.6816
 8028SOL    HW235721   1.218   1.814   8.454  0.8235 -1.1415 -0.0983
 8029SOL     OW35722   2.060   4.461   5.722  0.0204  0.2279 -0.1633
 8029SOL    HW135723   2.105   4.515   5.786  0.2614  0.6748 -0.7127
 8029SOL    HW235724   2.132   4.433   5.667  0.0066  0.1202 -0.1267
 8030SOL     OW35725   3.849   3.733   4.620  0.2224 -0.0451  0.0452
 8030SOL    HW135726   3.809   3.820   4.621 -0.2560 -0.2829  1.0799
 8030SOL    HW235727   3.917   3.738   4.686 -1.5955 -0.7438  1.9793
 8031SOL     OW35728   2.011   3.151   6.029 -0.3135 -0.3267  0.6687
 8031SOL    HW135729   1.940   3.087   6.018  0.7765 -1.3005 -0.7144
 8031SOL    HW235730   2.083   3.120   5.974  0.5093  1.0554  0.9519
 8032SOL     OW35731   3.753   2.527   4.289 -0.1636  0.1139 -0.2821
 8032SOL    HW135732   3.671   2.517   4.242  0.4352 -1.5974 -0.9702
 8032SOL    HW235733   3.795   2.573   4.217 -1.2022  0.7492 -0.4796
 8033SOL     OW35734   3.538   3.384   0.145  0.4034  0.1363 -0.7823
 8033SOL    HW135735   3.489   3.454   0.102 -1.4791 -0.1159  0.9832
 8033SOL    HW235736   3.595   3.420   0.212  0.7577  0.3734 -1.2118
 8034SOL     OW35737   3.860   3.927   8.844  0.2273 -0.2360  0.0631
 8034SOL    HW135738   3.769   3.904   8.863  1.2799 -2.0165  2.9346
 8034SOL    HW235739   3.852   4.022   8.858 -2.9636 -0.8186  2.2400
 8035SOL     OW35740   4.259   1.524  12.607 -0.0110  0.0982 -0.4844
 8035SOL    HW135741   4.210   1.533  12.689 -3.0267  1.9818 -2.5164
 8035SOL    HW235742   4.347   1.541  12.640  0.2816  0.3948 -1.4215
 8036SOL     OW35743   0.223   0.669  14.862 -0.9673  0.2576  0.1496
 8036SOL    HW135744   0.159   0.597  14.857  0.4910 -1.1797  2.2272
 8036SOL    HW235745   0.263   0.647  14.946 -1.1731 -1.5822 -0.2293
 8037SOL     OW35746   1.473   1.590   8.079 -0.2790  0.0217  0.2455
 8037SOL    HW135747   1.498   1.553   7.994  0.6045  0.1041  0.4701
 8037SOL    HW235748   1.532   1.665   8.079 -0.4693  0.1751  1.4424
 8038SOL     OW35749   4.117   0.926  13.623  0.2560 -0.2292  0.1526
 8038SOL    HW135750   4.023   0.922  13.608  0.1567 -2.1213  1.3044
 8038SOL    HW235751   4.135   1.009  13.666 -0.5113 -1.1853  2.3413
 8039SOL     OW35752   4.165   2.800   0.187  0.3265  0.2826  0.2231
 8039SOL    HW135753   4.174   2.741   0.112  3.0313  1.6921 -0.5674
 8039SOL    HW235754   4.256   2.806   0.216  0.1772 -2.1744  1.2017
 8040SOL     OW35755   4.215   0.813   5.399 -0.2393 -0.2786  0.2880
 8040SOL    HW135756   4.205   0.905   5.373 -0.8156 -0.5514 -0.4806
 8040SOL    HW235757   4.238   0.770   5.317 -0.1378 -0.3390  0.3479
 8041SOL     OW35758   2.659   0.353   4.363 -0.3148  0.4079 -0.0273
 8041SOL    HW135759   2.717   0.313   4.428 -0.4567 -0.6410 -0.5297
 8041SOL    HW235760   2.585   0.299   4.391 -0.4069  0.8943  0.6593
 8042SOL     OW35761   1.651   2.586   5.134 -0.2078  0.6687  0.7604
 8042SOL    HW135762   1.719   2.572   5.200  1.5152 -1.8638 -1.5447
 8042SOL    HW235763   1.632   2.495   5.110  0.0120  1.3365 -1.9392
 8043SOL     OW35764   2.780   4.027   7.312 -0.3844  0.3201  0.1156
 8043SOL    HW135765   2.744   4.113   7.333  0.2877  0.6452 -0.0464
 8043SOL    HW235766   2.740   4.020   7.225 -1.3499  1.3188  0.4823
 8044SOL     OW35767   0.289   2.427   2.361 -0.2243  0.2130 -0.2903
 8044SOL    HW135768   0.216   2.367   2.350 -0.0599  0.1912 -1.3265
 8044SOL    HW235769   0.255   2.516   2.349  1.1792  0.7439 -0.4383
 8045SOL     OW35770   3.897   4.493  11.053  0.2643 -0.4854  0.3798
 8045SOL    HW135771   3.891   4.431  10.980 -1.5551  0.2584 -0.1174
 8045SOL    HW235772   3.882   4.443  11.132  2.2845 -0.7411  0.6139
 8046SOL     OW35773   1.957   1.796   3.218 -0.4895  0.2887  0.4998
 8046SOL    HW135774   1.917   1.872   3.259  0.1248  1.0366 -0.2734
 8046SOL    HW235775   1.891   1.727   3.209 -0.8003  0.4292  1.7354
 8047SOL     OW35776   1.259   2.627   2.700 -0.1631  0.6927 -0.0870
 8047SOL    HW135777   1.334   2.675   2.736  1.8314 -2.7049  0.2989
 8047SOL    HW235778   1.196   2.694   2.674 -1.0706 -0.1322 -0.0150
 8048SOL     OW35779   0.625   3.240   6.410 -0.0098 -0.0073  0.4157
 8048SOL    HW135780   0.698   3.289   6.449 -0.4160  1.0487 -0.1597
 8048SOL    HW235781   0.685   3.172   6.377 -0.4987  0.5646 -1.6440
 8049SOL     OW35782   2.256   2.533   3.424 -0.2237  0.6586 -0.1178
 8049SOL    HW135783   2.239   2.593   3.497 -1.8665  0.2628 -0.1655
 8049SOL    HW235784   2.350   2.549   3.422  0.0191 -0.6871  0.1979
 8050SOL     OW35785   4.130   0.443   2.429 -0.2746 -0.1567  0.3213
 8050SOL    HW135786   4.152   0.369   2.486 -1.3584 -2.1307 -1.8667
 8050SOL    HW235787   4.195   0.508   2.455 -1.3216  1.2404 -0.5908
 8051SOL     OW35788   4.659   1.106  14.693 -0.1121 -0.4589  0.1636
 8051SOL    HW135789   4.719   1.139  14.626 -1.0974 -2.2700 -1.6303
 8051SOL    HW235790   4.698   1.021  14.714 -0.0742 -0.3420  0.5495
 8052SOL     OW35791   1.979   2.437   9.196 -0.3196 -0.8489 -0.5457
 8052SOL    HW135792   1.978   2.391   9.280 -0.7331 -0.4456 -0.3307
 8052SOL    HW235793   1.949   2.519   9.234 -2.0536 -1.3417 -0.8477
 8053SOL     OW35794   2.403   0.383  16.234 -0.1644  0.6615  0.1753
 8053SOL    HW135795   2.396   0.475  16.262  5.1585  1.1358  0.0108
 8053SOL    HW235796   2.378   0.344  16.318 -0.9865  1.2437  0.1991
 8054SOL     OW35797   2.246   1.620  13.997  0.1014  0.5028 -0.0004
 8054SOL    HW135798   2.198   1.679  13.938 -0.8589 -0.5015 -0.2106
 8054SOL    HW235799   2.302   1.679  14.048 -3.1665  1.8903  1.9864
 8055SOL     OW35800   3.313   4.405   2.985  0.0307 -0.3160 -0.2872
 8055SOL    HW135801   3.295   4.469   3.054  1.5250 -0.6850  0.4334
 8055SOL    HW235802   3.407   4.413   2.966 -0.4013 -1.5361 -2.8824
 8056SOL     OW35803   0.044   2.937   3.588 -0.3320 -0.6684 -0.5396
 8056SOL    HW135804   0.057   3.018   3.638  1.0592 -0.6711 -0.9153
 8056SOL    HW235805   0.130   2.905   3.562  0.2146  1.0792 -0.9054
 8057SOL     OW35806   4.693   2.929   5.511  0.4296 -0.1165  0.3527
 8057SOL    HW135807   4.734   3.015   5.500 -0.3589  0.1656 -0.3971
 8057SOL    HW235808   4.647   2.947   5.593 -0.4813 -1.4008  0.1304
 8058SOL     OW35809   0.558   1.805   8.549 -0.0021 -0.0564 -0.0963
 8058SOL    HW135810   0.477   1.847   8.578  0.6457  0.8605  0.3598
 8058SOL    HW235811   0.526   1.754   8.474 -1.6629  1.2122 -0.2505
 8059SOL     OW35812   2.300   4.321   3.205  0.3835  0.1010 -0.3015
 8059SOL    HW135813   2.216   4.279   3.186  0.6562 -1.2727  1.5396
 8059SOL    HW235814   2.329   4.274   3.283 -2.1161 -0.3760  0.3365
 8060SOL     OW35815   2.468   0.688   6.249 -0.3042  0.1790  0.3216
 8060SOL    HW135816   2.513   0.618   6.201  0.4926  1.4584 -0.8062
 8060SOL    HW235817   2.534   0.692   6.318  1.2308 -0.4214 -1.1336
 8061SOL     OW35818   3.866   1.089  17.034 -0.0339 -0.1183 -0.3480
 8061SOL    HW135819   3.935   1.112  17.096 -0.0973  0.5075 -0.5099
 8061SOL    HW235820   3.910   1.016  16.990 -1.4594 -0.9790 -0.3744
 8062SOL     OW35821   2.409   1.667   1.600 -0.2346  0.1044  0.1603
 8062SOL    HW135822   2.453   1.631   1.677  3.0283  1.0072 -1.3205
 8062SOL    HW235823   2.428   1.600   1.534  0.4918 -0.3792  0.8612
 8063SOL     OW35824   1.123   2.392  17.672 -0.0684  0.1556  0.0665
 8063SOL    HW135825   1.082   2.316  17.715 -1.5829  1.5617  1.1283
 8063SOL    HW235826   1.050   2.449  17.649 -0.3029 -0.7854 -1.5505
 8064SOL     OW35827   3.668   1.076   7.481 -0.0951  0.3425 -0.3431
 8064SOL    HW135828   3.668   0.984   7.506 -1.1128  0.3160 -0.4333
 8064SOL    HW235829   3.579   1.094   7.511  0.2643 -0.9205  1.4368
 8065SOL     OW35830   3.239   3.034  16.517  0.2611  0.7247  0.5535
 8065SOL    HW135831   3.152   3.022  16.479  0.6877  0.6474 -0.3891
 8065SOL    HW235832   3.243   2.940  16.536 -3.3484  0.4333 -0.0330
 8066SOL     OW35833   3.735   0.022   4.812 -0.1378 -0.1327 -0.2915
 8066SOL    HW135834   3.746   4.673   4.767 -1.0727 -0.1539 -0.4763
 8066SOL    HW235835   3.824   0.055   4.798  0.1310 -1.1723 -0.9937
 8067SOL     OW35836   0.543   4.286  15.752  0.1302 -0.3782  0.4321
 8067SOL    HW135837   0.595   4.281  15.672  2.0280  1.6695  1.5452
 8067SOL    HW235838   0.573   4.202  15.787 -1.9283 -1.7547 -1.1314
 8068SOL     OW35839   1.168   0.931   2.772 -0.1884  0.0935  0.1572
 8068SOL    HW135840   1.172   1.018   2.732 -0.9015 -0.6469 -1.5508
 8068SOL    HW235841   1.226   0.945   2.847  0.8557  0.5918 -0.7456
 8069SOL     OW35842   4.130   0.295   3.610  0.0156  0.2915  0.2816
 8069SOL    HW135843   4.199   0.343   3.655  0.3186 -1.0582  1.2575
 8069SOL    HW235844   4.152   0.291   3.517 -0.4746 -0.5221  0.2005
 8070SOL     OW35845   3.359   0.296   4.880  0.0589 -0.2241 -0.4480
 8070SOL    HW135846   3.390   0.296   4.789  1.3748  1.1560 -0.0068
 8070SOL    HW235847   3.279   0.247   4.863  0.0662 -0.6158  0.6501
 8071SOL     OW35848   4.407   0.893   6.212 -0.2486 -0.0520 -0.2252
 8071SOL    HW135849   4.480   0.835   6.191 -2.0189 -2.2950 -0.3183
 8071SOL    HW235850   4.457   0.935   6.282  1.5470 -1.0118 -0.9489
 8072SOL     OW35851   1.636   3.819   2.392  0.4540  0.1426  0.8825
 8072SOL    HW135852   1.686   3.737   2.389 -0.6823 -0.5067 -0.4463
 8072SOL    HW235853   1.702   3.873   2.434  0.0939  0.6302  0.8228
 8073SOL     OW35854   1.639   3.049   4.514 -0.5211 -0.9636  0.1205
 8073SOL    HW135855   1.696   2.972   4.510  0.5953 -0.0948 -0.6625
 8073SOL    HW235856   1.555   3.006   4.498 -0.7584 -1.0563  1.6719
 8074SOL     OW35857   4.201   4.273   6.850  0.2747  0.1929  0.7253
 8074SOL    HW135858   4.191   4.179   6.836 -0.8179  0.4990 -0.6167
 8074SOL    HW235859   4.120   4.298   6.896 -0.6440 -3.4006  1.0452
 8075SOL     OW35860   0.619   3.292   4.995 -0.4764 -0.1028  0.1714
 8075SOL    HW135861   0.574   3.305   5.079 -0.8859  2.8566 -0.5069
 8075SOL    HW235862   0.540   3.300   4.942  0.4926  0.3869 -1.1847
 8076SOL     OW35863   0.818   0.092  15.281  0.0664 -0.6556  0.2827
 8076SOL    HW135864   0.741   0.054  15.323 -1.1331  1.3137 -0.1273
 8076SOL    HW235865   0.779   0.164  15.231  1.9977  0.2722  0.1218
 8077SOL     OW35866   3.170   0.388   2.862 -0.1128  0.3278 -0.1451
 8077SOL    HW135867   3.172   0.369   2.768 -2.4799  2.3953 -0.5959
 8077SOL    HW235868   3.201   0.478   2.864  0.8993  0.0074 -1.0431
 8078SOL     OW35869   3.492   4.528   7.329 -0.0311 -0.0567 -0.4641
 8078SOL    HW135870   3.435   4.605   7.321 -0.4724 -0.2753  0.5053
 8078SOL    HW235871   3.446   4.460   7.279  1.0033 -2.1392  1.3841
 8079SOL     OW35872   0.893   2.281  11.902 -0.6401  0.1818 -0.3413
 8079SOL    HW135873   0.945   2.305  11.825  0.5238 -0.0943  0.3612
 8079SOL    HW235874   0.840   2.354  11.932 -1.2792  0.4145 -1.9963
 8080SOL     OW35875   0.466   3.839  14.801  0.3210  0.0914  0.2368
 8080SOL    HW135876   0.462   3.918  14.747 -0.0667 -0.4317 -0.4942
 8080SOL    HW235877   0.374   3.824  14.822  0.7693 -0.5237  1.7356
 8081SOL     OW35878   2.526   3.999   6.231 -0.7412  0.1223  0.1872
 8081SOL    HW135879   2.491   4.016   6.319 -0.8025  0.3969  0.1115
 8081SOL    HW235880   2.601   4.058   6.236 -1.4948  1.2321 -1.3979
 8082SOL     OW35881   4.263   4.108  15.082  0.4801  0.0570  0.4374
 8082SOL    HW135882   4.306   4.034  15.039 -0.5861  0.5674 -1.5022
 8082SOL    HW235883   4.277   4.181  15.021 -1.7692  0.8109  0.8105
 8083SOL     OW35884   2.226   1.842   5.711  0.2562 -0.2931  0.1872
 8083SOL    HW135885   2.152   1.845   5.651  0.5120  1.1265 -0.0674
 8083SOL    HW235886   2.296   1.843   5.645 -0.0550 -2.1784 -0.1595
 8084SOL     OW35887   0.814   0.929  15.313  0.0783 -0.4089 -0.0977
 8084SOL    HW135888   0.748   0.860  15.323  0.3245 -0.7041 -0.5221
 8084SOL    HW235889   0.876   0.887  15.254  1.8348  2.9550 -0.5841
 8085SOL     OW35890   1.340   3.314   8.109 -0.3893  0.0906 -0.4304
 8085SOL    HW135891   1.268   3.281   8.162  1.1146  0.1840  1.6796
 8085SOL    HW235892   1.352   3.405   8.137 -0.3977  0.1029 -0.4671
 8086SOL     OW35893   0.212   2.149   4.514  0.6123  0.9139 -0.4769
 8086SOL    HW135894   0.178   2.238   4.522 -1.3907  0.3365 -2.2659
 8086SOL    HW235895   0.287   2.142   4.572  1.5779  1.2011 -1.6840
 8087SOL     OW35896   0.496   0.738   7.484 -0.4889  0.5372 -0.1842
 8087SOL    HW135897   0.512   0.813   7.427  0.7172  1.8862  1.9163
 8087SOL    HW235898   0.583   0.728   7.523 -1.1591  0.6880  1.3657
 8088SOL     OW35899   2.904   0.629   5.022 -0.4631  0.1422 -0.1277
 8088SOL    HW135900   2.928   0.640   5.114  1.0094  0.3644 -0.5269
 8088SOL    HW235901   2.867   0.716   5.007 -0.9445  0.1948  1.4420
 8089SOL     OW35902   2.668   1.717   5.411  0.1586  0.5740  0.8342
 8089SOL    HW135903   2.699   1.630   5.438  0.8861 -0.0508 -2.0153
 8089SOL    HW235904   2.752   1.763   5.415 -0.4687  1.5618  2.5370
 8090SOL     OW35905   1.366   0.718   5.373  0.1575  0.2882 -0.5192
 8090SOL    HW135906   1.441   0.708   5.315 -0.0661 -0.5146 -0.6795
 8090SOL    HW235907   1.297   0.700   5.309 -0.4133  2.1057 -0.4119
 8091SOL     OW35908   2.755   2.375   5.870 -0.0868 -0.1549  0.8381
 8091SOL    HW135909   2.664   2.384   5.840 -0.2498  0.0785  1.4047
 8091SOL    HW235910   2.802   2.318   5.808 -2.7240  0.3882 -1.6897
 8092SOL     OW35911   1.071   2.288   3.602 -0.3085  0.1051 -0.5704
 8092SOL    HW135912   1.133   2.351   3.565 -2.0976  0.6176 -2.7052
 8092SOL    HW235913   1.073   2.230   3.526 -0.3542 -0.9639  0.2498
 8093SOL     OW35914   3.144   2.786   0.201  0.2243  0.3679 -0.3510
 8093SOL    HW135915   3.059   2.772   0.157  0.7806  0.9236 -1.6139
 8093SOL    HW235916   3.198   2.758   0.127  0.8173 -1.6575  0.8569
 8094SOL     OW35917   4.078   2.443  13.771 -0.0353 -0.3087  0.3221
 8094SOL    HW135918   4.001   2.403  13.812 -0.4041  1.3810  1.2900
 8094SOL    HW235919   4.138   2.418  13.841 -1.4330  1.8000  2.2983
 8095SOL     OW35920   4.385   0.923  14.961  0.3571 -0.0478  0.4940
 8095SOL    HW135921   4.362   0.981  15.034 -0.7706 -0.4163  0.4408
 8095SOL    HW235922   4.335   0.964  14.890 -0.1625 -1.3503  0.1091
 8096SOL     OW35923   2.220   3.518   5.786  0.6321  0.0923 -0.1581
 8096SOL    HW135924   2.170   3.437   5.792 -1.3458  1.3337  0.0510
 8096SOL    HW235925   2.178   3.556   5.709  0.8004  0.7424  0.0706
 8097SOL     OW35926   2.905   4.102  14.226  0.8017 -0.0785  0.5206
 8097SOL    HW135927   2.942   4.131  14.309  1.3544  0.8638 -0.0534
 8097SOL    HW235928   2.815   4.125  14.251  0.4767  0.0864 -0.7463
 8098SOL     OW35929   2.623   4.053   8.071 -0.1209  0.3950  0.1721
 8098SOL    HW135930   2.630   4.049   8.166 -1.1283  1.5268  0.2828
 8098SOL    HW235931   2.588   3.966   8.050  0.7936  0.1237 -0.2446
 8099SOL     OW35932   1.589   0.291   5.511 -0.7208  0.1129 -0.3448
 8099SOL    HW135933   1.658   0.280   5.577 -1.8039  3.1662  1.2982
 8099SOL    HW235934   1.593   0.387   5.502  0.7988  0.1377  0.4591
 8100SOL     OW35935   2.405   3.502  17.697 -0.1606  0.2500 -0.4915
 8100SOL    HW135936   2.462   3.545  17.634  0.3922  1.2200  0.6912
 8100SOL    HW235937   2.356   3.571   0.006 -1.1845  0.5053 -2.0151
 8101SOL     OW35938   4.142   4.559  13.358  0.0668  0.7165  0.5345
 8101SOL    HW135939   4.180   4.477  13.388  0.8011  0.5284 -0.8985
 8101SOL    HW235940   4.050   4.547  13.382 -0.4392  2.8211 -0.3238
 8102SOL     OW35941   4.016   3.484   6.715  0.6498 -0.9909 -0.2315
 8102SOL    HW135942   3.964   3.405   6.704  1.4748 -1.4413 -0.8851
 8102SOL    HW235943   4.077   3.479   6.641 -1.0997  2.4384 -1.9093
 8103SOL     OW35944   3.336   1.185  17.533 -0.3051 -0.3090 -0.0243
 8103SOL    HW135945   3.394   1.252  17.497 -1.2958 -0.1650 -1.3669
 8103SOL    HW235946   3.396   1.164  17.604 -0.0770 -1.3545 -0.5322
 8104SOL     OW35947   2.194   1.819   4.917 -0.7949 -0.6293 -0.1334
 8104SOL    HW135948   2.171   1.770   4.838  2.8851  1.4676 -2.4721
 8104SOL    HW235949   2.213   1.907   4.884 -1.4412  0.0042  1.1756
 8105SOL     OW35950   3.990   1.435   8.970 -0.0384 -0.1464  0.7848
 8105SOL    HW135951   4.012   1.491   9.044  0.0932 -0.8420  1.2717
 8105SOL    HW235952   4.042   1.477   8.901 -1.2515 -2.3347 -1.4665
 8106SOL     OW35953   4.451   1.983  14.545  0.4067  0.2734 -0.0352
 8106SOL    HW135954   4.406   1.925  14.483  0.2806 -0.1101  0.4066
 8106SOL    HW235955   4.476   2.057  14.490  0.1171  1.0444  0.8823
 8107SOL     OW35956   1.181   2.248  12.662 -0.5783  0.0664 -0.1937
 8107SOL    HW135957   1.150   2.166  12.624  1.1634  0.0289 -1.5342
 8107SOL    HW235958   1.267   2.218  12.693 -0.0498  2.0943  0.3353
 8108SOL     OW35959   2.749   3.779   6.862  0.2431  0.2996  0.2654
 8108SOL    HW135960   2.726   3.704   6.916 -0.4494  1.0686  1.0368
 8108SOL    HW235961   2.821   3.744   6.810 -0.6795 -1.6944  0.3477
 8109SOL     OW35962   4.372   2.905  15.042 -0.5919  0.1410 -0.0372
 8109SOL    HW135963   4.336   2.875  15.125  1.1585  0.4006  0.8026
 8109SOL    HW235964   4.368   2.831  14.980 -3.5728 -0.5097  0.9210
 8110SOL     OW35965   0.960   1.666   1.542  0.0222 -0.0950  0.3170
 8110SOL    HW135966   1.051   1.689   1.524 -0.6057  4.2572  2.5306
 8110SOL    HW235967   0.985   1.599   1.605 -0.6892 -0.8827 -0.2320
 8111SOL     OW35968   2.215   0.064   9.776 -0.2150  0.3489 -0.1108
 8111SOL    HW135969   2.183   0.154   9.773  1.0377  0.8327  1.4081
 8111SOL    HW235970   2.133   0.026   9.808 -0.1097  0.1629 -0.0615
 8112SOL     OW35971   2.385   1.469   6.924 -0.0466 -0.2000 -0.1093
 8112SOL    HW135972   2.295   1.453   6.954  0.7022  0.0686  2.2744
 8112SOL    HW235973   2.399   1.547   6.977 -0.9493  0.2919 -0.6030
 8113SOL     OW35974   2.871   3.070  14.999 -0.2358 -0.6726 -0.1086
 8113SOL    HW135975   2.826   2.986  14.989  1.1888 -1.4269 -0.1923
 8113SOL    HW235976   2.944   3.064  15.060  0.3734  2.0706 -0.5719
 8114SOL     OW35977   1.433   3.123   4.940  0.1535 -0.1397  0.0510
 8114SOL    HW135978   1.373   3.125   4.865  2.2277  0.2235 -1.6237
 8114SOL    HW235979   1.521   3.098   4.912  1.3301  2.5988  1.3130
 8115SOL     OW35980   1.567   0.574  10.429 -0.3301 -0.4143 -0.0113
 8115SOL    HW135981   1.611   0.489  10.420  0.3304 -0.0066 -0.5714
 8115SOL    HW235982   1.479   0.550  10.399 -0.7475 -0.6346  1.3853
 8116SOL     OW35983   2.890   1.627   2.150 -0.0542 -0.4492  0.3061
 8116SOL    HW135984   2.909   1.582   2.233  0.1468  1.7247  1.4282
 8116SOL    HW235985   2.963   1.687   2.143 -1.2364  1.0845  1.0899
 8117SOL     OW35986   1.869   3.227   1.147 -0.1396  0.1357  0.1632
 8117SOL    HW135987   1.799   3.292   1.144 -0.0453  0.2044 -0.4405
 8117SOL    HW235988   1.832   3.159   1.204 -0.7450 -0.1489 -0.5674
 8118SOL     OW35989   2.313   4.441   5.890  0.5057  0.2229 -0.0092
 8118SOL    HW135990   2.335   4.534   5.905 -2.2425  0.7028  1.0538
 8118SOL    HW235991   2.389   4.401   5.933 -0.3536  0.2668  1.5787
 8119SOL     OW35992   0.572   3.626   7.230  0.0851 -0.3117  0.6684
 8119SOL    HW135993   0.484   3.615   7.193  0.1822  0.5609  0.1960
 8119SOL    HW235994   0.625   3.558   7.189  0.2097  0.4117 -0.3593
 8120SOL     OW35995   2.093   2.900   4.032  0.4162 -0.6050  0.5701
 8120SOL    HW135996   2.160   2.876   4.097  0.1807  1.3066  1.5062
 8120SOL    HW235997   2.050   2.965   4.087 -0.6247 -0.7646 -0.0660
 8121SOL     OW35998   0.343   4.083   7.425  0.8107 -0.0596  0.6497
 8121SOL    HW135999   0.341   4.179   7.428  2.2821 -0.0165 -0.0047
 8121SOL    HW236000   0.384   4.061   7.508 -0.0728 -0.1182  1.0789
 8122SOL     OW36001   1.071   3.184   4.297  0.3598  0.1919 -0.0590
 8122SOL    HW136002   1.037   3.120   4.359  0.3668  1.4032  1.2184
 8122SOL    HW236003   1.142   3.221   4.349 -0.1587  2.2553 -0.8116
 8123SOL     OW36004   0.170   1.094  13.099  0.5577 -0.9065  0.4626
 8123SOL    HW136005   0.218   1.077  13.019 -1.3764  1.3318 -1.1866
 8123SOL    HW236006   0.235   1.144  13.149 -0.1050  0.2313  0.1984
 8124SOL     OW36007   0.883   0.950   5.446 -0.0361 -0.0354  0.1705
 8124SOL    HW136008   0.945   0.878   5.433  0.0719 -0.2482  1.8175
 8124SOL    HW236009   0.934   1.000   5.510  2.9917 -1.7903 -0.8685
 8125SOL     OW36010   4.262   3.650   5.498  0.5244  0.4964  0.0024
 8125SOL    HW136011   4.168   3.662   5.490  0.3977  0.3026  1.1803
 8125SOL    HW236012   4.265   3.686   5.587  2.5285 -0.3113  0.2701
 8126SOL     OW36013   2.647   4.577   3.639  0.0053  0.1316  0.4827
 8126SOL    HW136014   2.671   4.640   3.707 -1.5439  0.0701  1.0861
 8126SOL    HW236015   2.684   4.627   3.565  1.1918 -0.9095  0.3640
 8127SOL     OW36016   3.062   2.066   1.882  0.2444 -0.3480  0.2025
 8127SOL    HW136017   3.076   1.978   1.845  2.0261 -0.2341  0.6111
 8127SOL    HW236018   3.096   2.126   1.815 -0.6554 -0.1339 -0.0649
 8128SOL     OW36019   2.640   4.224   6.674 -0.1471  0.3784 -0.3936
 8128SOL    HW136020   2.571   4.291   6.668  0.6534  1.3351  1.1584
 8128SOL    HW236021   2.585   4.146   6.685  0.1658 -0.1625 -2.6213
 8129SOL     OW36022   0.591   0.249   4.104 -0.3776  0.4388 -0.4481
 8129SOL    HW136023   0.627   0.330   4.067  1.3061  1.3218  3.1832
 8129SOL    HW236024   0.577   0.269   4.196 -0.5814  1.0938 -0.6225
 8130SOL     OW36025   0.555   0.335   3.595 -0.5169 -0.1908 -0.2752
 8130SOL    HW136026   0.583   0.403   3.656 -0.0861  0.3105 -1.0279
 8130SOL    HW236027   0.636   0.287   3.580 -0.5926  0.4172 -2.6877
 8131SOL     OW36028   0.522   2.318  11.215  0.2253 -0.9074  0.1746
 8131SOL    HW136029   0.430   2.300  11.195  0.6376 -1.9921 -0.7782
 8131SOL    HW236030   0.529   2.289  11.306 -0.0692  1.0601  0.8332
 8132SOL     OW36031   2.406   0.687  13.875  0.1662 -0.4915  0.2240
 8132SOL    HW136032   2.499   0.701  13.894  0.2960  0.2598 -1.0015
 8132SOL    HW236033   2.401   0.608  13.930  1.5733 -0.0877  0.9221
 8133SOL     OW36034   0.450   3.320  13.235 -0.1005  0.2002  0.2367
 8133SOL    HW136035   0.474   3.397  13.286  0.8032  2.0726 -2.9825
 8133SOL    HW236036   0.374   3.298  13.289 -0.9011  2.2807 -0.0558
 8134SOL     OW36037   3.872   4.249   3.006 -0.1248  0.5627  0.2685
 8134SOL    HW136038   3.949   4.197   3.031  2.4774  3.3915 -1.9147
 8134SOL    HW236039   3.821   4.186   2.954 -0.0131 -0.8107  1.8180
 8135SOL     OW36040   1.126   4.555   9.583 -0.0803 -0.3542  0.0785
 8135SOL    HW136041   1.058   4.600   9.534  0.3115  0.8789  0.6768
 8135SOL    HW236042   1.164   4.615   9.647  0.1293  1.6840 -1.9503
 8136SOL     OW36043   3.736   2.905   5.479 -0.3480 -0.3224 -0.2360
 8136SOL    HW136044   3.718   2.822   5.435  0.3691 -0.2215 -0.7365
 8136SOL    HW236045   3.832   2.900   5.473 -0.4185 -1.5703 -0.4401
 8137SOL     OW36046   0.500   3.675  13.719 -0.2668 -0.1004 -0.2640
 8137SOL    HW136047   0.585   3.680  13.675  1.0025 -0.8434  2.1474
 8137SOL    HW236048   0.522   3.598  13.772 -1.2101 -0.4458 -0.3646
 8138SOL     OW36049   4.075   3.633   5.092  0.3485 -0.5092 -0.3718
 8138SOL    HW136050   4.110   3.721   5.077  0.3603 -0.5146 -0.3761
 8138SOL    HW236051   3.980   3.643   5.091  0.3057 -0.9734 -0.8972
 8139SOL     OW36052   2.249   0.047   9.497 -0.5200  0.4025  0.4773
 8139SOL    HW136053   2.278   0.138   9.488 -1.7826  0.6243 -1.5097
 8139SOL    HW236054   2.267   0.025   9.588 -1.6629 -1.0853  0.3361
 8140SOL     OW36055   0.032   3.497   8.857 -0.3983  0.3487  0.7412
 8140SOL    HW136056   0.077   3.517   8.939  2.5456  0.8765 -1.0157
 8140SOL    HW236057   0.105   3.468   8.802 -0.1741  1.2611  0.5513
 8141SOL     OW36058   2.574   4.026  10.338  0.2428  0.3513 -0.1715
 8141SOL    HW136059   2.625   3.960  10.386 -1.1910 -2.0933 -1.9663
 8141SOL    HW236060   2.539   4.083  10.406  0.8466 -1.1865  1.4137
 8142SOL     OW36061   3.794   2.650   7.243 -0.7307 -0.3088  0.6397
 8142SOL    HW136062   3.864   2.585   7.241 -1.0775 -0.6218 -1.3239
 8142SOL    HW236063   3.770   2.654   7.336  1.7764 -1.1201  1.3468
 8143SOL     OW36064   4.546   2.383  11.044  0.0227 -0.0908 -0.1846
 8143SOL    HW136065   4.582   2.313  10.988 -1.4020  0.4711 -1.8186
 8143SOL    HW236066   4.504   2.326  11.108  2.0266 -0.6415  0.6464
 8144SOL     OW36067   2.383   0.019   1.362  0.1030  0.3483 -0.0599
 8144SOL    HW136068   2.336   0.074   1.298  0.6590  1.8124  0.7972
 8144SOL    HW236069   2.388   4.668   1.317  1.8024 -0.2980  1.3693
 8145SOL     OW36070   0.572   1.766  11.675  0.1353 -0.0720 -0.0279
 8145SOL    HW136071   0.624   1.847  11.672 -2.4396  1.5833 -0.3955
 8145SOL    HW236072   0.646   1.706  11.671 -1.7198 -2.0944 -3.3829
 8146SOL     OW36073   1.990   0.182  17.328 -0.0656 -0.4795 -0.2756
 8146SOL    HW136074   1.907   0.219  17.298  0.9203  1.3188 -0.7405
 8146SOL    HW236075   2.045   0.174  17.250 -0.4077  0.8310 -0.6494
 8147SOL     OW36076   3.238   4.369   5.122  0.4332  0.5134 -0.0096
 8147SOL    HW136077   3.204   4.427   5.054  1.2637 -0.8528 -1.5744
 8147SOL    HW236078   3.255   4.286   5.078 -2.3230 -0.8955  1.5420
 8148SOL     OW36079   0.848   3.053   9.752  0.0327  0.1111 -0.6223
 8148SOL    HW136080   0.787   3.041   9.825  0.1075  0.7548 -0.4560
 8148SOL    HW236081   0.842   2.966   9.712 -0.4382  0.3784 -1.1339
 8149SOL     OW36082   0.767   3.709   8.316 -0.1314 -0.6067  0.0654
 8149SOL    HW136083   0.750   3.629   8.365 -1.1641  0.1324  0.9112
 8149SOL    HW236084   0.863   3.712   8.314 -0.2285  2.0187 -1.2311
 8150SOL     OW36085   1.442   0.201  15.001 -0.1741  0.0616  0.1651
 8150SOL    HW136086   1.475   0.155  14.924  0.8627  0.3853  0.4121
 8150SOL    HW236087   1.366   0.154  15.033 -0.3505  0.5048  0.3996
 8151SOL     OW36088   1.859   3.952  16.012  0.1770  0.3873 -0.1023
 8151SOL    HW136089   1.903   3.868  16.029 -0.1689 -0.4474 -3.1727
 8151SOL    HW236090   1.779   3.947  16.064 -0.6144  0.5145 -1.2970
 8152SOL     OW36091   1.634   4.660   5.693  0.4667 -0.1063 -0.1139
 8152SOL    HW136092   1.719   4.660   5.737  1.0416  0.9542 -1.2256
 8152SOL    HW236093   1.620   4.566   5.679 -0.3452  0.2429 -1.6720
 8153SOL     OW36094   1.812   0.543   5.280 -0.2404 -0.2249 -0.5910
 8153SOL    HW136095   1.848   0.473   5.226  1.1030 -0.4831  0.6370
 8153SOL    HW236096   1.773   0.486   5.347  0.2564  0.4018  0.2372
 8154SOL     OW36097   2.363   2.657   4.496 -0.0049  0.0873  0.0903
 8154SOL    HW136098   2.304   2.678   4.569  0.0236  1.1551 -0.1884
 8154SOL    HW236099   2.427   2.728   4.501  1.2464 -1.0430 -0.1130
 8155SOL     OW36100   4.479   2.301   4.929  0.0317  0.3953  0.3569
 8155SOL    HW136101   4.472   2.369   4.863  2.1380  1.2821  1.0533
 8155SOL    HW236102   4.392   2.304   4.969  0.0473  1.6724  0.2844
 8156SOL     OW36103   0.531   0.773   1.781  0.1773  0.0543 -0.3776
 8156SOL    HW136104   0.525   0.863   1.750 -2.1558 -0.1942 -0.5828
 8156SOL    HW236105   0.591   0.737   1.715  1.2795  0.7605  0.2326
 8157SOL     OW36106   3.003   2.093   3.914  0.6866  0.0665 -0.1072
 8157SOL    HW136107   3.098   2.089   3.902  0.8337  2.0549  0.3607
 8157SOL    HW236108   2.991   2.038   3.991  0.8669 -1.6694 -1.3285
 8158SOL     OW36109   0.877   1.983   1.895  0.1637  0.5582  0.0406
 8158SOL    HW136110   0.845   1.909   1.843 -1.2487  2.4032 -1.6981
 8158SOL    HW236111   0.964   1.989   1.854 -0.2557  0.9934 -0.7881
 8159SOL     OW36112   1.723   2.782   3.866 -0.0876  0.7141  0.3577
 8159SOL    HW136113   1.726   2.703   3.812  0.3097  0.6819  0.4257
 8159SOL    HW236114   1.640   2.782   3.914 -0.0272  1.7141  0.4682
 8160SOL     OW36115   0.449   1.371   2.455 -0.0068 -0.4828  0.1359
 8160SOL    HW136116   0.495   1.443   2.412 -2.1739 -0.0670 -1.5247
 8160SOL    HW236117   0.393   1.347   2.381 -0.0422  2.3092 -0.7573
 8161SOL     OW36118   0.371   2.746   4.046 -0.1625 -0.3910 -0.0193
 8161SOL    HW136119   0.281   2.779   4.055 -0.3901 -0.9029 -0.4293
 8161SOL    HW236120   0.366   2.659   4.086 -1.6866  0.0425  0.7454
 8162SOL     OW36121   0.964   2.316  12.832  0.1757 -0.3616  0.1088
 8162SOL    HW136122   1.052   2.287  12.812  0.2787 -0.4025  0.6108
 8162SOL    HW236123   0.948   2.350  12.744  0.5724 -1.2025 -0.2859
 8163SOL     OW36124   1.700   2.344   2.034 -0.3429 -0.4988 -0.1298
 8163SOL    HW136125   1.795   2.341   2.048 -0.5256 -0.2590  1.1255
 8163SOL    HW236126   1.660   2.345   2.121  1.5257  0.1159  0.7342
 8164SOL     OW36127   0.756   0.284   8.647 -0.6239 -0.1718  0.5959
 8164SOL    HW136128   0.755   0.275   8.551  0.0297  0.8463  0.4922
 8164SOL    HW236129   0.673   0.247   8.678 -0.1818 -0.1220  1.8381
 8165SOL     OW36130   4.641   3.245   4.972 -1.0075  0.0570  0.1162
 8165SOL    HW136131   4.702   3.178   4.943 -1.6049 -0.4678  0.0804
 8165SOL    HW236132   4.701   3.319   4.983  0.8831 -1.3287 -0.9981
 8166SOL     OW36133   4.286   1.757   6.356 -0.0612 -0.4863 -0.6851
 8166SOL    HW136134   4.265   1.666   6.335 -1.1642 -0.9159  2.2643
 8166SOL    HW236135   4.240   1.799   6.283 -0.3178 -1.4776 -1.0856
 8167SOL     OW36136   3.824   1.426  14.655  0.4529 -0.0544  0.5234
 8167SOL    HW136137   3.868   1.440  14.738  1.1459 -2.0279  0.4884
 8167SOL    HW236138   3.884   1.371  14.605  1.0761  0.0797  1.1333
 8168SOL     OW36139   0.578   0.722   6.922 -0.1736  0.0292  0.8632
 8168SOL    HW136140   0.528   0.802   6.938  0.9803  0.8947  0.1856
 8168SOL    HW236141   0.562   0.683   7.008  0.3835 -2.0884 -0.0080
 8169SOL     OW36142   0.932   0.849   3.380  0.2419  0.1186  0.0921
 8169SOL    HW136143   0.989   0.821   3.309  0.7247 -0.3851  0.6829
 8169SOL    HW236144   0.870   0.913   3.345 -0.4542 -1.6771 -1.9095
 8170SOL     OW36145   4.448   4.104  12.099 -0.2200 -0.2628  0.0353
 8170SOL    HW136146   4.469   4.163  12.171 -0.3007  0.7925 -0.8006
 8170SOL    HW236147   4.483   4.149  12.021 -0.0468 -0.0079  0.2584
 8171SOL     OW36148   3.375   1.631   5.537 -0.1207 -0.1593  0.1111
 8171SOL    HW136149   3.362   1.622   5.442 -0.3886  1.2631  0.0232
 8171SOL    HW236150   3.466   1.608   5.556 -0.2463  0.3554  1.3291
 8172SOL     OW36151   1.957   0.030  10.301  0.6526  0.0342  0.2478
 8172SOL    HW136152   1.919   4.701  10.361  1.1414  0.8268  1.3922
 8172SOL    HW236153   1.969   0.110  10.352 -1.8371  0.7583 -0.3052
 8173SOL     OW36154   2.570   0.166   9.150  0.4920 -0.2855  0.0274
 8173SOL    HW136155   2.578   0.131   9.061  1.4577  0.8619 -0.3441
 8173SOL    HW236156   2.630   0.240   9.154 -2.3201  2.0255 -0.8127
 8174SOL     OW36157   2.066   2.134   7.415 -0.0297 -0.4647  0.2243
 8174SOL    HW136158   2.124   2.136   7.338 -1.3604  0.0933 -0.7654
 8174SOL    HW236159   2.035   2.225   7.416 -3.0010 -1.4812  1.9194
 8175SOL     OW36160   2.426   0.422   0.820 -0.0954 -0.2548  0.8038
 8175SOL    HW136161   2.409   0.514   0.799  0.4921 -0.3381 -0.0709
 8175SOL    HW236162   2.411   0.415   0.914 -0.1651 -1.9674  0.6680
 8176SOL     OW36163   3.891   4.718   9.958 -0.1841 -0.3973  0.1310
 8176SOL    HW136164   3.856   4.630   9.969 -1.9165  0.0089 -1.9688
 8176SOL    HW236165   3.890   0.023  10.045 -0.9439 -0.0123 -0.0499
 8177SOL     OW36166   0.599   3.449  11.629 -0.4355 -0.1789 -1.0092
 8177SOL    HW136167   0.578   3.357  11.616 -1.1779 -0.2829  0.8743
 8177SOL    HW236168   0.667   3.447  11.562  0.4561  4.2734 -0.2755
 8178SOL     OW36169   4.558   2.408  12.767 -0.3063 -0.5002 -0.7016
 8178SOL    HW136170   4.483   2.430  12.823 -0.0234 -0.0242 -0.5001
 8178SOL    HW236171   4.511   2.366  12.695 -0.4116 -0.0216 -0.9125
 8179SOL     OW36172   3.398   3.693   2.487 -0.0376 -0.4437 -0.1560
 8179SOL    HW136173   3.447   3.674   2.566 -1.0207 -0.9207  0.3391
 8179SOL    HW236174   3.442   3.633   2.427 -2.3056  0.8658 -3.1289
 8180SOL     OW36175   1.958   1.903   1.991  0.4664 -0.3166  0.1583
 8180SOL    HW136176   2.034   1.957   2.013  1.6939 -1.7047 -0.6570
 8180SOL    HW236177   1.967   1.888   1.897 -3.6799 -1.4266 -0.0855
 8181SOL     OW36178   3.764   2.312   9.696 -0.2315  0.7437 -0.2599
 8181SOL    HW136179   3.839   2.371   9.686 -1.8841  3.1637  1.5199
 8181SOL    HW236180   3.754   2.312   9.791 -1.2686 -1.4821 -0.3801
 8182SOL     OW36181   3.461   4.350   5.615 -0.0297 -0.1399  0.1048
 8182SOL    HW136182   3.418   4.278   5.661 -1.1679 -1.3578 -2.9039
 8182SOL    HW236183   3.447   4.319   5.525 -0.1557  0.1761  0.0166
 8183SOL     OW36184   1.371   2.444   0.175  0.4466 -0.0562 -0.3726
 8183SOL    HW136185   1.322   2.392   0.239  2.0110 -0.3591  0.5591
 8183SOL    HW236186   1.450   2.469   0.223  0.2624 -0.6608  0.2450
 8184SOL     OW36187   1.961   2.908   5.749  0.3501 -0.0893 -0.6645
 8184SOL    HW136188   2.002   2.822   5.759 -3.6816 -1.5586  3.1013
 8184SOL    HW236189   1.908   2.910   5.828  1.0552  1.4668 -0.2311
 8185SOL     OW36190   0.017   4.418  13.694 -0.3035 -0.0972  0.3201
 8185SOL    HW136191   4.660   4.431  13.667 -0.2963 -3.0366 -1.0594
 8185SOL    HW236192   0.060   4.398  13.611  1.1170  2.1700  0.5166
 8186SOL     OW36193   4.512   3.271   8.113  0.6613 -0.8994  0.4631
 8186SOL    HW136194   4.492   3.214   8.039 -1.0168 -0.3790  0.5194
 8186SOL    HW236195   4.588   3.224   8.147 -0.8016 -1.5640  2.7612
 8187SOL     OW36196   1.488   3.902   6.868 -0.0326  0.6787 -0.0166
 8187SOL    HW136197   1.567   3.850   6.882 -0.7698 -0.6256 -0.6889
 8187SOL    HW236198   1.519   3.980   6.821  1.8994 -1.7567 -2.7578
 8188SOL     OW36199   2.471   4.464  10.351  0.0975 -0.3451 -0.5160
 8188SOL    HW136200   2.535   4.455  10.280 -1.1986 -0.5470 -1.6582
 8188SOL    HW236201   2.415   4.532  10.312 -0.7819 -0.1239  1.1090
 8189SOL     OW36202   2.432   0.982   9.078  0.1856  0.0082 -0.1908
 8189SOL    HW136203   2.442   1.056   9.138  0.3485  0.2727 -0.5422
 8189SOL    HW236204   2.376   0.925   9.130  0.6174  0.8759  1.2365
 8190SOL     OW36205   1.878   2.218   3.137 -0.0470  0.7192 -0.5626
 8190SOL    HW136206   1.887   2.313   3.140  1.2871  0.6330 -1.9677
 8190SOL    HW236207   1.890   2.190   3.046 -1.0101  1.3088 -0.8773
 8191SOL     OW36208   0.270   2.518   7.669 -0.1297  0.5199 -0.1626
 8191SOL    HW136209   0.334   2.587   7.650  1.4287 -1.2857 -1.4456
 8191SOL    HW236210   0.191   2.569   7.687 -1.3653 -1.7340  0.7058
 8192SOL     OW36211   4.077   3.664  11.695  0.6386  0.2102  0.4322
 8192SOL    HW136212   4.137   3.591  11.705  1.6500  0.8926 -0.6596
 8192SOL    HW236213   4.054   3.669  11.788 -1.3648 -0.7658  0.0009
 8193SOL     OW36214   4.726   4.671   6.366 -0.4805  0.4431 -0.3248
 8193SOL    HW136215   4.716   4.647   6.459 -0.0073  1.3534 -0.0312
 8193SOL    HW236216   0.046   4.604   6.325  2.5905  2.5248  0.2857
 8194SOL     OW36217   3.651   4.546  11.949  0.1319  0.2362 -0.5099
 8194SOL    HW136218   3.665   4.464  11.995 -1.7785  0.0023 -0.3224
 8194SOL    HW236219   3.566   4.581  11.975  0.2350 -0.7333  1.0948
 8195SOL     OW36220   2.774   2.388   4.152  0.0280 -0.6140  0.1509
 8195SOL    HW136221   2.813   2.473   4.131 -0.2434 -0.6493 -0.4980
 8195SOL    HW236222   2.794   2.335   4.075 -0.1287 -2.2559  1.2293
 8196SOL     OW36223   2.888   2.339   3.914 -1.1678  0.4107  0.2765
 8196SOL    HW136224   2.915   2.403   3.847  0.1395  0.1552  0.5583
 8196SOL    HW236225   2.971   2.296   3.934 -0.7082  1.4425  0.6366
 8197SOL     OW36226   1.344   4.108   1.157  0.2225  0.3013  0.1892
 8197SOL    HW136227   1.394   4.033   1.190  0.8490  0.4134 -0.5031
 8197SOL    HW236228   1.388   4.127   1.074  0.8143  1.4249  0.7635
 8198SOL     OW36229   1.435   1.514  16.763  0.6630 -0.8153  0.2110
 8198SOL    HW136230   1.508   1.515  16.825  1.6331 -0.8726 -0.9149
 8198SOL    HW236231   1.363   1.524  16.825  0.0860 -0.6388 -0.4851
 8199SOL     OW36232   2.688   1.167  12.456  0.4509 -0.2442  0.4982
 8199SOL    HW136233   2.623   1.106  12.492 -0.2505  0.4351  0.3697
 8199SOL    HW236234   2.745   1.108  12.407  1.0697 -0.8072  1.8851
 8200SOL     OW36235   1.423   0.820   8.828  0.2452  0.2105  0.2219
 8200SOL    HW136236   1.351   0.765   8.860  0.0430  0.3133 -0.0515
 8200SOL    HW236237   1.404   0.823   8.734  3.7118 -0.8997 -0.4937
 8201SOL     OW36238   2.468   0.738   7.798 -0.1876  0.0479  0.1924
 8201SOL    HW136239   2.414   0.700   7.729  1.2043  0.5709 -1.1869
 8201SOL    HW236240   2.405   0.719   7.867  1.1828  1.3507  1.7955
 8202SOL     OW36241   0.798   3.270   9.599 -0.0668  0.0966 -0.0082
 8202SOL    HW136242   0.853   3.233   9.668 -1.2618 -2.0663 -0.2240
 8202SOL    HW236243   0.713   3.231   9.621  0.1555 -0.7092 -0.5924
 8203SOL     OW36244   1.718   4.572  15.865  0.8358 -0.4673  0.4684
 8203SOL    HW136245   1.644   4.542  15.917 -0.6379  0.5897 -1.0413
 8203SOL    HW236246   1.718   4.666  15.881  2.6269 -0.6495  1.5606
 8204SOL     OW36247   2.095   3.776   5.964  0.1722 -0.2519 -0.4726
 8204SOL    HW136248   2.051   3.708   5.913  1.7030 -1.0661 -0.6952
 8204SOL    HW236249   2.081   3.850   5.905 -0.6704 -0.4006 -0.4616
 8205SOL     OW36250   1.902   3.257  16.133 -0.5934  0.2591  0.3425
 8205SOL    HW136251   1.820   3.227  16.172 -2.1417  1.6225 -1.8356
 8205SOL    HW236252   1.927   3.320  16.200 -0.3180  1.1129 -0.5496
 8206SOL     OW36253   1.961   3.572   2.798  0.3248 -0.1208  0.1537
 8206SOL    HW136254   2.000   3.658   2.784 -1.7547  0.6927 -0.6195
 8206SOL    HW236255   1.868   3.591   2.782 -0.3267 -1.2224  2.6011
 8207SOL     OW36256   4.656   2.554   6.732 -0.1236 -0.2747  0.2638
 8207SOL    HW136257   4.591   2.526   6.797 -1.0763  0.0756 -0.5259
 8207SOL    HW236258   4.637   2.647   6.745  0.9782  0.0614 -0.6091
 8208SOL     OW36259   2.382   1.313   4.132  0.6027  0.5655 -0.6535
 8208SOL    HW136260   2.347   1.366   4.060 -0.5003  1.3966  0.4901
 8208SOL    HW236261   2.436   1.384   4.168  0.9800  0.3157 -0.7226
 8209SOL     OW36262   1.449   3.344   0.744 -0.2690  0.0526 -0.0712
 8209SOL    HW136263   1.425   3.366   0.834 -2.0778  2.5509 -1.1856
 8209SOL    HW236264   1.406   3.263   0.716  1.2927  0.1230 -2.6223
 8210SOL     OW36265   1.594   4.197   6.314  0.1972 -0.4616 -0.0986
 8210SOL    HW136266   1.675   4.242   6.337 -0.2600  1.0680 -1.4330
 8210SOL    HW236267   1.572   4.224   6.224 -1.1165  0.4388  0.4906
 8211SOL     OW36268   4.639   3.389   3.601 -0.6357  0.2967 -0.1916
 8211SOL    HW136269   4.584   3.459   3.637  0.3958  0.7152  0.5466
 8211SOL    HW236270   4.687   3.441   3.537 -1.0492  0.9275  0.0155
 8212SOL     OW36271   0.775   3.460   2.624  0.0136  0.3008 -0.4289
 8212SOL    HW136272   0.830   3.384   2.641 -0.1413 -0.0977 -1.7382
 8212SOL    HW236273   0.697   3.434   2.673 -0.7290 -2.2966 -3.0016
 8213SOL     OW36274   0.859   0.383   3.469 -0.3218 -0.3316 -0.2646
 8213SOL    HW136275   0.806   0.304   3.458 -2.6938  1.3149 -0.6292
 8213SOL    HW236276   0.806   0.444   3.521 -2.0888 -2.6025  0.6365
 8214SOL     OW36277   3.768   2.042   9.227 -0.8816  0.1795 -0.1236
 8214SOL    HW136278   3.740   2.119   9.277 -0.1536  1.6247 -1.9673
 8214SOL    HW236279   3.687   2.011   9.187 -2.3249  1.3394  1.9004
 8215SOL     OW36280   3.489   3.739   3.982  0.4773  0.0282 -0.4161
 8215SOL    HW136281   3.423   3.781   4.037  1.9008  2.1539 -0.3456
 8215SOL    HW236282   3.437   3.715   3.905  0.1570  0.3030 -0.2858
 8216SOL     OW36283   2.761   0.668   3.715 -0.7120 -0.8781 -0.3834
 8216SOL    HW136284   2.667   0.678   3.699 -0.6892  0.1770  0.1632
 8216SOL    HW236285   2.758   0.688   3.808  1.1726 -2.3204 -0.0272
 8217SOL     OW36286   0.450   4.531   4.348  0.3493  0.3588  0.4239
 8217SOL    HW136287   0.486   4.443   4.339  0.2889  0.2118  1.7521
 8217SOL    HW236288   0.526   4.574   4.387  1.2157  1.0506 -2.0129
 8218SOL     OW36289   3.500   2.662   6.301 -0.2975 -0.2694  0.0072
 8218SOL    HW136290   3.406   2.677   6.315 -0.5331 -1.2266 -0.5955
 8218SOL    HW236291   3.537   2.699   6.381  1.1887 -1.1084 -0.2904
 8219SOL     OW36292   2.077   3.140   3.657 -0.2141  0.1020  0.3301
 8219SOL    HW136293   2.047   3.220   3.700 -0.8423  0.6496 -1.1131
 8219SOL    HW236294   2.010   3.074   3.670 -0.4197  0.1863 -0.2821
 8220SOL     OW36295   2.938   1.337  12.292 -0.5229 -0.3507  0.4498
 8220SOL    HW136296   2.886   1.261  12.265 -0.2446 -0.7036  0.9038
 8220SOL    HW236297   2.986   1.365  12.214 -1.9852 -1.8572 -0.9982
 8221SOL     OW36298   4.648   1.862   4.619 -0.3872  0.6382 -0.2291
 8221SOL    HW136299   4.658   1.824   4.707 -1.2311 -0.8945 -0.8012
 8221SOL    HW236300   4.566   1.910   4.616 -1.7091 -1.5610  0.5605
 8222SOL     OW36301   1.249   0.305   0.738  0.1991 -0.1334  0.1317
 8222SOL    HW136302   1.218   0.357   0.663 -2.9561 -1.1984  0.6766
 8222SOL    HW236303   1.313   0.365   0.775 -0.9283  2.5103 -2.1801
 8223SOL     OW36304   0.520   1.817  11.924 -0.4409 -0.2154 -0.4402
 8223SOL    HW136305   0.432   1.813  11.960  0.2594  0.6821  1.3749
 8223SOL    HW236306   0.510   1.783  11.835  0.4316 -1.2005 -0.1632
 8224SOL     OW36307   4.133   0.061   4.369 -0.0699 -0.2755  0.4794
 8224SOL    HW136308   4.084   0.143   4.373  0.1575 -0.1398  0.5021
 8224SOL    HW236309   4.062   4.732   4.360  0.4643 -0.7960 -0.1194
 8225SOL     OW36310   3.204   3.296  10.738 -0.0744 -0.5660  0.1189
 8225SOL    HW136311   3.122   3.345  10.729 -1.5276 -2.8452  1.0114
 8225SOL    HW236312   3.204   3.270  10.830  1.2818 -0.5350  0.1265
 8226SOL     OW36313   1.823   4.380   9.253  0.0649 -0.3378  0.7464
 8226SOL    HW136314   1.730   4.373   9.233 -0.1108  1.7108  0.8118
 8226SOL    HW236315   1.820   4.414   9.342 -0.5787  0.2432  0.4982
 8227SOL     OW36316   3.955   0.758   2.208 -0.6454  0.6463 -1.1373
 8227SOL    HW136317   4.026   0.698   2.230 -1.3085 -0.7034 -2.6766
 8227SOL    HW236318   3.950   0.748   2.113 -1.4474  3.2040 -1.3705
 8228SOL     OW36319   0.124   4.544   8.759 -0.3128 -0.2689  0.3904
 8228SOL    HW136320   0.072   4.622   8.777  0.3359  0.4471 -0.8579
 8228SOL    HW236321   0.099   4.485   8.830 -1.7469 -0.8987 -0.6393
 8229SOL     OW36322   3.027   1.326   0.164  0.1229 -0.2927 -0.1283
 8229SOL    HW136323   3.057   1.244   0.124 -0.7909 -0.6011 -0.1778
 8229SOL    HW236324   2.990   1.298   0.248  0.0411 -3.3474 -1.1818
 8230SOL     OW36325   3.140   2.766   0.794 -0.3988 -0.0050 -0.1257
 8230SOL    HW136326   3.154   2.701   0.863  0.4158  0.4844  0.1739
 8230SOL    HW236327   3.159   2.717   0.715 -1.3303 -1.2281  0.4043
 8231SOL     OW36328   3.269   3.308   2.981 -0.1015  0.2072 -0.9316
 8231SOL    HW136329   3.346   3.276   3.028 -0.5884 -0.9000 -0.8892
 8231SOL    HW236330   3.247   3.224   2.941  0.4445  0.5796 -2.0216
 8232SOL     OW36331   3.767   1.128   3.428 -0.2204 -0.4104  0.1075
 8232SOL    HW136332   3.795   1.217   3.404 -0.6106 -0.6187 -1.1432
 8232SOL    HW236333   3.708   1.148   3.500 -0.0350  0.5248  0.0083
 8233SOL     OW36334   3.820   2.396   2.237  0.0460 -0.0677 -0.2471
 8233SOL    HW136335   3.793   2.430   2.323 -0.5239  0.8119 -0.7791
 8233SOL    HW236336   3.755   2.325   2.232 -0.6651  0.5828 -0.2017
 8234SOL     OW36337   0.855   2.597   3.891  0.2024 -0.3739  0.1847
 8234SOL    HW136338   0.896   2.680   3.869  0.5103 -1.1978 -2.3169
 8234SOL    HW236339   0.863   2.594   3.986  2.5386  0.4912  0.0111
 8235SOL     OW36340   4.004   3.190   7.393  0.5623  0.0680  0.3895
 8235SOL    HW136341   3.954   3.217   7.470 -2.4085  0.7964 -1.8081
 8235SOL    HW236342   4.079   3.149   7.436  1.2271 -0.6489 -1.4843
 8236SOL     OW36343   4.350   0.152   3.241  0.0093  0.2803  0.6104
 8236SOL    HW136344   4.263   0.114   3.258 -1.4174  2.1830 -2.4914
 8236SOL    HW236345   4.408   0.078   3.263 -1.0632 -0.6131  0.4549
 8237SOL     OW36346   2.315   3.812   6.841 -0.4211  0.4268 -0.0589
 8237SOL    HW136347   2.344   3.759   6.915 -0.8645 -0.5514 -0.5808
 8237SOL    HW236348   2.222   3.797   6.857 -0.2279  1.2877  1.8805
 8238SOL     OW36349   1.802   0.174   9.539 -0.5214 -0.7527  0.8847
 8238SOL    HW136350   1.763   0.095   9.577  0.5271 -0.1779  3.1060
 8238SOL    HW236351   1.753   0.179   9.457  0.5612 -0.4754  0.2584
 8239SOL     OW36352   2.388   4.233   8.428 -0.1436  0.1955 -0.2747
 8239SOL    HW136353   2.362   4.141   8.424  2.0135 -0.5345  2.4045
 8239SOL    HW236354   2.361   4.259   8.340 -1.1385  1.3203  0.3759
 8240SOL     OW36355   2.735   2.965  17.417  0.2281  0.6655 -0.2091
 8240SOL    HW136356   2.711   2.969  17.325 -0.6958 -0.8258 -0.0338
 8240SOL    HW236357   2.724   2.871  17.427 -0.7168  0.9166  1.0402
 8241SOL     OW36358   3.282   1.049  16.912 -0.7169  0.2262  0.5903
 8241SOL    HW136359   3.360   0.995  16.923 -0.5089  0.4283  0.0830
 8241SOL    HW236360   3.237   1.011  16.836 -0.4055  2.4271 -0.6925
 8242SOL     OW36361   0.551   2.661  12.222 -0.0898 -0.1266 -0.2626
 8242SOL    HW136362   0.533   2.568  12.210 -1.6474  0.1969 -0.4009
 8242SOL    HW236363   0.573   2.655  12.316  2.0835  1.7994 -0.6534
 8243SOL     OW36364   3.109   1.746  15.535 -0.1136  0.3041 -0.4579
 8243SOL    HW136365   3.093   1.657  15.568 -0.5406  0.9364  1.0281
 8243SOL    HW236366   3.182   1.769  15.592 -0.1598 -0.0013 -0.2715
 8244SOL     OW36367   3.002   1.595  11.015 -0.0030  0.1066  0.4809
 8244SOL    HW136368   2.956   1.531  11.069 -1.2176 -0.8394 -1.6825
 8244SOL    HW236369   3.091   1.561  11.025  0.6714  1.6002 -0.6057
 8245SOL     OW36370   2.501   3.051  16.760 -0.2217  0.1011 -0.2304
 8245SOL    HW136371   2.443   3.126  16.753 -0.7053 -0.0656  2.1817
 8245SOL    HW236372   2.548   3.052  16.676 -0.8480 -1.4233 -0.6110
 8246SOL     OW36373   2.670   0.517   6.522 -0.1012 -0.0489 -0.1325
 8246SOL    HW136374   2.589   0.475   6.493  0.0157  0.4193 -1.1133
 8246SOL    HW236375   2.644   0.604   6.494 -0.6954 -0.0273  0.4821
 8247SOL     OW36376   3.579   1.685   6.929  0.1865  0.2359  0.6467
 8247SOL    HW136377   3.587   1.739   6.850  0.2979  0.9420  1.1452
 8247SOL    HW236378   3.607   1.735   7.005  2.6219 -0.9969  0.5858
 8248SOL     OW36379   1.652   2.159   1.563  0.1466 -0.4524 -0.4059
 8248SOL    HW136380   1.711   2.209   1.618 -1.1067  0.3831  0.1854
 8248SOL    HW236381   1.697   2.185   1.482  0.2972 -1.8262 -0.7539
 8249SOL     OW36382   3.667   0.979   6.410  1.1707 -0.2997  0.3121
 8249SOL    HW136383   3.614   1.037   6.465  0.1229  0.3064 -1.3232
 8249SOL    HW236384   3.754   0.967   6.448  1.8635  2.7952 -0.2610
 8250SOL     OW36385   3.424   3.548   5.243 -0.6341  0.3428 -0.0033
 8250SOL    HW136386   3.418   3.485   5.171 -1.3216 -0.9424  1.1774
 8250SOL    HW236387   3.490   3.512   5.302 -0.3671 -0.7139 -0.9472
 8251SOL     OW36388   1.493   2.481   7.069  0.2533 -0.2131 -0.0709
 8251SOL    HW136389   1.451   2.536   7.002  1.2232 -1.4975 -1.7321
 8251SOL    HW236390   1.429   2.462   7.138  0.9871  2.0514  1.2504
 8252SOL     OW36391   3.089   0.533   5.956  0.1628 -0.8237  0.3822
 8252SOL    HW136392   3.163   0.590   5.939 -1.9202  1.8289  0.2505
 8252SOL    HW236393   3.124   0.482   6.029  1.9604 -1.5407 -0.9942
 8253SOL     OW36394   0.711   0.177   6.842  0.7543 -0.3073 -0.1481
 8253SOL    HW136395   0.627   0.221   6.854  1.0120  0.1282  0.0762
 8253SOL    HW236396   0.766   0.222   6.906 -0.6617  1.2339 -0.0053
 8254SOL     OW36397   3.487   1.644   8.154  0.0805 -0.1764  0.0437
 8254SOL    HW136398   3.508   1.623   8.245  0.6441  1.9423  0.4012
 8254SOL    HW236399   3.572   1.677   8.124  0.4315  0.2607  1.5113
 8255SOL     OW36400   4.248   0.928   3.715 -0.1620 -0.0870  0.1397
 8255SOL    HW136401   4.193   0.897   3.787  1.5948 -2.3053  0.5217
 8255SOL    HW236402   4.288   0.849   3.678 -1.7662 -1.0677  0.4697
 8256SOL     OW36403   3.053   0.067  11.549  0.2910  0.6034 -0.2144
 8256SOL    HW136404   3.110   0.118  11.607  0.4566 -0.6179  0.6938
 8256SOL    HW236405   3.096   4.716  11.550  0.1848  0.5427 -1.2528
 8257SOL     OW36406   3.690   0.909   0.424 -0.3171  0.2797 -0.3921
 8257SOL    HW136407   3.728   0.827   0.457 -1.7008 -0.2399 -0.1037
 8257SOL    HW236408   3.716   0.898   0.332  0.8268 -0.2460 -0.0074
 8258SOL     OW36409   4.119   4.497   8.245 -0.4853  0.3072 -0.1698
 8258SOL    HW136410   4.043   4.440   8.237  0.0074 -0.0965 -2.1636
 8258SOL    HW236411   4.089   4.550   8.319 -0.9736 -0.1344 -0.0555
 8259SOL     OW36412   1.094   0.797   5.408  0.9432 -0.8769  0.4514
 8259SOL    HW136413   1.097   0.718   5.354  0.4502 -0.2710 -0.4482
 8259SOL    HW236414   1.119   0.779   5.499 -0.7053 -1.1431  0.8513
 8260SOL     OW36415   4.114   1.664   4.465 -1.0116  0.7194  0.2447
 8260SOL    HW136416   4.107   1.726   4.539  0.4388 -1.0137  1.8397
 8260SOL    HW236417   4.170   1.595   4.500  0.1991  2.4112  1.6712
 8261SOL     OW36418   0.938   4.700  15.085 -0.4221 -0.1259 -0.0087
 8261SOL    HW136419   0.897   0.024  15.148  0.7632 -0.4191  1.0423
 8261SOL    HW236420   0.919   0.024  15.011 -2.1370 -0.5733  0.0912
 8262SOL     OW36421   2.929   2.846   6.179 -0.0327 -0.3944  0.3014
 8262SOL    HW136422   2.991   2.852   6.252 -0.5621  0.2696  0.6981
 8262SOL    HW236423   2.926   2.751   6.175  0.0156 -0.4971  2.7187
 8263SOL     OW36424   1.460   1.888   8.198 -0.0679  0.2391  0.3912
 8263SOL    HW136425   1.468   1.914   8.289  0.0195 -0.6384  0.6373
 8263SOL    HW236426   1.548   1.863   8.169 -0.5351 -1.0711  0.1033
 8264SOL     OW36427   2.741   1.536  12.344 -0.0215  0.1903  0.1470
 8264SOL    HW136428   2.816   1.478  12.332 -0.6387 -0.7175  0.5946
 8264SOL    HW236429   2.778   1.623  12.332 -0.6809  0.5538  0.6989
 8265SOL     OW36430   1.503   1.592   6.701  0.5042  0.5549  0.1348
 8265SOL    HW136431   1.549   1.551   6.774  0.9351 -0.6216 -0.7962
 8265SOL    HW236432   1.560   1.670   6.701 -0.0660  0.9685  0.8937
 8266SOL     OW36433   4.596   3.170   3.235  0.1511 -0.2860 -0.2315
 8266SOL    HW136434   4.690   3.185   3.245 -0.0301 -0.2997  1.4210
 8266SOL    HW236435   4.593   3.077   3.211  0.5803 -1.0804  2.8531
 8267SOL     OW36436   0.382   2.012   7.064 -0.4240 -0.1242  0.6497
 8267SOL    HW136437   0.445   2.078   7.095 -1.5405  1.7930 -1.2146
 8267SOL    HW236438   0.397   2.005   6.970  1.5224  2.3849  0.7573
 8268SOL     OW36439   1.141   2.616  16.720  0.0629 -0.1425  0.3069
 8268SOL    HW136440   1.068   2.643  16.664  0.7416  3.4254  1.1382
 8268SOL    HW236441   1.189   2.562  16.657 -1.9642  0.0123 -1.3689
 8269SOL     OW36442   4.113   3.264   8.541  0.2363  0.1397  0.2845
 8269SOL    HW136443   4.048   3.202   8.510  1.4882 -1.0392  0.0323
 8269SOL    HW236444   4.053   3.335   8.565 -0.2558  0.0036 -0.5640
 8270SOL     OW36445   3.325   3.267   3.590  0.5735  0.5977 -0.4950
 8270SOL    HW136446   3.266   3.267   3.666  0.1210 -0.6551 -0.8471
 8270SOL    HW236447   3.406   3.253   3.638 -0.8651  0.3826  1.8969
 8271SOL     OW36448   1.016   4.001  15.912  0.1296 -0.0708 -0.5012
 8271SOL    HW136449   1.081   3.980  15.845 -0.1066 -1.5812 -0.2731
 8271SOL    HW236450   1.056   3.931  15.964 -0.2502  0.2232  0.1937
 8272SOL     OW36451   1.997   1.404   0.676 -0.2785 -0.6779 -0.2732
 8272SOL    HW136452   1.945   1.439   0.603 -0.9252 -1.7343 -0.3221
 8272SOL    HW236453   2.084   1.429   0.647  0.2044 -2.1783 -0.1119
 8273SOL     OW36454   0.492   3.269  10.954 -0.4955 -0.2925  0.1754
 8273SOL    HW136455   0.491   3.360  10.985 -2.1852 -0.3994  0.4348
 8273SOL    HW236456   0.566   3.276  10.893 -0.8402  3.1470  0.1488
 8274SOL     OW36457   2.586   3.276   0.132 -0.2912 -0.1839 -0.5667
 8274SOL    HW136458   2.529   3.346   0.099  0.6025 -0.2628 -2.2802
 8274SOL    HW236459   2.659   3.292   0.072  1.6923  1.2720  2.2623
 8275SOL     OW36460   0.715   0.154   6.555 -0.0190 -0.1237  0.1246
 8275SOL    HW136461   0.674   0.183   6.636  1.1532 -0.6594  0.9128
 8275SOL    HW236462   0.724   0.231   6.499 -0.2666  1.8151  2.7370
 8276SOL     OW36463   3.968   2.226   2.064 -0.0087  0.1771 -0.0318
 8276SOL    HW136464   3.918   2.300   2.100  0.3679  0.5764 -0.3298
 8276SOL    HW236465   4.056   2.253   2.091 -0.3031 -0.1823  1.2768
 8277SOL     OW36466   0.210   1.852   2.740  0.0513 -0.5129 -0.0505
 8277SOL    HW136467   0.186   1.856   2.833  3.4180 -1.8766  0.8600
 8277SOL    HW236468   0.141   1.797   2.702  0.1217 -0.9972  0.5319
 8278SOL     OW36469   3.496   0.936   8.364 -0.5916 -0.6900  0.2950
 8278SOL    HW136470   3.465   0.846   8.358 -1.2744 -0.5602  1.9342
 8278SOL    HW236471   3.516   0.950   8.271 -0.3547 -1.3474  0.2455
 8279SOL     OW36472   3.303   4.446   7.099  0.8883 -0.5913 -0.0070
 8279SOL    HW136473   3.395   4.441   7.075  0.7991 -2.0014 -0.0920
 8279SOL    HW236474   3.271   4.387   7.031 -1.1902 -0.6247  1.0063
 8280SOL     OW36475   1.371   2.814   6.769 -0.0389 -0.5245 -0.1364
 8280SOL    HW136476   1.278   2.829   6.753 -0.4975  0.1271  3.1241
 8280SOL    HW236477   1.404   2.887   6.717 -0.3283 -0.0434  0.3562
 8281SOL     OW36478   2.751   0.444   7.272 -0.2246 -1.0159 -0.0305
 8281SOL    HW136479   2.804   0.517   7.305  0.6013 -1.0489 -1.2984
 8281SOL    HW236480   2.666   0.485   7.288 -0.7390 -1.9255 -0.3917
 8282SOL     OW36481   1.750   0.286   0.838  0.2538  0.0837 -0.6032
 8282SOL    HW136482   1.740   0.243   0.753 -1.2083  0.0110 -0.3883
 8282SOL    HW236483   1.836   0.258   0.869 -0.0186  0.8908  0.9065
 8283SOL     OW36484   4.479   1.082   8.966 -0.0407 -0.7043 -0.1526
 8283SOL    HW136485   4.416   1.083   8.894  1.7979  0.6909 -1.7426
 8283SOL    HW236486   4.429   1.030   9.029  0.2480 -0.6115  0.1514
 8284SOL     OW36487   2.309   2.709   7.902  0.1182 -0.2316 -0.3039
 8284SOL    HW136488   2.220   2.700   7.935  0.4238 -0.2420  0.5161
 8284SOL    HW236489   2.297   2.698   7.808  2.2723  0.3998 -0.6457
 8285SOL     OW36490   1.832   1.261   9.489 -0.7773 -0.5379  0.8172
 8285SOL    HW136491   1.825   1.174   9.527  0.3172  0.0344  2.3348
 8285SOL    HW236492   1.756   1.294   9.536  0.2265 -0.4883  2.3915
 8286SOL     OW36493   3.096   4.496  10.376  0.0949  0.2913 -0.7184
 8286SOL    HW136494   3.138   4.410  10.371 -1.8243 -0.6361 -0.8370
 8286SOL    HW236495   3.117   4.526  10.464 -1.6584  0.8084 -0.4671
 8287SOL     OW36496   0.073   1.235   6.434  0.3537  0.7084 -0.6519
 8287SOL    HW136497   0.083   1.252   6.340 -0.9987 -0.5358 -1.0307
 8287SOL    HW236498   0.135   1.164   6.453 -1.3093 -0.8690 -1.0869
 8288SOL     OW36499   1.322   0.555   0.545 -0.1556  0.0397  0.2552
 8288SOL    HW136500   1.228   0.543   0.531 -0.0711  0.3738 -0.5650
 8288SOL    HW236501   1.357   0.481   0.495 -1.0227  0.2742 -0.6931
 8289SOL     OW36502   4.015   1.916  16.966 -0.2708  0.3789 -0.3842
 8289SOL    HW136503   4.101   1.900  17.005 -0.7605 -0.4210  0.3746
 8289SOL    HW236504   4.026   1.991  16.909  1.5823  0.8011  0.5319
 8290SOL     OW36505   0.187   3.254   7.195 -0.2360  0.4574 -0.0544
 8290SOL    HW136506   0.184   3.295   7.109 -0.5347 -0.0302 -0.2758
 8290SOL    HW236507   0.132   3.316   7.244 -1.3161 -0.1948 -0.4550
 8291SOL     OW36508   0.667   2.841  11.918  0.2673  0.2950  0.0739
 8291SOL    HW136509   0.659   2.833  12.013 -0.4773  2.4281  0.2021
 8291SOL    HW236510   0.758   2.866  11.901  0.1904  0.0080 -0.7758
 8292SOL     OW36511   2.559   2.848  17.705  0.2901 -0.0840  0.3929
 8292SOL    HW136512   2.578   2.880   0.058  0.7110 -1.1045  0.6795
 8292SOL    HW236513   2.503   2.917  17.671  2.2423  2.1457  1.7173
 8293SOL     OW36514   0.471   0.412  15.347 -0.5332 -0.4449  0.2272
 8293SOL    HW136515   0.533   0.445  15.411 -2.0704 -1.9245  2.4740
 8293SOL    HW236516   0.396   0.469  15.358  0.7619  0.8496  2.2930
 8294SOL     OW36517   1.814   1.342   9.774 -1.2672  0.2851  0.2873
 8294SOL    HW136518   1.855   1.256   9.776 -2.1319 -0.1580 -1.5010
 8294SOL    HW236519   1.882   1.395   9.817 -0.9972 -2.2113  2.9136
 8295SOL     OW36520   0.650   4.594   9.212 -0.4083 -0.4614  0.8216
 8295SOL    HW136521   0.671   4.513   9.165  0.5146  0.4077 -0.2410
 8295SOL    HW236522   0.726   4.651   9.219  0.2140 -1.1204 -0.5572
 8296SOL     OW36523   2.404   1.353   3.261 -0.6330 -0.7274 -0.8786
 8296SOL    HW136524   2.388   1.391   3.348  2.0618 -2.1701  0.2370
 8296SOL    HW236525   2.452   1.275   3.289  0.4159  0.4109  0.4583
 8297SOL     OW36526   3.323   0.297   3.656  0.3025  0.0640 -0.0511
 8297SOL    HW136527   3.264   0.224   3.673 -0.1878  0.4459 -0.1147
 8297SOL    HW236528   3.391   0.247   3.611 -2.0284 -2.1598 -1.0898
 8298SOL     OW36529   3.790   3.004   0.787  0.0619 -0.1100  0.3815
 8298SOL    HW136530   3.846   3.077   0.761  2.4040 -1.6209  1.2821
 8298SOL    HW236531   3.815   2.996   0.879 -1.6006 -0.8097  0.7761
 8299SOL     OW36532   4.106   3.710   9.577 -0.0736 -0.4970 -0.2839
 8299SOL    HW136533   4.015   3.684   9.587 -0.8632  2.2373 -0.2704
 8299SOL    HW236534   4.119   3.783   9.637  1.2941 -2.7842  2.1776
 8300SOL     OW36535   2.544   3.959   6.764 -0.3101  0.5036  0.3947
 8300SOL    HW136536   2.593   3.898   6.819 -0.3876 -1.6625 -1.8988
 8300SOL    HW236537   2.459   3.918   6.779 -0.1207 -1.0939 -2.9129
 8301SOL     OW36538   2.399   2.812   6.240 -0.0405 -0.1467  0.0300
 8301SOL    HW136539   2.469   2.766   6.287  0.0966  2.2845  2.2146
 8301SOL    HW236540   2.343   2.842   6.312 -1.6522 -1.9847 -0.4794
 8302SOL     OW36541   1.977   1.592   2.902  0.5828  0.0804 -0.2862
 8302SOL    HW136542   1.965   1.685   2.923  0.1632  0.1163 -0.6791
 8302SOL    HW236543   2.067   1.584   2.934  0.0811 -1.6658  0.6679
 8303SOL     OW36544   1.009   2.359   8.293 -0.3295  0.5149 -0.1391
 8303SOL    HW136545   0.975   2.318   8.213  0.4738 -0.5096  0.0344
 8303SOL    HW236546   1.018   2.278   8.343 -0.3268 -0.6732 -2.0348
 8304SOL     OW36547   1.997   2.411   6.627  0.4533  0.5150 -0.7070
 8304SOL    HW136548   2.090   2.420   6.648 -0.0040  3.8361  0.0396
 8304SOL    HW236549   1.958   2.368   6.703  1.4498  0.1001 -0.4380
 8305SOL     OW36550   2.765   0.004   7.190  0.8324 -0.1286 -0.3359
 8305SOL    HW136551   2.850   0.045   7.207  1.1758 -1.2285  0.6163
 8305SOL    HW236552   2.733   0.051   7.113  1.9150  1.8803  0.4458
 8306SOL     OW36553   3.462   0.255  11.398  0.2773 -0.0856  0.3520
 8306SOL    HW136554   3.458   0.310  11.320  1.4296 -1.8498 -0.9513
 8306SOL    HW236555   3.417   0.303  11.468 -0.3326  0.9864 -0.7812
 8307SOL     OW36556   3.516   2.773   0.273  0.4092  0.3375  0.0236
 8307SOL    HW136557   3.575   2.791   0.346  0.0862 -1.1177  0.6570
 8307SOL    HW236558   3.440   2.823   0.303  0.6833 -0.0135  1.3225
 8308SOL     OW36559   1.715   2.995  15.415  0.3572  0.0706  0.1110
 8308SOL    HW136560   1.754   2.913  15.382 -1.5711 -1.0783  0.7010
 8308SOL    HW236561   1.670   3.030  15.338  1.2592  0.3713 -0.2857
 8309SOL     OW36562   3.337   1.558   3.098 -0.0034  0.1340  0.2454
 8309SOL    HW136563   3.344   1.654   3.094 -1.6077  0.3013  1.4616
 8309SOL    HW236564   3.298   1.552   3.185 -0.3912 -2.3560 -0.1010
 8310SOL     OW36565   4.350   1.009  12.182  0.0105 -0.3417  0.3433
 8310SOL    HW136566   4.335   0.937  12.243 -1.5389  1.4111  2.0123
 8310SOL    HW236567   4.331   0.972  12.096  0.7432  0.8857 -0.3444
 8311SOL     OW36568   0.979   3.883   5.326 -0.0552  0.0666  0.0691
 8311SOL    HW136569   0.893   3.841   5.327 -0.0328  0.0047 -0.5429
 8311SOL    HW236570   0.947   3.972   5.309 -1.4120 -0.1168  1.6527
 8312SOL     OW36571   1.807   0.909   1.456 -0.0842  0.0398 -0.0585
 8312SOL    HW136572   1.852   0.893   1.373 -0.7005 -0.3947 -0.3081
 8312SOL    HW236573   1.837   0.998   1.475 -2.5052  0.9038 -0.3140
 8313SOL     OW36574   3.721   1.769  16.198  0.4288  0.2342  0.1029
 8313SOL    HW136575   3.777   1.743  16.125 -1.4388 -0.0026 -1.2475
 8313SOL    HW236576   3.678   1.684  16.215  0.0331  0.4141  0.0098
 8314SOL     OW36577   4.675   4.389   3.213 -0.7408  0.1772 -0.6072
 8314SOL    HW136578   4.699   4.306   3.171  0.4319  0.3626 -0.2980
 8314SOL    HW236579   4.592   4.409   3.170 -1.0486 -1.6513 -0.8726
 8315SOL     OW36580   3.133   1.944   5.120 -0.1314  0.4815 -0.8103
 8315SOL    HW136581   3.135   1.943   5.024 -1.9236 -1.5473 -0.8183
 8315SOL    HW236582   3.040   1.922   5.132  0.2159 -1.5490 -1.9499
 8316SOL     OW36583   4.539   2.969   7.684  0.5746  0.0098 -0.1927
 8316SOL    HW136584   4.522   2.877   7.706 -0.0549  0.1066 -0.2580
 8316SOL    HW236585   4.530   2.969   7.589 -0.6738 -0.5451 -0.0828
 8317SOL     OW36586   0.395   3.347   5.227 -0.3295 -0.1672  0.1455
 8317SOL    HW136587   0.400   3.315   5.317  2.9123 -2.2226 -0.7249
 8317SOL    HW236588   0.361   3.435   5.237 -0.6170 -0.2987  0.3198
 8318SOL     OW36589   3.554   4.028   6.112  0.4205  0.1957  0.4619
 8318SOL    HW136590   3.499   3.991   6.042  1.9374 -0.9072 -0.1378
 8318SOL    HW236591   3.644   4.010   6.085  0.5219  0.9049  0.3429
 8319SOL     OW36592   2.101   2.116   4.300 -0.2262 -0.3708  0.6436
 8319SOL    HW136593   2.008   2.099   4.284  0.5831 -1.2751 -3.0277
 8319SOL    HW236594   2.135   2.026   4.302  0.5264 -0.1608 -2.6770
 8320SOL     OW36595   4.318   0.317   4.248  0.2863  0.3855  0.4269
 8320SOL    HW136596   4.351   0.401   4.279  2.7079  0.2801 -1.7940
 8320SOL    HW236597   4.379   0.258   4.293  0.1406  1.0088  1.4226
 8321SOL     OW36598   0.963   3.090   0.823  0.1946 -0.2667  0.9551
 8321SOL    HW136599   1.039   3.122   0.776 -0.3108 -0.8916 -0.2941
 8321SOL    HW236600   0.904   3.165   0.819  2.0429  1.1307  0.1268
 8322SOL     OW36601   1.448   4.679   9.360  0.2269 -0.2963 -0.1132
 8322SOL    HW136602   1.439   4.592   9.399 -1.9916 -0.9148 -2.0020
 8322SOL    HW236603   1.414   4.660   9.272 -0.0449  0.6858 -0.2171
 8323SOL     OW36604   4.242   4.295   5.833  0.0764  0.0769 -0.0287
 8323SOL    HW136605   4.212   4.321   5.746 -0.2319 -0.9829 -0.2400
 8323SOL    HW236606   4.178   4.343   5.886  1.4548  0.5236  1.2516
 8324SOL     OW36607   0.022   2.140  12.335 -0.2853 -0.0905  0.0790
 8324SOL    HW136608   4.705   2.170  12.259  0.6143  0.3592 -0.3460
 8324SOL    HW236609   4.692   2.174  12.397 -0.2534  0.0118  0.0556
 8325SOL     OW36610   4.114   3.184  11.643  0.1968 -0.2569  0.4155
 8325SOL    HW136611   4.113   3.206  11.550  2.2020  2.9468  1.1312
 8325SOL    HW236612   4.139   3.262  11.692 -0.1288 -1.1355  1.9905
 8326SOL     OW36613   0.130   2.401   1.529  0.3743  0.1326 -0.0079
 8326SOL    HW136614   0.211   2.390   1.478  0.7944  0.0097  0.6902
 8326SOL    HW236615   0.118   2.311   1.560  0.8891 -0.4828 -1.5874
 8327SOL     OW36616   3.360   1.910   5.671 -0.7472 -0.9033 -0.2227
 8327SOL    HW136617   3.323   1.834   5.625 -2.4364 -1.2179  1.6805
 8327SOL    HW236618   3.286   1.953   5.712 -1.0073 -0.4910 -1.1171
 8328SOL     OW36619   4.671   0.344  15.185  0.1506  0.0419  0.5026
 8328SOL    HW136620   0.010   0.404  15.184 -2.3877  3.1492  1.3337
 8328SOL    HW236621   4.650   0.334  15.092  0.9805  1.1428  0.2093
 8329SOL     OW36622   0.624   3.149  13.128 -0.4167  0.1103  0.1151
 8329SOL    HW136623   0.602   3.159  13.036  2.0331 -0.4289 -0.5263
 8329SOL    HW236624   0.563   3.214  13.163 -1.9825 -1.2311 -0.1155
 8330SOL     OW36625   0.910   3.230   3.350  0.8217 -0.5759  0.3980
 8330SOL    HW136626   0.831   3.178   3.335  0.3819  0.4528 -0.8487
 8330SOL    HW236627   0.899   3.235   3.445 -0.0406  2.4800  0.1386
 8331SOL     OW36628   0.552   1.887   2.268  0.1950 -0.1957  0.0133
 8331SOL    HW136629   0.513   1.820   2.323  0.2482 -1.1693 -1.1479
 8331SOL    HW236630   0.573   1.851   2.182  1.2720  0.1316  0.1395
 8332SOL     OW36631   4.042   1.434  14.031  0.0286 -0.1239 -0.2781
 8332SOL    HW136632   4.064   1.450  13.939 -0.9844 -1.5503 -0.7813
 8332SOL    HW236633   3.995   1.351  14.020 -1.1407  0.4621  0.3047
 8333SOL     OW36634   2.994   0.118   3.090 -0.4906  0.5171 -0.2302
 8333SOL    HW136635   2.972   0.209   3.068  1.2107  0.9907  0.0102
 8333SOL    HW236636   3.066   0.109   3.028 -1.2369 -0.7016 -0.9129
 8334SOL     OW36637   4.025   3.625   1.559  0.0885 -0.2069  0.1962
 8334SOL    HW136638   4.071   3.578   1.491  1.2669  0.8082  0.2955
 8334SOL    HW236639   4.039   3.559   1.627 -2.4428 -0.2752  0.6684
 8335SOL     OW36640   1.605   1.198   2.884 -0.5567 -0.3579  0.0510
 8335SOL    HW136641   1.689   1.152   2.884 -0.5608 -0.3643  0.3944
 8335SOL    HW236642   1.624   1.263   2.951  0.7554 -1.5816  0.8659
 8336SOL     OW36643   2.316   3.849   9.442 -0.1224  0.4769 -0.2790
 8336SOL    HW136644   2.312   3.944   9.428  4.1187  0.7854  0.6583
 8336SOL    HW236645   2.355   3.850   9.529 -0.2857 -0.6256 -0.1907
 8337SOL     OW36646   3.931   2.848   6.368  0.6292 -0.6181 -0.2518
 8337SOL    HW136647   3.915   2.812   6.280  0.7576 -1.1884 -0.0378
 8337SOL    HW236648   3.910   2.771   6.419 -2.3064  2.7753  3.6988
 8338SOL     OW36649   1.635   1.829   6.761 -0.1023  0.5897 -0.5534
 8338SOL    HW136650   1.601   1.910   6.801  1.5993  1.4032 -0.7458
 8338SOL    HW236651   1.728   1.851   6.757 -0.3294  1.7696  0.7318
 8339SOL     OW36652   3.782   0.019  11.012  0.3286 -0.4378 -0.1171
 8339SOL    HW136653   3.722   4.723  10.944 -1.6827  1.1770  0.9447
 8339SOL    HW236654   3.829   4.673  11.034  2.0355 -0.1221 -2.6204
 8340SOL     OW36655   2.846   2.516   3.392  0.2127  0.3198  0.1772
 8340SOL    HW136656   2.755   2.487   3.387  1.1829 -2.9731  1.7666
 8340SOL    HW236657   2.871   2.509   3.300 -2.5393  2.0156 -0.7080
 8341SOL     OW36658   3.548   2.406   7.451 -0.0365 -0.2877  0.3681
 8341SOL    HW136659   3.506   2.347   7.514 -2.3207  0.0886 -0.7982
 8341SOL    HW236660   3.479   2.457   7.408  0.7253  0.9305  0.5897
 8342SOL     OW36661   1.148   3.331  14.648  0.4452  0.0690 -0.0250
 8342SOL    HW136662   1.073   3.292  14.603 -0.1759  2.4952 -1.1256
 8342SOL    HW236663   1.214   3.342  14.580  1.4131 -3.2426  0.3702
 8343SOL     OW36664   4.260   1.671   4.100  0.0289  0.5418 -0.1998
 8343SOL    HW136665   4.279   1.578   4.108 -2.0259  0.2217  0.8900
 8343SOL    HW236666   4.166   1.670   4.085  0.2293 -0.0899 -1.4656
 8344SOL     OW36667   3.506   4.036   6.946 -0.5260 -0.3226  0.2169
 8344SOL    HW136668   3.457   4.015   6.866  0.1456  0.4738 -0.4011
 8344SOL    HW236669   3.442   4.073   7.007 -1.8739  1.6371 -2.3927
 8345SOL     OW36670   3.134   4.413   3.878  0.1321 -0.1394  0.0020
 8345SOL    HW136671   3.206   4.473   3.863 -1.7697  2.0582 -0.3556
 8345SOL    HW236672   3.061   4.467   3.849  1.2453  0.7943 -1.0275
 8346SOL     OW36673   2.282   2.287   2.158 -0.1798 -0.0959 -0.1544
 8346SOL    HW136674   2.364   2.336   2.162  0.2601 -0.7283 -1.4233
 8346SOL    HW236675   2.255   2.316   2.245  2.3993 -4.7330  2.2158
 8347SOL     OW36676   1.107   2.935   3.382 -0.3649 -0.4083 -0.1988
 8347SOL    HW136677   1.058   2.859   3.415 -0.7369 -0.1832 -0.2380
 8347SOL    HW236678   1.152   2.963   3.461  0.7292  1.4825 -1.5158
 8348SOL     OW36679   1.488   3.448   5.595  0.4274  0.4813 -0.0217
 8348SOL    HW136680   1.416   3.506   5.570 -0.1854 -0.6863 -0.9603
 8348SOL    HW236681   1.470   3.379   5.531 -0.0136 -0.5127  1.1825
 8349SOL     OW36682   4.712   4.297   6.157  0.1576  0.5170 -0.0794
 8349SOL    HW136683   4.681   4.289   6.247 -1.1844 -1.0758 -0.6750
 8349SOL    HW236684   0.037   4.370   6.175 -0.3584  1.9948 -4.4189
 8350SOL     OW36685   0.353   1.235   4.726  0.4489 -0.4831 -0.5165
 8350SOL    HW136686   0.447   1.227   4.708  0.6684  1.0949 -0.0691
 8350SOL    HW236687   0.323   1.256   4.638 -0.3270  1.8058  0.2989
 8351SOL     OW36688   3.409   1.726  12.975 -0.0258  0.6911  0.1449
 8351SOL    HW136689   3.446   1.637  12.978 -1.0144  0.2366 -1.0535
 8351SOL    HW236690   3.426   1.752  13.066  1.2766  0.0679  0.0716
 8352SOL     OW36691   4.731   0.604   5.110 -0.3707 -0.2652  0.0201
 8352SOL    HW136692   4.666   0.613   5.040 -0.8308  0.2085  0.5069
 8352SOL    HW236693   4.676   0.632   5.184 -0.1141 -1.2979  0.5920
 8353SOL     OW36694   3.646   4.307  17.685  0.0570 -0.0597  0.3764
 8353SOL    HW136695   3.686   4.239  17.630  2.4152  1.5063  0.1278
 8353SOL    HW236696   3.597   4.358  17.621 -0.7956  1.8851  2.5903
 8354SOL     OW36697   0.461   3.732   4.950 -0.2654 -0.1486 -0.3007
 8354SOL    HW136698   0.421   3.729   4.863  0.6747  0.5365 -0.7518
 8354SOL    HW236699   0.555   3.745   4.937 -0.3497  2.1950  1.5278
 8355SOL     OW36700   4.022   3.530   4.774 -0.2720  0.7167 -0.5431
 8355SOL    HW136701   4.050   3.452   4.822  0.5295  0.2786 -1.7048
 8355SOL    HW236702   3.927   3.520   4.774 -0.3297  1.2693 -1.3909
 8356SOL     OW36703   3.829   3.454  15.532 -0.0767  0.7215  0.6172
 8356SOL    HW136704   3.893   3.476  15.465  1.4183  0.6678  2.0434
 8356SOL    HW236705   3.742   3.473  15.495  0.6159 -3.6161 -3.2231
 8357SOL     OW36706   1.151   0.585   5.247 -0.3096  0.8248  0.1568
 8357SOL    HW136707   1.094   0.540   5.185 -2.0830 -0.5182  2.7463
 8357SOL    HW236708   1.185   0.510   5.295  0.9212  0.1993 -1.6976
 8358SOL     OW36709   1.359   0.700  17.598 -0.0123 -0.2653 -0.1021
 8358SOL    HW136710   1.390   0.788  17.617  2.1262 -0.6487 -1.8332
 8358SOL    HW236711   1.307   0.706  17.517  0.9023 -0.5071 -0.7069
 8359SOL     OW36712   1.416   1.151   8.801 -0.2273 -0.7124 -0.2053
 8359SOL    HW136713   1.378   1.116   8.882  2.4738 -1.4740  0.7456
 8359SOL    HW236714   1.342   1.208   8.779 -1.8170 -1.9377  1.8974
 8360SOL     OW36715   3.017   3.912   7.416 -0.1909 -0.5120  0.2954
 8360SOL    HW136716   2.956   3.974   7.376 -1.5246 -0.5293  2.2583
 8360SOL    HW236717   3.026   3.963   7.497 -1.5912 -0.8993  0.6952
 8361SOL     OW36718   3.373   2.805  17.426  0.1409  0.2302  0.1323
 8361SOL    HW136719   3.418   2.866  17.367  2.3517  0.7932  2.4102
 8361SOL    HW236720   3.433   2.774  17.494 -0.4107  0.9296  0.9276
 8362SOL     OW36721   1.969   1.794   3.989 -0.3125  0.0959  0.1155
 8362SOL    HW136722   2.017   1.843   3.923  1.5786 -1.5818  0.2409
 8362SOL    HW236723   1.975   1.706   3.953 -1.5175  0.7431 -1.6481
 8363SOL     OW36724   1.391   1.375   2.104 -0.1348  0.2546 -0.4051
 8363SOL    HW136725   1.477   1.381   2.144 -0.9033 -1.4439  1.5283
 8363SOL    HW236726   1.332   1.399   2.176 -0.8088  0.1023 -0.9068
 8364SOL     OW36727   3.868   2.403   7.659 -0.1903  0.2911 -0.2800
 8364SOL    HW136728   3.817   2.396   7.579 -1.9075  2.4159  0.6300
 8364SOL    HW236729   3.876   2.312   7.689 -1.8052 -0.5861 -2.5395
 8365SOL     OW36730   4.688   2.567  16.275  0.1640  0.2089  0.3335
 8365SOL    HW136731   4.696   2.490  16.332 -0.8145  0.3391  0.6570
 8365SOL    HW236732   4.639   2.532  16.201 -2.4550 -1.2299  2.7108
 8366SOL     OW36733   3.107   1.803   1.826 -0.4060  0.3465  0.1761
 8366SOL    HW136734   3.051   1.745   1.775 -0.0130  0.2945 -0.1965
 8366SOL    HW236735   3.194   1.762   1.829 -1.6414 -2.1287  2.5534
 8367SOL     OW36736   2.521   2.838   5.589 -0.0952 -0.7736  0.2208
 8367SOL    HW136737   2.492   2.836   5.498  1.1631 -1.8939 -0.1545
 8367SOL    HW236738   2.601   2.892   5.588  0.8038 -2.1331 -0.6047
 8368SOL     OW36739   1.512   4.726   7.785  0.2225 -0.4932 -0.2936
 8368SOL    HW136740   1.510   4.630   7.783 -0.8703 -0.4907  0.3455
 8368SOL    HW236741   1.525   0.002   7.879 -2.1898  0.3909 -0.0416
 8369SOL     OW36742   0.185   4.200   7.133  0.0179  0.1646 -0.3416
 8369SOL    HW136743   0.172   4.120   7.081  1.9495 -0.8492  0.7475
 8369SOL    HW236744   0.235   4.258   7.076 -1.1258  1.7956  0.3012
 8370SOL     OW36745   4.417   4.655   8.672  0.3392 -0.6161 -0.1301
 8370SOL    HW136746   4.324   4.672   8.656  0.4696  1.1770  1.0919
 8370SOL    HW236747   4.444   4.583   8.614  1.1905  0.4997 -1.1317
 8371SOL     OW36748   3.363   2.627   7.408  0.3669  0.2230 -0.7066
 8371SOL    HW136749   3.354   2.694   7.476  0.4431  1.7821 -2.2301
 8371SOL    HW236750   3.391   2.685   7.337  2.2232  1.2144  0.8282
 8372SOL     OW36751   2.413   0.128   3.367  0.1605 -0.0493  0.1235
 8372SOL    HW136752   2.373   0.041   3.370 -0.1712  0.0437 -1.4644
 8372SOL    HW236753   2.351   0.166   3.304  1.5644 -0.4613 -1.5097
 8373SOL     OW36754   3.472   3.576  17.302 -0.4377 -0.0462 -0.0633
 8373SOL    HW136755   3.550   3.523  17.287 -0.6529 -0.4481  0.2458
 8373SOL    HW236756   3.404   3.520  17.266 -0.6864  1.1874 -1.5263
 8374SOL     OW36757   2.983   2.391   8.094 -0.0948 -0.1964  0.3899
 8374SOL    HW136758   3.020   2.399   8.182 -0.0347 -1.2383  0.4631
 8374SOL    HW236759   3.057   2.410   8.036 -1.0809  0.2107 -0.7234
 8375SOL     OW36760   0.641   3.538   4.681 -0.2199  0.2187 -0.5530
 8375SOL    HW136761   0.633   3.622   4.636  1.1234  0.5754 -0.1297
 8375SOL    HW236762   0.556   3.500   4.658 -0.4114  0.4354 -0.2042
 8376SOL     OW36763   3.256   1.892   7.830  0.4676  0.0839  0.2067
 8376SOL    HW136764   3.216   1.963   7.881  2.0412  0.5488  0.7868
 8376SOL    HW236765   3.256   1.930   7.742 -0.6330 -0.0530  0.1472
 8377SOL     OW36766   1.720   3.845  12.310  0.1171  0.1308 -0.3084
 8377SOL    HW136767   1.805   3.801  12.303  0.7523  1.0930  1.6991
 8377SOL    HW236768   1.727   3.909  12.239 -2.6084 -0.9076 -1.5114
 8378SOL     OW36769   2.176   0.868   6.709  0.4167  0.3051 -0.1507
 8378SOL    HW136770   2.254   0.922   6.695  0.7465  0.0810  0.8507
 8378SOL    HW236771   2.195   0.839   6.798 -1.0456  2.4913  0.8769
 8379SOL     OW36772   3.202   1.010   8.809  0.4750 -0.1273 -0.0488
 8379SOL    HW136773   3.147   1.068   8.756 -1.6182 -0.6572  1.5313
 8379SOL    HW236774   3.144   0.987   8.881 -0.6797  0.0848 -0.9010
 8380SOL     OW36775   3.581   3.693   5.933 -0.1035  0.0304 -0.7468
 8380SOL    HW136776   3.603   3.609   5.974 -2.8494  0.4018  1.5083
 8380SOL    HW236777   3.669   3.719   5.906  0.7087 -1.7584  0.1764
 8381SOL     OW36778   3.154   0.164   9.527 -0.1665  0.0531  0.1419
 8381SOL    HW136779   3.229   0.104   9.527 -0.4189 -0.2483  1.7811
 8381SOL    HW236780   3.194   0.247   9.550  1.1164 -0.7115  0.6754
 8382SOL     OW36781   0.182   3.674   3.961  0.1770 -0.0484 -0.3907
 8382SOL    HW136782   0.102   3.666   4.014 -1.6288  0.2085 -3.0987
 8382SOL    HW236783   0.225   3.744   4.011  1.2085 -0.3309 -0.8950
 8383SOL     OW36784   0.367   1.907  17.453 -0.2528 -0.1414  0.5383
 8383SOL    HW136785   0.350   1.992  17.413 -0.6899 -0.7663 -0.6401
 8383SOL    HW236786   0.404   1.861  17.377  1.2210  1.6670  0.1814
 8384SOL     OW36787   0.314   1.126  13.491  0.2620 -0.6024 -0.1569
 8384SOL    HW136788   0.310   1.040  13.449 -0.5729 -0.8104  0.3532
 8384SOL    HW236789   0.277   1.185  13.426  2.0456  2.1918  1.3909
 8385SOL     OW36790   2.159   3.920   8.298  0.7368 -0.2159 -0.5005
 8385SOL    HW136791   2.251   3.940   8.284  0.6475  1.1164  0.7769
 8385SOL    HW236792   2.145   3.866   8.220 -0.2244 -2.8136  1.4680
 8386SOL     OW36793   3.549   2.655  15.118 -0.6473  0.0177  0.0169
 8386SOL    HW136794   3.456   2.669  15.136 -0.5897  1.3339 -0.6642
 8386SOL    HW236795   3.586   2.721  15.177 -3.2355  0.7168  0.8496
 8387SOL     OW36796   0.229   3.571   6.602  0.1807  0.2527 -0.1484
 8387SOL    HW136797   0.296   3.549   6.538 -0.2852  1.6674 -1.1317
 8387SOL    HW236798   0.177   3.491   6.597  1.3396 -0.3892 -2.0067
 8388SOL     OW36799   2.713   4.587   4.125  0.1544  0.3810 -0.2961
 8388SOL    HW136800   2.780   4.654   4.110 -1.3602  2.6340  3.0838
 8388SOL    HW236801   2.671   4.624   4.203 -0.1777  1.5579 -1.0303
 8389SOL     OW36802   0.792   2.440   0.254  0.0617  0.6324  0.4800
 8389SOL    HW136803   0.763   2.449   0.345 -0.3110  0.0708  0.4213
 8389SOL    HW236804   0.779   2.346   0.242 -0.6123  0.3583  3.3111
 8390SOL     OW36805   1.758   4.174   5.255 -0.4163  0.0731  0.2713
 8390SOL    HW136806   1.792   4.124   5.180  0.7238  0.1904  0.7022
 8390SOL    HW236807   1.829   4.237   5.268 -0.0047  0.2008 -2.7383
 8391SOL     OW36808   3.186   0.106   2.879 -0.0168  0.1926 -0.2909
 8391SOL    HW136809   3.168   0.196   2.855 -1.3797  0.4992  1.8092
 8391SOL    HW236810   3.282   0.103   2.874  0.0860  1.6703  0.6656
 8392SOL     OW36811   2.630   0.078   6.202 -0.0189 -0.2604  0.8687
 8392SOL    HW136812   2.651   0.158   6.154 -0.4138 -1.0122 -0.5564
 8392SOL    HW236813   2.697   0.022   6.162 -1.2762 -0.1406 -1.4136
 8393SOL     OW36814   2.607   3.843  15.724 -0.0759 -1.1004  0.0665
 8393SOL    HW136815   2.647   3.780  15.785  1.0686 -0.4599 -0.0255
 8393SOL    HW236816   2.521   3.856  15.764  0.0798 -0.1050  0.0807
 8394SOL     OW36817   1.405   0.086   3.173 -0.1435  0.2726 -0.4291
 8394SOL    HW136818   1.399   0.122   3.085  0.3405 -1.4403 -1.1480
 8394SOL    HW236819   1.350   0.145   3.225 -2.8843 -1.0305 -1.8805
 8395SOL     OW36820   1.783   3.545  13.354 -0.2226  0.0665  0.0058
 8395SOL    HW136821   1.877   3.559  13.341 -0.2710 -1.2317 -1.7725
 8395SOL    HW236822   1.755   3.571  13.266 -0.0937  0.6944  0.1482
 8396SOL     OW36823   2.919   4.054   2.787  0.3147 -0.3008 -0.1284
 8396SOL    HW136824   2.947   3.963   2.775  0.0934 -0.5697  1.3394
 8396SOL    HW236825   2.986   4.100   2.837  1.1332 -0.2105 -1.3156
 8397SOL     OW36826   3.644   0.521   4.561  0.4910  0.0377 -0.4800
 8397SOL    HW136827   3.690   0.605   4.557 -0.2022  0.4547  0.2075
 8397SOL    HW236828   3.711   0.455   4.544  2.1978  2.2240 -2.2532
 8398SOL     OW36829   1.281   4.095   3.839 -0.6592  0.7923 -0.2487
 8398SOL    HW136830   1.281   4.140   3.924  0.7802 -2.2381  1.3628
 8398SOL    HW236831   1.339   4.154   3.792  0.7949  1.1380  1.9694
 8399SOL     OW36832   0.304   3.892   0.554  0.2824 -0.3395 -0.2358
 8399SOL    HW136833   0.257   3.841   0.487 -1.5634 -0.2466  0.9807
 8399SOL    HW236834   0.237   3.902   0.621  0.4303 -0.3963 -0.0802
 8400SOL     OW36835   0.599   3.981   4.323 -0.0758 -0.2468 -0.3412
 8400SOL    HW136836   0.536   3.998   4.252 -0.0771 -0.7184 -0.4479
 8400SOL    HW236837   0.676   3.958   4.272 -0.1748  1.0105 -1.0651
 8401SOL     OW36838   1.232   4.024   6.032 -0.6052 -0.6890  0.0409
 8401SOL    HW136839   1.296   3.991   6.094  0.3510  2.4235  0.6761
 8401SOL    HW236840   1.269   4.108   6.004 -2.3585 -0.3180 -1.1782
 8402SOL     OW36841   2.019   2.421   2.710  0.4177 -0.1434  0.1238
 8402SOL    HW136842   1.986   2.483   2.645 -0.4487 -0.7753 -0.0307
 8402SOL    HW236843   2.091   2.465   2.756  0.8920 -0.7491 -0.0400
 8403SOL     OW36844   3.249   4.222   6.023 -0.2500 -0.2684 -0.0140
 8403SOL    HW136845   3.226   4.309   6.054  3.0826  0.0200  1.6626
 8403SOL    HW236846   3.198   4.164   6.080 -3.5768  1.4090 -1.2760
 8404SOL     OW36847   0.866   1.694   1.056  0.1989 -0.6860 -0.2154
 8404SOL    HW136848   0.836   1.696   1.147 -0.8843  0.6648 -0.5992
 8404SOL    HW236849   0.863   1.786   1.031  0.6358 -0.2116  1.4520
 8405SOL     OW36850   2.936   2.559   6.757  0.2690  0.1140 -0.2513
 8405SOL    HW136851   2.940   2.473   6.798 -0.3538  0.0574 -0.3090
 8405SOL    HW236852   2.971   2.543   6.669 -0.8117  1.2944 -0.9091
 8406SOL     OW36853   0.090   2.542   3.482  0.1718  0.3002  0.5022
 8406SOL    HW136854   4.732   2.567   3.489  0.0357 -0.2749  0.7361
 8406SOL    HW236855   0.089   2.463   3.536 -0.7693  0.9868  1.4926
 8407SOL     OW36856   4.107   0.501   2.164 -0.7754  0.1872 -0.5125
 8407SOL    HW136857   4.060   0.459   2.236  0.2789 -2.5049 -1.3944
 8407SOL    HW236858   4.191   0.514   2.208 -1.7651  0.5101  1.2743
 8408SOL     OW36859   1.042   3.489   3.485 -0.4594  0.5799 -0.1575
 8408SOL    HW136860   0.975   3.449   3.430 -0.0524 -0.9692  0.4702
 8408SOL    HW236861   1.074   3.416   3.538 -0.3446  0.9483  0.2878
 8409SOL     OW36862   0.412   2.055   4.304  0.6534  0.1166  0.0723
 8409SOL    HW136863   0.430   1.977   4.357  1.1267  2.0936  2.8220
 8409SOL    HW236864   0.329   2.090   4.338  1.0502  2.8304 -1.7127
 8410SOL     OW36865   2.823   1.160   0.770  0.4163  0.0679 -0.2546
 8410SOL    HW136866   2.831   1.072   0.806 -3.7480 -0.4329 -0.5156
 8410SOL    HW236867   2.914   1.188   0.761  0.5232  0.8075  3.1836
 8411SOL     OW36868   2.503   3.647   2.566 -0.5541  0.4378  0.1919
 8411SOL    HW136869   2.429   3.687   2.520 -0.2736  2.0434  1.1503
 8411SOL    HW236870   2.564   3.660   2.494 -1.0547  1.7246  0.0064
 8412SOL     OW36871   0.715   2.659   4.748 -0.2195  0.1512 -0.5186
 8412SOL    HW136872   0.731   2.594   4.679  1.0821 -0.9268  0.8093
 8412SOL    HW236873   0.668   2.723   4.694 -0.1580  1.2272  0.7393
 8413SOL     OW36874   2.464   4.474   4.029 -0.0770 -0.2271  0.0202
 8413SOL    HW136875   2.520   4.549   4.049 -0.0566  0.2653 -1.8722
 8413SOL    HW236876   2.517   4.394   4.030 -1.3943 -1.1029 -0.5996
 8414SOL     OW36877   2.533   4.488   6.850 -0.2839 -0.1806  0.4055
 8414SOL    HW136878   2.612   4.473   6.903  1.2491 -0.7703 -2.0376
 8414SOL    HW236879   2.462   4.452   6.903  1.9726  0.9315  4.1549
 8415SOL     OW36880   3.970   2.681  16.687  0.0915  0.4142 -0.0170
 8415SOL    HW136881   3.901   2.625  16.651 -1.0478  1.9920 -0.2653
 8415SOL    HW236882   4.046   2.624  16.703  0.3260  0.4062 -1.1745
 8416SOL     OW36883   0.367   3.337   2.378  0.1641  0.2050  0.3409
 8416SOL    HW136884   0.450   3.381   2.395  0.5689 -0.1692 -0.7232
 8416SOL    HW236885   0.380   3.279   2.304 -0.0781  0.2707  0.2446
 8417SOL     OW36886   1.842   1.236  15.332  0.2106  0.0060 -0.0476
 8417SOL    HW136887   1.859   1.233  15.238 -1.4209  2.3005 -0.4047
 8417SOL    HW236888   1.901   1.308  15.353  0.1310  0.6127 -1.9555
 8418SOL     OW36889   2.021   2.239   5.597 -0.3869  0.4235 -0.2099
 8418SOL    HW136890   2.075   2.235   5.517 -0.4993  0.5333 -0.2915
 8418SOL    HW236891   1.944   2.285   5.565 -0.2337  0.7732 -0.0822
 8419SOL     OW36892   2.245   4.693   4.493  0.0967 -0.0261 -0.1920
 8419SOL    HW136893   2.248   4.621   4.430 -2.2436  0.0489 -0.3899
 8419SOL    HW236894   2.227   4.653   4.578  2.5151 -0.3538  0.1744
 8420SOL     OW36895   3.087   2.586   8.690  0.3412  0.4623 -0.4276
 8420SOL    HW136896   3.143   2.509   8.693  0.6206  0.7231  1.0710
 8420SOL    HW236897   3.003   2.557   8.727 -0.0586  2.9455  0.6149
 8421SOL     OW36898   2.194   3.270   6.752  0.0898  0.1705 -0.2730
 8421SOL    HW136899   2.151   3.190   6.722 -0.7700 -0.8256  3.5187
 8421SOL    HW236900   2.228   3.302   6.668 -1.1919  0.9536 -0.4901
 8422SOL     OW36901   4.124   1.989   6.479 -0.0538 -0.1284 -0.1155
 8422SOL    HW136902   4.041   2.020   6.515 -0.1614  0.2659 -0.6989
 8422SOL    HW236903   4.182   2.064   6.483 -1.3577  0.7782  1.5050
 8423SOL     OW36904   3.704   4.720   9.532 -0.4136  0.9454 -0.0287
 8423SOL    HW136905   3.798   4.728   9.513  0.0165 -3.0647  0.3784
 8423SOL    HW236906   3.684   0.032   9.614 -2.3988 -0.2676  0.1496
 8424SOL     OW36907   2.701   2.065   4.212  0.3224 -0.3942  0.1389
 8424SOL    HW136908   2.773   2.061   4.274  0.0513  4.7660  0.7610
 8424SOL    HW236909   2.742   2.079   4.126  0.8388 -1.4296  0.2210
 8425SOL     OW36910   4.659   0.358   8.609  0.1228  0.2548 -0.1075
 8425SOL    HW136911   4.621   0.271   8.598 -0.3291  0.3503  0.7243
 8425SOL    HW236912   4.666   0.389   8.519  0.8625 -0.7184 -0.3868
 8426SOL     OW36913   2.733   1.440  13.392  0.4165  0.0979  0.2068
 8426SOL    HW136914   2.679   1.469  13.466  1.2542  1.0390  0.4449
 8426SOL    HW236915   2.682   1.367  13.357 -1.4038  0.9932  0.9934
 8427SOL     OW36916   3.889   0.449   3.873  0.4731 -0.8283  0.0530
 8427SOL    HW136917   3.968   0.459   3.927 -0.0141 -1.3185  0.8693
 8427SOL    HW236918   3.916   0.468   3.783 -1.1720 -1.1677 -0.5087
 8428SOL     OW36919   4.233   1.775  13.049 -0.1277 -0.1413  0.3002
 8428SOL    HW136920   4.239   1.773  12.954  2.1695  0.8767  0.4077
 8428SOL    HW236921   4.230   1.870  13.060 -1.4247 -0.3679  1.9784
 8429SOL     OW36922   2.727   1.689  12.625  0.2531 -0.5829 -0.2449
 8429SOL    HW136923   2.756   1.611  12.577 -0.0849 -1.3008  0.7221
 8429SOL    HW236924   2.806   1.735  12.653 -0.1206 -1.0763  1.5646
 8430SOL     OW36925   2.056   3.592  13.313 -0.4253  0.2643 -0.0664
 8430SOL    HW136926   2.089   3.659  13.253 -3.0425  1.2628 -0.4101
 8430SOL    HW236927   2.111   3.621  13.386  0.3844 -1.6750  0.0956
 8431SOL     OW36928   1.772   1.893   2.181  0.2140  0.3610  0.6300
 8431SOL    HW136929   1.824   1.913   2.103  1.6018 -1.7493  1.0122
 8431SOL    HW236930   1.726   1.974   2.203 -0.8683 -0.4695  1.4209
 8432SOL     OW36931   4.649   3.473   2.633 -0.1932  0.3278 -0.5960
 8432SOL    HW136932   4.554   3.485   2.627 -0.4720 -0.9801  1.3301
 8432SOL    HW236933   4.678   3.546   2.687  0.8414 -1.1133  0.8012
 8433SOL     OW36934   1.537   4.578  14.523 -0.1877  0.1064 -0.8805
 8433SOL    HW136935   1.626   4.570  14.490  0.2318  2.3519 -0.2549
 8433SOL    HW236936   1.518   4.484  14.524  0.2686  0.0491  2.2109
 8434SOL     OW36937   4.507   0.361   8.131 -0.0576  0.0161  0.3234
 8434SOL    HW136938   4.445   0.289   8.122  1.6648 -1.1434 -2.4407
 8434SOL    HW236939   4.519   0.379   8.037 -1.2560 -0.9408 -0.0056
 8435SOL     OW36940   0.615   1.607  17.490  0.2835  0.2923 -0.4047
 8435SOL    HW136941   0.639   1.694  17.458 -0.3059  0.3646 -0.6527
 8435SOL    HW236942   0.619   1.616  17.586  1.8276 -0.4369 -0.3933
 8436SOL     OW36943   0.977   1.003   9.352 -0.2978 -0.4118 -0.4624
 8436SOL    HW136944   0.975   0.968   9.441 -0.6861  0.9698  0.0816
 8436SOL    HW236945   0.982   1.097   9.372  0.8492 -0.1371 -2.0103
 8437SOL     OW36946   4.674   0.289  15.794  0.2923  0.0646  0.4909
 8437SOL    HW136947   4.730   0.273  15.718 -0.0304 -0.4232  0.3535
 8437SOL    HW236948   0.001   0.275  15.865 -0.2374 -0.2770  0.8801
 8438SOL     OW36949   3.227   0.319   9.110  0.1127  0.5107  0.2758
 8438SOL    HW136950   3.231   0.397   9.165  2.0142  0.5026  0.1520
 8438SOL    HW236951   3.301   0.327   9.049  0.9114 -1.0474  1.0178
 8439SOL     OW36952   4.435   1.238  14.845  0.8638 -0.5872 -0.3636
 8439SOL    HW136953   4.508   1.200  14.796 -0.3253 -1.4456 -1.4769
 8439SOL    HW236954   4.377   1.273  14.777  1.2214 -0.1404 -0.4377
 8440SOL     OW36955   2.911   4.151   0.479  0.2374 -0.1561 -0.0165
 8440SOL    HW136956   2.850   4.107   0.420 -0.5052 -0.6804  1.1414
 8440SOL    HW236957   2.847   4.198   0.532 -0.1558 -0.6146 -0.0823
 8441SOL     OW36958   2.856   2.607  13.372  0.7891  0.0585 -0.3365
 8441SOL    HW136959   2.892   2.695  13.373 -0.2857  0.5065 -2.6200
 8441SOL    HW236960   2.930   2.554  13.399 -1.5056 -2.8919  0.1878
 8442SOL     OW36961   0.759   3.228   7.836  0.3532 -0.1244 -0.5568
 8442SOL    HW136962   0.686   3.279   7.801 -1.5377 -2.5411 -0.2089
 8442SOL    HW236963   0.736   3.226   7.929  0.6987  1.1881 -0.4460
 8443SOL     OW36964   0.879   2.724  15.897  0.0521 -0.0877 -0.5833
 8443SOL    HW136965   0.853   2.792  15.836  0.2860  0.2256 -0.3391
 8443SOL    HW236966   0.942   2.772  15.952 -1.1355 -2.6127  2.9886
 8444SOL     OW36967   3.996   2.577   6.437 -0.2627  0.0405  0.1671
 8444SOL    HW136968   4.071   2.596   6.381 -0.4312 -0.2388 -0.1562
 8444SOL    HW236969   4.047   2.593   6.517 -1.0841  0.0804  0.6804
 8445SOL     OW36970   1.987   3.550  10.767 -0.2949  0.3883 -0.1819
 8445SOL    HW136971   2.060   3.604  10.736  0.5080 -0.3678  0.3587
 8445SOL    HW236972   1.918   3.614  10.753 -0.4862  0.0137 -0.9465
 8446SOL     OW36973   1.618   1.404   4.764 -0.0260 -0.2071 -0.2938
 8446SOL    HW136974   1.648   1.313   4.760  0.1747 -0.1022 -1.1475
 8446SOL    HW236975   1.683   1.454   4.815 -0.4481 -1.8829  1.8577
 8447SOL     OW36976   1.212   3.069   3.969  0.6502 -0.3173 -0.7638
 8447SOL    HW136977   1.192   2.985   4.010 -0.4084  0.8916  1.1631
 8447SOL    HW236978   1.166   3.137   4.018 -0.2350  0.8260 -3.2232
 8448SOL     OW36979   1.631   1.999  16.244  0.1394 -0.0208 -0.1781
 8448SOL    HW136980   1.709   1.961  16.204 -0.0104  1.1161 -1.5679
 8448SOL    HW236981   1.658   2.007  16.335 -1.3846 -0.4422  0.3078
 8449SOL     OW36982   0.818   0.405   7.445  0.6538  0.0656  0.1272
 8449SOL    HW136983   0.747   0.370   7.499  0.5870 -0.0149 -0.0121
 8449SOL    HW236984   0.807   0.361   7.361  0.9323 -2.3172  1.3259
 8450SOL     OW36985   4.006   3.701   4.348  0.5149 -0.0635  0.1263
 8450SOL    HW136986   3.976   3.751   4.424 -1.7890 -1.1277 -0.0736
 8450SOL    HW236987   3.940   3.716   4.280 -0.3746 -1.7629  0.6066
 8451SOL     OW36988   2.372   4.348   1.610 -0.2339 -0.0336  0.2107
 8451SOL    HW136989   2.366   4.307   1.696 -1.3158  0.1754  0.2481
 8451SOL    HW236990   2.453   4.398   1.619 -0.9026  0.8212  1.6016
 8452SOL     OW36991   3.919   0.608   9.895 -0.1218  0.3915  0.1517
 8452SOL    HW136992   3.994   0.609   9.836 -1.3279 -0.7484 -1.3958
 8452SOL    HW236993   3.849   0.622   9.831  0.1643  0.0407 -0.2441
 8453SOL     OW36994   1.091   2.388   6.852 -0.0470 -0.0285  0.3796
 8453SOL    HW136995   1.026   2.355   6.790 -0.9008  0.4066  1.0457
 8453SOL    HW236996   1.073   2.482   6.851 -1.1563 -0.2308  1.7080
 8454SOL     OW36997   1.611   2.444   7.722  0.3260  0.0337 -0.3632
 8454SOL    HW136998   1.635   2.356   7.695 -0.4876 -0.2154 -0.2960
 8454SOL    HW236999   1.519   2.429   7.746  0.8366 -1.9316  0.3656
 8455SOL     OW37000   1.498   3.721   6.279  0.3993 -0.0625 -0.4801
 8455SOL    HW137001   1.508   3.696   6.187  3.8852  1.5037 -0.5508
 8455SOL    HW237002   1.521   3.814   6.276 -1.4890  0.3484 -1.8915
 8456SOL     OW37003   1.048   2.081   5.166 -0.5240  0.3992 -0.8053
 8456SOL    HW137004   1.018   2.146   5.103  1.6662 -0.4383 -2.7400
 8456SOL    HW237005   1.124   2.047   5.117  0.0936  1.2995 -0.4813
 8457SOL     OW37006   3.589   3.508   8.341 -0.1296  0.8814 -0.5463
 8457SOL    HW137007   3.525   3.452   8.385  0.4702 -0.1389 -0.9681
 8457SOL    HW237008   3.622   3.549   8.422  2.5553  0.9957 -1.6899
 8458SOL     OW37009   2.833   4.424   2.926 -0.4353 -0.1417 -0.1517
 8458SOL    HW137010   2.740   4.404   2.914 -0.3233  0.0430 -1.3718
 8458SOL    HW237011   2.838   4.514   2.893 -1.1469 -0.8636 -2.2231
 8459SOL     OW37012   1.294   4.676   4.902 -0.5060  0.3799  0.1383
 8459SOL    HW137013   1.210   4.721   4.902 -0.2793  0.7943  0.4037
 8459SOL    HW237014   1.313   4.633   4.985 -3.5749 -2.6149 -0.6808
 8460SOL     OW37015   0.105   2.218   2.319 -0.3275 -0.1405  0.5279
 8460SOL    HW137016   0.013   2.192   2.317 -0.1337 -0.8312  0.5434
 8460SOL    HW237017   0.153   2.138   2.296 -1.7020 -0.7525 -0.2254
 8461SOL     OW37018   2.958   3.957   3.720  0.5370 -0.7367  0.1778
 8461SOL    HW137019   3.017   3.913   3.659 -0.9060 -0.8298 -1.1550
 8461SOL    HW237020   3.015   4.015   3.772  0.1422 -1.1976  1.1304
 8462SOL     OW37021   2.957   3.671   6.421 -0.7785 -0.1964  0.7438
 8462SOL    HW137022   2.943   3.698   6.330 -2.0402  1.3347  1.3875
 8462SOL    HW237023   2.949   3.577   6.411  0.6247 -0.0525 -1.8110
 8463SOL     OW37024   1.928   4.225   5.578 -0.5721 -0.3715 -0.5292
 8463SOL    HW137025   1.972   4.153   5.533 -0.6188 -1.1633  0.7037
 8463SOL    HW237026   1.988   4.240   5.651 -1.4139  1.0149 -0.1360
 8464SOL     OW37027   2.711   3.182   0.652 -0.0962 -0.5802 -0.3890
 8464SOL    HW137028   2.767   3.110   0.624 -0.4625  0.0147 -2.6213
 8464SOL    HW237029   2.767   3.259   0.655 -0.5177 -0.3142  0.8039
 8465SOL     OW37030   3.315   2.404   3.688  0.0670  0.0607 -0.0260
 8465SOL    HW137031   3.224   2.386   3.668 -0.3727  2.1679  0.0060
 8465SOL    HW237032   3.304   2.493   3.722  0.1689  0.3690 -0.7948
 8466SOL     OW37033   4.076   3.383   7.131  0.1151 -0.2357  0.2026
 8466SOL    HW137034   4.030   3.341   7.058  1.5656  0.3623 -1.0479
 8466SOL    HW237035   4.006   3.395   7.195 -0.7527  0.9035 -0.9731
 8467SOL     OW37036   4.486   1.375  10.786  0.0896 -0.7426  0.1704
 8467SOL    HW137037   4.537   1.454  10.767  1.3286 -1.1285  1.9110
 8467SOL    HW237038   4.554   1.327  10.833  1.2010  0.6838  0.0394
 8468SOL     OW37039   3.204   4.447   6.391  0.3813 -0.2460  0.0856
 8468SOL    HW137040   3.296   4.457   6.415  0.5865 -0.4493 -0.6136
 8468SOL    HW237041   3.161   4.497   6.461  0.6642  0.2997 -0.1319
 8469SOL     OW37042   0.013   1.731  16.653  0.9489 -0.1561 -0.0666
 8469SOL    HW137043   0.080   1.696  16.595 -2.0437 -0.3899 -3.4282
 8469SOL    HW237044   0.061   1.708  16.733  0.0719 -0.0353  0.4949
 8470SOL     OW37045   0.015   1.462   4.337 -0.1913  0.0015  0.0970
 8470SOL    HW137046   4.682   1.528   4.317 -0.0204  0.7195  1.9424
 8470SOL    HW237047   0.055   1.511   4.408  0.6769 -0.4547 -0.0758
 8471SOL     OW37048   3.271   2.644   9.282 -0.0628  0.3815 -0.1182
 8471SOL    HW137049   3.361   2.655   9.310  0.0633  1.0840 -0.8117
 8471SOL    HW237050   3.224   2.645   9.365 -1.3323 -1.4854 -0.8025
 8472SOL     OW37051   1.728   1.985  11.158 -0.2865  0.1536  0.3023
 8472SOL    HW137052   1.724   2.036  11.076 -1.3783  0.3688  0.4943
 8472SOL    HW237053   1.729   1.900  11.114 -0.3863 -0.7894  2.1605
 8473SOL     OW37054   0.211   3.893   2.721 -0.2316 -0.2379 -0.2412
 8473SOL    HW137055   0.205   3.840   2.801 -3.4542 -2.7706 -2.1517
 8473SOL    HW237056   0.301   3.876   2.694 -0.2498  0.6440 -0.8457
 8474SOL     OW37057   3.921   2.389   0.888 -0.2754 -0.2527  0.1225
 8474SOL    HW137058   3.873   2.309   0.909  0.4352 -0.5528  0.5780
 8474SOL    HW237059   3.979   2.394   0.964 -1.3375 -0.5795  0.9552
 8475SOL     OW37060   4.057   2.698  15.418  0.1440 -0.0411 -0.1809
 8475SOL    HW137061   4.011   2.628  15.372  0.0862 -1.1179  1.5255
 8475SOL    HW237062   3.990   2.699  15.486  1.0179  1.0702  0.6685
 8476SOL     OW37063   3.398   0.009   4.613  0.1086  0.0209  0.7799
 8476SOL    HW137064   3.421   4.703   4.529 -1.1451 -1.8423  1.3270
 8476SOL    HW237065   3.332   0.072   4.585 -0.2879 -0.8535 -0.2658
 8477SOL     OW37066   3.457   0.180  10.021  0.2604  0.3417 -0.4276
 8477SOL    HW137067   3.413   0.106  10.064  0.2547  1.7482  1.9610
 8477SOL    HW237068   3.547   0.148  10.019 -0.5285 -1.8474 -1.9051
 8478SOL     OW37069   3.254   3.775   0.611  0.3106  0.2620  0.2140
 8478SOL    HW137070   3.190   3.846   0.611  1.2781  1.1266  0.7191
 8478SOL    HW237071   3.274   3.764   0.518  1.3820  0.8724  0.3818
 8479SOL     OW37072   3.615   1.296  16.121  0.0847 -0.7209 -0.5529
 8479SOL    HW137073   3.547   1.252  16.172 -0.6307  0.0871 -0.8117
 8479SOL    HW237074   3.623   1.380  16.165  1.1520 -1.0038 -0.2026
 8480SOL     OW37075   2.402   1.677   4.309 -0.3964  0.8781  0.6058
 8480SOL    HW137076   2.472   1.636   4.259  0.1351  2.1203  0.3279
 8480SOL    HW237077   2.383   1.610   4.375  1.8283  0.1824  0.5440
 8481SOL     OW37078   2.765   0.361   2.258  0.6120  0.3087  0.2015
 8481SOL    HW137079   2.766   0.291   2.193  0.1638 -0.4227  0.9824
 8481SOL    HW237080   2.705   0.321   2.320 -1.8553  0.6548 -1.9458
 8482SOL     OW37081   0.509   3.213   2.706 -0.6168 -0.1631 -0.7567
 8482SOL    HW137082   0.528   3.223   2.612 -1.4766  1.2547 -0.7771
 8482SOL    HW237083   0.571   3.147   2.738  1.2679  2.4055  0.8521
 8483SOL     OW37084   3.797   1.806   2.337  0.5348 -0.6310 -0.5414
 8483SOL    HW137085   3.796   1.729   2.279 -0.2016 -3.1265  2.7973
 8483SOL    HW237086   3.809   1.881   2.278 -2.9847  0.3087 -0.0089
 8484SOL     OW37087   3.129   0.268  11.372 -0.3401  0.0722  0.0913
 8484SOL    HW137088   3.082   0.185  11.374  0.5849 -0.5219 -2.7636
 8484SOL    HW237089   3.174   0.279  11.456 -0.0661  1.0388 -0.1776
 8485SOL     OW37090   0.534   2.858   0.471 -0.4000  0.2885  0.3438
 8485SOL    HW137091   0.610   2.815   0.434 -1.2925 -1.0566  0.0521
 8485SOL    HW237092   0.573   2.941   0.497 -2.1998  1.8807 -2.0321
 8486SOL     OW37093   1.362   0.847   8.284  0.6647 -0.0170 -0.6211
 8486SOL    HW137094   1.327   0.793   8.213 -1.1019  0.5780 -0.2047
 8486SOL    HW237095   1.380   0.925   8.231 -0.0300  1.2974  1.0624
 8487SOL     OW37096   4.193   2.924   8.854 -0.1337 -0.4000  0.1582
 8487SOL    HW137097   4.203   3.011   8.814  0.2670  0.1000  1.3542
 8487SOL    HW237098   4.264   2.922   8.918 -0.6318 -4.1217  0.5806
 8488SOL     OW37099   0.832   1.846   2.517  0.1293  0.0444  0.4286
 8488SOL    HW137100   0.912   1.848   2.570 -0.4476  0.6306  1.2683
 8488SOL    HW237101   0.779   1.781   2.564  0.5136  0.0777  0.9043
 8489SOL     OW37102   4.060   2.824  12.319 -0.2049  0.4109  0.3200
 8489SOL    HW137103   4.049   2.899  12.378 -1.9179  1.5063 -1.3606
 8489SOL    HW237104   4.126   2.767  12.358 -2.5488 -0.6960  2.6313
 8490SOL     OW37105   0.321   2.943  17.082 -0.1484  0.0147 -0.2123
 8490SOL    HW137106   0.250   2.886  17.051 -0.8437  0.1478  1.1181
 8490SOL    HW237107   0.264   3.016  17.055 -1.8012 -1.3862 -0.5349
 8491SOL     OW37108   3.142   2.043   6.663  0.7765  0.0574  0.1364
 8491SOL    HW137109   3.191   2.016   6.741 -1.2551  0.0417  1.4290
 8491SOL    HW237110   3.070   2.086   6.710  0.0919 -1.2323  0.2499
 8492SOL     OW37111   1.646   3.139   5.835  0.0055 -0.9665 -0.1248
 8492SOL    HW137112   1.702   3.167   5.763 -0.6831  0.7131  0.0019
 8492SOL    HW237113   1.568   3.118   5.783 -1.4160 -2.0895  2.4344
 8493SOL     OW37114   1.507   4.456   7.471 -0.0622 -0.2297  0.6120
 8493SOL    HW137115   1.438   4.428   7.531  0.8757 -0.6692  1.5022
 8493SOL    HW237116   1.454   4.511   7.415 -1.0508 -0.3023  1.4868
 8494SOL     OW37117   3.288   4.535   4.172  0.4489 -0.2449  0.3508
 8494SOL    HW137118   3.217   4.475   4.197 -0.2117  0.1347 -0.6008
 8494SOL    HW237119   3.298   4.511   4.080  1.4795  0.3103  0.3148
 8495SOL     OW37120   3.133   0.593   8.754 -0.4798  0.5334  0.3320
 8495SOL    HW137121   3.104   0.543   8.677  0.1413 -3.1011  2.4846
 8495SOL    HW237122   3.184   0.661   8.710  0.8530  0.6956  2.1544
 8496SOL     OW37123   4.019   1.959  17.528 -0.4046 -0.3604 -0.4713
 8496SOL    HW137124   4.087   1.892  17.524  2.0530  1.9628  2.5546
 8496SOL    HW237125   4.039   2.002  17.611 -0.6969  1.1200 -1.1687
 8497SOL     OW37126   4.696   2.658   9.740  0.0992 -0.4787  0.0516
 8497SOL    HW137127   4.684   2.749   9.769  2.3875 -0.3693  0.6391
 8497SOL    HW237128   0.010   2.610   9.806  2.3822  1.9848  0.1910
 8498SOL     OW37129   1.713   3.348   0.012  0.1171 -0.3700 -0.5794
 8498SOL    HW137130   1.677   3.346   0.100 -1.9760  1.4023 -1.3919
 8498SOL    HW237131   1.792   3.396   0.037 -0.1749  0.9766 -2.2483
 8499SOL     OW37132   2.813   2.658   1.492  0.3965  0.0937  0.1737
 8499SOL    HW137133   2.766   2.686   1.413 -0.6465  0.7512  1.0222
 8499SOL    HW237134   2.887   2.606   1.460 -1.2970 -1.5276 -1.1604
 8500SOL     OW37135   1.715   4.155   6.944  0.1051  0.3526  0.2663
 8500SOL    HW137136   1.666   4.193   6.871  0.6211  0.8922  0.1987
 8500SOL    HW237137   1.652   4.155   7.016 -2.2592  1.4122 -1.8099
 8501SOL     OW37138   4.369   0.023  13.977  0.1331 -0.0517 -0.0560
 8501SOL    HW137139   4.352   0.069  13.894 -0.4082  0.0120  0.0903
 8501SOL    HW237140   4.342   0.083  14.045 -0.9052 -1.0862  0.4614
 8502SOL     OW37141   0.944   1.566   2.796  0.0659  0.0912 -0.3209
 8502SOL    HW137142   1.002   1.505   2.841 -0.8391 -2.5953 -2.8024
 8502SOL    HW237143   0.890   1.507   2.743 -0.1300 -0.0165 -0.0002
 8503SOL     OW37144   2.367   4.090   4.663  0.3409  0.2849  0.1625
 8503SOL    HW137145   2.376   4.177   4.626 -0.1720  0.8717  1.4184
 8503SOL    HW237146   2.452   4.047   4.655  0.0751 -0.9764  4.1533
 8504SOL     OW37147   0.868   0.442   4.378  0.0627  0.0517  0.1630
 8504SOL    HW137148   0.867   0.535   4.398 -0.7904  1.0398 -4.5207
 8504SOL    HW237149   0.955   0.434   4.337 -0.3499  0.0760 -0.7311
 8505SOL     OW37150   4.518   0.276   5.258  0.2590  0.1302  0.1309
 8505SOL    HW137151   4.588   0.235   5.207  0.7804 -1.1756  1.8756
 8505SOL    HW237152   4.450   0.283   5.192  1.1768 -2.2172 -1.0591
 8506SOL     OW37153   0.234   0.581  17.215  0.0455  0.0224 -0.4124
 8506SOL    HW137154   0.195   0.498  17.245  0.4157  0.6721  1.8484
 8506SOL    HW237155   0.161   0.634  17.183 -0.8790 -0.3117  1.1606
 8507SOL     OW37156   1.035   3.696   3.959  0.3925 -0.9730  0.0840
 8507SOL    HW137157   0.998   3.608   3.969 -0.0115 -0.7732  0.3660
 8507SOL    HW237158   1.125   3.671   3.937  0.2034 -0.2896 -1.4293
 8508SOL     OW37159   4.363   3.695   2.942 -0.3597 -0.0274 -0.5011
 8508SOL    HW137160   4.396   3.705   3.032  2.1777 -2.1716 -1.1911
 8508SOL    HW237161   4.371   3.785   2.910 -2.5034 -0.5444 -2.4603
 8509SOL     OW37162   4.258   3.421   6.240 -0.4696 -0.4286 -0.0731
 8509SOL    HW137163   4.209   3.475   6.178 -0.7805  0.4321  0.9366
 8509SOL    HW237164   4.331   3.479   6.258  0.1939 -0.9197 -1.2040
 8510SOL     OW37165   1.233   1.840   5.668  0.1856 -0.6118 -0.0043
 8510SOL    HW137166   1.326   1.817   5.667  0.5247  0.8333 -1.4473
 8510SOL    HW237167   1.221   1.878   5.581  1.1884 -1.8853 -0.6917
 8511SOL     OW37168   3.326   3.311   0.636  0.7519 -0.4874 -0.6435
 8511SOL    HW137169   3.376   3.384   0.599  1.5961 -0.8593 -0.2173
 8511SOL    HW237170   3.395   3.247   0.651 -0.4360 -1.6846 -0.3202
 8512SOL     OW37171   0.225   1.546  10.744 -0.0408 -0.2036 -0.0466
 8512SOL    HW137172   0.226   1.457  10.709  0.8946 -0.0719 -0.3528
 8512SOL    HW237173   0.312   1.548  10.785  0.0548  0.5823 -0.2817
 8513SOL     OW37174   1.902   2.268  10.586 -0.1369  0.0853 -0.3253
 8513SOL    HW137175   1.952   2.198  10.627 -0.8819  0.5298  1.3466
 8513SOL    HW237176   1.975   2.323  10.557 -2.0033  2.3694 -0.6789
 8514SOL     OW37177   0.422   1.932   6.026 -0.6253 -0.2847 -0.6818
 8514SOL    HW137178   0.477   1.875   5.972 -0.4945 -0.1109 -0.7348
 8514SOL    HW237179   0.370   1.868   6.074 -1.4404  0.9080  0.0374
 8515SOL     OW37180   1.954   0.621   4.610 -0.1589 -0.3585  0.7861
 8515SOL    HW137181   1.971   0.700   4.661 -1.5691  0.5260 -0.1410
 8515SOL    HW237182   1.860   0.606   4.619 -0.4652  1.6195  0.8208
 8516SOL     OW37183   0.988   2.543   7.921  0.0328 -0.3630  0.0085
 8516SOL    HW137184   0.927   2.470   7.918 -2.0788  1.3782  0.7152
 8516SOL    HW237185   1.031   2.543   7.835 -0.4468  0.5716 -0.2336
 8517SOL     OW37186   3.183   3.060   0.245 -0.3208  0.0339  0.1527
 8517SOL    HW137187   3.212   3.100   0.163 -1.9608  0.6613 -0.1145
 8517SOL    HW237188   3.153   2.972   0.222 -1.9839  0.1743  1.8049
 8518SOL     OW37189   2.864   0.927   2.740  0.0667 -0.0368 -0.1983
 8518SOL    HW137190   2.897   0.971   2.818  0.8342  1.3156 -1.2605
 8518SOL    HW237191   2.943   0.940   2.686 -0.1083  2.2254  0.0653
 8519SOL     OW37192   3.105   0.546  10.559  0.4172 -0.1352  0.3918
 8519SOL    HW137193   3.053   0.482  10.509 -2.2755  1.2371  1.4376
 8519SOL    HW237194   3.063   0.548  10.645  0.7930 -0.1661  0.5755
 8520SOL     OW37195   1.736   4.447   8.854  0.2026  0.1152  0.0204
 8520SOL    HW137196   1.692   4.402   8.927 -1.2635 -0.5076 -1.2497
 8520SOL    HW237197   1.795   4.381   8.818 -1.4418 -2.0350  1.2211
 8521SOL     OW37198   4.703   1.111   7.544 -0.2082 -0.3502  0.3103
 8521SOL    HW137199   4.642   1.185   7.548  0.5071  0.2872 -0.4367
 8521SOL    HW237200   0.047   1.154   7.579  2.0821 -0.5338 -4.5949
 8522SOL     OW37201   1.700   2.650  11.459 -0.1728 -0.2109 -0.0947
 8522SOL    HW137202   1.631   2.590  11.487  0.4575 -0.0653  1.8014
 8522SOL    HW237203   1.692   2.710  11.533  1.1479 -0.1685  0.0088
 8523SOL     OW37204   4.322   4.006   1.357  0.7214 -0.0601 -0.0496
 8523SOL    HW137205   4.340   3.917   1.385  0.4503 -0.9766 -2.7820
 8523SOL    HW237206   4.409   4.040   1.333 -0.5277  1.4879 -2.3926
 8524SOL     OW37207   1.673   2.781   7.709  0.2647  0.2088 -0.0265
 8524SOL    HW137208   1.659   2.872   7.735  0.5800  0.4295 -0.6205
 8524SOL    HW237209   1.649   2.789   7.616  3.1609 -0.2953 -0.8276
 8525SOL     OW37210   0.837   3.765   3.066  0.3444  0.1586 -0.1502
 8525SOL    HW137211   0.791   3.842   3.100 -0.9088 -0.2151 -0.9919
 8525SOL    HW237212   0.919   3.756   3.114 -0.0372 -0.5385  0.3726
 8526SOL     OW37213   3.360   2.293   6.485 -0.0574 -0.5306  0.4801
 8526SOL    HW137214   3.362   2.341   6.568  1.0568 -1.0526  0.7567
 8526SOL    HW237215   3.309   2.216   6.510 -0.4757 -0.1399  0.8230
 8527SOL     OW37216   1.355   4.637   8.354 -0.3915  0.4030  0.6189
 8527SOL    HW137217   1.266   4.609   8.377 -0.4779  1.9161  2.1374
 8527SOL    HW237218   1.407   4.566   8.390  0.4159  1.0417  0.7076
 8528SOL     OW37219   3.455   0.580   4.999 -0.5756 -0.2789 -0.3853
 8528SOL    HW137220   3.522   0.629   4.953 -1.4803  0.9508 -0.3953
 8528SOL    HW237221   3.518   0.541   5.060 -1.8953 -0.6252  0.7846
 8529SOL     OW37222   3.509   3.854  11.653 -0.2447  0.4828 -0.4697
 8529SOL    HW137223   3.493   3.762  11.633 -2.1991  0.9037 -0.8003
 8529SOL    HW237224   3.586   3.845  11.710 -0.7938 -1.6515 -0.0724
 8530SOL     OW37225   1.631   2.898  12.604 -0.3400 -0.2436  0.3806
 8530SOL    HW137226   1.611   2.885  12.697  0.5715  1.6383  0.8244
 8530SOL    HW237227   1.720   2.932  12.599 -0.6842  0.6710  0.4046
 8531SOL     OW37228   0.366   0.168  15.075  0.1797 -0.2560 -0.2697
 8531SOL    HW137229   0.449   0.182  15.120 -0.4530 -0.1338  0.8414
 8531SOL    HW237230   0.390   0.159  14.983 -0.0549 -1.6556 -0.2006
 8532SOL     OW37231   1.966   2.143   2.858 -0.1146 -0.4157  0.3883
 8532SOL    HW137232   2.000   2.227   2.829  1.4503 -1.1708  0.0723
 8532SOL    HW237233   1.873   2.155   2.835 -0.2444  0.8081  1.5643
 8533SOL     OW37234   2.865   1.011   6.955 -0.4146  0.1719 -0.1805
 8533SOL    HW137235   2.960   1.000   6.945 -0.3592  2.9601 -2.9706
 8533SOL    HW237236   2.862   1.074   7.027 -0.4554  0.6283 -0.5798
 8534SOL     OW37237   0.426   4.568   7.267 -0.5008 -0.3708 -0.1498
 8534SOL    HW137238   0.418   4.651   7.219 -3.2067 -0.2707  0.4982
 8534SOL    HW237239   0.335   4.546   7.249 -0.4371 -0.1737 -0.7399
 8535SOL     OW37240   3.218   0.559   3.584 -0.4486 -0.6978  0.0299
 8535SOL    HW137241   3.128   0.565   3.617 -1.2222 -2.3441 -1.8010
 8535SOL    HW237242   3.242   0.467   3.598  0.2876 -0.5207 -0.0466
 8536SOL     OW37243   2.648   0.514   6.158  0.3557 -0.3256  0.1084
 8536SOL    HW137244   2.660   0.422   6.133  2.4734 -0.2501  0.8672
 8536SOL    HW237245   2.702   0.557   6.091 -1.4272  2.8815  0.7505
 8537SOL     OW37246   3.139   4.026   0.567 -0.1020  0.0983  0.1344
 8537SOL    HW137247   3.050   4.044   0.536 -0.3310 -2.3869 -0.7013
 8537SOL    HW237248   3.126   4.074   0.649 -0.7899  1.1656 -0.5942
 8538SOL     OW37249   2.123   4.668   7.991 -0.2818  0.5362 -0.8133
 8538SOL    HW137250   2.063   4.623   8.050  0.0170 -1.7002 -2.1897
 8538SOL    HW237251   2.075   0.016   7.985 -3.1251 -0.8875  2.6008
 8539SOL     OW37252   0.637   2.299   5.514  0.5301  0.1220  0.1753
 8539SOL    HW137253   0.555   2.301   5.563  0.2181  0.4299 -0.3615
 8539SOL    HW237254   0.672   2.213   5.536  0.5209  0.4532  1.4495
 8540SOL     OW37255   0.366   4.534   6.242  0.5312 -0.9072  0.2597
 8540SOL    HW137256   0.445   4.503   6.196  0.8432  0.2311  0.0248
 8540SOL    HW237257   0.394   4.521   6.333 -1.0031  0.2167  0.8797
 8541SOL     OW37258   0.656   0.760   5.020 -0.8395  0.6325  0.8188
 8541SOL    HW137259   0.705   0.684   5.051 -3.4778 -1.9971 -1.4595
 8541SOL    HW237260   0.598   0.774   5.095 -0.8450  0.6317  0.8147
 8542SOL     OW37261   1.192   1.760   1.479  0.3205 -0.2184  0.1086
 8542SOL    HW137262   1.197   1.744   1.384 -0.9267 -0.0621  0.0135
 8542SOL    HW237263   1.232   1.847   1.486 -0.4038  0.1136  0.2193
 8543SOL     OW37264   4.289   0.572  11.166 -0.3268  0.3965 -0.3200
 8543SOL    HW137265   4.251   0.658  11.150  1.0412  1.2090  0.8421
 8543SOL    HW237266   4.310   0.543  11.077 -0.9903 -0.6561 -0.1449
 8544SOL     OW37267   4.497   1.988   6.863 -0.3671 -0.3407  0.2760
 8544SOL    HW137268   4.508   1.898   6.832  0.2754  0.1605 -0.9536
 8544SOL    HW237269   4.514   1.976   6.957  1.4569 -0.2698 -0.0394
 8545SOL     OW37270   0.226   2.099   6.134  0.3054  0.6141  0.4592
 8545SOL    HW137271   0.284   2.027   6.108  1.3033  1.8694 -0.8286
 8545SOL    HW237272   0.283   2.125   6.206  1.0729 -1.5963  0.6656
 8546SOL     OW37273   1.155   4.277   4.747 -0.2088  0.4611  0.2054
 8546SOL    HW137274   1.153   4.366   4.714 -0.0398  0.2664 -0.3225
 8546SOL    HW237275   1.250   4.266   4.747 -0.3037 -0.3748 -1.5568
 8547SOL     OW37276   3.485   4.389   8.451  0.5271 -0.5295 -0.3841
 8547SOL    HW137277   3.398   4.426   8.435  0.7766  0.5939  0.9003
 8547SOL    HW237278   3.484   4.311   8.395  0.3031 -1.9070  1.5402
 8548SOL     OW37279   4.264   1.495   6.319 -0.2180 -0.2989 -0.1647
 8548SOL    HW137280   4.274   1.410   6.362  0.3441 -0.8680 -1.4135
 8548SOL    HW237281   4.170   1.497   6.301 -0.3930  1.7639  0.9822
 8549SOL     OW37282   4.306   2.553   5.315  0.2310 -0.8168  0.5359
 8549SOL    HW137283   4.351   2.487   5.263  0.4783  0.5915 -1.0232
 8549SOL    HW237284   4.373   2.613   5.347  0.8851  0.0909 -2.5561
 8550SOL     OW37285   2.372   4.367   4.553  0.3937  0.0379 -0.4870
 8550SOL    HW137286   2.396   4.442   4.608 -2.0384  0.6532 -0.2843
 8550SOL    HW237287   2.280   4.384   4.535 -0.1779 -1.0861  1.3705
 8551SOL     OW37288   0.603   0.767  15.381 -0.2545 -0.5862  0.2269
 8551SOL    HW137289   0.514   0.781  15.415  0.1338  0.6100  0.7326
 8551SOL    HW237290   0.625   0.695  15.440  1.0878 -2.3079 -2.3573
 8552SOL     OW37291   1.345   1.363   4.931 -0.0446 -0.3911 -0.1549
 8552SOL    HW137292   1.302   1.299   4.875 -0.7843 -0.7617  0.8335
 8552SOL    HW237293   1.427   1.381   4.885 -1.5502  3.0473 -1.5076
 8553SOL     OW37294   2.284   0.864   1.166 -0.0448  0.1453  0.1786
 8553SOL    HW137295   2.221   0.854   1.237  1.3403  1.3929  1.5748
 8553SOL    HW237296   2.306   0.955   1.186  2.9829 -0.0309 -2.2838
 8554SOL     OW37297   3.707   0.329   2.201  0.0932  0.4779  0.2857
 8554SOL    HW137298   3.640   0.392   2.230  1.2364  1.7698  0.1507
 8554SOL    HW237299   3.771   0.356   2.267 -2.1782  2.6417  1.6585
 8555SOL     OW37300   1.375   2.971   2.358 -0.4241  0.6010  0.2418
 8555SOL    HW137301   1.353   2.885   2.394 -0.4562  0.0831 -1.0428
 8555SOL    HW237302   1.289   3.010   2.375  0.4975  2.4940  0.4682
 8556SOL     OW37303   2.863   3.450   8.139 -0.5980 -0.0172  0.5912
 8556SOL    HW137304   2.803   3.398   8.192 -2.3128  1.1752 -0.1861
 8556SOL    HW237305   2.829   3.451   8.050  1.3841 -0.9613 -0.1824
 8557SOL     OW37306   1.353   0.869   3.973 -0.3329 -0.1093  0.2538
 8557SOL    HW137307   1.373   0.875   4.066  3.2158 -0.6497 -0.4603
 8557SOL    HW237308   1.379   0.780   3.951 -0.2728 -0.0039 -0.1154
 8558SOL     OW37309   4.519   3.610   5.871  0.0155 -0.5792 -0.0407
 8558SOL    HW137310   4.574   3.586   5.796  0.3375  0.5300 -0.1593
 8558SOL    HW237311   4.508   3.520   5.901 -1.1692  0.1343  1.6302
 8559SOL     OW37312   3.521   2.810   0.881  0.2556 -0.1721  0.2566
 8559SOL    HW137313   3.603   2.833   0.838  0.0147  1.0669  0.4621
 8559SOL    HW237314   3.525   2.821   0.976  2.1001  0.1613  0.1361
 8560SOL     OW37315   2.072   3.091   5.283  0.1396 -0.4335 -0.4905
 8560SOL    HW137316   2.153   3.078   5.233  0.5879 -1.7190  0.5507
 8560SOL    HW237317   2.109   3.161   5.337 -0.9711 -1.1089  1.1321
 8561SOL     OW37318   4.103   3.032  12.522 -0.1825 -0.2908  0.1944
 8561SOL    HW137319   4.142   3.111  12.484 -2.4052  0.1124 -1.2823
 8561SOL    HW237320   4.069   3.070  12.604 -2.8624 -0.7932 -0.6670
 8562SOL     OW37321   4.031   4.422  14.856 -0.5788 -0.7250 -0.0900
 8562SOL    HW137322   4.049   4.333  14.827  0.8498  0.6974 -3.5803
 8562SOL    HW237323   4.014   4.412  14.950  0.3593  0.3916  0.1997
 8563SOL     OW37324   1.682   3.371   1.297 -0.6191  0.3959  0.0951
 8563SOL    HW137325   1.763   3.355   1.346 -0.0424 -1.3612 -1.3963
 8563SOL    HW237326   1.699   3.464   1.280  1.5725  0.3622  2.1195
 8564SOL     OW37327   1.217   2.504  12.533 -0.2636  0.3965  0.1621
 8564SOL    HW137328   1.248   2.502  12.442  0.1760 -1.9060  0.3663
 8564SOL    HW237329   1.218   2.410  12.551  2.5539  0.1056 -1.5499
 8565SOL     OW37330   4.238   2.536   6.019 -0.3546  0.2253 -0.1604
 8565SOL    HW137331   4.154   2.558   5.977 -0.8595  0.6701  1.0810
 8565SOL    HW237332   4.261   2.453   5.977 -0.9391 -1.2463  2.4185
 8566SOL     OW37333   0.904   1.099   3.582  0.6407 -0.1391  0.6658
 8566SOL    HW137334   0.900   1.107   3.677  1.3419 -2.1851  0.8518
 8566SOL    HW237335   0.814   1.082   3.556  0.8861  2.5560 -2.0456
 8567SOL     OW37336   2.903   0.123   2.128  0.0809 -0.0841 -0.1963
 8567SOL    HW137337   2.990   0.145   2.162 -0.4344 -0.0860  1.1007
 8567SOL    HW237338   2.870   0.067   2.198 -1.6565 -0.6724 -1.5022
 8568SOL     OW37339   1.813   2.532   0.954 -0.1618  0.0312  0.3526
 8568SOL    HW137340   1.800   2.449   1.000  0.3640 -0.2334  0.0213
 8568SOL    HW237341   1.876   2.497   0.891  1.4155  1.0373  1.3513
 8569SOL     OW37342   3.399   2.930   8.493 -0.0503 -0.2328  0.5080
 8569SOL    HW137343   3.429   2.994   8.557 -1.7558 -0.1674  1.2332
 8569SOL    HW237344   3.369   2.856   8.546  2.1011 -2.5216 -1.4102
 8570SOL     OW37345   4.283   3.343   5.585 -0.3192  0.4995 -0.4295
 8570SOL    HW137346   4.273   3.428   5.542 -0.8730  0.8903  0.4784
 8570SOL    HW237347   4.340   3.293   5.525  0.3360  0.1243  0.5146
 8571SOL     OW37348   0.469   3.563   0.260 -0.2990 -0.5029  0.4749
 8571SOL    HW137349   0.412   3.538   0.187 -0.8625  2.9553 -0.2859
 8571SOL    HW237350   0.425   3.647   0.273  1.6522  0.7459 -0.9407
 8572SOL     OW37351   3.444   0.626   9.844  0.0969  0.3543 -0.0002
 8572SOL    HW137352   3.471   0.677   9.920 -0.9407  1.5372 -0.4347
 8572SOL    HW237353   3.388   0.560   9.885  0.9340  0.2604  0.9979
 8573SOL     OW37354   3.211   2.215   3.399  0.4286  0.4239  0.5499
 8573SOL    HW137355   3.257   2.184   3.477 -0.0223 -0.6753  0.3825
 8573SOL    HW237356   3.210   2.140   3.339  0.4851  0.7877  0.0930
 8574SOL     OW37357   2.245   4.560   8.841 -0.1892 -0.3345  0.1274
 8574SOL    HW137358   2.154   4.581   8.821  0.7572  0.6529 -3.1866
 8574SOL    HW237359   2.234   4.467   8.864 -0.5068  0.0653  1.5762
 8575SOL     OW37360   1.746   1.731   2.623  0.1624  0.0824 -0.4599
 8575SOL    HW137361   1.804   1.683   2.682 -2.5177 -0.7776  1.4488
 8575SOL    HW237362   1.706   1.796   2.680 -0.6235 -2.2554  1.6417
 8576SOL     OW37363   0.953   3.566   7.777 -0.1195 -0.3454  0.6112
 8576SOL    HW137364   0.859   3.581   7.783 -0.3055 -1.2343  0.0367
 8576SOL    HW237365   0.951   3.499   7.708 -1.6491 -1.2014  1.4815
 8577SOL     OW37366   1.650   1.380   3.063  0.3162 -1.0983  0.3170
 8577SOL    HW137367   1.680   1.471   3.061 -3.1380  0.0635  1.9624
 8577SOL    HW237368   1.618   1.369   3.152 -3.6566  2.0966 -0.7210
 8578SOL     OW37369   2.155   3.263   7.902 -0.3748  0.3476  0.2207
 8578SOL    HW137370   2.140   3.354   7.878 -0.9611 -0.0217 -0.7978
 8578SOL    HW237371   2.251   3.259   7.904 -0.3394  1.6251  0.8065
 8579SOL     OW37372   4.270   2.393   2.974  0.0878  0.7869 -0.9562
 8579SOL    HW137373   4.285   2.398   3.069  0.7438 -1.6325 -0.9353
 8579SOL    HW237374   4.351   2.436   2.948  0.6272  1.4917  1.8520
 8580SOL     OW37375   2.536   0.578   7.395  0.6468 -0.3639  0.2769
 8580SOL    HW137376   2.526   0.660   7.444 -1.0967 -0.3339 -0.1504
 8580SOL    HW237377   2.450   0.570   7.354 -0.4190 -2.1202  2.8534
 8581SOL     OW37378   1.643   2.520   8.940 -0.0307 -0.3452  0.0756
 8581SOL    HW137379   1.553   2.492   8.921 -0.5374 -0.3263  2.5647
 8581SOL    HW237380   1.688   2.475   8.867  0.5037 -0.1862  0.3088
 8582SOL     OW37381   3.023   4.413   7.817 -0.3331  0.0686 -0.0357
 8582SOL    HW137382   3.049   4.462   7.895  0.5463 -1.7766  0.8192
 8582SOL    HW237383   3.112   4.393   7.789 -0.7653 -1.9800  0.0370
 8583SOL     OW37384   3.752   1.729   2.068 -0.3723 -0.6966  0.3491
 8583SOL    HW137385   3.792   1.813   2.090 -2.0688  0.3905 -0.7570
 8583SOL    HW237386   3.687   1.746   2.000 -1.2088  0.7114  1.5186
 8584SOL     OW37387   2.203   4.569   4.742  0.2901  0.5065 -0.2451
 8584SOL    HW137388   2.122   4.598   4.784  0.1154 -1.1036  0.5246
 8584SOL    HW237389   2.214   4.478   4.771  0.5786  0.6683  0.1576
 8585SOL     OW37390   4.351   2.991   3.370 -0.1303  0.0364  0.0060
 8585SOL    HW137391   4.371   3.051   3.442  2.5700 -0.4299 -0.3728
 8585SOL    HW237392   4.431   2.938   3.369 -0.0099  0.2187 -0.0962
 8586SOL     OW37393   0.879   1.831   2.830 -0.7399  0.3193 -0.0461
 8586SOL    HW137394   0.957   1.880   2.806  0.1356 -0.3517  1.4203
 8586SOL    HW237395   0.905   1.739   2.830  0.4546  0.6581  0.9876
 8587SOL     OW37396   0.602   3.786   6.451  0.6937 -0.0380  0.0906
 8587SOL    HW137397   0.612   3.693   6.433  2.8870  0.1578  0.2910
 8587SOL    HW237398   0.515   3.808   6.417  1.1141 -1.1903 -1.7323
 8588SOL     OW37399   2.468   2.478   1.930  0.4244  0.3021  0.2903
 8588SOL    HW137400   2.488   2.498   1.838  1.3974 -0.1254  0.4103
 8588SOL    HW237401   2.452   2.384   1.931 -0.5454  0.4701  2.0927
 8589SOL     OW37402   2.851   1.776  12.280  0.0313 -0.6943  0.4915
 8589SOL    HW137403   2.803   1.841  12.331 -0.7268 -0.8511 -0.0205
 8589SOL    HW237404   2.907   1.818  12.214  0.4449 -0.9336  0.6896
 8590SOL     OW37405   4.132   3.930   4.992  0.1069  0.1573 -0.7243
 8590SOL    HW137406   4.074   4.006   4.994  1.0977  0.9299 -1.6817
 8590SOL    HW237407   4.215   3.963   5.026 -0.5809 -0.6809  1.8205
 8591SOL     OW37408   0.259   0.875  13.862 -0.2778  0.1848  0.1002
 8591SOL    HW137409   0.184   0.847  13.809 -0.2021 -0.0278  0.1049
 8591SOL    HW237410   0.216   0.951  13.899 -3.0256 -1.0227 -0.6386
 8592SOL     OW37411   3.987   2.181  13.099 -0.2401  0.2770  0.7546
 8592SOL    HW137412   4.062   2.144  13.053 -0.8726  0.1360 -0.1499
 8592SOL    HW237413   4.003   2.158  13.191 -0.7833 -1.6144  0.3719
 8593SOL     OW37414   1.439   0.690   7.590 -0.1116 -0.2610 -0.3785
 8593SOL    HW137415   1.500   0.724   7.524  0.8740  2.9308  2.1679
 8593SOL    HW237416   1.361   0.670   7.539  0.4879  2.2466 -2.3348
 8594SOL     OW37417   1.755   2.709  14.788 -0.2369  0.1056  0.5237
 8594SOL    HW137418   1.767   2.801  14.811 -1.1223 -0.0788  1.7241
 8594SOL    HW237419   1.838   2.667  14.811  0.7414  2.6482  1.6084
 8595SOL     OW37420   0.358   0.332   8.266  0.6561 -0.4014 -0.5264
 8595SOL    HW137421   0.285   0.294   8.217 -0.7657 -1.0755  2.0864
 8595SOL    HW237422   0.315   0.411   8.300  2.5354  0.5958 -0.5088
 8596SOL     OW37423   2.365   3.359   3.080  0.0330 -0.4485 -0.0850
 8596SOL    HW137424   2.309   3.361   3.158  1.6262 -0.5788  1.0531
 8596SOL    HW237425   2.324   3.437   3.041  0.0038 -0.5093 -0.1741
 8597SOL     OW37426   0.848   2.761   5.762 -0.1372 -0.1334  0.6637
 8597SOL    HW137427   0.769   2.723   5.801 -2.1705  1.5019 -1.8417
 8597SOL    HW237428   0.872   2.821   5.832  1.4496  1.6744 -1.4180
 8598SOL     OW37429   2.960   2.882  17.212  0.0088 -0.4555 -0.5321
 8598SOL    HW137430   2.999   2.857  17.295  0.2650  2.3555  0.1933
 8598SOL    HW237431   3.002   2.810  17.165 -0.3268 -0.7760 -0.3365
 8599SOL     OW37432   2.353   2.459  10.944  0.3861 -0.0939 -0.0673
 8599SOL    HW137433   2.432   2.442  10.893  0.3226  0.6300 -0.4097
 8599SOL    HW237434   2.396   2.516  11.008 -0.2409  2.2064 -1.7362
 8600SOL     OW37435   3.045   0.242  14.470  0.2020 -0.2280 -0.2866
 8600SOL    HW137436   3.037   0.328  14.513 -2.0516 -0.1259 -0.9245
 8600SOL    HW237437   3.110   0.258  14.401  0.8072  0.5345  0.4512
 8601SOL     OW37438   2.329   2.539  12.837 -0.6710  0.4148  0.4453
 8601SOL    HW137439   2.348   2.456  12.880 -1.1403 -0.6533 -1.4166
 8601SOL    HW237440   2.367   2.526  12.751 -0.6672  1.6688  0.2504
 8602SOL     OW37441   4.108   1.487  13.441 -0.1814 -0.4805  0.3184
 8602SOL    HW137442   4.143   1.573  13.463 -1.2041  0.1228 -0.4629
 8602SOL    HW237443   4.121   1.430  13.517  2.7025 -0.2003  0.0224
 8603SOL     OW37444   4.115   2.805   4.991  0.2224  0.2502 -0.3171
 8603SOL    HW137445   4.103   2.726   4.939 -1.2695 -0.4041  1.0406
 8603SOL    HW237446   4.105   2.776   5.081 -1.0207 -1.9485 -1.1776
 8604SOL     OW37447   3.396   2.499  12.544 -0.0125 -0.0923  0.4095
 8604SOL    HW137448   3.439   2.438  12.485 -3.2603  0.2422 -2.3466
 8604SOL    HW237449   3.447   2.578  12.527  0.2550 -0.1892  0.7735
 8605SOL     OW37450   0.454   1.596   4.988 -0.2053  0.0771  0.2737
 8605SOL    HW137451   0.414   1.516   5.022 -0.4860 -0.4940 -1.3822
 8605SOL    HW237452   0.466   1.650   5.066 -0.2248 -0.3968  0.6068
 8606SOL     OW37453   2.239   0.813   5.925  0.5714  0.7093 -0.2342
 8606SOL    HW137454   2.231   0.900   5.886 -2.1577  1.1639  1.3476
 8606SOL    HW237455   2.331   0.795   5.902  0.0942  0.4040 -1.9506
 8607SOL     OW37456   3.453   3.417  10.709 -0.0027 -0.8368 -0.3453
 8607SOL    HW137457   3.508   3.374  10.775 -1.8408 -3.6410 -0.6398
 8607SOL    HW237458   3.364   3.383  10.714  0.2067 -1.2585  0.6770
 8608SOL     OW37459   0.252   0.844  10.249 -0.0543 -0.5139 -0.1155
 8608SOL    HW137460   0.192   0.917  10.234  0.9111  0.7733  2.2922
 8608SOL    HW237461   0.318   0.856  10.180  2.6363  0.6817  2.6734
 8609SOL     OW37462   0.205   3.606  10.892  0.0545  0.2674  0.0609
 8609SOL    HW137463   0.221   3.614  10.798 -0.0234  0.6353  0.0800
 8609SOL    HW237464   0.112   3.609  10.911  0.1768  2.5321  0.2847
 8610SOL     OW37465   2.556   3.222  17.242 -0.4536  0.4110  0.1576
 8610SOL    HW137466   2.470   3.264  17.252  0.1574  1.8722 -0.8061
 8610SOL    HW237467   2.545   3.198  17.150  1.6251 -0.9704  0.2785
 8611SOL     OW37468   1.467   3.842   8.202  0.1574 -0.1093 -0.0872
 8611SOL    HW137469   1.401   3.897   8.243 -0.0474  0.3172 -0.9852
 8611SOL    HW237470   1.466   3.880   8.114 -1.8491  0.1779  0.0593
 8612SOL     OW37471   3.646   4.696   9.259  0.0457  0.3287  0.0560
 8612SOL    HW137472   3.702   4.621   9.237 -0.6509 -0.4738  1.0034
 8612SOL    HW237473   3.686   4.732   9.338 -0.0333 -0.2575  0.3620
 8613SOL     OW37474   3.562   2.927   4.542  0.5984  0.4376 -0.4274
 8613SOL    HW137475   3.601   2.839   4.540 -3.2120 -1.2616 -0.5344
 8613SOL    HW237476   3.614   2.981   4.601 -2.2954  1.2845  1.3534
 8614SOL     OW37477   4.350   3.102  12.805  0.1382  0.0046  0.4522
 8614SOL    HW137478   4.346   3.197  12.791  0.7029  0.0853  0.8109
 8614SOL    HW237479   4.417   3.092  12.872 -1.8442  0.1111  2.4569
 8615SOL     OW37480   0.323   3.103   5.148 -0.4295  0.0643 -0.3389
 8615SOL    HW137481   0.353   3.191   5.171  1.7673 -0.4080 -1.3982
 8615SOL    HW237482   0.402   3.054   5.172 -1.7224 -1.2869  1.1738
 8616SOL     OW37483   3.674   1.482   5.245 -0.4387 -0.2786  0.5698
 8616SOL    HW137484   3.754   1.431   5.230 -1.1528 -0.0137 -4.1677
 8616SOL    HW237485   3.606   1.433   5.198  0.9987 -1.8277  0.1138
 8617SOL     OW37486   1.234   1.566   9.039  0.0435  0.1658 -0.0370
 8617SOL    HW137487   1.202   1.478   9.020  2.1166 -0.6186  0.0721
 8617SOL    HW237488   1.234   1.559   9.135 -2.1216 -0.6875 -0.0975
 8618SOL     OW37489   0.100   2.391  10.396 -0.4655  0.2481 -0.2263
 8618SOL    HW137490   0.185   2.433  10.391  0.3284 -1.3519 -0.3105
 8618SOL    HW237491   0.108   2.307  10.349 -3.6898  0.4696 -1.1805
 8619SOL     OW37492   4.657   2.428   4.043 -0.0216 -0.0800 -0.2189
 8619SOL    HW137493   4.638   2.518   4.068 -0.6212 -0.0759 -0.7006
 8619SOL    HW237494   4.565   2.401   4.042  0.1104 -0.5684  0.9184
 8620SOL     OW37495   3.582   3.714   2.189  0.1060  0.7098 -0.4185
 8620SOL    HW137496   3.488   3.705   2.171  0.3264 -0.9885 -0.7201
 8620SOL    HW237497   3.612   3.684   2.104  1.2256  0.7698 -0.0524
 8621SOL     OW37498   2.432   3.265   7.869 -0.0787  0.5731  0.6351
 8621SOL    HW137499   2.494   3.192   7.864 -2.3667 -1.5211  2.8173
 8621SOL    HW237500   2.489   3.341   7.877  1.6016 -0.7207  0.8878
 8622SOL     OW37501   2.702   2.690  14.485  0.3398  0.6146  0.3319
 8622SOL    HW137502   2.673   2.749  14.415 -0.6758  1.1981  1.2393
 8622SOL    HW237503   2.797   2.698  14.478  0.6205 -4.7705 -1.8997
 8623SOL     OW37504   0.275   3.059   4.751  0.3934 -0.0605 -0.8121
 8623SOL    HW137505   0.204   3.060   4.815  0.1365 -2.2582 -1.0810
 8623SOL    HW237506   0.322   2.983   4.784  3.8617  1.7260 -1.5398
 8624SOL     OW37507   1.644   1.819   9.089 -0.0501 -0.1191 -0.2842
 8624SOL    HW137508   1.683   1.813   9.002  1.0592 -1.6165  0.3182
 8624SOL    HW237509   1.663   1.906   9.124  2.6856  0.5988 -3.5666
 8625SOL     OW37510   2.516   4.153  14.115  0.3605  0.0161 -0.0573
 8625SOL    HW137511   2.569   4.212  14.168 -0.1852  1.0283 -0.6393
 8625SOL    HW237512   2.544   4.070  14.155  0.9436 -0.3551 -1.2286
 8626SOL     OW37513   3.889   4.051  10.493 -0.1249  0.2728 -0.1462
 8626SOL    HW137514   3.921   3.993  10.562  0.9839 -1.2577 -1.9667
 8626SOL    HW237515   3.960   4.041  10.430  0.6846  0.7855  0.7008
 8627SOL     OW37516   3.398   0.415  16.475  0.7656 -0.4231 -0.2089
 8627SOL    HW137517   3.358   0.473  16.410  0.1283  0.6249  1.1154
 8627SOL    HW237518   3.388   0.461  16.558 -0.3675 -0.6882 -0.2098
 8628SOL     OW37519   3.524   3.271   7.468 -0.1202 -0.0308  0.5535
 8628SOL    HW137520   3.610   3.253   7.431 -1.3137 -2.8595 -0.8098
 8628SOL    HW237521   3.472   3.271   7.388 -0.1729 -1.7808  0.5825
 8629SOL     OW37522   3.842   2.093   0.969 -0.3395 -0.5798 -0.0214
 8629SOL    HW137523   3.783   2.017   0.973 -0.4806 -0.4537  0.3289
 8629SOL    HW237524   3.828   2.126   1.058  1.5242  1.5482 -0.5248
 8630SOL     OW37525   1.507   4.393   6.760  0.0731 -0.4982 -0.1729
 8630SOL    HW137526   1.435   4.443   6.797  0.4738  0.3476 -0.5326
 8630SOL    HW237527   1.452   4.325   6.722  1.0948 -0.3642 -1.8696
 8631SOL     OW37528   2.580   4.242   7.456 -0.1915 -0.3176  0.0698
 8631SOL    HW137529   2.623   4.244   7.541  1.5609 -1.6660 -0.8033
 8631SOL    HW237530   2.541   4.155   7.450  2.5504 -1.5491  0.4024
 8632SOL     OW37531   3.935   0.792   4.703  0.0950 -0.0671  0.3655
 8632SOL    HW137532   3.964   0.702   4.690  0.7312  0.3704 -1.2761
 8632SOL    HW237533   4.012   0.846   4.686 -0.3706  0.6155  0.3903
 8633SOL     OW37534   2.136   3.837   8.555  0.5258 -0.0954  0.2830
 8633SOL    HW137535   2.190   3.758   8.547 -0.7218 -1.0733  1.6880
 8633SOL    HW237536   2.155   3.874   8.468  0.6662 -0.1066  0.3078
 8634SOL     OW37537   1.670   2.800  14.438  0.5169 -0.5051 -0.1680
 8634SOL    HW137538   1.590   2.759  14.469  0.9253  1.7208  3.7821
 8634SOL    HW237539   1.662   2.885  14.482  1.8889  0.0168 -0.8841
 8635SOL     OW37540   3.785   4.561   2.747 -0.2644 -0.1457 -0.0969
 8635SOL    HW137541   3.807   4.510   2.669  0.0297 -1.0729  0.5902
 8635SOL    HW237542   3.702   4.599   2.721  0.2567  0.6336 -0.6312
 8636SOL     OW37543   3.170   2.362   2.093 -0.1850  0.5982  0.0814
 8636SOL    HW137544   3.135   2.369   2.004 -1.3559  0.8494  0.5659
 8636SOL    HW237545   3.160   2.452   2.122 -1.1721  0.6261 -0.3509
 8637SOL     OW37546   1.146   0.746   8.900 -0.4059  0.1883  0.3142
 8637SOL    HW137547   1.054   0.757   8.877 -0.9278 -0.7306  1.9341
 8637SOL    HW237548   1.157   0.780   8.989 -3.5480 -0.8760  1.0830
 8638SOL     OW37549   1.513   4.630   4.119  0.3470  0.6288  0.2222
 8638SOL    HW137550   1.582   4.576   4.156 -1.2094 -0.1534  1.9757
 8638SOL    HW237551   1.440   4.588   4.164  0.1113  2.8016  1.8595
 8639SOL     OW37552   2.728   0.777   3.968  0.2674 -0.0475 -0.0343
 8639SOL    HW137553   2.744   0.756   4.060  1.5420 -2.8832 -0.9063
 8639SOL    HW237554   2.656   0.840   3.979  0.5984  0.7418 -2.2929
 8640SOL     OW37555   4.494   2.141   7.295 -0.6991 -0.1378 -0.0178
 8640SOL    HW137556   4.432   2.214   7.303 -2.9486 -2.4089  3.4611
 8640SOL    HW237557   4.539   2.164   7.377  0.5572 -1.8256 -0.2272
 8641SOL     OW37558   2.623   0.209   9.564 -0.2767 -0.6015  0.1358
 8641SOL    HW137559   2.532   0.239   9.568 -0.2570 -0.8475  2.2488
 8641SOL    HW237560   2.622   0.161   9.646  0.0409  1.8184  1.5695
 8642SOL     OW37561   0.303   0.446  13.525 -0.3557  0.2852 -0.5381
 8642SOL    HW137562   0.343   0.516  13.578 -1.7228  1.1427 -0.6411
 8642SOL    HW237563   0.296   0.493  13.442  0.5511  1.4562  0.0414
 8643SOL     OW37564   1.132   1.432   2.536  0.5513  0.1026 -0.3848
 8643SOL    HW137565   1.073   1.494   2.577  0.0163 -1.2429  0.8786
 8643SOL    HW237566   1.131   1.352   2.588 -1.5108  0.4617  0.1454
 8644SOL     OW37567   0.116   4.444   6.577  0.2475  0.1541 -0.3312
 8644SOL    HW137568   0.195   4.494   6.557 -0.3924  1.2401 -0.1368
 8644SOL    HW237569   0.059   4.503   6.626 -0.6316 -0.3893 -0.6961
 8645SOL     OW37570   0.232   0.637   4.437 -0.0127  0.8551 -0.2283
 8645SOL    HW137571   0.328   0.643   4.436  0.2884 -3.9758 -2.5500
 8645SOL    HW237572   0.216   0.708   4.499  0.2793  0.2772  0.5052
 8646SOL     OW37573   4.358   4.067   2.242 -0.0135  0.2385 -0.0577
 8646SOL    HW137574   4.273   4.094   2.208  0.8317  1.6714 -0.9994
 8646SOL    HW237575   4.370   4.118   2.322  1.8562  2.8890 -2.0141
 8647SOL     OW37576   2.874   2.741   7.883  0.3655  1.0061  0.5157
 8647SOL    HW137577   2.827   2.804   7.938 -0.1632 -0.4660  1.7525
 8647SOL    HW237578   2.963   2.748   7.916  1.3687  0.1706 -2.0577
 8648SOL     OW37579   2.217   0.081   4.189  0.2045  0.8461  0.0642
 8648SOL    HW137580   2.196   4.734   4.235  2.6924  0.0327 -0.2387
 8648SOL    HW237581   2.145   0.137   4.216  1.0722  1.6846  0.6580
 8649SOL     OW37582   3.082   0.661  11.934 -0.0850 -0.2602 -0.1338
 8649SOL    HW137583   2.996   0.629  11.959 -1.3899  3.2591 -0.1524
 8649SOL    HW237584   3.068   0.755  11.928  2.5545  0.2993  2.3687
 8650SOL     OW37585   1.976   0.136   9.213  0.4015 -0.3865  0.0984
 8650SOL    HW137586   1.883   0.134   9.190  0.8171  0.7712 -1.5933
 8650SOL    HW237587   2.006   0.079   9.142  0.3948  1.2754 -1.2234
 8651SOL     OW37588   4.291   2.284   1.749  0.2583 -0.8099  0.0419
 8651SOL    HW137589   4.248   2.214   1.798 -1.2574 -0.1659 -0.3683
 8651SOL    HW237590   4.254   2.279   1.661  0.9818 -3.6191 -0.1066
 8652SOL     OW37591   0.924   0.414   7.801 -0.3095 -0.6077  0.4273
 8652SOL    HW137592   0.842   0.366   7.815 -1.5391  0.6968 -2.2113
 8652SOL    HW237593   0.960   0.401   7.888  1.6095  0.5806 -0.2022
 8653SOL     OW37594   1.895   4.074  13.028 -0.0060 -0.4952 -0.2753
 8653SOL    HW137595   1.847   4.073  12.945  0.9093  0.9549 -0.8093
 8653SOL    HW237596   1.983   4.066  12.992 -0.2395  1.4081 -1.2381
 8654SOL     OW37597   4.203   0.968  15.278  0.0082  0.0198  0.3406
 8654SOL    HW137598   4.283   0.919  15.296 -0.0599 -0.4993 -0.7794
 8654SOL    HW237599   4.161   0.924  15.204 -0.1786  0.4503  0.1900
 8655SOL     OW37600   3.314   1.063   5.427  0.7251  0.0842 -0.2234
 8655SOL    HW137601   3.333   0.988   5.370  1.9606  0.5886 -0.4525
 8655SOL    HW237602   3.246   1.020   5.480  0.6256 -1.3671 -1.5276
 8656SOL     OW37603   4.268   2.514  14.074 -0.4565 -0.2446  0.0419
 8656SOL    HW137604   4.268   2.422  14.098 -2.2230 -0.0311  0.8021
 8656SOL    HW237605   4.318   2.513  13.992  0.5651 -0.3383  0.6609
 8657SOL     OW37606   1.438   2.768   5.272 -0.4967 -0.2701  0.2133
 8657SOL    HW137607   1.422   2.766   5.366 -1.6816  1.0225  0.0366
 8657SOL    HW237608   1.489   2.689   5.252 -1.4784 -0.4834 -1.4550
 8658SOL     OW37609   1.490   1.327   7.840  1.0752  0.5966 -0.2709
 8658SOL    HW137610   1.449   1.366   7.763 -1.6951 -0.5693  0.5911
 8658SOL    HW237611   1.583   1.337   7.820  0.4767  0.4317 -3.1578
 8659SOL     OW37612   1.230   3.631   3.790 -0.2688  0.2480  0.4335
 8659SOL    HW137613   1.239   3.723   3.765  2.3186  0.4372  2.0478
 8659SOL    HW237614   1.294   3.595   3.729 -0.1769  0.5404  0.3581
 8660SOL     OW37615   0.042   1.226   9.757  0.9123  0.3016 -0.2291
 8660SOL    HW137616   4.734   1.206   9.673  0.4207 -0.1668  0.1267
 8660SOL    HW237617   4.715   1.257   9.824 -2.8268 -2.4017 -2.3603
 8661SOL     OW37618   2.492   2.661   2.670  0.2104  0.3315 -0.1439
 8661SOL    HW137619   2.414   2.608   2.654  1.2574 -1.5258  0.8257
 8661SOL    HW237620   2.453   2.733   2.719  1.0608  3.1688 -3.6809
 8662SOL     OW37621   3.988   1.697   4.126 -0.2191 -0.4277 -0.0640
 8662SOL    HW137622   3.944   1.782   4.124 -1.2585 -0.9501  1.2971
 8662SOL    HW237623   3.911   1.640   4.127  0.7325 -1.7231  0.6750
 8663SOL     OW37624   0.147   1.774   5.909  0.4369  0.2349  0.5920
 8663SOL    HW137625   0.069   1.720   5.900  2.3000 -2.3521 -0.1508
 8663SOL    HW237626   0.174   1.746   5.997  2.7361  0.5161 -0.0303
 8664SOL     OW37627   3.448   3.082  17.223 -0.1175 -0.1405  0.2658
 8664SOL    HW137628   3.369   3.076  17.169 -1.8923 -1.0901  2.9958
 8664SOL    HW237629   3.513   3.119  17.163  1.2284 -1.5531  0.8490
 8665SOL     OW37630   2.557   4.407  13.462  0.0190 -0.5688 -0.4512
 8665SOL    HW137631   2.487   4.439  13.519 -0.6611 -1.7483 -0.6226
 8665SOL    HW237632   2.538   4.443  13.375  1.0026 -1.7922 -1.1662
 8666SOL     OW37633   4.592   1.991  16.436 -0.3544 -0.0538  0.5216
 8666SOL    HW137634   4.596   1.995  16.531 -1.7029  0.6976  0.5434
 8666SOL    HW237635   4.677   1.954  16.412 -0.7180 -2.4268  2.8028
 8667SOL     OW37636   3.669   4.307   6.230  0.2173  0.1874 -0.4438
 8667SOL    HW137637   3.741   4.307   6.166  1.1795  0.8354  0.6311
 8667SOL    HW237638   3.686   4.232   6.288 -1.0922  0.2196 -0.0378
 8668SOL     OW37639   3.287   2.767   2.089 -0.0296 -0.7552 -0.4791
 8668SOL    HW137640   3.224   2.724   2.031 -2.3121 -1.2228  2.3715
 8668SOL    HW237641   3.272   2.717   2.169 -0.3916 -1.4767 -1.0024
 8669SOL     OW37642   2.602   3.922   8.982  0.0343 -0.1756 -0.1276
 8669SOL    HW137643   2.544   3.956   9.050  2.5748  0.7265  1.5939
 8669SOL    HW237644   2.547   3.944   8.907  0.4412 -2.9248 -1.1959
 8670SOL     OW37645   3.767   0.601   6.281 -0.4888 -0.4335 -0.4564
 8670SOL    HW137646   3.714   0.643   6.349 -0.8181  0.6214 -1.3671
 8670SOL    HW237647   3.827   0.550   6.336 -0.1999  0.8864  0.4398
 8671SOL     OW37648   4.375   4.458   6.919  0.2338  0.4592  0.4547
 8671SOL    HW137649   4.321   4.383   6.894 -0.2387  0.7200  0.6907
 8671SOL    HW237650   4.452   4.408   6.945  0.2171 -0.2645 -0.8712
 8672SOL     OW37651   0.176   1.809  10.792 -0.0415  0.3877 -0.0724
 8672SOL    HW137652   0.240   1.870  10.756  0.5923 -0.7374 -0.8487
 8672SOL    HW237653   0.207   1.722  10.767  0.6814  1.1841 -1.9454
 8673SOL     OW37654   1.390   2.072   1.676  0.2388 -0.1039  0.0029
 8673SOL    HW137655   1.349   2.061   1.589 -0.9831 -1.2603  0.7193
 8673SOL    HW237656   1.481   2.093   1.659  0.0650  1.5304  1.1525
 8674SOL     OW37657   3.581   4.549   5.435  0.0826 -0.4015 -0.7550
 8674SOL    HW137658   3.561   4.468   5.481  1.3591 -0.5003 -0.3810
 8674SOL    HW237659   3.576   4.526   5.342  1.8965 -2.4713 -0.3221
 8675SOL     OW37660   2.472   4.358  13.752 -0.3806  0.4792 -0.1521
 8675SOL    HW137661   2.397   4.312  13.714 -0.6541 -0.8595  2.0292
 8675SOL    HW237662   2.465   4.323  13.841  0.0108  0.6822 -0.0380
 8676SOL     OW37663   2.366   4.363  15.336 -0.5747  0.3167 -0.4685
 8676SOL    HW137664   2.307   4.338  15.265  1.0163 -0.3249 -1.5902
 8676SOL    HW237665   2.326   4.449  15.349 -0.2244  0.5158 -0.7021
 8677SOL     OW37666   4.572   0.235   6.995  0.8572  0.1136  0.4432
 8677SOL    HW137667   4.515   0.165   6.964  0.5065  0.6472 -0.0894
 8677SOL    HW237668   4.564   0.229   7.091 -0.1183  0.6495  0.3891
 8678SOL     OW37669   0.744   3.442   7.068  0.5623 -0.5337  0.1850
 8678SOL    HW137670   0.756   3.517   7.009  0.1055 -1.4694 -1.0819
 8678SOL    HW237671   0.739   3.364   7.013 -0.9187  0.3405 -0.9090
 8679SOL     OW37672   2.143   4.556  12.485 -0.0163  0.8977 -0.4855
 8679SOL    HW137673   2.167   4.479  12.433 -2.4725  0.3597 -0.8266
 8679SOL    HW237674   2.198   4.541  12.562 -1.1945 -0.3765  0.1056
 8680SOL     OW37675   3.524   2.861  12.206  0.0342  0.3508 -0.2156
 8680SOL    HW137676   3.603   2.820  12.171  0.3800  0.9220 -0.0879
 8680SOL    HW237677   3.516   2.808  12.285  0.3844 -0.8136 -0.9594
 8681SOL     OW37678   4.605   4.706   5.383 -0.4185 -0.2170 -0.5890
 8681SOL    HW137679   4.644   0.058   5.392 -2.7022  0.7197  0.2896
 8681SOL    HW237680   4.554   4.705   5.464 -0.3163  2.7372 -0.5073
 8682SOL     OW37681   3.571   2.159   5.562  0.5884 -0.0774  0.3468
 8682SOL    HW137682   3.551   2.157   5.656 -1.8392 -3.6084 -0.2465
 8682SOL    HW237683   3.597   2.067   5.550  1.0251 -0.0732  1.2060
 8683SOL     OW37684   1.632   2.851  12.874  0.4350  0.5732 -0.5810
 8683SOL    HW137685   1.701   2.842  12.940  0.3316 -1.0371 -0.6809
 8683SOL    HW237686   1.556   2.815  12.918  0.9379 -0.1513 -0.3061
 8684SOL     OW37687   4.090   2.768   9.563  0.0341  0.3943  1.1218
 8684SOL    HW137688   4.107   2.823   9.640  0.7620  1.1841  0.3935
 8684SOL    HW237689   4.175   2.743   9.530  0.2527  0.0510  1.9462
 8685SOL     OW37690   1.339   2.723   2.403 -0.5858  0.5868 -0.5587
 8685SOL    HW137691   1.341   2.652   2.339  3.0548 -1.2558  1.5995
 8685SOL    HW237692   1.263   2.691   2.452  0.7233  0.2677  1.2726
 8686SOL     OW37693   3.656   3.437   5.406  0.1199 -0.3756  0.1786
 8686SOL    HW137694   3.627   3.356   5.450 -0.2540 -0.2977  0.0734
 8686SOL    HW237695   3.739   3.402   5.372  0.9400  0.2006  1.5719
 8687SOL     OW37696   4.585   1.412   3.419 -0.1288  0.2670 -0.8513
 8687SOL    HW137697   4.666   1.370   3.390  0.9839  0.4785  1.9763
 8687SOL    HW237698   4.539   1.445   3.341 -2.3136 -2.2999 -0.6456
 8688SOL     OW37699   4.616   1.853   6.364  0.2330 -0.1741  0.3783
 8688SOL    HW137700   4.710   1.842   6.378 -0.0661  0.5023  2.8589
 8688SOL    HW237701   4.572   1.805   6.434  0.3439 -1.0491 -0.1469
 8689SOL     OW37702   4.377   2.308   6.237  0.2262  0.0025 -0.8753
 8689SOL    HW137703   4.344   2.265   6.316  1.9153 -0.2578 -0.3014
 8689SOL    HW237704   4.341   2.254   6.167 -0.0639 -1.0653  0.0981
 8690SOL     OW37705   2.599   4.521   8.226 -0.3348 -0.3322 -0.1893
 8690SOL    HW137706   2.524   4.549   8.278 -0.0945  0.1036 -0.0749
 8690SOL    HW237707   2.638   4.607   8.207 -1.9814  0.2334 -1.0300
 8691SOL     OW37708   2.612   1.950  12.863 -0.2893 -0.0887 -0.2654
 8691SOL    HW137709   2.569   1.912  12.786  1.1000  1.1080 -1.6511
 8691SOL    HW237710   2.668   2.014  12.818  0.1669  0.1147  0.5906
 8692SOL     OW37711   1.309   2.111   5.008  0.0866 -0.0941  0.1291
 8692SOL    HW137712   1.294   2.185   4.948  1.4376 -0.1308 -0.2463
 8692SOL    HW237713   1.397   2.083   4.983  0.4609  1.3005 -0.1555
 8693SOL     OW37714   2.119   2.204  15.733 -0.4593  0.1732  0.1137
 8693SOL    HW137715   2.161   2.192  15.648 -0.4944  0.4693  0.0514
 8693SOL    HW237716   2.046   2.143  15.724  0.0745 -0.3058 -0.9019
 8694SOL     OW37717   1.752   3.164   8.068  0.1910  0.5316 -0.0313
 8694SOL    HW137718   1.767   3.191   7.977  0.0281  0.4350 -0.0874
 8694SOL    HW237719   1.814   3.091   8.077 -0.6662 -0.1462  0.3738
 8695SOL     OW37720   0.537   1.952   1.438  0.2483  0.0907 -0.1969
 8695SOL    HW137721   0.534   1.935   1.344  0.1021 -0.1242 -0.1517
 8695SOL    HW237722   0.457   1.909   1.468  0.7823 -0.8573 -0.1414
 8696SOL     OW37723   1.456   4.033   8.536 -0.5208  0.1534 -0.3460
 8696SOL    HW137724   1.542   4.058   8.501 -0.4130 -0.7980 -0.7631
 8696SOL    HW237725   1.465   4.061   8.627 -0.4150 -2.3740  0.4143
 8697SOL     OW37726   4.202   4.263  15.505 -0.6969 -0.2136 -0.4079
 8697SOL    HW137727   4.141   4.293  15.437  0.2523 -0.6334 -1.4398
 8697SOL    HW237728   4.259   4.205  15.455 -1.0019 -0.1641 -0.8173
 8698SOL     OW37729   3.008   1.610  13.583 -0.1916  0.1199 -0.7065
 8698SOL    HW137730   2.985   1.552  13.510  1.3689  1.4253 -2.2247
 8698SOL    HW237731   2.928   1.599  13.635  0.4891  0.4852  0.3887
 8699SOL     OW37732   1.738   4.358  10.317 -0.2084 -0.3273 -0.0744
 8699SOL    HW137733   1.786   4.319  10.243  0.1274 -0.5110  0.2388
 8699SOL    HW237734   1.805   4.335  10.382  0.8798  2.5435 -0.1651
 8700SOL     OW37735   2.802   0.237  16.590  0.7325  0.0669  0.1124
 8700SOL    HW137736   2.773   0.311  16.538 -0.1183  0.2766  0.8917
 8700SOL    HW237737   2.885   0.263  16.630  1.5115  2.4288 -3.0642
 8701SOL     OW37738   4.722   1.196   8.543  0.3801  0.2892 -0.0447
 8701SOL    HW137739   0.033   1.240   8.616  1.0534  0.0292 -0.3032
 8701SOL    HW237740   4.632   1.228   8.553 -0.1809 -0.6932 -2.0629
 8702SOL     OW37741   0.876   2.270   1.692  0.1834 -0.0904  0.0201
 8702SOL    HW137742   0.852   2.181   1.668  1.7796 -0.3554 -0.6151
 8702SOL    HW237743   0.795   2.321   1.686  0.5342  0.5179  0.4033
 8703SOL     OW37744   0.144   1.766   5.506 -0.9102 -0.5968  0.3479
 8703SOL    HW137745   0.056   1.737   5.529 -0.9610 -0.7060  0.0176
 8703SOL    HW237746   0.147   1.850   5.552  1.8209 -0.7890  0.4889
 8704SOL     OW37747   2.102   1.441  16.688  0.1068  0.1755 -0.4821
 8704SOL    HW137748   2.043   1.421  16.616 -1.0822  0.8036  0.3065
 8704SOL    HW237749   2.094   1.536  16.700  1.1535 -0.0623  2.1761
 8705SOL     OW37750   1.712   4.474   9.499 -0.3277  0.5999 -0.1098
 8705SOL    HW137751   1.617   4.479   9.487 -0.1775  0.6441 -1.3668
 8705SOL    HW237752   1.733   4.565   9.519 -0.6514  0.7735 -0.5395
 8706SOL     OW37753   2.947   0.963   1.233 -0.1119  0.0403 -0.5084
 8706SOL    HW137754   2.969   1.051   1.202 -3.3970  0.2090 -2.2746
 8706SOL    HW237755   2.924   0.974   1.325 -1.5347 -1.3169 -0.7128
 8707SOL     OW37756   2.465   3.970   6.497 -0.1021 -0.1910 -0.0969
 8707SOL    HW137757   2.373   3.961   6.524 -0.0051  0.7569  0.5304
 8707SOL    HW237758   2.507   3.950   6.581  0.5675  1.3506 -0.0787
 8708SOL     OW37759   0.945   3.973   9.059 -0.7763  0.2560 -0.7303
 8708SOL    HW137760   0.919   4.037   8.993  2.6666  0.4658 -1.8963
 8708SOL    HW237761   0.998   3.915   9.004 -1.3764  0.2965 -1.3515
 8709SOL     OW37762   4.005   0.936   9.670  0.2086 -0.2605 -0.3202
 8709SOL    HW137763   4.088   0.980   9.650 -1.2504  2.3287 -0.7078
 8709SOL    HW237764   3.989   0.946   9.763  0.3247  1.3651 -0.4785
 8710SOL     OW37765   2.719   0.494  16.444  0.2707  0.0298 -0.1006
 8710SOL    HW137766   2.627   0.521  16.437 -0.5579 -2.6905  0.0596
 8710SOL    HW237767   2.759   0.566  16.395  0.8715 -0.2633 -0.0386
 8711SOL     OW37768   1.435   0.374   6.610  0.0215 -0.4843  0.1200
 8711SOL    HW137769   1.475   0.429   6.543 -2.6269  0.1659 -0.9450
 8711SOL    HW237770   1.340   0.379   6.598  0.3793  2.0232 -1.6406
 8712SOL     OW37771   0.773   1.302   9.171 -0.3031 -0.1132 -0.5284
 8712SOL    HW137772   0.857   1.303   9.216 -0.3704  0.0808 -0.4031
 8712SOL    HW237773   0.767   1.212   9.138 -0.8081  0.2010 -1.2891
 8713SOL     OW37774   2.780   1.675   5.675 -0.3291 -0.8390  0.1038
 8713SOL    HW137775   2.860   1.716   5.643 -1.8745  0.2402 -2.3115
 8713SOL    HW237776   2.816   1.627   5.750  1.4685  0.3961  0.0316
 8714SOL     OW37777   1.353   0.708  15.630  0.1105 -0.6054  1.1868
 8714SOL    HW137778   1.321   0.619  15.615 -2.5822  0.3506  1.2309
 8714SOL    HW237779   1.434   0.712  15.579 -1.7311  3.7038 -1.4060
 8715SOL     OW37780   2.435   2.425   5.121 -0.1346 -0.0525  0.0387
 8715SOL    HW137781   2.403   2.505   5.079 -1.3919 -0.6327 -0.1267
 8715SOL    HW237782   2.407   2.367   5.050 -2.8340  0.4525  0.6707
 8716SOL     OW37783   2.812   0.408  16.043 -0.5954  0.2296  0.4465
 8716SOL    HW137784   2.760   0.329  16.060 -0.3953 -0.4960 -2.2433
 8716SOL    HW237785   2.751   0.481  16.034 -0.7871 -0.1524 -1.3300
 8717SOL     OW37786   3.588   3.961  12.008 -0.3679  0.3743 -0.4389
 8717SOL    HW137787   3.584   3.874  12.048  1.6303  1.2624  1.6847
 8717SOL    HW237788   3.677   3.987  12.031 -0.6878 -0.6185  1.9167
 8718SOL     OW37789   4.198   2.540  16.032  0.1241 -0.0703  0.7807
 8718SOL    HW137790   4.182   2.628  15.999  0.2703 -0.8380 -1.3074
 8718SOL    HW237791   4.236   2.560  16.118  0.6708  0.5283  0.3968
 8719SOL     OW37792   1.818   3.300  11.514 -0.2917  0.0103  0.0637
 8719SOL    HW137793   1.814   3.363  11.585  0.3435 -0.7856  0.8038
 8719SOL    HW237794   1.826   3.360  11.440 -0.5671  1.4637  1.2250
 8720SOL     OW37795   4.637   3.033   8.425 -0.3377  0.3979 -0.4092
 8720SOL    HW137796   4.590   2.951   8.409 -1.1284  1.0862 -1.5812
 8720SOL    HW237797   4.574   3.085   8.474 -0.3575  2.1889 -2.3406
 8721SOL     OW37798   0.715   3.754  13.523  0.2246 -0.0535  0.3274
 8721SOL    HW137799   0.771   3.806  13.580  0.1600 -1.3027  1.5523
 8721SOL    HW237800   0.774   3.684  13.496  0.2208 -0.7981  2.2256
 8722SOL     OW37801   1.455   3.017   3.581  0.2721  0.2506  0.2640
 8722SOL    HW137802   1.433   3.066   3.660  0.1927  1.9289 -0.8067
 8722SOL    HW237803   1.431   3.079   3.513 -0.6991  0.5141  0.8504
 8723SOL     OW37804   1.668   3.769  11.995 -0.2106 -0.6039  0.2937
 8723SOL    HW137805   1.628   3.701  12.050  0.3750 -0.8948  0.3634
 8723SOL    HW237806   1.762   3.774  12.014 -0.3054 -0.7295  0.8143
 8724SOL     OW37807   1.941   2.591  11.791  0.7292  0.5658  0.1332
 8724SOL    HW137808   1.931   2.568  11.699  0.9500  1.2777 -0.0654
 8724SOL    HW237809   1.872   2.544  11.838  3.2549  0.4116  3.7714
 8725SOL     OW37810   0.725   3.739   8.732 -0.2148 -0.3262 -0.5945
 8725SOL    HW137811   0.803   3.686   8.713  2.0491  2.5248  0.7694
 8725SOL    HW237812   0.725   3.797   8.656 -0.1098 -1.8328 -1.7657
 8726SOL     OW37813   4.656   1.107  13.915  0.2137  0.1124  0.5093
 8726SOL    HW137814   0.004   1.145  13.948 -0.4113  0.3265  1.7952
 8726SOL    HW237815   4.596   1.108  13.990  0.2153  0.9235  0.5050
 8727SOL     OW37816   0.341   4.034   9.184 -0.7998 -0.1289  0.3643
 8727SOL    HW137817   0.418   4.074   9.225 -1.4254 -0.8818  2.2924
 8727SOL    HW237818   0.385   3.952   9.160 -0.1424 -0.3212  2.1415
 8728SOL     OW37819   2.786   2.586   8.476 -0.3632 -0.0212 -0.4371
 8728SOL    HW137820   2.691   2.597   8.483 -0.4648 -1.2993  0.2294
 8728SOL    HW237821   2.812   2.678   8.477 -1.2042  0.2225 -1.6689
 8729SOL     OW37822   2.932   0.190   5.680 -0.4626 -0.1271  0.4786
 8729SOL    HW137823   2.906   0.274   5.716  2.0682  1.2221 -0.8119
 8729SOL    HW237824   2.954   0.152   5.765  0.9343  1.0677  0.6528
 8730SOL     OW37825   0.929   3.429   5.345  0.1320  0.6008 -0.4592
 8730SOL    HW137826   0.836   3.451   5.349 -0.2125 -0.6718 -1.4978
 8730SOL    HW237827   0.951   3.442   5.253 -0.5361  0.7458 -0.5981
 8731SOL     OW37828   2.888   2.753   5.285 -0.5472  0.4786  0.1522
 8731SOL    HW137829   2.859   2.840   5.311 -0.4965  0.1467  1.3133
 8731SOL    HW237830   2.892   2.758   5.189 -1.4655 -0.6176  0.0575
 8732SOL     OW37831   2.805   1.448  16.834  0.2344  0.0688 -0.3620
 8732SOL    HW137832   2.771   1.486  16.915 -1.3319 -0.0432 -0.9577
 8732SOL    HW237833   2.852   1.369  16.862 -0.1687 -0.5235 -1.3469
 8733SOL     OW37834   4.194   1.159   6.087 -0.6992 -0.3846 -0.0038
 8733SOL    HW137835   4.282   1.183   6.117 -0.8743  0.2224  0.0299
 8733SOL    HW237836   4.189   1.204   6.003 -1.2024  0.8496  0.6875
 8734SOL     OW37837   4.436   4.322  11.382  0.5510 -0.0785  0.2744
 8734SOL    HW137838   4.412   4.347  11.293  1.7206  1.2788  0.3390
 8734SOL    HW237839   4.355   4.275  11.403  0.6148  0.2895  1.3353
 8735SOL     OW37840   3.095   4.112  17.492  0.4383 -0.0398 -0.2187
 8735SOL    HW137841   3.171   4.069  17.450 -1.1339 -0.7206 -2.3765
 8735SOL    HW237842   3.142   4.148  17.567 -0.5428  3.1873 -1.1779
 8736SOL     OW37843   0.296   1.583  14.302 -0.3334 -0.1929 -0.2603
 8736SOL    HW137844   0.333   1.495  14.303  0.4172  0.1294  0.7628
 8736SOL    HW237845   0.280   1.591  14.396 -1.6835  0.8817 -0.5728
 8737SOL     OW37846   4.588   4.023   9.314 -0.4070 -0.0716 -0.2047
 8737SOL    HW137847   4.634   4.008   9.397 -1.5139  0.5289  0.5265
 8737SOL    HW237848   4.616   3.944   9.269 -0.2270  0.1293 -0.4415
 8738SOL     OW37849   0.915   3.871   3.334 -0.8282  0.0105  0.2278
 8738SOL    HW137850   0.890   3.938   3.271  1.4557 -0.7440 -1.4769
 8738SOL    HW237851   0.970   3.814   3.281  0.5658 -0.3106  2.0333
 8739SOL     OW37852   2.420   0.644   2.467 -0.2926 -0.0254 -0.7079
 8739SOL    HW137853   2.416   0.732   2.506 -2.3873 -1.1626  1.6690
 8739SOL    HW237854   2.348   0.651   2.405 -1.9345 -1.1972  1.0569
 8740SOL     OW37855   0.851   3.325   6.549  0.1041 -0.2485  0.1717
 8740SOL    HW137856   0.872   3.232   6.541  0.7071 -0.2999  2.1411
 8740SOL    HW237857   0.930   3.362   6.589  1.6821 -1.4254 -1.8850
 8741SOL     OW37858   0.382   2.579   6.329 -0.4554  0.3034  0.4678
 8741SOL    HW137859   0.288   2.579   6.349 -1.1216  2.0360 -2.6259
 8741SOL    HW237860   0.386   2.516   6.256  1.3582  1.6436 -0.5750
 8742SOL     OW37861   1.362   3.649   2.009  0.2971 -0.0025 -0.1844
 8742SOL    HW137862   1.453   3.660   2.035  0.2693  0.1504 -0.1486
 8742SOL    HW237863   1.325   3.628   2.095 -1.4071  2.6939 -0.2763
 8743SOL     OW37864   2.255   2.915   6.451  0.2809  0.5331  0.0875
 8743SOL    HW137865   2.339   2.901   6.496  0.9324 -1.4105 -1.7263
 8743SOL    HW237866   2.214   2.977   6.511  0.7927  2.0420 -1.1130
 8744SOL     OW37867   0.801   4.137   6.771 -0.1181  0.0625 -0.3594
 8744SOL    HW137868   0.782   4.143   6.864 -0.0263  0.6068 -0.3763
 8744SOL    HW237869   0.767   4.049   6.757  0.1263  0.0383 -0.8183
 8745SOL     OW37870   4.243   1.050   1.247 -0.3534  0.3170  0.3500
 8745SOL    HW137871   4.289   1.099   1.316  2.1097  0.1228 -1.1395
 8745SOL    HW237872   4.275   0.965   1.276 -3.3457 -1.1808 -0.7503
 8746SOL     OW37873   4.001   2.631  14.238  0.0446 -0.2012  0.4357
 8746SOL    HW137874   3.931   2.677  14.286 -0.2955 -1.8993  1.5464
 8746SOL    HW237875   3.979   2.649  14.146 -0.8326 -0.4389  0.5973
 8747SOL     OW37876   3.277   0.412   9.585 -0.2130  0.1175 -0.3466
 8747SOL    HW137877   3.285   0.406   9.680  0.2842 -1.5935 -0.5044
 8747SOL    HW237878   3.348   0.476   9.582  1.6731 -2.0251 -1.6219
 8748SOL     OW37879   2.824   4.510   9.938 -0.6786  0.3005 -0.2430
 8748SOL    HW137880   2.918   4.492   9.933 -1.3536 -3.5603  0.6170
 8748SOL    HW237881   2.806   4.523   9.845  0.0667  0.2453 -0.3966
 8749SOL     OW37882   2.641   4.140   4.177  0.5098 -0.1234  0.0164
 8749SOL    HW137883   2.667   4.070   4.118 -0.8460  0.4090 -1.2178
 8749SOL    HW237884   2.678   4.212   4.126 -1.1475 -0.4609 -1.6585
 8750SOL     OW37885   3.401   3.591   0.006  0.9198  0.1166 -0.3475
 8750SOL    HW137886   3.354   3.673   0.023 -0.4574 -0.9228  0.7755
 8750SOL    HW237887   3.490   3.626   0.015  1.3822 -1.2530  0.4573
 8751SOL     OW37888   3.746   4.034   6.342 -0.3012  0.3808  0.8083
 8751SOL    HW137889   3.836   4.006   6.325 -0.1256 -0.3620  2.9121
 8751SOL    HW237890   3.695   3.965   6.299 -0.4438 -1.1007  3.3720
 8752SOL     OW37891   0.298   4.182   9.901 -0.9261 -0.0926  0.4164
 8752SOL    HW137892   0.290   4.160   9.994 -0.3861 -1.4117  0.1431
 8752SOL    HW237893   0.322   4.096   9.867  3.1730  1.9078 -1.6582
 8753SOL     OW37894   2.296   2.159  11.290  0.0222  0.2361 -0.0781
 8753SOL    HW137895   2.264   2.098  11.357 -1.1612 -0.1647 -0.9975
 8753SOL    HW237896   2.379   2.120  11.265 -0.3048  0.0881 -0.9416
 8754SOL     OW37897   2.084   0.464   7.453  0.2073 -0.5916  0.5054
 8754SOL    HW137898   2.007   0.447   7.399  0.9977  1.7599 -1.3998
 8754SOL    HW237899   2.157   0.468   7.391 -0.8557  0.3005 -0.6815
 8755SOL     OW37900   4.727   1.683   8.206 -0.5070 -1.0427 -0.0853
 8755SOL    HW137901   0.072   1.735   8.220 -0.0467 -1.4368 -1.2581
 8755SOL    HW237902   4.677   1.752   8.163 -2.9214 -1.4238  2.0579
 8756SOL     OW37903   2.561   0.078   3.055 -0.2739 -0.1027  0.0229
 8756SOL    HW137904   2.468   0.065   3.033  0.1946  1.0653 -2.6442
 8756SOL    HW237905   2.573   0.153   2.997  3.7328 -0.1430  0.8690
 8757SOL     OW37906   1.174   0.007  16.158  0.0743  0.8327  0.7821
 8757SOL    HW137907   1.256   4.694  16.171 -0.2807 -0.3180 -1.2109
 8757SOL    HW237908   1.210   0.084  16.114 -1.3879  2.2504  2.0423
 8758SOL     OW37909   1.760   2.141   0.293 -0.1216  0.6823  0.1016
 8758SOL    HW137910   1.747   2.229   0.258 -1.3520  0.3789 -0.2173
 8758SOL    HW237911   1.846   2.125   0.256 -0.3793 -0.7059  0.1196
 8759SOL     OW37912   1.044   1.033   7.937  0.1716 -0.4747 -0.1886
 8759SOL    HW137913   1.010   1.035   8.026  1.7433  2.7299  0.3267
 8759SOL    HW237914   1.119   1.092   7.941 -2.0203  2.3097  0.0889
 8760SOL     OW37915   2.048   4.725   5.168  0.7956  0.1470 -0.8962
 8760SOL    HW137916   2.127   4.689   5.207  0.6729  1.2000  0.3345
 8760SOL    HW237917   2.081   0.080   5.161  1.4931  0.0286  0.7930
 8761SOL     OW37918   4.312   0.712   4.837 -0.3889  0.4299 -0.2380
 8761SOL    HW137919   4.268   0.778   4.783 -1.6610 -0.9347 -0.8716
 8761SOL    HW237920   4.242   0.662   4.881  2.1317 -1.4136  1.6534
 8762SOL     OW37921   2.301   1.127  12.939 -0.6359 -0.4479 -0.2384
 8762SOL    HW137922   2.343   1.041  12.949  1.4292  0.6166  0.1371
 8762SOL    HW237923   2.368   1.178  12.983  0.0131 -0.4395 -1.2239
 8763SOL     OW37924   3.347   2.962   0.441 -0.0638 -0.2087  0.2109
 8763SOL    HW137925   3.336   3.027   0.372 -1.6015  1.0700  1.6573
 8763SOL    HW237926   3.287   2.992   0.510  0.0097  0.8432 -0.1846
 8764SOL     OW37927   3.886   2.102   6.616  0.0496 -0.2573 -0.1350
 8764SOL    HW137928   3.835   2.113   6.696 -1.3391 -1.9961 -0.7774
 8764SOL    HW237929   3.886   2.192   6.584 -1.0968 -0.0371  0.4887
 8765SOL     OW37930   1.469   4.279   3.710  0.3462 -0.4772  0.2293
 8765SOL    HW137931   1.484   4.202   3.655 -0.8015  0.9034 -2.0352
 8765SOL    HW237932   1.460   4.346   3.642 -2.1545 -1.6978 -0.6799
 8766SOL     OW37933   2.419   4.002   9.652  0.3586 -0.1133 -0.2480
 8766SOL    HW137934   2.347   4.060   9.675 -0.0355 -0.8692  0.4238
 8766SOL    HW237935   2.479   4.060   9.604 -0.1010  1.0065  0.5283
 8767SOL     OW37936   1.544   0.047  15.951 -0.4637 -0.6705 -0.1505
 8767SOL    HW137937   1.456   0.078  15.928 -0.5468 -0.1426  0.8918
 8767SOL    HW237938   1.599   0.125  15.942  1.1812 -1.8497 -0.3202
 8768SOL     OW37939   3.815   1.798  17.712 -0.1547  0.0288  0.3275
 8768SOL    HW137940   3.721   1.816  17.703 -0.3301  0.0901  2.2467
 8768SOL    HW237941   3.852   1.885  17.696  0.2427 -0.5511 -1.8938
 8769SOL     OW37942   2.563   0.326  15.391 -0.1515 -0.2451  0.0624
 8769SOL    HW137943   2.541   0.316  15.299  0.0830  0.2129 -0.0392
 8769SOL    HW237944   2.636   0.387  15.389  0.7298 -1.2396  1.6726
 8770SOL     OW37945   1.365   1.445   5.701 -0.2979 -0.0945 -0.0053
 8770SOL    HW137946   1.293   1.500   5.669  0.6637  0.3795 -1.3690
 8770SOL    HW237947   1.417   1.431   5.622 -2.2814  1.9124 -1.7075
 8771SOL     OW37948   1.004   2.199   2.946 -0.2519  0.1634 -0.5054
 8771SOL    HW137949   1.063   2.133   2.910 -0.3735  0.2578 -0.8714
 8771SOL    HW237950   1.052   2.209   3.028  0.1026 -2.1444 -0.4409
 8772SOL     OW37951   3.121   2.147   9.107  0.7367 -0.3416 -0.1945
 8772SOL    HW137952   3.034   2.187   9.111 -0.0038 -1.9203 -0.2135
 8772SOL    HW237953   3.130   2.097   9.188 -0.7215 -2.2847 -1.2284
 8773SOL     OW37954   1.504   0.258   2.248  0.5806 -0.0948 -0.1328
 8773SOL    HW137955   1.539   0.211   2.173 -0.7557  0.6346 -1.2340
 8773SOL    HW237956   1.550   0.222   2.323  0.9735 -1.4186 -1.0143
 8774SOL     OW37957   0.503   3.502   8.065  0.5047  0.4750  0.4674
 8774SOL    HW137958   0.556   3.429   8.096 -1.4756 -1.5188 -0.8313
 8774SOL    HW237959   0.561   3.577   8.078  1.2371  0.3587 -2.0574
 8775SOL     OW37960   3.085   1.529   8.564 -0.0664 -0.0590 -0.8087
 8775SOL    HW137961   3.179   1.514   8.554  0.1627  2.0412 -1.8145
 8775SOL    HW237962   3.045   1.462   8.508  1.0382 -1.8657  0.5334
 8776SOL     OW37963   1.382   3.122  13.365 -0.0512 -0.2085  0.2565
 8776SOL    HW137964   1.348   3.190  13.422  0.9714  0.1196  0.4784
 8776SOL    HW237965   1.476   3.125  13.384 -0.1143 -0.9314  0.6887
 8777SOL     OW37966   4.495   2.161  16.257  0.2405 -0.3263  0.5048
 8777SOL    HW137967   4.495   2.243  16.305  2.4492  0.6858 -1.2380
 8777SOL    HW237968   4.512   2.099  16.328  2.4406  0.5204  0.6955
 8778SOL     OW37969   2.358   3.304   5.667  0.4584  0.5387  0.0111
 8778SOL    HW137970   2.423   3.308   5.736  0.2734  0.7713  0.1720
 8778SOL    HW237971   2.348   3.396   5.642  0.9412  0.2640 -1.1980
 8779SOL     OW37972   3.200   4.458   6.121 -0.9079 -0.5203  0.3463
 8779SOL    HW137973   3.232   4.548   6.117  0.5730 -1.0642 -0.0349
 8779SOL    HW237974   3.197   4.448   6.216  0.3561  0.1966  0.4684
 8780SOL     OW37975   4.308   1.985   5.064 -0.4771  0.0195  0.1915
 8780SOL    HW137976   4.359   2.048   5.114 -1.2529 -0.9029  2.1455
 8780SOL    HW237977   4.221   2.014   5.093 -0.9749  0.9440 -2.2568
 8781SOL     OW37978   1.127   3.729   7.995  0.0375  0.2483  0.0623
 8781SOL    HW137979   1.178   3.785   7.937 -0.5775  1.6267  0.8558
 8781SOL    HW237980   1.096   3.663   7.933 -0.1677  1.2063 -0.8606
 8782SOL     OW37981   2.420   0.510   2.178 -0.3589  0.0174  0.3238
 8782SOL    HW137982   2.385   0.529   2.091  0.7598 -0.7059 -0.2799
 8782SOL    HW237983   2.354   0.561   2.226 -1.4917  1.0932 -2.3403
 8783SOL     OW37984   0.882   2.771   0.080  0.1846  0.0237  0.4321
 8783SOL    HW137985   0.914   2.683   0.099 -0.7787 -0.5420 -0.5708
 8783SOL    HW237986   0.909   2.820   0.158  0.8050 -0.7365  0.7042
 8784SOL     OW37987   4.694   1.224   8.973 -0.0003 -0.0251  0.5882
 8784SOL    HW137988   4.619   1.164   8.961 -0.2625  0.3271  0.4653
 8784SOL    HW237989   4.665   1.271   9.051  0.5728 -0.3928  1.0193
 8785SOL     OW37990   1.750   0.005  16.229 -0.2711  0.5019 -0.2588
 8785SOL    HW137991   1.762   0.086  16.179  2.3498  0.4662  0.3063
 8785SOL    HW237992   1.747   4.674  16.159 -1.7570 -1.0418  1.2521
 8786SOL     OW37993   4.176   2.719   2.848 -0.2831  0.0659  0.0483
 8786SOL    HW137994   4.165   2.809   2.876 -0.1936 -0.2363  1.0334
 8786SOL    HW237995   4.261   2.724   2.803  0.2803 -0.2741  1.0752
 8787SOL     OW37996   0.930   3.731   2.237 -0.4812  0.0328  0.2879
 8787SOL    HW137997   0.900   3.741   2.147 -2.1650 -2.7909  0.5185
 8787SOL    HW237998   1.016   3.693   2.220 -0.9180 -0.1011 -1.6171
 8788SOL     OW37999   4.365   2.422   7.558  0.6526 -0.3455  0.2331
 8788SOL    HW138000   4.305   2.375   7.500 -0.0224 -0.4926  1.0568
 8788SOL    HW238001   4.433   2.432   7.491  0.1232  1.6621 -0.0083
 8789SOL     OW38002   1.645   2.651   4.419 -0.4053 -0.2421  0.4086
 8789SOL    HW138003   1.577   2.586   4.437 -0.4577  0.1591  1.6042
 8789SOL    HW238004   1.721   2.598   4.392  0.1315  1.4169 -1.3293
 8790SOL     OW38005   4.209   3.288  16.704  0.1540 -0.8680  0.2992
 8790SOL    HW138006   4.185   3.377  16.677  0.2123 -1.1036 -0.5183
 8790SOL    HW238007   4.213   3.243  16.620 -0.4147  0.9409 -0.6829
 8791SOL     OW38008   1.801   0.338  15.258  0.0245  0.0816  0.8907
 8791SOL    HW138009   1.792   0.385  15.341  2.4836 -0.2618  1.3544
 8791SOL    HW238010   1.895   0.322  15.253 -0.0952 -0.6402  0.9672
 8792SOL     OW38011   2.702   3.387   4.289  0.3413  0.0659 -0.3914
 8792SOL    HW138012   2.682   3.481   4.298  0.0752  0.1611 -1.9137
 8792SOL    HW238013   2.797   3.390   4.294  0.2502 -0.1812  1.2173
 8793SOL     OW38014   2.524   1.142   4.486  0.2166  0.8200  0.4371
 8793SOL    HW138015   2.440   1.131   4.441 -0.2909 -0.9396  1.8227
 8793SOL    HW238016   2.493   1.167   4.573  0.4397 -0.2496  0.8170
 8794SOL     OW38017   4.300   4.609   2.183  0.5754  0.1793 -0.2024
 8794SOL    HW138018   4.206   4.593   2.192  0.3285  0.0372 -2.8278
 8794SOL    HW238019   4.315   4.539   2.120  3.0261  0.1418  0.4320
 8795SOL     OW38020   2.571   2.846  15.989  0.1133 -0.6125  0.4697
 8795SOL    HW138021   2.556   2.924  15.936 -0.5964 -0.5453  0.7790
 8795SOL    HW238022   2.630   2.881  16.056  1.8967  0.3773 -1.6274
 8796SOL     OW38023   2.414   3.240   4.477  0.1739  0.6908 -0.5266
 8796SOL    HW138024   2.396   3.329   4.448  1.5425  1.1267 -0.0785
 8796SOL    HW238025   2.331   3.206   4.445 -0.1952  1.6255 -0.5564
 8797SOL     OW38026   3.626   4.288  12.035 -0.2209  0.2374 -0.6093
 8797SOL    HW138027   3.646   4.195  12.021 -0.0442 -0.1622  2.2046
 8797SOL    HW238028   3.633   4.296  12.131  0.4013  1.2341 -0.7387
 8798SOL     OW38029   1.550   3.362   8.334 -0.2395  0.2212  0.6645
 8798SOL    HW138030   1.526   3.426   8.400 -0.8963  2.4097 -1.7294
 8798SOL    HW238031   1.478   3.300   8.324 -0.1745 -0.0354  1.7827
 8799SOL     OW38032   2.972   3.453   5.186 -0.1533 -0.2793 -0.4950
 8799SOL    HW138033   3.055   3.420   5.152  1.2297  0.4615  2.2174
 8799SOL    HW238034   2.993   3.538   5.224  1.5647 -0.3608 -1.2631
 8800SOL     OW38035   4.253   1.726  15.408 -0.3457 -0.0530  0.5748
 8800SOL    HW138036   4.326   1.684  15.363  0.2255  0.1100  1.3425
 8800SOL    HW238037   4.247   1.800  15.348  3.4314 -0.5430 -0.4524
 8801SOL     OW38038   1.844   2.529  16.352  0.1209 -0.1041 -0.1196
 8801SOL    HW138039   1.895   2.510  16.273  2.0675 -0.1783  1.1633
 8801SOL    HW238040   1.848   2.443  16.395  1.7552 -1.3467 -2.7754
 8802SOL     OW38041   1.573   3.103  15.211 -0.1261 -0.1994  0.5150
 8802SOL    HW138042   1.628   3.155  15.152 -1.5234 -0.6404 -1.2136
 8802SOL    HW238043   1.510   3.171  15.237 -1.0808  0.0122 -2.3177
 8803SOL     OW38044   2.314   4.565   9.292 -1.0232  0.1537  0.2241
 8803SOL    HW138045   2.364   4.498   9.337 -1.4040 -0.6635 -0.5633
 8803SOL    HW238046   2.329   4.640   9.349 -2.4457  0.6696 -0.0718
 8804SOL     OW38047   3.123   0.999   6.690  0.5799  0.1331  0.4291
 8804SOL    HW138048   3.101   1.011   6.782  3.3718 -0.0115  1.1099
 8804SOL    HW238049   3.122   0.903   6.689 -1.1290  0.1424  1.3835
 8805SOL     OW38050   3.088   0.810   4.216 -0.1234  0.1826 -0.3493
 8805SOL    HW138051   3.120   0.848   4.297 -0.4200  0.3681 -0.3165
 8805SOL    HW238052   2.995   0.786   4.220 -0.4028  1.1896 -0.6036
 8806SOL     OW38053   0.264   3.538   7.612  0.5867 -0.1977 -0.2836
 8806SOL    HW138054   0.201   3.502   7.549 -0.1251 -0.2835  0.4846
 8806SOL    HW238055   0.349   3.526   7.570  1.0142 -0.4550  0.6552
 8807SOL     OW38056   3.522   0.279  12.837  0.8251  0.6386 -0.0947
 8807SOL    HW138057   3.574   0.205  12.806  1.5130  0.4302  1.5441
 8807SOL    HW238058   3.451   0.236  12.885  0.0568  0.8010 -1.0838
 8808SOL     OW38059   1.571   1.269  13.395  0.0084  0.3542  0.2001
 8808SOL    HW138060   1.578   1.356  13.433 -0.3258 -0.0297  1.1493
 8808SOL    HW238061   1.615   1.219  13.465 -0.9586 -0.8284 -0.0449
 8809SOL     OW38062   4.441   2.883   8.988 -0.0603  0.6152 -0.2620
 8809SOL    HW138063   4.479   2.861   8.903 -0.7379 -1.4033 -0.0582
 8809SOL    HW238064   4.512   2.929   9.033  0.1570  0.5883 -0.5815
 8810SOL     OW38065   2.224   3.785   4.990  0.1629  0.5628  0.5470
 8810SOL    HW138066   2.316   3.809   4.987  0.3700 -0.2558  0.6332
 8810SOL    HW238067   2.225   3.737   5.072  3.3486  0.3047  0.3223
 8811SOL     OW38068   2.335   3.159  12.705 -0.6379  0.1412  0.1408
 8811SOL    HW138069   2.371   3.247  12.716 -0.4000  0.2424 -1.4257
 8811SOL    HW238070   2.319   3.144  12.612  0.8241 -1.5240  0.1538
 8812SOL     OW38071   1.445   2.774   8.931 -0.2624  0.4131  0.1705
 8812SOL    HW138072   1.354   2.778   8.961  0.3556 -1.2623  2.2915
 8812SOL    HW238073   1.444   2.711   8.859 -0.5286  0.2609  0.3074
 8813SOL     OW38074   2.121   2.721   2.040 -0.4911 -0.1203 -0.1269
 8813SOL    HW138075   2.132   2.642   1.987  2.7040  0.4824 -0.3699
 8813SOL    HW238076   2.161   2.788   1.985 -2.2473 -0.0705 -1.3506
 8814SOL     OW38077   0.686   2.495   2.243  0.7032  0.3360  0.2405
 8814SOL    HW138078   0.716   2.421   2.191 -1.0311 -0.9732  1.1069
 8814SOL    HW238079   0.659   2.440   2.316 -1.8457  1.4875  0.1841
 8815SOL     OW38080   1.506   3.643  13.001  0.0050  0.1932  0.2025
 8815SOL    HW138081   1.484   3.732  13.028 -1.8644  0.0988 -1.0582
 8815SOL    HW238082   1.445   3.619  12.932  2.0877 -1.1567 -1.1544
 8816SOL     OW38083   2.320   0.265  10.033  0.1249  0.3893  0.8701
 8816SOL    HW138084   2.244   0.208  10.047  1.3862 -1.7509 -1.0495
 8816SOL    HW238085   2.279   0.351  10.026 -0.0868  0.4297  2.5586
 8817SOL     OW38086   3.636   1.519   2.466  0.0894  0.5843 -0.1751
 8817SOL    HW138087   3.554   1.556   2.434 -1.4177 -0.9281  1.9369
 8817SOL    HW238088   3.650   1.465   2.388 -0.5693 -0.5593  0.4918
 8818SOL     OW38089   0.497   2.086   1.841 -0.2879  0.7581  0.1493
 8818SOL    HW138090   0.591   2.078   1.858 -0.3847  0.1066  0.3644
 8818SOL    HW238091   0.474   2.003   1.800  0.1773  0.6341  0.1455
 8819SOL     OW38092   2.544   4.687   5.764  0.9989 -0.6696  0.3663
 8819SOL    HW138093   2.561   0.043   5.736  2.2515 -0.1667  2.7141
 8819SOL    HW238094   2.495   4.705   5.844  1.1443 -0.0269  0.3147
 8820SOL     OW38095   1.707   0.640   2.770 -0.3770 -0.2560  0.6995
 8820SOL    HW138096   1.700   0.549   2.742 -0.7538  0.1864 -0.6324
 8820SOL    HW238097   1.639   0.677   2.714  0.8870  1.2265  0.1268
 8821SOL     OW38098   2.607   0.905  16.064  0.1379 -0.1755 -0.1648
 8821SOL    HW138099   2.527   0.895  16.011  0.5041 -0.1901 -0.7144
 8821SOL    HW238100   2.617   1.000  16.054 -3.7073  0.0306 -2.2494
 8822SOL     OW38101   0.235   2.442  12.683  0.5842  0.3092  0.0816
 8822SOL    HW138102   0.315   2.402  12.717  0.1591  0.2459  1.0001
 8822SOL    HW238103   0.248   2.422  12.590  0.7023 -0.4005  0.2512
 8823SOL     OW38104   0.668   1.414   4.251 -0.0357 -0.2614 -0.0783
 8823SOL    HW138105   0.599   1.479   4.268  1.5642  1.1525  1.0481
 8823SOL    HW238106   0.716   1.435   4.331  0.6776  1.7522 -1.0456
 8824SOL     OW38107   0.933   2.597   4.159  0.4912 -0.3002  0.4141
 8824SOL    HW138108   0.994   2.527   4.133 -0.9561  0.0252 -3.8522
 8824SOL    HW238109   0.980   2.619   4.240  2.3410 -0.0698 -0.7281
 8825SOL     OW38110   1.702   3.958  15.759 -0.1766  0.8853 -0.4605
 8825SOL    HW138111   1.781   3.967  15.812  0.7712 -1.8832 -1.3900
 8825SOL    HW238112   1.725   4.026  15.695  1.4216  0.0018 -0.8165
 8826SOL     OW38113   1.602   0.126   6.787 -0.3399  0.5788 -0.2207
 8826SOL    HW138114   1.688   0.089   6.807 -0.7023  0.2469  0.7606
 8826SOL    HW238115   1.549   0.075   6.849  0.0021  0.5477  0.0468
 8827SOL     OW38116   1.238   1.643  16.601  0.3391 -0.3027  0.1291
 8827SOL    HW138117   1.178   1.571  16.624 -1.3691  0.0924 -3.1382
 8827SOL    HW238118   1.322   1.621  16.642  0.7930  1.3917  0.0947
 8828SOL     OW38119   0.402   0.897   4.796  0.0502 -0.1418 -0.1165
 8828SOL    HW138120   0.326   0.883   4.853 -1.2517  0.2856 -1.7467
 8828SOL    HW238121   0.405   0.993   4.795  1.6340 -0.2072 -0.7258
 8829SOL     OW38122   2.273   3.818   3.759 -0.3536  0.1747 -0.4565
 8829SOL    HW138123   2.352   3.873   3.765 -0.7628  0.7500 -0.3780
 8829SOL    HW238124   2.301   3.758   3.690  3.3763 -0.0072  1.1779
 8830SOL     OW38125   1.151   0.169   8.573  0.4882  0.1539 -0.0865
 8830SOL    HW138126   1.241   0.141   8.557  0.3168 -0.9501  0.9158
 8830SOL    HW238127   1.165   0.227   8.648 -2.4997 -0.4196  0.9246
 8831SOL     OW38128   1.773   0.333   8.528 -0.1113 -0.3755 -0.5866
 8831SOL    HW138129   1.796   0.422   8.503  1.4006 -1.0742 -1.7658
 8831SOL    HW238130   1.688   0.352   8.566  0.9233 -0.1215  1.6199
 8832SOL     OW38131   1.844   2.972   6.367 -0.4730  0.2764  0.1773
 8832SOL    HW138132   1.909   2.902   6.356 -0.3550  0.2037  1.3062
 8832SOL    HW238133   1.898   3.050   6.372  0.1554 -0.2301  1.4066
 8833SOL     OW38134   3.312   2.685   3.786 -0.6331  0.0137 -0.2028
 8833SOL    HW138135   3.363   2.733   3.851 -1.6395  0.8971 -0.0739
 8833SOL    HW238136   3.337   2.722   3.702 -4.1331 -1.9018 -2.0817
 8834SOL     OW38137   0.354   4.211  13.949 -0.1781  0.1241  0.7142
 8834SOL    HW138138   0.355   4.261  13.867  0.0427 -1.4945 -0.2728
 8834SOL    HW238139   0.319   4.130  13.911  0.8118 -0.6494  1.4421
 8835SOL     OW38140   2.945   1.690   0.002 -0.0578  0.2311  0.5432
 8835SOL    HW138141   2.981   1.771  17.701 -2.4834  1.4571  0.8804
 8835SOL    HW238142   2.854   1.708  17.716  0.0684  0.3068  0.0764
 8836SOL     OW38143   2.413   4.585   6.628  0.3566  0.0032 -0.4385
 8836SOL    HW138144   2.376   4.501   6.601 -1.7265  0.5173  0.8845
 8836SOL    HW238145   2.481   4.548   6.685 -0.7398 -2.0607 -0.4607
 8837SOL     OW38146   3.927   0.495   4.215 -0.6726 -0.2679  0.1120
 8837SOL    HW138147   3.998   0.515   4.154 -0.5220  0.9298  0.6858
 8837SOL    HW238148   3.889   0.582   4.227 -0.1141  0.0457 -0.3776
 8838SOL     OW38149   0.163   0.852   3.839 -0.2406 -0.4223 -1.0116
 8838SOL    HW138150   0.187   0.844   3.747 -0.2001  1.0976 -1.1430
 8838SOL    HW238151   0.245   0.860   3.888 -1.2576 -1.2324  0.8611
 8839SOL     OW38152   2.138   0.904  13.221  0.4687  0.0194  0.1123
 8839SOL    HW138153   2.144   0.948  13.136 -1.7994  0.4369  0.1695
 8839SOL    HW238154   2.055   0.939  13.253  1.1000  1.2039  0.4799
 8840SOL     OW38155   0.232   1.107   5.359  0.3587 -0.4210  0.6488
 8840SOL    HW138156   0.252   1.201   5.364  1.3973 -0.5351 -1.1779
 8840SOL    HW238157   0.206   1.089   5.449  1.4713  1.5428  1.3585
 8841SOL     OW38158   1.984   1.360  10.287  0.5987  0.4233 -0.1529
 8841SOL    HW138159   1.930   1.439  10.284 -0.4228 -0.3088 -1.1726
 8841SOL    HW238160   1.944   1.291  10.234  0.7268 -0.2479  0.6265
 8842SOL     OW38161   4.488   3.754   5.047  0.2627 -0.0311  0.2310
 8842SOL    HW138162   4.508   3.745   4.954 -1.7503 -0.1198 -0.1854
 8842SOL    HW238163   4.484   3.662   5.072 -0.3650 -0.8997 -3.1159
 8843SOL     OW38164   1.643   3.946   5.530 -0.1407  0.2376 -0.0705
 8843SOL    HW138165   1.726   3.944   5.577 -0.9686  0.2300  1.3844
 8843SOL    HW238166   1.667   3.951   5.438  1.2173  0.0940  0.2763
 8844SOL     OW38167   2.774   0.769   7.245 -0.2442  0.0992  0.3271
 8844SOL    HW138168   2.697   0.794   7.194  0.1127 -0.7312 -0.6096
 8844SOL    HW238169   2.833   0.790   7.173 -0.6507 -2.2468 -0.6903
 8845SOL     OW38170   2.439   2.480   3.146  0.0781 -0.0206 -0.2489
 8845SOL    HW138171   2.419   2.574   3.153  0.4462  0.0951 -0.7235
 8845SOL    HW238172   2.448   2.468   3.052 -0.7163  1.2972 -0.5018
 8846SOL     OW38173   4.486   4.351   9.452  0.0097  0.1471 -0.1818
 8846SOL    HW138174   4.429   4.427   9.461 -0.0460  0.0071  0.6305
 8846SOL    HW238175   4.424   4.293   9.408 -0.7728  0.1766  0.8783
 8847SOL     OW38176   0.376   0.329   9.504 -0.2147 -0.0270  0.5039
 8847SOL    HW138177   0.357   0.236   9.514 -1.9857  0.2474 -0.1731
 8847SOL    HW238178   0.440   0.333   9.433  0.1496 -1.2503  0.7649
 8848SOL     OW38179   4.446   1.231   7.646 -0.2641 -0.4727  0.1703
 8848SOL    HW138180   4.441   1.325   7.625 -0.0455  0.2825  3.5891
 8848SOL    HW238181   4.387   1.200   7.577  1.0171  0.1700 -1.2322
 8849SOL     OW38182   0.998   3.690   9.958  0.3555 -0.0573  0.4486
 8849SOL    HW138183   0.934   3.635   9.914  1.4014 -1.8403  1.1197
 8849SOL    HW238184   1.078   3.675   9.908 -0.5477 -1.1608 -0.6715
 8850SOL     OW38185   0.152   1.298   7.633 -0.0182 -0.0936 -0.7959
 8850SOL    HW138186   0.239   1.257   7.632  0.8609  1.8048 -1.7550
 8850SOL    HW238187   0.168   1.350   7.555  0.4973  1.0660  0.0795
 8851SOL     OW38188   0.775   2.091   3.393 -0.2773 -0.0259  0.3614
 8851SOL    HW138189   0.844   2.156   3.377 -0.2941  0.0642  0.6433
 8851SOL    HW238190   0.710   2.100   3.323  0.0432 -1.4558 -0.1154
 8852SOL     OW38191   4.706   4.227   6.437  0.2736  0.4608 -0.5467
 8852SOL    HW138192   4.659   4.198   6.515  0.5690  0.8682 -0.2211
 8852SOL    HW238193   0.030   4.286   6.485 -0.7650 -0.0652  1.3589
 8853SOL     OW38194   1.718   2.739   6.528 -0.1950 -0.8078 -0.3332
 8853SOL    HW138195   1.803   2.762   6.491  0.3472 -0.3950  1.1951
 8853SOL    HW238196   1.726   2.787   6.610  2.5673  0.9022 -1.5917
 8854SOL     OW38197   1.108   0.836  17.192 -0.5902 -0.1981  0.3441
 8854SOL    HW138198   1.014   0.820  17.184 -0.8574  2.4152 -1.7689
 8854SOL    HW238199   1.116   0.927  17.164  2.0264 -0.6430 -0.4126
 8855SOL     OW38200   2.903   3.059   3.589  0.4660  0.1877 -0.0856
 8855SOL    HW138201   2.887   3.138   3.640  0.4160  1.0142 -1.3814
 8855SOL    HW238202   2.949   3.003   3.652  0.2397  0.8474  0.6651
 8856SOL     OW38203   1.021   2.688  14.578 -0.9993  0.0227  0.3561
 8856SOL    HW138204   1.115   2.673  14.565 -1.4843 -1.2865 -1.6732
 8856SOL    HW238205   1.026   2.779  14.608  0.3319  0.5152 -1.3775
 8857SOL     OW38206   4.653   2.082   4.196  0.1633 -0.2801 -0.5188
 8857SOL    HW138207   4.648   1.992   4.163  1.4230 -0.6666  0.3357
 8857SOL    HW238208   4.690   2.063   4.283 -2.8249  0.2529  0.8592
 8858SOL     OW38209   1.964   0.178   0.974 -0.0827 -0.1372 -0.5976
 8858SOL    HW138210   1.949   0.086   0.998  1.4999 -0.0097  0.9348
 8858SOL    HW238211   2.041   0.197   1.028 -0.3950  0.2932 -0.3022
 8859SOL     OW38212   1.532   0.744   2.582 -0.3460 -0.0968  0.0830
 8859SOL    HW138213   1.443   0.721   2.554  0.3592 -1.5932 -0.8987
 8859SOL    HW238214   1.514   0.836   2.602  0.0334  0.0970 -0.4574
 8860SOL     OW38215   3.070   3.029   9.798  0.1748  0.6443 -0.4127
 8860SOL    HW138216   3.037   2.944   9.829 -0.7228  0.7458 -1.1026
 8860SOL    HW238217   3.149   3.031   9.852  0.9754  0.0659 -1.5892
 8861SOL     OW38218   3.389   4.261   6.542  0.1587  0.0044  0.4487
 8861SOL    HW138219   3.440   4.337   6.515 -0.9336  0.1233 -1.2950
 8861SOL    HW238220   3.400   4.201   6.468 -2.8388  0.1326 -0.1162
 8862SOL     OW38221   3.290   3.107   9.094 -0.3072 -0.7452 -0.2643
 8862SOL    HW138222   3.364   3.047   9.087 -0.1953 -0.7045  0.5832
 8862SOL    HW238223   3.233   3.064   9.158  3.2759 -0.9643  2.7282
 8863SOL     OW38224   4.550   3.296   6.556  0.1962  0.0440  0.5275
 8863SOL    HW138225   4.561   3.386   6.587 -0.7137 -0.1367  1.3520
 8863SOL    HW238226   4.482   3.249   6.604 -2.0966 -0.0940 -2.8133
 8864SOL     OW38227   0.395   2.783   3.106  0.0597  0.2901  0.0612
 8864SOL    HW138228   0.349   2.743   3.180 -1.8462  2.2031 -0.0917
 8864SOL    HW238229   0.324   2.835   3.068  1.0593  1.7345  0.1659
 8865SOL     OW38230   3.685   2.826  14.901  0.3841  0.0339  0.4361
 8865SOL    HW138231   3.724   2.806  14.986  1.1092  0.3695  0.1772
 8865SOL    HW238232   3.610   2.766  14.896  1.0151 -0.4652 -2.9538
 8866SOL     OW38233   4.666   3.575   6.253  0.6703 -0.6211 -0.1543
 8866SOL    HW138234   0.005   3.566   6.192  0.3789  0.7232 -0.7045
 8866SOL    HW238235   4.660   3.482   6.273  0.1502 -0.7113 -0.7372
 8867SOL     OW38236   0.700   1.876   7.328  0.5852  0.0747 -0.1613
 8867SOL    HW138237   0.644   1.806   7.362 -2.4241  2.2419 -0.6963
 8867SOL    HW238238   0.712   1.849   7.237 -1.8239  0.2018 -0.5084
 8868SOL     OW38239   0.574   0.222   5.902 -0.0008 -0.0505  0.2814
 8868SOL    HW138240   0.627   0.162   5.850  0.9554  1.5986 -0.6467
 8868SOL    HW238241   0.584   0.183   5.988  0.3301 -0.2773  0.1368
 8869SOL     OW38242   2.028   0.927   5.046 -0.2271 -0.1203 -0.9394
 8869SOL    HW138243   2.062   0.838   5.056 -0.9515 -0.2814  0.1218
 8869SOL    HW238244   1.972   0.940   5.123  0.1276 -0.0124 -0.7032
 8870SOL     OW38245   1.252   4.150   5.634  0.1036  1.1193 -0.2306
 8870SOL    HW138246   1.181   4.170   5.573 -0.5105 -0.6746 -0.1181
 8870SOL    HW238247   1.221   4.208   5.703 -2.7636 -0.9435  0.2472
 8871SOL     OW38248   3.595   3.273   4.455  0.0624  0.2790  0.0803
 8871SOL    HW138249   3.500   3.280   4.455  0.0305 -0.1250  0.2941
 8871SOL    HW238250   3.617   3.248   4.545  0.0506  0.7788  0.2204
 8872SOL     OW38251   4.660   4.097   5.035 -0.0260 -0.3222 -0.0552
 8872SOL    HW138252   4.693   4.043   4.964 -1.3368 -0.9444 -0.1871
 8872SOL    HW238253   4.726   4.165   5.049 -0.7933  0.5767 -0.8227
 8873SOL     OW38254   2.458   1.647  13.052 -0.2496 -0.2630  0.2347
 8873SOL    HW138255   2.479   1.620  12.963 -0.3397 -1.3341  0.5413
 8873SOL    HW238256   2.532   1.605  13.096 -0.7178 -0.8147  0.4974
 8874SOL     OW38257   1.254   3.141  16.913  0.2105  0.6231  0.0124
 8874SOL    HW138258   1.176   3.136  16.858 -0.6336 -2.1636  1.4755
 8874SOL    HW238259   1.286   3.053  16.897  1.1702  0.6078  2.1008
 8875SOL     OW38260   1.068   0.268   6.714  0.1659  0.2583  0.4783
 8875SOL    HW138261   1.039   0.186   6.675 -0.1487  0.6366 -0.0786
 8875SOL    HW238262   1.112   0.304   6.637 -1.5195  1.6469  0.1477
 8876SOL     OW38263   4.236   2.651  16.334 -0.8283 -0.1337  0.2491
 8876SOL    HW138264   4.221   2.566  16.375 -0.1415  1.4163  3.7884
 8876SOL    HW238265   4.305   2.692  16.387 -0.5585 -1.4879  0.9460
 8877SOL     OW38266   4.573   3.186   7.866 -0.0363  0.3076 -0.3922
 8877SOL    HW138267   4.543   3.129   7.795  0.2217 -2.5157  1.7832
 8877SOL    HW238268   4.628   3.124   7.914 -0.9543 -0.6907 -0.6352
 8878SOL     OW38269   1.020   2.969  14.745 -0.1870 -0.0853 -0.3742
 8878SOL    HW138270   0.961   3.037  14.779  0.9903 -0.5640  2.6826
 8878SOL    HW238271   1.031   3.006  14.658 -2.6199  1.6615  0.0657
 8879SOL     OW38272   2.816   3.679   2.976 -0.2716 -0.2201  0.2302
 8879SOL    HW138273   2.741   3.653   3.029  0.8938 -0.2905  1.8395
 8879SOL    HW238274   2.779   3.664   2.889 -0.5491  0.0793  0.2972
 8880SOL     OW38275   0.741   4.458   6.572 -0.5035 -0.4141 -0.2818
 8880SOL    HW138276   0.732   4.520   6.499 -1.0128  0.6965  0.7236
 8880SOL    HW238277   0.744   4.518   6.647  1.0029 -1.5941  0.5972
 8881SOL     OW38278   3.978   1.357   2.476 -0.4297 -0.3956 -0.0722
 8881SOL    HW138279   4.014   1.361   2.565  0.8042 -0.6271 -0.5682
 8881SOL    HW238280   4.052   1.396   2.429 -1.6834  0.6433 -1.1821
 8882SOL     OW38281   3.340   2.033   0.259  0.2839  0.6613  0.3227
 8882SOL    HW138282   3.328   2.121   0.294  0.7892 -0.0752  2.3681
 8882SOL    HW238283   3.420   2.052   0.210  0.0945  2.9169  0.8837
 8883SOL     OW38284   1.258   2.090   3.391 -0.4199 -0.1137  0.3828
 8883SOL    HW138285   1.181   2.040   3.417  0.0678 -0.7783  0.5356
 8883SOL    HW238286   1.320   2.050   3.451  0.0655  1.0397  0.6576
 8884SOL     OW38287   3.506   0.330   7.928 -0.6906 -0.3043  0.3830
 8884SOL    HW138288   3.523   0.246   7.971  0.0792 -0.1675  0.3479
 8884SOL    HW238289   3.413   0.337   7.947 -0.2954  0.2756  2.0734
 8885SOL     OW38290   1.038   2.637  11.878 -0.3188 -0.0706 -0.0120
 8885SOL    HW138291   0.977   2.663  11.947  0.8857  3.0954 -0.1460
 8885SOL    HW238292   1.002   2.691  11.809 -1.0215  0.9405  1.1416
 8886SOL     OW38293   0.092   4.678   3.235 -0.2008  0.1122 -0.4564
 8886SOL    HW138294   0.128   4.659   3.149  0.5467  0.8969 -0.3078
 8886SOL    HW238295   0.064   4.588   3.253  2.3976 -0.3654  1.1731
 8887SOL     OW38296   0.588   2.361   4.141 -0.0868 -0.8406 -0.0220
 8887SOL    HW138297   0.618   2.426   4.205  0.0557 -2.3374  1.4230
 8887SOL    HW238298   0.496   2.389   4.137  0.7341  1.5532 -2.7276
 8888SOL     OW38299   2.093   2.830   8.212  0.5364  0.3338  0.2331
 8888SOL    HW138300   2.098   2.876   8.127 -2.0610 -0.7069 -0.4691
 8888SOL    HW238301   2.109   2.742   8.179 -2.0304 -0.2566  0.5462
 8889SOL     OW38302   2.756   1.061   8.430  0.2525  0.7056  0.2217
 8889SOL    HW138303   2.825   1.008   8.391 -0.8219 -0.6487  0.1492
 8889SOL    HW238304   2.697   1.003   8.478 -0.3958  0.6410 -0.6484
 8890SOL     OW38305   4.553   3.597   9.488 -0.0551  0.2047  0.1537
 8890SOL    HW138306   4.496   3.521   9.502  0.2683  0.0636  0.6838
 8890SOL    HW238307   4.532   3.615   9.396  2.4400 -1.7649 -0.7823
 8891SOL     OW38308   3.984   2.570   2.541 -0.3544  0.2179 -0.1658
 8891SOL    HW138309   3.992   2.590   2.634  1.1919 -3.2232  0.4696
 8891SOL    HW238310   4.026   2.644   2.497  1.5231  0.2969  1.7771
 8892SOL     OW38311   3.553   0.433   1.748  0.1232 -0.5760 -0.1851
 8892SOL    HW138312   3.590   0.348   1.773  1.9895  0.6801  1.3094
 8892SOL    HW238313   3.575   0.481   1.828 -1.5826  0.6782 -0.4735
 8893SOL     OW38314   0.936   3.939   8.043 -0.2352 -0.4338 -0.0896
 8893SOL    HW138315   0.998   3.879   8.001 -0.1838 -0.9412  0.7299
 8893SOL    HW238316   0.985   3.966   8.120 -2.6762 -0.4255  1.4402
 8894SOL     OW38317   1.048   3.174   5.355  0.3259 -0.1698  0.5897
 8894SOL    HW138318   1.120   3.202   5.299 -2.0234  0.4457 -2.0927
 8894SOL    HW238319   1.018   3.262   5.376  0.7206  0.5571 -1.9291
 8895SOL     OW38320   3.799   0.501   7.581 -0.3416 -0.0608  0.3786
 8895SOL    HW138321   3.713   0.544   7.574 -0.4962 -0.8663 -2.5790
 8895SOL    HW238322   3.828   0.545   7.661 -1.0162  1.0846 -0.0001
 8896SOL     OW38323   0.843   0.766  12.483 -0.1585 -0.1761 -0.0028
 8896SOL    HW138324   0.864   0.859  12.480 -0.6203 -0.0366  1.0318
 8896SOL    HW238325   0.927   0.725  12.464  0.5399  1.0364  0.4719
 8897SOL     OW38326   3.357   4.731   6.998  0.2336 -0.5906  0.2391
 8897SOL    HW138327   3.300   4.661   7.029 -1.5109  0.3952 -0.7022
 8897SOL    HW238328   3.312   0.061   7.054 -0.2200 -3.1544  2.8134
 8898SOL     OW38329   3.643   3.994   8.101 -0.3622 -0.1341 -0.0545
 8898SOL    HW138330   3.567   3.993   8.042 -0.5286 -0.8857  0.1643
 8898SOL    HW238331   3.714   3.957   8.049  0.1606 -1.5616  1.6705
 8899SOL     OW38332   4.548   0.738   8.072 -0.2219 -0.1756  0.8553
 8899SOL    HW138333   4.585   0.826   8.078 -1.4994  0.5438 -1.9596
 8899SOL    HW238334   4.479   0.736   8.138 -0.2261  1.1581  0.8923
 8900SOL     OW38335   2.350   3.174   6.332  0.0093 -0.5339  0.5279
 8900SOL    HW138336   2.302   3.093   6.322  0.8633 -0.9299 -0.3934
 8900SOL    HW238337   2.419   3.155   6.396 -0.5490 -1.3759  0.8734
 8901SOL     OW38338   0.547   0.332   7.008 -0.1982 -0.1453 -0.2368
 8901SOL    HW138339   0.458   0.322   7.041  0.5829 -2.4451  1.1977
 8901SOL    HW238340   0.599   0.297   7.081 -0.7536 -1.1496 -0.3156
 8902SOL     OW38341   2.116   2.187  12.933 -0.4967 -0.1746 -0.9213
 8902SOL    HW138342   2.110   2.200  12.839 -1.3300 -2.4017 -1.1802
 8902SOL    HW238343   2.203   2.224  12.951 -0.0046 -0.8636 -1.8949
 8903SOL     OW38344   3.740   2.595   5.828  0.2827 -0.3005  0.0025
 8903SOL    HW138345   3.718   2.667   5.769 -1.9884 -0.0548  1.1608
 8903SOL    HW238346   3.702   2.518   5.787 -0.8063  0.9838 -1.4001
 8904SOL     OW38347   3.255   4.035   9.132  0.0304 -0.5037 -0.9452
 8904SOL    HW138348   3.192   3.963   9.141 -1.0331  0.4068 -1.1613
 8904SOL    HW238349   3.209   4.111   9.168 -0.6372 -0.7772 -1.2265
 8905SOL     OW38350   2.185   0.481   9.954  0.0138  0.4592 -0.5583
 8905SOL    HW138351   2.238   0.559   9.936 -1.3840  1.3901 -0.5720
 8905SOL    HW238352   2.131   0.512  10.027 -2.5108 -2.2711 -1.2784
 8906SOL     OW38353   2.691   4.548   6.445  0.2155 -0.5692 -0.0468
 8906SOL    HW138354   2.708   4.539   6.539  1.9149 -0.4911 -0.3494
 8906SOL    HW238355   2.758   4.613   6.427 -0.6489  0.8619  1.8180
 8907SOL     OW38356   4.153   0.014   3.333 -0.0526 -0.0740 -0.2518
 8907SOL    HW138357   4.068   0.011   3.377  0.9514 -1.1473  1.6147
 8907SOL    HW238358   4.200   4.698   3.399 -0.7285 -1.4938 -0.8529
 8908SOL     OW38359   2.984   3.542  14.751  0.8271 -0.0607 -0.6002
 8908SOL    HW138360   2.892   3.565  14.738  1.2705  2.0055  0.0102
 8908SOL    HW238361   3.018   3.625  14.719  0.5360  0.7578  1.2257
 8909SOL     OW38362   0.963   1.844   0.646 -0.2336 -0.0738  0.5656
 8909SOL    HW138363   0.868   1.844   0.631  0.1848 -0.0888 -2.0435
 8909SOL    HW238364   0.988   1.755   0.620 -0.4772  0.2220 -0.6688
 8910SOL     OW38365   1.195   0.725   7.493 -0.1806  0.5586 -0.6805
 8910SOL    HW138366   1.160   0.770   7.416 -0.1821 -0.9041 -1.5376
 8910SOL    HW238367   1.124   0.665   7.516  0.1897  0.7857  0.9957
 8911SOL     OW38368   2.035   3.946   7.659 -0.1718 -0.0843 -0.5188
 8911SOL    HW138369   2.006   3.861   7.625 -0.1207 -0.5280  0.5286
 8911SOL    HW238370   2.130   3.933   7.658 -0.0641  0.7701 -0.5441
 8912SOL     OW38371   0.992   0.942   6.381  0.4912  0.3091  0.0722
 8912SOL    HW138372   1.009   1.029   6.343  2.3481  0.9767  2.3818
 8912SOL    HW238373   1.080   0.926   6.416 -0.0539  0.4650  1.5217
 8913SOL     OW38374   2.099   3.250   8.174 -0.0259 -0.0383 -0.1054
 8913SOL    HW138375   2.114   3.252   8.080  0.5167  1.6543  0.0209
 8913SOL    HW238376   2.006   3.268   8.186  0.4398  1.9744  0.5776
 8914SOL     OW38377   3.524   0.993   2.519 -0.1604 -0.1058 -0.9014
 8914SOL    HW138378   3.546   0.940   2.596 -1.6083 -1.3968 -1.3743
 8914SOL    HW238379   3.568   1.077   2.532  1.6152 -1.2281  0.3775
 8915SOL     OW38380   4.225   3.236   3.808 -0.1296 -0.2771 -0.0054
 8915SOL    HW138381   4.246   3.326   3.786 -1.3783 -0.3315 -1.4037
 8915SOL    HW238382   4.191   3.199   3.727  1.5831 -1.4222 -0.2036
 8916SOL     OW38383   0.720   0.666   1.600  0.3594 -0.2916 -0.3233
 8916SOL    HW138384   0.768   0.588   1.573 -0.1126 -0.4827 -0.6048
 8916SOL    HW238385   0.671   0.692   1.522 -0.8945 -1.4232  0.0950
 8917SOL     OW38386   2.305   0.567  16.554  0.5418  0.8471 -0.2187
 8917SOL    HW138387   2.254   0.493  16.523  0.2183  0.5947  0.9286
 8917SOL    HW238388   2.348   0.603  16.476  0.2650  0.4684 -0.5449
 8918SOL     OW38389   3.572   2.839   2.761  0.3071  0.4748  0.2078
 8918SOL    HW138390   3.480   2.846   2.733  0.5230 -2.8654 -1.3074
 8918SOL    HW238391   3.611   2.919   2.727 -1.5166  1.3240  0.1116
 8919SOL     OW38392   2.056   3.643   2.438  0.1373  0.3344 -0.4627
 8919SOL    HW138393   2.107   3.626   2.517 -1.2874 -1.0857  0.1548
 8919SOL    HW238394   2.135   3.673   2.392  0.3023  1.1186  0.3410
 8920SOL     OW38395   0.383   4.434   2.822 -0.2452  0.8372 -0.4072
 8920SOL    HW138396   0.466   4.466   2.788  0.7698  1.1434  2.3271
 8920SOL    HW238397   0.330   4.411   2.746 -1.5435  0.9481  0.4644
 8921SOL     OW38398   3.343   3.833   6.021 -0.1130  0.0162  0.2801
 8921SOL    HW138399   3.417   3.787   5.981  1.7239  0.1751  3.4267
 8921SOL    HW238400   3.307   3.775   6.088 -2.0385  0.4206 -0.4235
 8922SOL     OW38401   4.364   1.835  10.024 -0.2195 -0.5046 -0.0003
 8922SOL    HW138402   4.289   1.809  10.078 -0.6810 -0.4036 -0.5832
 8922SOL    HW238403   4.358   1.931  10.032  0.8625 -0.3638 -0.9807
 8923SOL     OW38404   4.168   1.316   5.642 -0.1699  0.4179  0.8409
 8923SOL    HW138405   4.237   1.364   5.687  0.2208  1.2405 -0.6277
 8923SOL    HW238406   4.094   1.329   5.702 -1.8716 -0.8757 -0.9716
 8924SOL     OW38407   1.743   1.320   7.744  0.2008  0.2246 -0.7653
 8924SOL    HW138408   1.750   1.277   7.658  1.6332 -0.1983 -0.4234
 8924SOL    HW238409   1.819   1.286   7.790  1.1228  0.7548 -1.8881
 8925SOL     OW38410   1.416   0.980   3.320 -0.0683 -0.2705  0.6957
 8925SOL    HW138411   1.420   1.071   3.349 -2.0354  0.2901 -0.7971
 8925SOL    HW238412   1.381   0.982   3.231  1.1873  0.7594  0.2350
 8926SOL     OW38413   3.741   0.414   0.540  0.1127 -0.2528 -0.8969
 8926SOL    HW138414   3.696   0.342   0.496  0.6434 -0.6823 -0.7392
 8926SOL    HW238415   3.754   0.373   0.625 -0.5122  2.2407  0.3765
 8927SOL     OW38416   3.313   0.058   4.302  0.1838 -0.0088  0.3563
 8927SOL    HW138417   3.280   4.703   4.296 -0.5136  0.2002  1.0705
 8927SOL    HW238418   3.238   0.104   4.264  0.5610 -1.0797 -1.6700
 8928SOL     OW38419   0.400   2.279   2.177  0.3512 -0.0643 -0.0886
 8928SOL    HW138420   0.363   2.341   2.240  1.0321  0.9329 -0.6674
 8928SOL    HW238421   0.392   2.338   2.102 -2.7444 -0.0288  0.2819
 8929SOL     OW38422   1.462   0.617   4.263  0.2604  0.0776 -0.2121
 8929SOL    HW138423   1.390   0.676   4.285  1.7394  2.3795 -1.5620
 8929SOL    HW238424   1.476   0.634   4.169  0.8442  0.5631 -0.0371
 8930SOL     OW38425   0.804   1.169   1.829 -0.1988 -0.1363  0.2849
 8930SOL    HW138426   0.873   1.221   1.790  0.2441 -2.4909 -2.0433
 8930SOL    HW238427   0.806   1.208   1.917  1.5081  0.9786 -0.2732
 8931SOL     OW38428   3.445   0.363  15.459 -0.0289  0.4422 -0.0739
 8931SOL    HW138429   3.541   0.361  15.461 -0.0624 -0.1198  1.3191
 8931SOL    HW238430   3.432   0.285  15.512  1.0269  0.2086 -0.1646
 8932SOL     OW38431   4.553   2.165   7.562  0.0890  0.4635  0.0644
 8932SOL    HW138432   4.523   2.253   7.583 -1.7710 -0.4075  0.9790
 8932SOL    HW238433   4.622   2.151   7.627 -0.5780 -0.3032  0.6070
 8933SOL     OW38434   0.682   3.257   8.124  0.2317  0.7783  0.0940
 8933SOL    HW138435   0.634   3.177   8.104  2.4286 -1.0220  2.0083
 8933SOL    HW238436   0.714   3.236   8.212  3.5099  0.0171 -1.2661
 8934SOL     OW38437   0.862   3.933   2.402  0.6315 -0.2283 -0.1538
 8934SOL    HW138438   0.901   3.873   2.339  0.1760 -0.5707 -0.1113
 8934SOL    HW238439   0.826   3.865   2.460  0.2603  0.6077  0.5992
 8935SOL     OW38440   2.031   4.543   2.962 -0.3169 -0.8113 -0.3955
 8935SOL    HW138441   2.012   4.636   2.974  0.5336 -0.6837 -0.0465
 8935SOL    HW238442   1.947   4.498   2.956 -2.2586  2.9127 -0.8040
 8936SOL     OW38443   2.440   1.854  14.887  0.2337 -0.2412 -0.0242
 8936SOL    HW138444   2.360   1.854  14.940 -0.4413  1.9756 -1.0657
 8936SOL    HW238445   2.419   1.933  14.839 -1.0019 -1.1991 -1.0723
 8937SOL     OW38446   1.729   0.162   2.060 -0.1029  0.0864  0.2268
 8937SOL    HW138447   1.749   0.108   2.136  1.7896 -0.1798 -0.4612
 8937SOL    HW238448   1.816   0.162   2.020 -1.8602 -2.1906 -3.6234
 8938SOL     OW38449   0.511   3.839   9.082 -0.2452  0.6651  0.3090
 8938SOL    HW138450   0.521   3.754   9.039 -1.0493  1.5499 -1.6360
 8938SOL    HW238451   0.601   3.851   9.110 -0.0328 -1.4493  0.5248
 8939SOL     OW38452   2.190   4.183   5.920  0.6673  0.1108 -0.2267
 8939SOL    HW138453   2.227   4.129   5.850  2.7858  1.4954 -0.1585
 8939SOL    HW238454   2.223   4.272   5.910 -0.1844  0.4723  0.1485
 8940SOL     OW38455   1.429   2.115   9.669 -0.0206  0.5635  0.6044
 8940SOL    HW138456   1.404   2.115   9.761 -2.0186 -1.0323  0.0613
 8940SOL    HW238457   1.523   2.133   9.676  0.3663 -0.8019 -1.1076
 8941SOL     OW38458   3.698   2.633   3.980 -0.3505 -0.6786  0.5852
 8941SOL    HW138459   3.691   2.619   3.886 -2.0710 -2.3057  0.9411
 8941SOL    HW238460   3.623   2.591   4.023 -1.1486  0.8660  0.6920
 8942SOL     OW38461   3.705   3.952   2.565  0.1614 -0.0196  0.0944
 8942SOL    HW138462   3.650   4.004   2.623  0.0647 -1.7748  1.5878
 8942SOL    HW238463   3.649   3.942   2.488 -0.8401 -0.9122  0.9399
 8943SOL     OW38464   3.158   1.488   2.832  0.4769 -0.0309  0.5142
 8943SOL    HW138465   3.172   1.537   2.752  0.3045  0.2933  0.6806
 8943SOL    HW238466   3.147   1.563   2.891  1.5935  0.4380  0.1148
 8944SOL     OW38467   0.008   0.883   9.967  1.1501  0.0104  0.8053
 8944SOL    HW138468   4.677   0.916   9.904 -0.3791 -0.2312  2.2607
 8944SOL    HW238469   0.064   0.829   9.912 -0.8955 -0.8417 -0.4434
 8945SOL     OW38470   3.191   1.079  15.040  0.0702 -0.3037 -0.6308
 8945SOL    HW138471   3.254   1.023  14.996  1.7194  2.7156 -2.0754
 8945SOL    HW238472   3.224   1.163  15.010  0.6556 -0.9335 -1.7546
 8946SOL     OW38473   3.732   2.591  13.788  0.3190 -0.1634 -0.2781
 8946SOL    HW138474   3.684   2.620  13.866 -2.2908 -0.6013 -1.7308
 8946SOL    HW238475   3.741   2.497  13.798  3.1931 -0.0204 -1.6093
 8947SOL     OW38476   2.561   3.908   1.270  0.0829  0.0967  1.1847
 8947SOL    HW138477   2.548   3.813   1.270 -0.0509  0.1218 -0.3129
 8947SOL    HW238478   2.589   3.926   1.181  2.3178  2.2577  2.3444
 8948SOL     OW38479   0.574   3.007   5.155 -0.0611  0.3662 -0.2194
 8948SOL    HW138480   0.593   2.981   5.065 -1.2291  1.6816 -0.8218
 8948SOL    HW238481   0.626   2.941   5.202 -0.7475 -1.1517 -1.6188
 8949SOL     OW38482   2.599   3.524   8.038  0.0054  0.2376  0.3210
 8949SOL    HW138483   2.675   3.496   7.988 -1.0901  0.5435 -1.5299
 8949SOL    HW238484   2.576   3.458   8.103  1.6798 -0.7389 -0.0926
 8950SOL     OW38485   4.158   3.226   5.296  0.4753 -0.6664 -0.1096
 8950SOL    HW138486   4.151   3.166   5.222 -3.3732  1.3555 -1.3825
 8950SOL    HW238487   4.217   3.296   5.268  0.1347  0.0824  1.0282
 8951SOL     OW38488   0.795   4.637   4.235 -0.4368 -0.0880 -0.3386
 8951SOL    HW138489   0.864   4.702   4.250 -0.3274 -0.2100 -0.3083
 8951SOL    HW238490   0.769   4.658   4.145 -0.7075 -0.7099 -0.4080
 8952SOL     OW38491   4.328   3.257   2.416 -0.0836 -0.1222  0.1971
 8952SOL    HW138492   4.270   3.240   2.491 -0.4084 -0.0331 -0.0328
 8952SOL    HW238493   4.359   3.339   2.453 -0.3632  1.0081 -2.0694
 8953SOL     OW38494   2.743   1.736   6.610 -0.1577  0.2518  0.4558
 8953SOL    HW138495   2.765   1.828   6.591 -1.6965  0.5449  0.0743
 8953SOL    HW238496   2.779   1.688   6.536 -0.5932 -0.8326  0.9510
 8954SOL     OW38497   2.021   2.533  12.184 -0.1071  0.6145 -0.3828
 8954SOL    HW138498   2.036   2.607  12.125  1.7398  0.3695 -0.2083
 8954SOL    HW238499   1.959   2.580  12.239  0.9546  1.0414  0.4509
 8955SOL     OW38500   3.123   3.808   4.734  0.2572  0.0839 -0.0346
 8955SOL    HW138501   3.037   3.847   4.747 -0.3088 -0.1267 -3.0434
 8955SOL    HW238502   3.133   3.841   4.644 -0.0524 -1.7639 -0.7326
 8956SOL     OW38503   2.454   1.413   7.673 -0.5874 -0.3805  0.3711
 8956SOL    HW138504   2.533   1.448   7.630 -1.5767 -1.9537 -2.6667
 8956SOL    HW238505   2.427   1.485   7.730  1.7733  0.4671  0.4329
 8957SOL     OW38506   1.432   1.207   5.943 -0.0790  0.3503  0.3783
 8957SOL    HW138507   1.466   1.287   5.901 -0.0064  0.5002  0.7256
 8957SOL    HW238508   1.356   1.188   5.888 -0.5037 -1.1180  1.4939
 8958SOL     OW38509   0.931   0.862   7.757  0.3523  0.3611 -0.1333
 8958SOL    HW138510   0.977   0.907   7.828 -0.9665  1.0115  0.3113
 8958SOL    HW238511   1.004   0.824   7.710 -0.3851 -0.5738 -0.5239
 8959SOL     OW38512   4.276   0.805  12.353 -0.1813 -0.0967 -0.0098
 8959SOL    HW138513   4.247   0.735  12.412  0.8162  1.3403  2.1864
 8959SOL    HW238514   4.331   0.858  12.410  2.3255 -0.4884 -2.0632
 8960SOL     OW38515   2.582   2.982   4.863 -0.7719 -0.0612  0.2628
 8960SOL    HW138516   2.659   2.924   4.859  0.2486  1.3169 -0.2592
 8960SOL    HW238517   2.521   2.925   4.817 -1.1059 -0.7672  1.5746
 8961SOL     OW38518   0.094   1.238   6.160  0.0449  0.0540  0.6285
 8961SOL    HW138519   0.031   1.219   6.091  1.0924  0.5753 -0.4661
 8961SOL    HW238520   0.183   1.216   6.134 -0.8074  0.4407 -2.5069
 8962SOL     OW38521   2.788   2.294  13.199  0.1242  0.1140 -0.1968
 8962SOL    HW138522   2.785   2.226  13.267  2.5776  1.5115  1.3436
 8962SOL    HW238523   2.748   2.369  13.242 -0.7300  1.0322 -2.6196
 8963SOL     OW38524   0.599   3.197   0.813  0.1721 -0.1774 -0.4053
 8963SOL    HW138525   0.629   3.111   0.842  2.7256 -0.3071 -3.3379
 8963SOL    HW238526   0.541   3.170   0.742 -1.2878 -0.0780  0.7692
 8964SOL     OW38527   1.189   1.943  12.130 -0.9984 -0.0326 -0.0324
 8964SOL    HW138528   1.263   1.979  12.180  1.2703 -0.7695 -2.8111
 8964SOL    HW238529   1.167   2.010  12.066  0.8677  1.4543  0.8666
 8965SOL     OW38530   1.247   0.086  12.711  0.0467  0.1758 -0.0157
 8965SOL    HW138531   1.307   0.135  12.654 -0.1748  1.0754  0.5325
 8965SOL    HW238532   1.270   0.115  12.799  0.3610 -1.0667  0.3184
 8966SOL     OW38533   2.122   1.275   4.290  0.1859  0.3552 -0.0973
 8966SOL    HW138534   2.215   1.297   4.296  0.1945  0.1902  0.3269
 8966SOL    HW238535   2.103   1.296   4.381  2.9413 -2.3392  1.1140
 8967SOL     OW38536   2.206   3.214  11.564  0.3583 -0.5308 -0.6681
 8967SOL    HW138537   2.241   3.265  11.637 -1.2103 -0.4865  0.0671
 8967SOL    HW238538   2.281   3.169  11.527  0.5768  0.4291 -1.4061
 8968SOL     OW38539   4.466   3.857   7.115  0.3641  0.6940  0.1098
 8968SOL    HW138540   4.489   3.840   7.206 -0.5965 -1.2905 -0.0284
 8968SOL    HW238541   4.374   3.831   7.116  0.7455 -0.7266 -1.0324
 8969SOL     OW38542   3.880   0.107  15.776 -0.4223 -0.4536  0.7155
 8969SOL    HW138543   3.938   0.067  15.712  2.7895  2.3643  1.8694
 8969SOL    HW238544   3.931   0.165  15.833  1.3912  0.3918 -1.7976
 8970SOL     OW38545   0.530   1.590   9.198 -0.2012  0.7729  0.4494
 8970SOL    HW138546   0.465   1.660   9.187 -0.2358  0.8910  1.3273
 8970SOL    HW238547   0.533   1.551   9.111  2.0982  1.1513  0.3555
 8971SOL     OW38548   4.603   3.191   0.497  0.7249 -0.0561  0.4628
 8971SOL    HW138549   4.598   3.255   0.569  0.0547  1.9937 -1.3878
 8971SOL    HW238550   4.514   3.161   0.481  0.2154  0.9049  1.3939
 8972SOL     OW38551   3.683   0.733   0.833  0.0112 -0.4236  0.7347
 8972SOL    HW138552   3.649   0.785   0.760  1.2481  0.2266  0.6279
 8972SOL    HW238553   3.768   0.715   0.791  0.2479  0.4323  0.8518
 8973SOL     OW38554   1.445   4.446   3.482  0.5862 -0.3939 -0.0433
 8973SOL    HW138555   1.385   4.420   3.412  1.7854 -1.7099 -0.5624
 8973SOL    HW238556   1.480   4.522   3.436 -0.5825  0.7988  1.0443
 8974SOL     OW38557   2.937   1.438   5.107 -0.1960 -0.2401 -0.2404
 8974SOL    HW138558   2.857   1.390   5.125  0.3715 -0.3637  2.0444
 8974SOL    HW238559   2.957   1.462   5.198 -0.1656  0.0491 -0.3207
 8975SOL     OW38560   3.192   0.619   5.107  0.4775 -0.5842  0.2537
 8975SOL    HW138561   3.151   0.533   5.098 -1.3554  0.3234 -0.1372
 8975SOL    HW238562   3.279   0.596   5.077  0.9961  3.4407 -1.2931
 8976SOL     OW38563   0.313   3.863   6.738  0.1051 -0.6118  0.7175
 8976SOL    HW138564   0.220   3.863   6.715  0.8445 -2.3293 -2.3109
 8976SOL    HW238565   0.354   3.803   6.675  1.8729  1.3643 -0.0375
 8977SOL     OW38566   0.471   2.117   0.827  0.3913 -0.3506 -0.0195
 8977SOL    HW138567   0.516   2.196   0.856  1.8247 -1.3926  0.6354
 8977SOL    HW238568   0.416   2.098   0.903 -0.6648  0.3147 -0.6325
 8978SOL     OW38569   1.132   1.217  17.140 -0.1866  0.0791  0.5893
 8978SOL    HW138570   1.202   1.192  17.080 -1.2066 -1.4764  0.0485
 8978SOL    HW238571   1.087   1.290  17.098 -0.8433 -1.0855 -0.7501
 8979SOL     OW38572   2.150   0.279   5.976  0.4716  0.0008 -0.1791
 8979SOL    HW138573   2.154   0.214   6.046 -0.2058 -1.3838 -1.4290
 8979SOL    HW238574   2.057   0.300   5.978  0.1810 -1.2703 -0.4745
 8980SOL     OW38575   0.442   2.225   0.549  0.0179  0.1879  0.6994
 8980SOL    HW138576   0.468   2.178   0.628  0.7416  0.6270  0.7268
 8980SOL    HW238577   0.503   2.189   0.484 -0.2281  0.7082  0.1761
 8981SOL     OW38578   4.527   0.593  10.986  0.0426  0.1834  0.1049
 8981SOL    HW138579   4.581   0.639  10.921  0.1275 -3.0020 -2.0596
 8981SOL    HW238580   4.558   0.505  10.963 -0.4518  0.4093 -1.4458
 8982SOL     OW38581   3.118   1.254   6.079 -0.5078  0.0643 -0.5616
 8982SOL    HW138582   3.124   1.225   5.988  2.8748 -0.2650 -0.2476
 8982SOL    HW238583   3.032   1.296   6.078 -1.4454 -1.8573  1.4549
 8983SOL     OW38584   3.121   4.547   7.499 -0.0700  0.4889  0.1017
 8983SOL    HW138585   3.111   4.642   7.494  0.2419  0.5730  1.0987
 8983SOL    HW238586   3.112   4.536   7.404 -0.9428  2.0081  0.0001
 8984SOL     OW38587   1.224   3.244  15.357 -0.0754 -0.1441 -0.1919
 8984SOL    HW138588   1.239   3.163  15.310  0.5285 -1.2941  1.9957
 8984SOL    HW238589   1.232   3.216  15.448  2.1443  1.5850  0.1372
 8985SOL     OW38590   3.640   1.612   4.185 -0.1762  0.2983  0.5436
 8985SOL    HW138591   3.685   1.554   4.124  1.5911  1.3047  0.8774
 8985SOL    HW238592   3.720   1.622   4.237  0.2270 -0.8198  0.1275
 8986SOL     OW38593   3.878   0.211   9.263 -0.2029  0.2003  0.8174
 8986SOL    HW138594   3.825   0.157   9.205  1.1508  0.6875 -0.8677
 8986SOL    HW238595   3.931   0.251   9.194  0.6188  0.1170  1.3957
 8987SOL     OW38596   0.062   0.811  13.186 -0.1139 -0.3947 -0.6126
 8987SOL    HW138597   0.143   0.861  13.168 -0.4562  0.4994  0.3412
 8987SOL    HW238598   0.091   0.720  13.182  0.9976 -0.0832  0.3095
 8988SOL     OW38599   3.126   1.937   9.391 -0.2815  0.0858 -0.3463
 8988SOL    HW138600   3.162   1.886   9.464  0.7113 -1.6103 -2.0242
 8988SOL    HW238601   3.089   1.866   9.339 -0.7938  0.5102 -0.5573
 8989SOL     OW38602   3.976   2.852   5.768  0.2505 -0.1512  0.8344
 8989SOL    HW138603   4.045   2.895   5.819  0.4220  2.3036 -1.4728
 8989SOL    HW238604   4.010   2.862   5.679 -2.1742  1.0071  0.0471
 8990SOL     OW38605   1.651   1.423   1.886  0.0825  0.6360 -0.2136
 8990SOL    HW138606   1.633   1.424   1.980  0.6353 -0.4049 -0.0962
 8990SOL    HW238607   1.644   1.514   1.858  1.9788  0.8669  0.0426
 8991SOL     OW38608   0.747   0.022   8.957  0.4253  0.1127  0.7111
 8991SOL    HW138609   0.667   0.071   8.978  0.4355  0.7442 -0.7324
 8991SOL    HW238610   0.814   0.090   8.951 -1.3062  1.5027 -2.7403
 8992SOL     OW38611   0.043   2.051   0.946 -0.3176  0.2196  0.4843
 8992SOL    HW138612   4.718   2.036   1.019 -2.2783  1.0572 -0.9117
 8992SOL    HW238613   4.712   2.056   0.876 -0.6272 -2.1170  0.6066
 8993SOL     OW38614   2.197   1.262   4.691 -0.1140 -0.1035 -0.2591
 8993SOL    HW138615   2.282   1.279   4.731  0.4108 -2.5872 -0.2854
 8993SOL    HW238616   2.219   1.173   4.664 -2.1262 -1.2129  1.6758
 8994SOL     OW38617   4.354   3.056  12.214  0.1574 -0.3157  0.3159
 8994SOL    HW138618   4.332   3.118  12.283 -0.9861  0.4428 -0.7416
 8994SOL    HW238619   4.449   3.043  12.223  0.3896  2.0564  1.0966
 8995SOL     OW38620   3.631   0.431   7.244  0.0831  0.0494 -0.0847
 8995SOL    HW138621   3.556   0.488   7.262 -0.9169 -0.8360 -1.4822
 8995SOL    HW238622   3.630   0.393   7.332  1.1506 -1.1779 -0.6003
 8996SOL     OW38623   3.726   4.691   6.550 -0.1241  0.3399 -0.3991
 8996SOL    HW138624   3.718   0.045   6.513  1.2460  0.4957 -0.3133
 8996SOL    HW238625   3.691   4.645   6.474  2.9607 -0.5564 -1.2430
 8997SOL     OW38626   3.156   2.836   5.935 -0.4600  0.1700  0.1283
 8997SOL    HW138627   3.238   2.850   5.888 -0.5553 -0.9584 -0.3783
 8997SOL    HW238628   3.206   2.812   6.013  0.1682 -0.6916 -0.5377
 8998SOL     OW38629   3.086   2.293  14.453 -0.1112 -0.1904 -0.1403
 8998SOL    HW138630   3.159   2.351  14.431  1.0219 -1.5300  0.0739
 8998SOL    HW238631   3.084   2.252  14.367 -0.8202 -0.1764 -0.1329
 8999SOL     OW38632   0.607   4.251   0.677  0.5919  0.4218  0.1778
 8999SOL    HW138633   0.693   4.290   0.667  2.2793 -3.3399  0.1021
 8999SOL    HW238634   0.584   4.290   0.762  1.5580  1.2943  0.0298
 9000SOL     OW38635   4.423   2.063   6.409  0.5198 -0.3514  0.1418
 9000SOL    HW138636   4.498   2.009   6.385  0.2436 -0.6720  0.0037
 9000SOL    HW238637   4.354   2.026   6.354  0.9060 -0.3297 -0.3537
 9001SOL     OW38638   3.851   0.870   3.418  0.1048 -0.2507 -0.1983
 9001SOL    HW138639   3.830   0.963   3.411 -2.3384 -0.9246 -2.1014
 9001SOL    HW238640   3.824   0.858   3.509 -0.3431 -0.9245 -0.4212
 9002SOL     OW38641   0.603   1.214   5.198 -0.0500  0.1454  0.1289
 9002SOL    HW138642   0.663   1.270   5.148 -0.6791  2.2372  1.6652
 9002SOL    HW238643   0.532   1.194   5.138  0.4131 -1.3907  0.1005
 9003SOL     OW38644   1.746   1.470   4.331  0.0258 -0.2132 -0.0729
 9003SOL    HW138645   1.773   1.390   4.377  0.8581 -0.5646 -1.1909
 9003SOL    HW238646   1.811   1.484   4.263  1.3340 -0.6724  1.0801
 9004SOL     OW38647   1.810   2.655   9.649  0.3001  0.3070 -0.8535
 9004SOL    HW138648   1.764   2.714   9.709 -0.9434 -1.3778 -0.1668
 9004SOL    HW238649   1.904   2.672   9.661 -0.1876  2.5412 -0.2420
 9005SOL     OW38650   0.066   4.391   8.985 -0.3551  0.2088 -0.6592
 9005SOL    HW138651   0.116   4.445   9.047  0.5510 -0.7409 -0.5544
 9005SOL    HW238652   0.005   4.343   9.041  1.5350 -1.8958 -0.3994
 9006SOL     OW38653   4.588   2.059   8.445 -0.3708  0.1306 -0.4033
 9006SOL    HW138654   4.590   1.971   8.484 -2.0870 -0.4995 -1.7347
 9006SOL    HW238655   4.589   2.116   8.522 -1.8791 -1.6851  0.9856
 9007SOL     OW38656   4.209   3.556   3.792  0.1024  0.0566 -0.5590
 9007SOL    HW138657   4.185   3.636   3.745  1.6015  2.2120  2.3744
 9007SOL    HW238658   4.168   3.560   3.878 -0.3761  1.6122 -0.8685
 9008SOL     OW38659   3.847   2.415   6.146  0.2314 -0.7594 -0.8498
 9008SOL    HW138660   3.775   2.425   6.208  0.3949 -1.0720 -0.6084
 9008SOL    HW238661   3.868   2.325   6.173 -0.5498 -0.4971  0.5774
 9009SOL     OW38662   3.458   3.021  16.754 -0.2273 -0.1277  0.2070
 9009SOL    HW138663   3.468   3.061  16.840  0.3470 -0.1314  0.1404
 9009SOL    HW238664   3.463   3.101  16.702 -0.3127  0.1041  0.5576
 9010SOL     OW38665   4.530   2.840   8.123 -0.3398  0.1114  0.1785
 9010SOL    HW138666   4.494   2.830   8.211  1.9054  0.6629  1.1517
 9010SOL    HW238667   4.488   2.765   8.080 -0.4970  0.9483 -1.1114
 9011SOL     OW38668   1.269   0.826  16.841  0.2463  0.4089  0.2241
 9011SOL    HW138669   1.264   0.831  16.745 -0.8886 -1.2932  0.1880
 9011SOL    HW238670   1.281   0.731  16.840  0.6881  0.4691  0.1270
 9012SOL     OW38671   2.364   2.126   5.746 -0.5228 -0.8087  0.0055
 9012SOL    HW138672   2.409   2.132   5.661 -0.3932  1.0781  0.2087
 9012SOL    HW238673   2.394   2.042   5.781  1.5112 -1.2675 -2.8018
 9013SOL     OW38674   1.368   2.157   7.816 -0.3013 -0.4382 -0.1091
 9013SOL    HW138675   1.445   2.154   7.873  1.0060  0.4690 -1.8366
 9013SOL    HW238676   1.308   2.212   7.868  0.0614 -0.3968  0.2729
 9014SOL     OW38677   1.044   4.599  12.119  0.7104  0.2689  0.3155
 9014SOL    HW138678   1.127   4.631  12.153  0.8102  0.2556  0.0879
 9014SOL    HW238679   1.008   4.568  12.202  0.7003  0.1123  0.2529
 9015SOL     OW38680   3.139   2.544   1.015  0.6064 -0.3364 -0.6251
 9015SOL    HW138681   3.218   2.521   1.064 -0.1788  0.5897  1.0680
 9015SOL    HW238682   3.090   2.599   1.075  0.5836 -0.3661 -0.6164
 9016SOL     OW38683   1.279   4.267   7.730  0.5596 -0.2410 -0.1404
 9016SOL    HW138684   1.206   4.276   7.668  1.1842  1.3930 -0.6442
 9016SOL    HW238685   1.231   4.208   7.788 -0.4806  0.0311 -0.7209
 9017SOL     OW38686   0.228   3.417   9.458 -0.4574 -0.9247 -0.2296
 9017SOL    HW138687   0.208   3.325   9.477  1.1636 -0.8120  2.0583
 9017SOL    HW238688   0.225   3.412   9.363 -1.3333  1.5403 -0.3330
 9018SOL     OW38689   4.001   0.903  16.380 -0.9415  0.1548 -0.0170
 9018SOL    HW138690   3.914   0.919  16.342 -1.4761 -0.4180  0.9771
 9018SOL    HW238691   3.989   0.902  16.475 -2.4846 -0.9293 -0.2160
 9019SOL     OW38692   4.239   4.592   8.947  0.4396 -0.6097 -0.3555
 9019SOL    HW138693   4.212   4.518   8.893  0.9059 -1.2416  0.2854
 9019SOL    HW238694   4.318   4.619   8.900 -0.8626  0.7418 -1.7568
 9020SOL     OW38695   3.301   2.665  11.106  0.2355 -0.2447  0.0899
 9020SOL    HW138696   3.338   2.749  11.134 -0.5984  0.8646 -2.2183
 9020SOL    HW238697   3.358   2.650  11.030  0.3608 -1.1911  0.3650
 9021SOL     OW38698   0.995   2.433  11.655  0.1811 -0.3210  0.5125
 9021SOL    HW138699   0.901   2.451  11.658  0.4920  1.2452  0.7608
 9021SOL    HW238700   1.010   2.513  11.704 -0.0626  0.1533 -0.1852
 9022SOL     OW38701   0.937   4.348   7.865  0.0956 -0.2996  0.3175
 9022SOL    HW138702   0.891   4.315   7.788  1.2049 -0.3167 -0.3290
 9022SOL    HW238703   0.999   4.408   7.824  0.1066 -0.0390  0.7184
 9023SOL     OW38704   1.541   4.364   3.944 -0.3250 -0.1599 -0.0588
 9023SOL    HW138705   1.508   4.341   3.857 -2.3015  1.2205  0.3083
 9023SOL    HW238706   1.467   4.415   3.978 -1.5229 -2.1608  0.3082
 9024SOL     OW38707   1.863   4.307   1.726 -0.0276 -0.4873 -0.7314
 9024SOL    HW138708   1.943   4.350   1.698 -0.0230  1.2255  1.8941
 9024SOL    HW238709   1.790   4.369   1.730  0.6119  0.1263  1.3298
 9025SOL     OW38710   0.101   0.185   8.223 -0.4278  0.1957 -0.6311
 9025SOL    HW138711   0.102   0.153   8.132  1.1741 -1.7236  0.0560
 9025SOL    HW238712   0.031   0.131   8.259  0.3424  1.5979  2.9817
 9026SOL     OW38713   0.896   3.212   2.511 -0.1189 -0.0080  0.2360
 9026SOL    HW138714   0.818   3.160   2.495  0.0868  0.4240 -2.1017
 9026SOL    HW238715   0.909   3.261   2.430  0.2585  1.3323  1.0959
 9027SOL     OW38716   4.199   2.146  17.419  0.3415  0.6456  0.3009
 9027SOL    HW138717   4.150   2.064  17.422 -0.1582  0.9099 -0.4626
 9027SOL    HW238718   4.239   2.150  17.332  1.4924 -2.5801  0.6675
 9028SOL     OW38719   1.832   0.791   7.326 -0.5289 -0.4819  0.1359
 9028SOL    HW138720   1.898   0.859   7.336 -1.0729 -0.2970  2.3971
 9028SOL    HW238721   1.844   0.728   7.397  2.0125  0.7695  0.8239
 9029SOL     OW38722   3.880   3.262   7.902  0.2588  0.4330 -0.2677
 9029SOL    HW138723   3.916   3.266   7.991  0.6524 -1.4354 -0.3316
 9029SOL    HW238724   3.818   3.335   7.901 -1.0394 -0.6361  1.1479
 9030SOL     OW38725   0.600   2.924   3.773 -0.3066  0.4172 -0.4691
 9030SOL    HW138726   0.663   2.973   3.825  0.1283 -0.6365 -0.0021
 9030SOL    HW238727   0.666   2.865   3.734 -0.8305 -1.0060  0.7777
 9031SOL     OW38728   3.797   4.233   8.175 -1.1407 -0.5539  0.4994
 9031SOL    HW138729   3.752   4.292   8.236 -0.3817 -3.7177  4.1466
 9031SOL    HW238730   3.737   4.159   8.164 -0.1266 -1.5741  1.7969
 9032SOL     OW38731   4.538   0.509   7.647  0.0710 -0.5116  0.0718
 9032SOL    HW138732   4.496   0.540   7.567  1.8023  0.4280 -0.4783
 9032SOL    HW238733   4.490   0.556   7.715  0.9167 -0.2611  0.4880
 9033SOL     OW38734   0.022   3.531  12.855 -0.1958  0.2197 -0.0635
 9033SOL    HW138735   0.048   3.616  12.891 -0.6239  0.1107  0.4972
 9033SOL    HW238736   0.079   3.475  12.907  0.8932  0.7422 -0.7091
 9034SOL     OW38737   1.109   1.884   2.606 -0.1936  0.4365  0.3445
 9034SOL    HW138738   1.140   1.915   2.521 -2.4998  2.8034  0.3557
 9034SOL    HW238739   1.172   1.823   2.644 -0.1164 -0.6245 -1.4741
 9035SOL     OW38740   3.614   2.551  14.732  0.2869 -0.1572  0.1762
 9035SOL    HW138741   3.644   2.460  14.725  1.5652  0.1539  1.7026
 9035SOL    HW238742   3.621   2.551  14.827 -1.0878 -0.7894  0.2781
 9036SOL     OW38743   3.638   4.411  16.263 -0.1218  0.6000 -0.0806
 9036SOL    HW138744   3.594   4.452  16.188  0.8972  0.7320 -0.6033
 9036SOL    HW238745   3.695   4.480  16.297 -0.8663  1.2058 -0.0575
 9037SOL     OW38746   3.393   4.707   2.074 -0.1039 -0.2700 -0.2218
 9037SOL    HW138747   3.321   0.005   2.129  1.9236 -0.0352  2.3037
 9037SOL    HW238748   3.444   0.052   2.057  1.8280 -1.2530  1.0593
 9038SOL     OW38749   2.653   4.325   8.412  0.0539 -0.4941  0.4912
 9038SOL    HW138750   2.631   4.382   8.338 -0.9111 -1.9202 -0.3316
 9038SOL    HW238751   2.562   4.303   8.430  0.0711 -0.7753  0.2338
 9039SOL     OW38752   4.556   3.307   4.232 -0.3962  0.2293  0.0572
 9039SOL    HW138753   4.506   3.235   4.194  0.5315  0.7677 -2.1827
 9039SOL    HW238754   4.647   3.283   4.215 -0.8062 -0.3045 -1.3879
 9040SOL     OW38755   0.289   0.202   6.928 -1.2082 -0.1704 -0.3540
 9040SOL    HW138756   0.216   0.159   6.883  0.1543 -1.4093 -1.3767
 9040SOL    HW238757   0.256   0.265   6.991  0.1642 -2.1758  2.3698
 9041SOL     OW38758   1.441   0.052  10.236 -0.3627  0.0503 -0.4356
 9041SOL    HW138759   1.458   0.137  10.276  1.2726 -0.4107 -0.1477
 9041SOL    HW238760   1.511   0.006  10.282 -1.5763 -1.2245  0.1091
 9042SOL     OW38761   2.398   4.037   9.137  0.3649 -0.0806 -0.2459
 9042SOL    HW138762   2.322   4.015   9.083 -0.0785  0.2066  0.2589
 9042SOL    HW238763   2.401   4.130   9.114 -1.3084 -0.0246 -0.1917
 9043SOL     OW38764   1.458   4.161  14.087 -0.4365 -0.4209 -0.4953
 9043SOL    HW138765   1.384   4.181  14.030  0.0769 -2.5865 -1.9049
 9043SOL    HW238766   1.467   4.067  14.070 -0.0023 -0.7303  1.4790
 9044SOL     OW38767   4.285   1.560   3.396  0.4772 -0.3767 -0.1895
 9044SOL    HW138768   4.319   1.628   3.454  0.6360 -0.2773 -0.3966
 9044SOL    HW238769   4.347   1.575   3.324  2.3761 -0.3031  1.4466
 9045SOL     OW38770   0.649   2.962   9.936 -0.2855  0.0007 -0.4298
 9045SOL    HW138771   0.583   3.031   9.924  0.3692  0.5355 -0.9991
 9045SOL    HW238772   0.610   2.879   9.907  1.2219 -0.8188 -0.1013
 9046SOL     OW38773   3.862   3.824  12.293 -0.3842  0.8442 -0.3100
 9046SOL    HW138774   3.790   3.792  12.347 -0.0308  0.7639  0.1178
 9046SOL    HW238775   3.936   3.813  12.353 -1.6791  1.2328  1.3668
 9047SOL     OW38776   0.766   2.785   0.360  0.8353  0.2161  0.2857
 9047SOL    HW138777   0.774   2.709   0.418 -0.7766  1.0922  1.6497
 9047SOL    HW238778   0.853   2.822   0.370  0.6369  0.6453  0.3915
 9048SOL     OW38779   1.878   3.725   8.457  0.3410 -0.5626 -0.0746
 9048SOL    HW138780   1.845   3.688   8.538  0.2554 -0.2765  0.0229
 9048SOL    HW238781   1.930   3.796   8.495  1.0204 -0.9753 -0.2435
 9049SOL     OW38782   3.452   3.044   7.594  0.0633 -0.9155  0.2040
 9049SOL    HW138783   3.387   3.031   7.525  0.6793  2.3003 -0.9663
 9049SOL    HW238784   3.489   3.121   7.551  1.4207 -0.3149  2.4110
 9050SOL     OW38785   4.320   2.973   4.764  0.5392 -0.3937  0.4888
 9050SOL    HW138786   4.396   3.020   4.729  0.5763 -0.1822  0.8510
 9050SOL    HW238787   4.359   2.902   4.815  2.4734 -1.5772 -2.6777
 9051SOL     OW38788   3.851   3.273   6.704  0.0645 -0.7732  0.1413
 9051SOL    HW138789   3.853   3.246   6.612 -0.1739  0.2854 -0.1670
 9051SOL    HW238790   3.765   3.237   6.723 -0.3997  1.0235  1.3956
 9052SOL     OW38791   2.161   2.416   3.208  0.2712  0.1534  0.5718
 9052SOL    HW138792   2.248   2.423   3.169  1.0754 -0.2389  2.2526
 9052SOL    HW238793   2.180   2.454   3.295 -0.6135  1.9283 -0.0152
 9053SOL     OW38794   2.014   1.530   5.833  0.4791  0.5897 -0.1889
 9053SOL    HW138795   2.041   1.553   5.922  1.1151 -2.3203  0.3710
 9053SOL    HW238796   1.983   1.616   5.805  0.3950  0.2643 -1.1164
 9054SOL     OW38797   0.916   1.331  11.254 -0.2905  0.3053  0.3613
 9054SOL    HW138798   0.944   1.420  11.234  2.2261 -0.6648 -0.3978
 9054SOL    HW238799   0.828   1.319  11.219 -0.6813 -1.6736  1.9739
 9055SOL     OW38800   2.853   1.939   6.454 -0.0831  0.2374  0.3982
 9055SOL    HW138801   2.818   1.881   6.387  1.6743 -0.9051  0.4767
 9055SOL    HW238802   2.803   2.020   6.447  0.5102  0.6660  1.1265
 9056SOL     OW38803   3.614   3.697   6.235 -0.2023 -0.1076 -1.0563
 9056SOL    HW138804   3.632   3.603   6.238 -2.0308 -0.3701  1.2101
 9056SOL    HW238805   3.642   3.721   6.147  1.7718  0.0258 -0.4053
 9057SOL     OW38806   3.286   1.794   3.694 -0.0042  0.1033  0.3242
 9057SOL    HW138807   3.366   1.744   3.680  0.6917  1.2555  0.1841
 9057SOL    HW238808   3.300   1.831   3.781 -2.3599 -2.3923  1.7848
 9058SOL     OW38809   3.333   4.507  15.165  0.0148 -0.5408 -0.1196
 9058SOL    HW138810   3.411   4.483  15.216  0.3761  0.6145 -0.1267
 9058SOL    HW238811   3.376   4.484  15.083 -0.3921  1.4886 -0.8943
 9059SOL     OW38812   0.061   3.559   7.204  0.6367  0.0827  0.3617
 9059SOL    HW138813   0.025   3.643   7.173 -1.1449 -0.4608  0.9461
 9059SOL    HW238814   4.731   3.536   7.271 -1.7639 -0.5873 -2.1289
 9060SOL     OW38815   3.068   3.450   8.846 -0.1079  0.3634 -0.0340
 9060SOL    HW138816   3.027   3.517   8.791  0.4485  0.4120 -0.3997
 9060SOL    HW238817   3.147   3.487   8.885 -0.6682  0.4315  1.0155
 9061SOL     OW38818   3.861   1.644   1.095 -0.2584 -0.3393  0.4100
 9061SOL    HW138819   3.863   1.551   1.071 -1.5101  0.3071 -2.1734
 9061SOL    HW238820   3.776   1.669   1.131 -0.9485  1.5148 -2.5811
 9062SOL     OW38821   4.456   1.710   9.372 -0.0081  0.5422 -0.1448
 9062SOL    HW138822   4.538   1.753   9.347  0.4940 -0.5228 -0.3485
 9062SOL    HW238823   4.493   1.639   9.426 -0.1006  0.0279 -0.7601
 9063SOL     OW38824   3.667   2.985   7.211 -0.1221 -0.2987  0.3038
 9063SOL    HW138825   3.664   3.081   7.208 -2.5711 -0.3433  1.5808
 9063SOL    HW238826   3.730   2.957   7.145 -2.0198 -1.6928 -0.8937
 9064SOL     OW38827   2.246   1.475   0.623  0.2816  0.1815 -0.4266
 9064SOL    HW138828   2.253   1.508   0.713 -0.5450  1.7287 -0.9205
 9064SOL    HW238829   2.334   1.502   0.597 -0.2245 -0.4936 -2.7467
 9065SOL     OW38830   1.762   3.456   7.684  0.3595  0.4947 -0.6554
 9065SOL    HW138831   1.805   3.499   7.758 -0.9854 -1.2671  1.1495
 9065SOL    HW238832   1.826   3.466   7.614 -0.1656 -0.0437 -1.2069
 9066SOL     OW38833   4.480   0.066  16.965 -0.0615 -0.3361 -0.1260
 9066SOL    HW138834   4.490   0.057  17.060  1.2571 -0.5123 -0.2765
 9066SOL    HW238835   4.539   0.140  16.949 -0.0038 -0.4752 -0.5608
 9067SOL     OW38836   1.746   0.354   6.595 -0.0766 -0.3789 -0.1753
 9067SOL    HW138837   1.779   0.279   6.545  0.3579  1.3605 -2.4877
 9067SOL    HW238838   1.762   0.421   6.529 -1.8974 -0.1851 -0.4370
 9068SOL     OW38839   3.026   1.877  12.077 -0.1344 -0.5591  0.2080
 9068SOL    HW138840   2.962   1.940  12.045  0.0871 -0.2597  0.3509
 9068SOL    HW238841   3.049   1.923  12.158  2.0703 -0.2537 -0.5812
 9069SOL     OW38842   3.710   0.410   3.153 -0.1991 -0.0070  0.0036
 9069SOL    HW138843   3.788   0.356   3.152  0.2653  0.6413  0.9474
 9069SOL    HW238844   3.752   0.493   3.175 -0.7524 -0.1840  1.7314
 9070SOL     OW38845   2.208   1.066   1.964 -0.8276  0.1448  0.2771
 9070SOL    HW138846   2.144   1.003   1.931  0.0022 -1.5513  1.9455
 9070SOL    HW238847   2.150   1.143   1.971 -1.0310 -0.0072  0.2565
 9071SOL     OW38848   1.864   2.265   8.514  0.5303 -0.5022  0.1147
 9071SOL    HW138849   1.956   2.240   8.516  0.7013 -0.1132 -2.8152
 9071SOL    HW238850   1.867   2.353   8.552 -1.7813 -0.1794 -0.4025
 9072SOL     OW38851   4.319   0.806   4.318  0.3443  0.6158 -0.2301
 9072SOL    HW138852   4.366   0.833   4.239  0.3677 -1.4026 -0.9074
 9072SOL    HW238853   4.303   0.888   4.366  1.1620  0.5342  0.1705
 9073SOL     OW38854   3.515   1.859   6.315 -0.8060 -0.3713 -0.7502
 9073SOL    HW138855   3.433   1.873   6.360 -1.0364 -0.7589 -1.0486
 9073SOL    HW238856   3.535   1.766   6.327 -0.5142 -0.1540  0.3969
 9074SOL     OW38857   0.961   4.582   4.944  0.4104  0.4648  0.1330
 9074SOL    HW138858   0.926   4.622   4.863  1.9324  1.3534 -0.0873
 9074SOL    HW238859   0.937   4.492   4.922  1.0248 -0.1026  1.8308
 9075SOL     OW38860   3.473   2.036   3.296 -0.1723  0.0684 -0.1510
 9075SOL    HW138861   3.444   2.061   3.384 -5.1695  0.1150 -1.8133
 9075SOL    HW238862   3.564   2.068   3.299 -0.6991  1.3484  2.2189
 9076SOL     OW38863   2.136   4.324   8.956  0.1562  0.9726 -0.6518
 9076SOL    HW138864   2.220   4.320   9.001 -0.6999  1.8788  1.0219
 9076SOL    HW238865   2.080   4.277   9.018  0.4752 -1.8181 -2.4380
 9077SOL     OW38866   3.879   3.667  13.394  0.4252  0.1494 -0.2369
 9077SOL    HW138867   3.900   3.725  13.467  3.6470 -1.4975  0.1443
 9077SOL    HW238868   3.866   3.735  13.327  1.8475  0.4040 -0.2511
 9078SOL     OW38869   4.718   4.400  11.737 -0.2846 -0.3944 -0.2670
 9078SOL    HW138870   0.014   4.488  11.715 -1.3196 -0.6454 -2.6777
 9078SOL    HW238871   0.069   4.359  11.720 -0.2033 -0.5911  0.6222
 9079SOL     OW38872   1.469   2.561   4.643 -0.4926  0.0691 -0.2550
 9079SOL    HW138873   1.467   2.466   4.634  3.7284 -0.1278  0.6041
 9079SOL    HW238874   1.410   2.581   4.571 -0.8552  3.0680  0.8697
 9080SOL     OW38875   2.718   4.247   1.403 -0.5414  0.1028  0.2784
 9080SOL    HW138876   2.807   4.272   1.376  0.1006 -2.8051 -0.3312
 9080SOL    HW238877   2.724   4.300   1.482  1.9601 -1.4306  1.1300
 9081SOL     OW38878   4.689   1.685   9.084 -0.5962 -0.2273  0.0222
 9081SOL    HW138879   4.624   1.619   9.062 -1.2064  0.1884  0.5870
 9081SOL    HW238880   0.035   1.657   9.040 -1.1368 -0.2230 -0.9609
 9082SOL     OW38881   1.701   4.173   8.488  0.7752  0.5910  0.1624
 9082SOL    HW138882   1.766   4.133   8.429  2.2843  1.2053  1.4087
 9082SOL    HW238883   1.766   4.206   8.551 -1.2545  0.9261  2.0785
 9083SOL     OW38884   2.965   1.257  17.006 -0.2569 -0.2003  0.1411
 9083SOL    HW138885   3.013   1.202  16.945  1.7366 -0.4634  1.9716
 9083SOL    HW238886   3.032   1.282  17.069  0.6291  0.5669 -1.1150
 9084SOL     OW38887   2.592   4.141  16.471  0.2819  0.4143  0.1799
 9084SOL    HW138888   2.544   4.059  16.482  1.9733 -0.8782 -1.9628
 9084SOL    HW238889   2.615   4.145  16.378 -2.0166 -0.8834 -0.4486
 9085SOL     OW38890   4.166   2.094  16.461 -0.1247 -0.5540  0.2146
 9085SOL    HW138891   4.228   2.112  16.533  2.1835 -3.0730 -1.1721
 9085SOL    HW238892   4.221   2.038  16.406 -0.5566  0.2665 -1.0517
 9086SOL     OW38893   4.434   2.178  14.360  0.5360  0.0622 -0.1882
 9086SOL    HW138894   4.501   2.219  14.415 -0.7722  2.4974 -0.3898
 9086SOL    HW238895   4.369   2.248  14.363 -0.1927 -0.5764 -1.0722
 9087SOL     OW38896   2.220   0.107   5.481  0.3977 -0.0176 -0.6050
 9087SOL    HW138897   2.270   0.172   5.530  1.2463 -2.4984  1.8434
 9087SOL    HW238898   2.261   0.023   5.500  0.4626  0.6357  2.2036
 9088SOL     OW38899   3.586   4.665   3.570 -0.1171  0.6296 -0.0284
 9088SOL    HW138900   3.616   4.596   3.629 -0.0500 -0.4821 -1.3471
 9088SOL    HW238901   3.632   4.637   3.491 -2.0393 -2.3892 -0.0757
 9089SOL     OW38902   1.963   0.746   3.064 -0.6909 -0.7182  0.3981
 9089SOL    HW138903   1.988   0.718   3.152 -0.9698  1.8702  1.3089
 9089SOL    HW238904   1.915   0.668   3.037  1.9496 -1.9293 -0.8201
 9090SOL     OW38905   2.084   3.088   6.571 -0.1656 -0.2668  0.4238
 9090SOL    HW138906   1.995   3.083   6.605  0.5194 -1.6565  2.0483
 9090SOL    HW238907   2.078   3.116   6.480  0.2683 -1.7902 -0.0685
 9091SOL     OW38908   3.208   2.434   5.979 -0.0934  0.0539 -0.0077
 9091SOL    HW138909   3.241   2.522   5.995 -2.0654  0.9336 -0.9079
 9091SOL    HW238910   3.286   2.397   5.938 -1.1596 -0.0456 -1.9178
 9092SOL     OW38911   0.290   1.730   4.060  0.3193 -0.7435  0.3974
 9092SOL    HW138912   0.242   1.745   4.142  1.0736  0.0372  0.6943
 9092SOL    HW238913   0.220   1.745   3.996 -0.0218 -0.0833  0.9209
 9093SOL     OW38914   3.168   0.344  14.121  0.3206 -0.8854  0.4189
 9093SOL    HW138915   3.182   0.302  14.036  0.2115  0.8936 -0.4893
 9093SOL    HW238916   3.202   0.272  14.173  1.7677  0.2599  1.0598
 9094SOL     OW38917   2.715   1.524   4.790 -0.0834  0.1681  0.2224
 9094SOL    HW138918   2.758   1.504   4.707 -0.3791 -1.5043  0.4543
 9094SOL    HW238919   2.793   1.549   4.839  0.1110 -3.1189  1.6657
 9095SOL     OW38920   1.054   3.429  15.244 -0.3600  0.3240  0.4161
 9095SOL    HW138921   1.038   3.344  15.203 -0.6735 -0.1631  1.5442
 9095SOL    HW238922   1.141   3.412  15.281 -0.3677  1.8993  1.2044
 9096SOL     OW38923   4.536   4.383   4.594  0.2317  0.1653 -0.1727
 9096SOL    HW138924   4.570   4.353   4.678 -0.4250  1.3840  0.5232
 9096SOL    HW238925   4.448   4.414   4.616  0.2705 -0.9335  1.4821
 9097SOL     OW38926   2.845   4.688   7.681 -0.2593  0.1080 -0.1463
 9097SOL    HW138927   2.891   4.704   7.598  3.3895 -0.0875  1.7967
 9097SOL    HW238928   2.910   4.637   7.729 -1.0121 -0.5886  0.1152
 9098SOL     OW38929   1.942   2.145   2.240  0.2097 -0.3385 -0.1930
 9098SOL    HW138930   1.888   2.154   2.318 -0.1993 -0.0891 -0.5109
 9098SOL    HW238931   1.943   2.050   2.249  0.0832 -0.0911  2.4135
 9099SOL     OW38932   1.890   2.936  11.135 -1.0977  0.5371  0.2302
 9099SOL    HW138933   1.947   2.947  11.212  2.4340 -0.0402 -2.3221
 9099SOL    HW238934   1.825   2.879  11.176 -0.8718  0.1464  0.0406
 9100SOL     OW38935   3.536   2.946   9.105 -0.2827  0.2032 -0.1426
 9100SOL    HW138936   3.473   2.880   9.077  1.7756 -1.7350 -0.2264
 9100SOL    HW238937   3.598   2.886   9.146  2.0758  1.6251 -1.6020
 9101SOL     OW38938   4.255   2.373  11.208  0.2251 -0.3883  0.1475
 9101SOL    HW138939   4.221   2.452  11.165  1.1151 -0.4274 -0.6444
 9101SOL    HW238940   4.233   2.305  11.145  0.0606 -1.7428  1.6802
 9102SOL     OW38941   1.104   4.309   5.822 -0.1035 -0.0196  0.2473
 9102SOL    HW138942   1.049   4.232   5.812 -1.1187  0.3188  3.2881
 9102SOL    HW238943   1.096   4.324   5.916  2.7577 -0.0356  0.4951
 9103SOL     OW38944   1.504   1.839   7.841 -0.1143 -0.5290  0.3510
 9103SOL    HW138945   1.421   1.868   7.880  0.9426  3.2295 -0.1550
 9103SOL    HW238946   1.569   1.892   7.888  1.0374 -0.5823 -1.2072
 9104SOL     OW38947   3.947   0.879   6.319  0.0722 -0.5195  0.4408
 9104SOL    HW138948   3.935   0.942   6.248  0.8985  0.9743  1.6178
 9104SOL    HW238949   3.919   0.795   6.283  0.7832 -1.1577  1.3733
 9105SOL     OW38950   3.982   1.079   0.172 -0.8439  0.7642 -0.1268
 9105SOL    HW138951   3.955   1.155   0.120 -0.5214  1.5873  0.9289
 9105SOL    HW238952   3.933   1.008   0.128  1.3261 -0.8078  0.0091
 9106SOL     OW38953   0.861   1.176  15.080 -0.2302 -0.1182 -0.2808
 9106SOL    HW138954   0.928   1.244  15.068  0.6413 -0.8876  0.2197
 9106SOL    HW238955   0.899   1.120  15.148  0.6665 -1.8700 -2.2193
 9107SOL     OW38956   1.047   2.374   5.880 -0.1806  0.6277 -0.4312
 9107SOL    HW138957   1.130   2.331   5.901 -0.3868  0.3916 -0.1017
 9107SOL    HW238958   1.071   2.392   5.790  2.7602 -1.4773 -0.0480
 9108SOL     OW38959   2.699   2.177   3.235  0.2325 -0.0330  0.5779
 9108SOL    HW138960   2.666   2.267   3.230 -0.2338 -0.2302  0.0592
 9108SOL    HW238961   2.706   2.163   3.330 -1.3766  1.1491  0.8754
 9109SOL     OW38962   1.260   0.387   2.597  0.1703  0.5820 -0.0840
 9109SOL    HW138963   1.273   0.432   2.514  0.8356  1.8515  0.7015
 9109SOL    HW238964   1.298   0.301   2.584  1.1294  1.2220 -1.4794
 9110SOL     OW38965   4.606   0.571   8.786  0.1627 -0.0804 -0.1813
 9110SOL    HW138966   4.567   0.589   8.700 -0.0819  0.2025 -0.0123
 9110SOL    HW238967   4.662   0.499   8.757  0.7567 -0.0818  0.9522
 9111SOL     OW38968   3.981   3.959   3.065 -0.2529 -0.4061 -0.1791
 9111SOL    HW138969   3.993   3.994   3.153  2.5986 -1.9982  0.0626
 9111SOL    HW238970   3.992   3.866   3.083 -1.5378 -0.7672 -1.2667
 9112SOL     OW38971   3.648   3.072   6.307 -0.1692  0.0132  0.5667
 9112SOL    HW138972   3.566   3.106   6.270  0.5355 -0.7488 -1.7380
 9112SOL    HW238973   3.638   2.984   6.270  0.3666  1.4907 -3.0999
 9113SOL     OW38974   4.573   4.169   7.687 -0.2664 -0.5017  0.4797
 9113SOL    HW138975   4.524   4.219   7.752 -0.4871  1.5632 -1.2831
 9113SOL    HW238976   4.637   4.145   7.754  0.7095 -0.0047 -0.2882
 9114SOL     OW38977   3.272   1.655   7.964  0.3475  0.0065  0.3755
 9114SOL    HW138978   3.344   1.663   8.027 -0.9876  2.7382  1.5181
 9114SOL    HW238979   3.278   1.741   7.923 -1.4956  0.5924  1.3313
 9115SOL     OW38980   1.532   2.279   3.595 -0.0173 -0.1946 -0.1993
 9115SOL    HW138981   1.616   2.286   3.639  0.1281  0.7356 -0.6278
 9115SOL    HW238982   1.541   2.195   3.550  1.0497 -0.3012  0.2176
 9116SOL     OW38983   1.661   0.948   9.376 -0.0963 -0.4034  0.3232
 9116SOL    HW138984   1.691   0.882   9.313 -1.8023  0.0652 -0.9778
 9116SOL    HW238985   1.568   0.927   9.384  0.3031 -2.6256 -0.9228
 9117SOL     OW38986   1.563   3.303  13.827 -0.1622 -0.1693 -0.4766
 9117SOL    HW138987   1.623   3.364  13.870  1.4612 -2.8567  1.0684
 9117SOL    HW238988   1.563   3.334  13.737  2.2345  0.6820 -0.1736
 9118SOL     OW38989   1.192   0.100  15.064 -0.5886 -0.0718 -0.4071
 9118SOL    HW138990   1.146   0.110  14.981  1.3282  0.5019 -1.3837
 9118SOL    HW238991   1.163   0.014  15.095  2.3919  0.3133  3.4436
 9119SOL     OW38992   2.027   2.424  16.750  0.2857  0.1094  0.0210
 9119SOL    HW138993   2.070   2.466  16.675 -0.6344 -2.1235 -1.7699
 9119SOL    HW238994   1.996   2.506  16.789 -0.2453 -0.8344  1.5748
 9120SOL     OW38995   0.331   3.261  12.434 -0.0166  0.2918  0.2188
 9120SOL    HW138996   0.270   3.299  12.497 -1.0842 -0.6492 -0.2539
 9120SOL    HW238997   0.292   3.306  12.359 -0.8268  0.1925  0.5772
 9121SOL     OW38998   0.875   1.418   6.655  0.1437 -0.2755 -0.6390
 9121SOL    HW138999   0.864   1.325   6.633 -1.1630 -0.5039  1.0790
 9121SOL    HW239000   0.922   1.451   6.578 -2.0409  1.0049 -1.3968
 9122SOL     OW39001   0.554   1.491   8.933  0.6497  0.2309 -0.1593
 9122SOL    HW139002   0.604   1.412   8.915  0.5554 -0.1050  1.0641
 9122SOL    HW239003   0.594   1.549   8.869 -2.2978  0.2369 -1.9988
 9123SOL     OW39004   0.057   2.513   4.786 -0.4044 -0.1473 -0.2145
 9123SOL    HW139005   0.052   2.424   4.821  1.5606 -0.5294 -0.9244
 9123SOL    HW239006   0.150   2.513   4.764 -0.3431 -1.5564  0.0267
 9124SOL     OW39007   4.314   0.561  11.652  0.1833  0.1050 -0.1993
 9124SOL    HW139008   4.222   0.538  11.635 -0.0499  0.5696  0.4200
 9124SOL    HW239009   4.360   0.573  11.569 -1.0155  1.7633 -0.6146
 9125SOL     OW39010   2.292   0.449   3.071  0.0772  0.1216 -0.8315
 9125SOL    HW139011   2.267   0.366   3.113  0.5180 -0.6916 -2.1521
 9125SOL    HW239012   2.297   0.502   3.151 -1.3624  2.7559 -2.4917
 9126SOL     OW39013   2.013   4.375  15.063  0.5181  0.3385  0.2641
 9126SOL    HW139014   2.098   4.330  15.068  0.1201 -0.3239  1.0634
 9126SOL    HW239015   1.995   4.388  14.970 -1.7143  0.8619  0.7691
 9127SOL     OW39016   3.970   0.067   6.608  0.3136 -0.5612 -0.2561
 9127SOL    HW139017   3.899   0.014   6.572 -0.2183 -0.7458  1.0289
 9127SOL    HW239018   4.033   4.730   6.608 -0.9734 -1.7166 -0.0539
 9128SOL     OW39019   0.975   2.786   4.730 -0.0759 -0.1852 -0.7467
 9128SOL    HW139020   0.895   2.745   4.763  1.4601 -1.9949  0.7044
 9128SOL    HW239021   0.992   2.853   4.796  1.6181 -0.8601 -0.5206
 9129SOL     OW39022   2.935   0.381   4.921 -0.3685  0.3262  0.0420
 9129SOL    HW139023   2.998   0.362   4.991 -3.3691  0.1931  2.7449
 9129SOL    HW239024   2.901   0.459   4.965  0.5161  0.4656  0.4724
 9130SOL     OW39025   4.225   3.143   6.161  0.1013 -0.5746 -0.0330
 9130SOL    HW139026   4.220   3.235   6.190 -0.6590 -0.9296  0.9776
 9130SOL    HW239027   4.264   3.102   6.239 -0.8888  1.0183  1.3231
 9131SOL     OW39028   2.665   1.474  15.834 -0.2799 -0.0782  0.3003
 9131SOL    HW139029   2.591   1.535  15.827 -0.1270 -0.2110 -2.5952
 9131SOL    HW239030   2.687   1.494  15.925 -0.6893  0.2661  0.3277
 9132SOL     OW39031   2.133   2.417   7.706 -0.8070 -0.3622 -0.0852
 9132SOL    HW139032   2.190   2.347   7.673 -0.2792  0.8098 -1.6454
 9132SOL    HW239033   2.048   2.373   7.718 -1.6073  1.2737  0.1283
 9133SOL     OW39034   0.390   4.520   7.876  0.0736  0.3608  0.0685
 9133SOL    HW139035   0.338   4.474   7.942  0.4327 -0.9149 -0.5404
 9133SOL    HW239036   0.475   4.517   7.919 -0.1575  2.8120  0.6690
 9134SOL     OW39037   4.244   3.856   3.410 -0.5571 -0.0116  0.4085
 9134SOL    HW139038   4.313   3.916   3.438 -0.6254  0.0497  0.4442
 9134SOL    HW239039   4.183   3.925   3.383  0.9703 -0.5951 -4.4866
 9135SOL     OW39040   3.837   3.267  11.702 -0.4796  0.2472 -0.1626
 9135SOL    HW139041   3.798   3.337  11.649  0.1810  0.6999 -0.0464
 9135SOL    HW239042   3.925   3.247  11.670 -0.0561  0.1293  1.0859
 9136SOL     OW39043   1.862   3.665   3.928 -0.4504 -0.1677 -0.0425
 9136SOL    HW139044   1.899   3.580   3.906  1.2808 -0.2434  3.1907
 9136SOL    HW239045   1.934   3.727   3.920 -1.1222  0.3644 -1.9664
 9137SOL     OW39046   1.656   1.398   2.167 -0.4202 -0.3408  0.3850
 9137SOL    HW139047   1.691   1.314   2.196  0.3769  0.2535  1.1023
 9137SOL    HW239048   1.712   1.466   2.204 -1.7885  1.2054 -0.3664
 9138SOL     OW39049   1.616   4.265   1.891  0.2082 -0.4167 -0.1644
 9138SOL    HW139050   1.652   4.341   1.845  0.8526  0.1228  1.2525
 9138SOL    HW239051   1.560   4.235   1.819 -0.1598 -1.5256  0.5876
 9139SOL     OW39052   2.003   1.096   8.161 -0.4980  0.1386  0.4336
 9139SOL    HW139053   1.939   1.128   8.224  0.0046  1.6923  0.1528
 9139SOL    HW239054   2.088   1.133   8.187 -0.8283  1.1656  0.0607
 9140SOL     OW39055   4.240   4.621  13.049 -0.6214 -0.0462  0.1740
 9140SOL    HW139056   4.283   4.572  13.119  0.0047  1.3940  0.8019
 9140SOL    HW239057   4.195   4.696  13.089  0.5308 -0.7791  2.7977
 9141SOL     OW39058   2.260   3.410   4.187 -0.6846  0.3570 -0.4389
 9141SOL    HW139059   2.170   3.421   4.155 -0.4308  0.2070 -1.2002
 9141SOL    HW239060   2.277   3.317   4.171  2.0111  0.4280  1.9699
 9142SOL     OW39061   1.714   2.067  16.547  0.0859  0.2808 -0.1833
 9142SOL    HW139062   1.699   1.991  16.604  0.9511  0.2163 -0.0437
 9142SOL    HW239063   1.740   2.129  16.615 -2.5249  0.8369  0.3183
 9143SOL     OW39064   2.783   0.988   3.767 -0.0019  0.0759  0.0169
 9143SOL    HW139065   2.803   0.927   3.838  2.2748  1.2887  0.4382
 9143SOL    HW239066   2.846   1.056   3.790  1.0085 -0.3007 -1.6417
 9144SOL     OW39067   0.014   1.383   4.076  0.2806  0.0378  0.5849
 9144SOL    HW139068   4.725   1.462   4.027 -0.6654 -0.5274  0.1175
 9144SOL    HW239069   0.045   1.417   4.159 -0.8525  0.7977  0.6887
 9145SOL     OW39070   2.050   1.675   9.187 -0.4490  0.1330 -0.1349
 9145SOL    HW139071   1.976   1.697   9.244  0.0779  0.6914  0.3318
 9145SOL    HW239072   2.099   1.756   9.193  0.8427 -0.4229 -3.1496
 9146SOL     OW39073   3.441   4.026   1.867  0.4029  0.3049  0.5873
 9146SOL    HW139074   3.522   4.035   1.918  1.2169  1.3715 -0.8822
 9146SOL    HW239075   3.463   4.056   1.779  0.2875 -0.3133  0.3465
 9147SOL     OW39076   1.428   2.174   8.204 -0.6282  0.0303 -0.2385
 9147SOL    HW139077   1.425   2.118   8.281  0.6965 -1.4746 -1.2635
 9147SOL    HW239078   1.458   2.105   8.145 -1.2112 -1.9380  1.7934
 9148SOL     OW39079   3.249   3.108   8.795 -0.3750 -0.5608  0.3412
 9148SOL    HW139080   3.241   3.103   8.890 -1.6418 -1.6338  0.1836
 9148SOL    HW239081   3.162   3.104   8.754  0.1543  1.1435 -0.9558
 9149SOL     OW39082   4.054   3.150  12.760 -0.5426 -0.1683  0.1318
 9149SOL    HW139083   4.117   3.100  12.811  0.6197 -0.6154 -1.7168
 9149SOL    HW239084   3.978   3.138  12.817 -0.1199  0.8869  0.8981
 9150SOL     OW39085   2.178   3.207   0.704  0.1032 -0.1963 -0.1487
 9150SOL    HW139086   2.271   3.228   0.704 -0.6993  3.2551  0.4070
 9150SOL    HW239087   2.175   3.111   0.695  1.7689 -0.3087  0.5283
 9151SOL     OW39088   2.108   0.262   1.540 -0.3405  0.3611  0.1811
 9151SOL    HW139089   2.061   0.303   1.612  1.4822  0.5906  1.2365
 9151SOL    HW239090   2.044   0.209   1.493 -0.7167  0.2251  0.8504
 9152SOL     OW39091   0.363   1.092   5.117 -0.0683 -0.8704  0.1674
 9152SOL    HW139092   0.397   1.003   5.109 -0.3468 -1.0830  1.3181
 9152SOL    HW239093   0.339   1.085   5.209 -3.1055  1.5903 -0.4104
 9153SOL     OW39094   3.331   1.191  14.430 -0.3918 -0.0214 -0.0176
 9153SOL    HW139095   3.333   1.266  14.371 -2.4474  0.4842  0.5339
 9153SOL    HW239096   3.259   1.144  14.386  0.8531 -1.3304 -0.6633
 9154SOL     OW39097   1.196   2.016   2.857 -0.0741 -0.3790  0.6486
 9154SOL    HW139098   1.199   1.939   2.801 -1.1591  1.0930 -1.4233
 9154SOL    HW239099   1.190   1.975   2.944 -1.1975  0.1556  0.8266
 9155SOL     OW39100   1.237   1.297   4.351  0.1561  0.3371 -0.0681
 9155SOL    HW139101   1.203   1.334   4.433  0.9846 -0.6511  0.7246
 9155SOL    HW239102   1.312   1.354   4.339 -0.4034  1.1628  0.4036
 9156SOL     OW39103   0.104   1.501   1.999 -0.5348  0.2549  0.5265
 9156SOL    HW139104   0.058   1.581   2.024 -1.3281 -0.9488  2.9307
 9156SOL    HW239105   0.031   1.446   1.972 -0.6014  0.5248  0.1461
 9157SOL     OW39106   0.361   4.357  13.690  0.4079 -0.0289 -0.7925
 9157SOL    HW139107   0.341   4.444  13.655 -1.5203 -0.1320  0.0668
 9157SOL    HW239108   0.315   4.305  13.625 -0.9661  0.0545  0.1166
 9158SOL     OW39109   0.824   2.072   7.464  1.0709 -0.1859  0.1053
 9158SOL    HW139110   0.777   2.011   7.406 -0.0346  0.0140  0.7904
 9158SOL    HW239111   0.802   2.034   7.549 -0.0662  2.5208  1.0091
 9159SOL     OW39112   1.577   0.710  12.350 -0.2111  0.0723  0.3273
 9159SOL    HW139113   1.594   0.800  12.321  0.5147  0.1454  0.9766
 9159SOL    HW239114   1.504   0.688  12.293  0.3107  2.0564 -1.1138
 9160SOL     OW39115   0.793   2.111  12.169  0.6006 -0.1867  0.2513
 9160SOL    HW139116   0.843   2.132  12.090  0.2449 -0.7452 -0.1171
 9160SOL    HW239117   0.849   2.160  12.230 -0.7345  1.0750  0.4593
 9161SOL     OW39118   0.897   4.334  13.268  0.3459 -0.4704  0.2404
 9161SOL    HW139119   0.939   4.403  13.217  0.1050  0.2034  0.9642
 9161SOL    HW239120   0.967   4.314  13.329  0.3798 -2.0602 -0.3156
 9162SOL     OW39121   3.823   1.913   6.951  0.7225 -0.3538 -0.1177
 9162SOL    HW139122   3.885   1.909   6.879  1.0170 -0.1882  0.1289
 9162SOL    HW239123   3.876   1.941   7.025  2.0576  1.0032 -1.5909
 9163SOL     OW39124   2.178   0.166   3.195 -0.3379 -0.3697 -0.0223
 9163SOL    HW139125   2.100   0.212   3.166 -0.2349  1.0891  2.0248
 9163SOL    HW239126   2.188   0.119   3.112  1.0567  1.3362 -0.8461
 9164SOL     OW39127   1.000   3.433   7.550  0.4395  0.0454  0.0174
 9164SOL    HW139128   0.969   3.405   7.464 -2.4249 -0.9020  1.3606
 9164SOL    HW239129   1.029   3.352   7.593  0.3846 -0.6314 -1.2483
 9165SOL     OW39130   0.745   2.400   8.661  0.2739 -0.3218 -0.0648
 9165SOL    HW139131   0.833   2.376   8.691  1.3178  0.3888 -2.5844
 9165SOL    HW239132   0.765   2.493   8.651 -2.5263  0.3816  0.9849
 9166SOL     OW39133   0.561   1.673   0.012  0.1661 -1.1268 -0.1833
 9166SOL    HW139134   0.466   1.672  17.734  0.0050 -0.4605  0.9084
 9166SOL    HW239135   0.565   1.636   0.100 -0.5186  0.0765  0.3567
 9167SOL     OW39136   4.061   2.552   4.829 -0.1095  0.2259 -0.0750
 9167SOL    HW139137   4.130   2.507   4.781  0.6063  2.1767 -0.8916
 9167SOL    HW239138   4.059   2.509   4.914 -0.7065  0.5111  0.0525
 9168SOL     OW39139   2.120   4.546   3.359  0.4680 -0.7562 -0.3256
 9168SOL    HW139140   2.196   4.575   3.307 -0.2941  1.3092 -0.2787
 9168SOL    HW239141   2.105   4.618   3.420 -0.0039 -0.2812 -1.0062
 9169SOL     OW39142   4.167   0.674   6.951 -0.2083 -0.1228 -0.4257
 9169SOL    HW139143   4.254   0.634   6.949 -0.5753 -1.0248  1.7727
 9169SOL    HW239144   4.187   0.763   6.921 -3.2183  0.5940 -0.2293
 9170SOL     OW39145   2.643   3.129   4.322  0.2346  0.0047  0.4435
 9170SOL    HW139146   2.653   3.220   4.295 -0.6030  0.0531  0.2944
 9170SOL    HW239147   2.552   3.147   4.349 -0.2731  0.9063 -1.9069
 9171SOL     OW39148   1.606   2.537   5.612  0.5460 -0.0099  0.2605
 9171SOL    HW139149   1.682   2.488   5.582 -1.1962 -1.9226 -0.9918
 9171SOL    HW239150   1.540   2.511   5.547  1.1015 -5.1653  1.8201
 9172SOL     OW39151   0.115   3.766   8.194  0.3006  0.1638  0.1219
 9172SOL    HW139152   0.115   3.813   8.278 -2.4156  0.1024  0.1579
 9172SOL    HW239153   0.119   3.674   8.220  0.1103 -0.5994 -2.5998
 9173SOL     OW39154   1.610   0.791   3.185 -0.3686 -0.1803  0.1560
 9173SOL    HW139155   1.554   0.726   3.142 -1.5223  0.6017  0.4785
 9173SOL    HW239156   1.557   0.819   3.260  0.4437  0.4085  0.5005
 9174SOL     OW39157   2.154   2.083   8.004  0.1002  0.1631 -0.4615
 9174SOL    HW139158   2.133   2.077   8.097 -0.1616 -0.4758 -0.5638
 9174SOL    HW239159   2.167   2.178   8.006 -0.3721  0.2252 -0.2557
 9175SOL     OW39160   2.414   2.210   3.626 -0.2573 -0.0115 -0.2173
 9175SOL    HW139161   2.406   2.115   3.622  0.6777 -0.0660 -0.7212
 9175SOL    HW239162   2.424   2.214   3.721 -0.1073  0.4692 -0.2515
 9176SOL     OW39163   4.284   3.719   4.269 -0.0616  0.5841 -0.0510
 9176SOL    HW139164   4.199   3.726   4.313 -0.4526 -0.3881 -0.6468
 9176SOL    HW239165   4.332   3.664   4.331 -0.8503  0.1622  0.1899
 9177SOL     OW39166   2.421   0.643  16.318  0.1093 -0.2428 -0.4037
 9177SOL    HW139167   2.401   0.731  16.286  2.0790  0.2710 -0.2270
 9177SOL    HW239168   2.512   0.629  16.290  0.9960  2.9889  0.8748
 9178SOL     OW39169   1.240   2.063   6.479  0.0286 -0.2907 -0.0632
 9178SOL    HW139170   1.259   2.035   6.569  0.0119  1.4259  0.4657
 9178SOL    HW239171   1.327   2.074   6.441  0.0447  1.3257  0.4469
 9179SOL     OW39172   2.951   0.246   8.666  0.1273 -0.5217  0.3515
 9179SOL    HW139173   2.983   0.207   8.747  1.1225 -1.0797 -0.3137
 9179SOL    HW239174   2.916   0.167   8.625 -0.5655  0.5811 -1.2026
 9180SOL     OW39175   1.264   0.776   5.924  0.4645  0.2077  0.5530
 9180SOL    HW139176   1.203   0.787   5.851 -1.3819 -0.0101  2.0774
 9180SOL    HW239177   1.301   0.691   5.899 -2.1327 -0.5585 -0.7020
 9181SOL     OW39178   0.096   0.788   5.618  0.1486  0.4362 -0.1084
 9181SOL    HW139179   0.096   0.701   5.658  0.0553  1.1549  1.4355
 9181SOL    HW239180   0.119   0.755   5.531 -2.0183 -3.6318  0.8747
 9182SOL     OW39181   4.033   4.117  14.825 -0.1177  0.1786 -0.3877
 9182SOL    HW139182   4.053   4.062  14.901 -1.6776 -1.8156 -1.4118
 9182SOL    HW239183   4.093   4.076  14.763  1.4591  2.6661 -0.4951
 9183SOL     OW39184   3.866   3.316  13.601  0.2186 -0.3638  0.5585
 9183SOL    HW139185   3.945   3.356  13.638 -0.6479  0.2078  1.8286
 9183SOL    HW239186   3.796   3.315  13.667 -0.0577 -0.4804  0.2588
 9184SOL     OW39187   0.806   4.056   3.604 -0.7679  0.5217 -0.7104
 9184SOL    HW139188   0.855   4.068   3.523  0.8631  0.7221  0.3165
 9184SOL    HW239189   0.860   4.000   3.659 -1.0624  1.0807  0.1547
 9185SOL     OW39190   4.498   2.520   8.168  0.0401  0.0581 -0.0266
 9185SOL    HW139191   4.439   2.570   8.110 -0.2357 -1.1860 -0.8165
 9185SOL    HW239192   4.486   2.436   8.125  0.5331 -1.2842  2.4876
 9186SOL     OW39193   1.061   1.331   8.954  0.7665  0.4782  0.6059
 9186SOL    HW139194   1.107   1.278   8.889  0.1886  1.1834 -0.3679
 9186SOL    HW239195   0.983   1.352   8.903  1.7896 -0.9754 -1.5888
 9187SOL     OW39196   0.416   1.749  16.770  0.1133  0.5784  0.8686
 9187SOL    HW139197   0.333   1.785  16.803 -1.5890 -1.1010 -1.6219
 9187SOL    HW239198   0.479   1.785  16.832 -1.9828  1.3995  2.5105
 9188SOL     OW39199   1.990   2.641   7.554  0.0033 -0.7247 -0.1617
 9188SOL    HW139200   2.073   2.636   7.601  1.5638  1.9381 -2.5953
 9188SOL    HW239201   1.927   2.644   7.626 -1.8422 -0.5628 -1.7657
 9189SOL     OW39202   0.265   1.294  14.776  0.4653 -0.2980 -0.1029
 9189SOL    HW139203   0.231   1.234  14.843 -0.0668  1.1429  0.8981
 9189SOL    HW239204   0.191   1.343  14.742  1.6752  1.0093 -0.8211
 9190SOL     OW39205   3.961   3.256   3.009 -0.8043  0.3168  0.7192
 9190SOL    HW139206   3.893   3.188   3.009 -1.3834  0.8920 -0.4220
 9190SOL    HW239207   3.970   3.276   3.102  0.1577  0.1104  0.6773
 9191SOL     OW39208   1.523   1.728   6.003  0.1828  0.4254  0.0195
 9191SOL    HW139209   1.518   1.747   5.909 -6.4156  2.8715  0.8841
 9191SOL    HW239210   1.487   1.810   6.036  0.7595  0.1402  1.3687
 9192SOL     OW39211   2.102   2.685   4.362  0.0911 -0.0812  0.1259
 9192SOL    HW139212   2.177   2.697   4.304 -0.1350 -1.3311 -0.4241
 9192SOL    HW239213   2.145   2.702   4.446  0.5459  1.4371 -0.4160
 9193SOL     OW39214   1.323   0.548   8.540  0.0520  0.1261  0.0068
 9193SOL    HW139215   1.363   0.633   8.523  1.9061 -0.5395  1.0373
 9193SOL    HW239216   1.266   0.538   8.463 -1.0334  0.1884  0.8067
 9194SOL     OW39217   0.903   1.583   8.133 -0.2820 -0.6972  0.2332
 9194SOL    HW139218   0.982   1.617   8.092  0.2252 -1.5427  0.5072
 9194SOL    HW239219   0.926   1.577   8.225  2.0824 -2.4157 -0.4775
 9195SOL     OW39220   1.576   1.171  15.534  0.0844 -0.1300  0.4186
 9195SOL    HW139221   1.517   1.103  15.504 -0.5437  0.1126  1.0857
 9195SOL    HW239222   1.520   1.227  15.588 -1.6530 -0.2708 -1.2285
 9196SOL     OW39223   3.631   4.243   3.559  0.1162 -0.4260  0.6256
 9196SOL    HW139224   3.580   4.321   3.579  0.0263 -0.4109  0.3402
 9196SOL    HW239225   3.703   4.276   3.505 -0.4765 -0.9919 -0.5155
 9197SOL     OW39226   0.474   1.580   2.794 -0.4083 -0.8351 -0.1609
 9197SOL    HW139227   0.463   1.573   2.888  1.0114 -0.8397  0.0072
 9197SOL    HW239228   0.383   1.582   2.766 -0.6695 -0.0195  0.7821
 9198SOL     OW39229   2.808   0.115   4.086  0.0856 -0.2889  0.6636
 9198SOL    HW139230   2.892   0.131   4.045 -0.3370 -3.1951 -1.3310
 9198SOL    HW239231   2.751   0.169   4.031  0.1408  2.1351  2.9701
 9199SOL     OW39232   0.051   4.268  13.904  0.0403 -0.2077 -0.0163
 9199SOL    HW139233   0.049   4.349  13.853  1.6837  0.7942  1.4765
 9199SOL    HW239234   0.087   4.211  13.836 -2.3801 -0.5479 -0.9960
 9200SOL     OW39235   0.540   2.806   7.150  0.3016  0.6504 -0.5481
 9200SOL    HW139236   0.550   2.715   7.176 -1.8947  0.9515  1.3439
 9200SOL    HW239237   0.499   2.829   7.233  0.2310 -0.4973 -0.2758
 9201SOL     OW39238   2.197   3.138   4.336  0.4121 -0.1694 -0.1958
 9201SOL    HW139239   2.209   3.152   4.242  0.0226  0.9782 -0.0726
 9201SOL    HW239240   2.103   3.119   4.340  0.3246  0.4473  0.6066
 9202SOL     OW39241   2.784   0.821  15.105  0.0149  0.3616  0.1330
 9202SOL    HW139242   2.814   0.910  15.083  2.4988 -1.1903 -2.7855
 9202SOL    HW239243   2.714   0.817  15.040  0.6197  0.3382 -0.5249
 9203SOL     OW39244   3.814   2.883  11.078  0.1043  0.3159  0.0677
 9203SOL    HW139245   3.900   2.847  11.057  0.1575  0.8344 -0.5649
 9203SOL    HW239246   3.780   2.907  10.992  0.7289 -0.6259 -0.4549
 9204SOL     OW39247   3.015   0.860   3.069 -0.0712  0.4078  0.4709
 9204SOL    HW139248   2.939   0.917   3.056 -1.8977 -2.2307 -0.2919
 9204SOL    HW239249   2.974   0.774   3.068 -0.9020  0.8529 -2.0669
 9205SOL     OW39250   4.375   4.486   5.610 -0.1041 -0.0449 -0.1361
 9205SOL    HW139251   4.417   4.420   5.664  0.4833  0.7240  0.3367
 9205SOL    HW239252   4.397   4.459   5.520  0.2628 -2.1425  0.5788
 9206SOL     OW39253   3.212   0.089   0.837  0.2922 -0.3857 -0.0573
 9206SOL    HW139254   3.166   0.128   0.763 -0.0616 -1.3340 -0.3274
 9206SOL    HW239255   3.284   0.151   0.853  2.2056 -3.2083  2.3371
 9207SOL     OW39256   0.956   2.316   7.414  0.2602  0.6159  0.7360
 9207SOL    HW139257   0.924   2.226   7.407  1.5781  0.2274 -0.4034
 9207SOL    HW239258   0.924   2.345   7.499 -2.3393 -1.4408  0.4701
 9208SOL     OW39259   1.183   0.890  13.401 -0.0218  0.4610  0.0480
 9208SOL    HW139260   1.279   0.887  13.410  0.0628  0.9077 -0.7826
 9208SOL    HW239261   1.180   0.983  13.425  0.5718  0.5456 -0.1956
 9209SOL     OW39262   2.392   4.208  10.419  0.0193  0.0168 -0.2549
 9209SOL    HW139263   2.326   4.218  10.488  1.5773 -0.2099  1.2532
 9209SOL    HW239264   2.423   4.298  10.419 -0.4081  0.1642 -1.3920
 9210SOL     OW39265   0.436   3.857   3.376 -0.5877  0.5136  0.5221
 9210SOL    HW139266   0.401   3.789   3.434 -1.4062  0.6378  0.1609
 9210SOL    HW239267   0.368   3.924   3.379 -0.4052  0.5309  4.4877
 9211SOL     OW39268   2.231   3.002   7.062 -0.4288 -0.1092  0.1954
 9211SOL    HW139269   2.238   3.097   7.056  1.6019 -0.3086 -0.7356
 9211SOL    HW239270   2.138   2.989   7.046 -0.1937 -0.9152 -0.5127
 9212SOL     OW39271   1.127   0.314   7.359 -0.1406 -0.0444  0.5968
 9212SOL    HW139272   1.078   0.327   7.440  1.9252  0.4025  1.7804
 9212SOL    HW239273   1.104   0.392   7.309 -1.3707 -0.1292  1.0411
 9213SOL     OW39274   1.998   1.191   3.896  1.0536  0.0967  0.1082
 9213SOL    HW139275   1.970   1.118   3.841 -0.3082 -0.5680  1.6629
 9213SOL    HW239276   2.060   1.233   3.837 -2.0541  1.3633 -2.3140
 9214SOL     OW39277   1.227   0.400   4.493  0.3817  0.1757  0.1294
 9214SOL    HW139278   1.169   0.342   4.543 -2.0257  1.5826 -1.0183
 9214SOL    HW239279   1.195   0.390   4.403  0.6270  2.1086 -0.1879
 9215SOL     OW39280   3.289   0.493   0.470 -0.3980 -0.8864 -0.4089
 9215SOL    HW139281   3.199   0.518   0.493 -0.6147 -1.2086 -0.9044
 9215SOL    HW239282   3.329   0.510   0.555 -0.7593 -1.3135 -0.1479
 9216SOL     OW39283   2.685   2.837   6.362  0.0941  0.0900 -0.2902
 9216SOL    HW139284   2.731   2.844   6.278 -1.7233 -1.2654 -1.4035
 9216SOL    HW239285   2.689   2.925   6.401  2.5207  0.5180 -1.4491
 9217SOL     OW39286   3.636   3.960   7.582 -0.3129  0.0554 -0.0414
 9217SOL    HW139287   3.636   3.876   7.536  1.1599  0.3992 -0.6954
 9217SOL    HW239288   3.588   4.018   7.522 -1.5476 -1.6598 -0.6850
 9218SOL     OW39289   0.149   3.847  13.249  0.1313 -0.4581  0.5025
 9218SOL    HW139290   0.097   3.925  13.268 -0.4477 -0.8322  0.4618
 9218SOL    HW239291   0.234   3.890  13.240 -1.5043  2.5154 -0.7265
 9219SOL     OW39292   4.143   2.234   7.091 -0.3522  0.9957 -0.2676
 9219SOL    HW139293   4.190   2.204   7.014 -1.5652 -1.1415 -0.1619
 9219SOL    HW239294   4.077   2.166   7.107  0.0985  0.2831 -1.4860
 9220SOL     OW39295   0.851   2.776   6.493  1.2445 -0.5551  0.0651
 9220SOL    HW139296   0.789   2.713   6.529  1.3821 -0.8903 -0.2724
 9220SOL    HW239297   0.843   2.765   6.398 -1.2151  0.2508  0.1894
 9221SOL     OW39298   4.282   2.612  12.578  0.1913  0.1675 -0.1264
 9221SOL    HW139299   4.329   2.693  12.600  0.3915 -0.7906  3.0235
 9221SOL    HW239300   4.270   2.574  12.665 -0.7365 -0.3424 -0.4784
 9222SOL     OW39301   2.207   1.157   9.810  0.0093  0.0651  0.3407
 9222SOL    HW139302   2.118   1.156   9.773  0.3326  2.6339 -0.5144
 9222SOL    HW239303   2.265   1.132   9.738  0.8006  0.0463  0.9945
 9223SOL     OW39304   1.473   0.512  14.283 -0.3233 -0.2150 -0.1205
 9223SOL    HW139305   1.412   0.439  14.268  2.1019 -2.3877  0.6664
 9223SOL    HW239306   1.544   0.467  14.329 -0.9512 -2.4749 -1.3338
 9224SOL     OW39307   0.886   1.131   9.820  0.0709 -0.5085  0.5585
 9224SOL    HW139308   0.959   1.101   9.874 -0.7678 -1.5744  1.1009
 9224SOL    HW239309   0.836   1.174   9.890  1.8561 -0.7832  2.0052
 9225SOL     OW39310   1.633   0.989  17.384 -0.5399  0.2922 -0.2418
 9225SOL    HW139311   1.643   0.903  17.426 -0.2626 -0.2498 -1.4223
 9225SOL    HW239312   1.690   1.036  17.444 -1.5967 -2.4629  2.9161
 9226SOL     OW39313   3.084   4.160   3.862 -0.2926 -0.4319  0.1187
 9226SOL    HW139314   3.088   4.256   3.867 -0.7612 -0.4822  1.2741
 9226SOL    HW239315   3.121   4.134   3.946 -0.6160  1.2132  0.7673
 9227SOL     OW39316   2.468   2.816   6.584  0.3894 -0.2741 -0.0170
 9227SOL    HW139317   2.407   2.805   6.657 -0.1215 -3.1702 -0.8789
 9227SOL    HW239318   2.512   2.732   6.571  0.4281 -0.3184  0.3879
 9228SOL     OW39319   2.379   4.048  14.838  0.3696  0.2975 -0.4277
 9228SOL    HW139320   2.351   3.961  14.868  1.6413  0.4227  1.1440
 9228SOL    HW239321   2.441   4.064  14.909 -1.6395  1.2623  1.0960
 9229SOL     OW39322   1.106   4.495   8.621  0.4191  0.7415  0.0788
 9229SOL    HW139323   1.175   4.429   8.610 -0.9102 -0.9705  1.9724
 9229SOL    HW239324   1.081   4.480   8.712  1.0495  0.4602  0.2043
 9230SOL     OW39325   1.269   4.507  11.888  0.3467  0.0827  0.1105
 9230SOL    HW139326   1.236   4.537  11.972  0.2522 -1.7311  0.7275
 9230SOL    HW239327   1.319   4.427  11.908  0.3577 -0.0923 -0.6200
 9231SOL     OW39328   0.225   0.276   4.792 -0.0034  0.0345  0.2815
 9231SOL    HW139329   0.218   0.238   4.879  1.0036 -0.4921  0.1222
 9231SOL    HW239330   0.198   0.367   4.809  1.6377  0.5808 -0.0410
 9232SOL     OW39331   3.688   2.731  15.402  0.9846  0.4878  0.0710
 9232SOL    HW139332   3.673   2.641  15.431  3.7173 -0.3618 -1.0393
 9232SOL    HW239333   3.721   2.782  15.476 -0.1724  0.9011  0.2906
 9233SOL     OW39334   2.703   2.241   6.675  0.0971 -0.0541  0.5442
 9233SOL    HW139335   2.648   2.271   6.748  1.3363  0.5430  1.2320
 9233SOL    HW239336   2.785   2.216   6.717  0.4568 -0.6370 -0.4987
 9234SOL     OW39337   1.826   4.175  10.140 -0.0298  0.4606 -0.1829
 9234SOL    HW139338   1.895   4.127  10.185  0.0136  0.3111 -0.4077
 9234SOL    HW239339   1.750   4.122  10.165  0.4089 -0.4133 -0.6875
 9235SOL     OW39340   4.559   1.145   5.706  0.2533 -0.0870 -0.1061
 9235SOL    HW139341   4.489   1.114   5.765  1.0621 -0.4869  0.6360
 9235SOL    HW239342   4.549   1.088   5.630 -0.4376  0.2775 -0.2927
 9236SOL     OW39343   1.876   1.120   2.919  0.1180 -0.9501 -0.2633
 9236SOL    HW139344   1.966   1.088   2.928  0.9652  1.4347 -0.1486
 9236SOL    HW239345   1.899   1.213   2.924 -4.2239  0.0330  1.0125
 9237SOL     OW39346   0.376   3.452   5.756 -0.3717 -0.0604  0.4190
 9237SOL    HW139347   0.433   3.443   5.832  1.2959 -0.6932 -0.9208
 9237SOL    HW239348   0.338   3.364   5.763 -3.0537  1.2702  2.4895
 9238SOL     OW39349   3.467   1.464   6.655 -0.1591 -0.5255  0.6441
 9238SOL    HW139350   3.391   1.520   6.666 -0.6654 -1.0462 -0.1934
 9238SOL    HW239351   3.522   1.484   6.731 -2.6956  1.6879  1.9011
 9239SOL     OW39352   3.759   1.676  14.529 -0.0820 -0.2767 -0.3003
 9239SOL    HW139353   3.813   1.597  14.530  0.6199  0.1894 -2.7961
 9239SOL    HW239354   3.827   1.737  14.557 -1.7056  0.8038  1.3238
 9240SOL     OW39355   3.326   3.273   4.711 -0.1816  0.2092  0.1896
 9240SOL    HW139356   3.319   3.285   4.616 -2.5930  1.0728  0.4513
 9240SOL    HW239357   3.369   3.352   4.744  2.0205 -1.0340  0.3061
 9241SOL     OW39358   2.124   3.006   0.372 -0.0111  0.7929  0.5357
 9241SOL    HW139359   2.176   3.000   0.452  0.5467 -0.3548  0.0798
 9241SOL    HW239360   2.196   3.006   0.310  0.5674  1.1201  1.2079
 9242SOL     OW39361   1.254   3.875  13.137 -0.7648  0.1029 -0.7764
 9242SOL    HW139362   1.243   3.818  13.061  0.2039 -0.2645 -0.6381
 9242SOL    HW239363   1.329   3.839  13.184  0.1731  2.5147 -0.3809
 9243SOL     OW39364   3.907   3.775   8.310  0.1876 -0.4484  0.5927
 9243SOL    HW139365   3.889   3.681   8.306 -1.3142 -0.2015  1.2453
 9243SOL    HW239366   3.988   3.779   8.260  0.7339 -2.8712  1.2810
 9244SOL     OW39367   0.347   4.381   9.229 -0.1945  0.0108  0.1970
 9244SOL    HW139368   0.334   4.411   9.319  2.7888 -1.2386  1.0493
 9244SOL    HW239369   0.397   4.301   9.246  2.4298  1.4031 -0.9767
 9245SOL     OW39370   0.330   2.497   4.604 -0.8726  0.1042 -0.1094
 9245SOL    HW139371   0.383   2.521   4.680  0.1229 -3.7583  0.3930
 9245SOL    HW239372   0.376   2.415   4.586  0.0069  0.8408 -1.2983
 9246SOL     OW39373   4.495   3.898  14.656 -0.1724 -0.4021  0.3101
 9246SOL    HW139374   4.421   3.928  14.709 -0.7881  2.1682 -2.0047
 9246SOL    HW239375   4.439   3.871  14.583  1.4264  1.3392 -1.5468
 9247SOL     OW39376   3.193   0.896  16.697 -0.1674  0.2389 -0.3014
 9247SOL    HW139377   3.199   0.915  16.603 -0.0824 -3.2068 -0.9857
 9247SOL    HW239378   3.164   0.806  16.683 -0.4166  0.1467  0.8537
 9248SOL     OW39379   4.173   1.087  14.540  0.1939  0.3159 -0.0674
 9248SOL    HW139380   4.260   1.048  14.534  0.4150  0.0629  4.5015
 9248SOL    HW239381   4.151   1.085  14.633  0.2249  1.7077 -0.0268
 9249SOL     OW39382   4.315   1.166  11.696 -0.2893 -0.7913  0.4960
 9249SOL    HW139383   4.346   1.076  11.693  0.9650 -0.3432 -0.0143
 9249SOL    HW239384   4.312   1.179  11.791 -0.7576 -0.2014  0.3982
 9250SOL     OW39385   1.977   0.906   8.690 -0.0534  0.1929 -1.0151
 9250SOL    HW139386   1.902   0.885   8.634 -0.8687  2.4552 -0.7433
 9250SOL    HW239387   1.961   0.999   8.705 -0.8152 -0.1889  0.4712
 9251SOL     OW39388   3.846   3.409  13.346  0.0330 -0.1616 -0.0433
 9251SOL    HW139389   3.859   3.503  13.351 -1.6338  0.0446  0.3018
 9251SOL    HW239390   3.849   3.376  13.436  1.0120  1.0314  0.3582
 9252SOL     OW39391   0.246   4.078   5.247 -0.1152  0.4469 -0.1374
 9252SOL    HW139392   0.216   4.020   5.177 -1.4435  0.6838  0.2248
 9252SOL    HW239393   0.297   4.143   5.199  0.5873  0.4751  0.6509
 9253SOL     OW39394   3.888   0.525   3.589 -0.2124  0.1998  0.7666
 9253SOL    HW139395   3.865   0.593   3.526  0.0636 -0.7625 -0.3786
 9253SOL    HW239396   3.944   0.467   3.537  0.4305  1.4480  0.0522
 9254SOL     OW39397   1.570   2.209   7.066  0.1630 -0.2699  0.1366
 9254SOL    HW139398   1.648   2.200   7.012  1.2805  2.0743  1.3402
 9254SOL    HW239399   1.560   2.304   7.069 -0.9650 -0.3901  0.0812
 9255SOL     OW39400   2.615   0.950   2.653  0.0505 -0.1056  0.1702
 9255SOL    HW139401   2.702   0.949   2.694  0.2110  0.7369 -0.1433
 9255SOL    HW239402   2.644   0.900   2.576  1.3297  0.3689  0.3353
 9256SOL     OW39403   1.817   4.681   6.566  0.4712 -0.0867 -0.4525
 9256SOL    HW139404   1.814   4.697   6.661  0.6207 -2.8996  0.0317
 9256SOL    HW239405   1.861   4.597   6.554 -0.1672 -0.8693  2.4832
 9257SOL     OW39406   2.936   0.412   5.509  0.4107  0.0294 -1.1536
 9257SOL    HW139407   3.026   0.433   5.485  0.1797  3.1657  0.7965
 9257SOL    HW239408   2.944   0.319   5.532  0.3532  0.5401  0.9459
 9258SOL     OW39409   4.515   3.195  15.105  0.5491  0.1071 -0.2037
 9258SOL    HW139410   4.472   3.160  15.184  1.0261 -2.1189 -0.9336
 9258SOL    HW239411   4.608   3.175  15.113  0.3079 -0.9061  0.0882
 9259SOL     OW39412   1.362   2.736  11.032 -0.2070 -0.4073  0.4321
 9259SOL    HW139413   1.330   2.826  11.021  3.1918  1.1767  3.3376
 9259SOL    HW239414   1.302   2.714  11.103 -0.5685  0.8719  0.5213
 9260SOL     OW39415   3.942   0.166   1.656  0.0610  0.5862  0.5518
 9260SOL    HW139416   3.949   0.226   1.582 -1.0528 -1.8198 -1.5105
 9260SOL    HW239417   3.944   0.081   1.613 -0.0355  0.0306  1.6458
 9261SOL     OW39418   1.340   3.758   4.994 -0.3038  0.0401  0.0196
 9261SOL    HW139419   1.350   3.848   4.964  0.0791  0.3122  0.9463
 9261SOL    HW239420   1.256   3.767   5.039 -0.1574  0.4647  0.2051
 9262SOL     OW39421   4.051   2.334   2.812 -0.7873 -0.4355  0.0785
 9262SOL    HW139422   4.108   2.302   2.742 -0.7821 -0.9342  0.3102
 9262SOL    HW239423   4.118   2.375   2.866 -1.8831  0.4784  0.7404
 9263SOL     OW39424   1.026   2.429  16.902 -0.5993  0.3244  0.1148
 9263SOL    HW139425   1.060   2.346  16.869 -1.0097 -0.4651  1.6542
 9263SOL    HW239426   1.045   2.485  16.827  1.3433 -1.1912 -0.5418
 9264SOL     OW39427   2.303   3.369  11.294  0.4333 -0.6275  0.2808
 9264SOL    HW139428   2.280   3.342  11.383  2.1886 -1.7536  0.3875
 9264SOL    HW239429   2.393   3.399  11.307  0.3031 -0.5444  0.9905
 9265SOL     OW39430   4.264   2.271   2.150  0.0440 -0.7060  0.1826
 9265SOL    HW139431   4.339   2.293   2.096  0.7671 -3.5551  0.0001
 9265SOL    HW239432   4.279   2.330   2.224  0.1709  1.3126 -1.4586
 9266SOL     OW39433   1.774   4.265  15.931 -0.2988 -0.2114  0.0080
 9266SOL    HW139434   1.832   4.189  15.939  1.0609  0.8827  0.5677
 9266SOL    HW239435   1.745   4.270  15.840 -0.6340  0.8171  0.1735
 9267SOL     OW39436   4.243   2.256   7.366 -0.2297 -0.5187 -0.0793
 9267SOL    HW139437   4.233   2.228   7.275 -2.3924 -2.1736  0.6506
 9267SOL    HW239438   4.164   2.216   7.404 -1.8706  1.9670 -0.8599
 9268SOL     OW39439   0.807   4.005   8.832  0.4364 -0.0781  0.5006
 9268SOL    HW139440   0.786   3.913   8.812  0.3778  0.2135 -0.8043
 9268SOL    HW239441   0.857   4.036   8.756  0.6371  3.2830  2.0081
 9269SOL     OW39442   0.717   3.190   8.380  0.0384 -0.3050 -0.2537
 9269SOL    HW139443   0.638   3.142   8.404 -1.1150  2.0242  0.6347
 9269SOL    HW239444   0.790   3.151   8.427 -1.0185 -1.6772  0.2487
 9270SOL     OW39445   4.215   2.765   0.484  0.5014  0.0441  0.0928
 9270SOL    HW139446   4.185   2.753   0.394  0.7885 -2.8535  0.3854
 9270SOL    HW239447   4.183   2.691   0.536  0.3600  0.1039  0.0927
 9271SOL     OW39448   2.803   1.454   4.536  0.0205  0.2788 -0.2105
 9271SOL    HW139449   2.818   1.518   4.467  2.2658 -1.6240 -1.4759
 9271SOL    HW239450   2.783   1.373   4.489 -1.8497  0.7191 -0.1998
 9272SOL     OW39451   4.229   0.447   7.144  0.2849 -0.2842  0.0637
 9272SOL    HW139452   4.261   0.431   7.233 -4.0379 -0.6072  1.5637
 9272SOL    HW239453   4.193   0.535   7.157  0.8773 -0.2064  1.1314
 9273SOL     OW39454   3.790   1.442   6.767  0.2237 -0.1110 -0.0382
 9273SOL    HW139455   3.716   1.422   6.824  0.5946  2.8334  1.4936
 9273SOL    HW239456   3.782   1.369   6.706  3.0207  0.4613 -1.1029
 9274SOL     OW39457   3.272   0.132   8.914  0.1446  0.4940 -0.4421
 9274SOL    HW139458   3.191   0.181   8.927  0.5262  0.7589  0.8954
 9274SOL    HW239459   3.312   0.147   8.999 -2.2209 -3.1873  1.3658
 9275SOL     OW39460   3.304   1.846   3.963  0.4513  0.2129  0.3387
 9275SOL    HW139461   3.378   1.877   4.016  1.8555  1.3567 -2.2951
 9275SOL    HW239462   3.233   1.892   4.007  1.2539  1.1381  0.6751
 9276SOL     OW39463   0.426   4.201  13.011  0.6346  0.0614  0.0019
 9276SOL    HW139464   0.483   4.185  12.936 -0.9067 -1.6185 -0.8153
 9276SOL    HW239465   0.482   4.268  13.049 -1.1469  0.2310  2.3207
 9277SOL     OW39466   1.238   0.529   3.086  0.2069  0.0856  0.6637
 9277SOL    HW139467   1.240   0.469   3.011 -0.9925  1.3219 -0.3650
 9277SOL    HW239468   1.166   0.486   3.132 -0.9915  0.6916 -0.6372
 9278SOL     OW39469   2.665   0.535   5.214  0.9711 -0.4418  0.0751
 9278SOL    HW139470   2.641   0.446   5.239 -2.7756  0.6704  0.4012
 9278SOL    HW239471   2.679   0.523   5.120 -1.6650  2.3767 -0.6616
 9279SOL     OW39472   3.646   2.718  11.294 -0.0263 -0.3511  0.0488
 9279SOL    HW139473   3.707   2.789  11.315  0.9915 -1.5553  1.1535
 9279SOL    HW239474   3.598   2.758  11.222 -1.2574  0.5365  1.3504
 9280SOL     OW39475   0.997   3.412   2.365  0.4482  0.2751  0.0866
 9280SOL    HW139476   0.984   3.502   2.396  0.4386 -0.6587  2.8599
 9280SOL    HW239477   1.069   3.388   2.424  0.6806 -1.6361 -0.9917
 9281SOL     OW39478   1.859   3.942   2.970  0.5118 -0.0129 -0.6135
 9281SOL    HW139479   1.848   3.965   3.062  1.6530  2.6686 -1.1404
 9281SOL    HW239480   1.869   3.847   2.983  0.1025  0.2228  1.2910
 9282SOL     OW39481   4.013   4.236   7.797 -0.2053  0.4984 -0.3376
 9282SOL    HW139482   4.102   4.271   7.797  0.0285 -0.0966 -1.6794
 9282SOL    HW239483   4.021   4.141   7.803 -2.3033  0.2344 -1.7642
 9283SOL     OW39484   4.442   3.643   6.117 -0.6457 -0.1892  0.8077
 9283SOL    HW139485   4.527   3.617   6.154  0.8044  1.3517 -1.3842
 9283SOL    HW239486   4.455   3.645   6.022  0.7101  0.1942  0.9939
 9284SOL     OW39487   4.535   2.760   7.063 -0.5823  0.5156  0.2488
 9284SOL    HW139488   4.444   2.766   7.092  0.0740  0.2838  2.3395
 9284SOL    HW239489   4.519   2.769   6.969 -0.0295 -0.6098  0.0450
 9285SOL     OW39490   4.285   3.909   6.061  0.2725  0.2465  0.3805
 9285SOL    HW139491   4.374   3.945   6.054  0.3564 -0.3996 -1.9466
 9285SOL    HW239492   4.239   3.937   5.982 -1.1975 -1.3742  0.6506
 9286SOL     OW39493   3.338   4.167   0.422 -0.2112  0.4874  0.1062
 9286SOL    HW139494   3.377   4.253   0.405  1.1197  0.0723  1.0608
 9286SOL    HW239495   3.323   4.174   0.516 -0.6613 -1.2626  0.1816
 9287SOL     OW39496   2.446   3.510  16.732 -0.9467  0.1456 -0.6557
 9287SOL    HW139497   2.518   3.554  16.686 -0.6813  1.3580  0.9063
 9287SOL    HW239498   2.436   3.575  16.802 -3.8771  1.3759 -2.2327
 9288SOL     OW39499   0.873   1.482   7.039 -0.5513  0.2812  0.1807
 9288SOL    HW139500   0.933   1.519   6.975 -1.2493 -2.2519 -1.9389
 9288SOL    HW239501   0.905   1.522   7.120  0.1649  0.3619 -0.1433
 9289SOL     OW39502   2.682   1.491   7.523 -0.4061 -0.5005  0.2586
 9289SOL    HW139503   2.749   1.423   7.522  1.6771  1.4829  3.1125
 9289SOL    HW239504   2.718   1.553   7.586  0.1449  0.1803 -0.7224
 9290SOL     OW39505   3.569   0.377   8.517  0.0134 -0.1641 -0.5139
 9290SOL    HW139506   3.570   0.467   8.548  0.5906  0.1605 -1.4493
 9290SOL    HW239507   3.479   0.360   8.489 -0.7768  0.5400  1.6787
 9291SOL     OW39508   1.702   4.401   5.613 -0.6437 -0.2649 -0.3799
 9291SOL    HW139509   1.646   4.335   5.654 -1.9409 -0.6228 -2.7192
 9291SOL    HW239510   1.763   4.341   5.571  0.4359  1.2758 -0.9968
 9292SOL     OW39511   0.698   2.739  11.260 -0.5089  0.6496  0.8062
 9292SOL    HW139512   0.781   2.788  11.268 -1.1514  1.5338  2.0540
 9292SOL    HW239513   0.670   2.745  11.169 -2.8297  1.0262  1.5594
 9293SOL     OW39514   1.592   3.197   6.472 -0.0917 -0.1450  0.4658
 9293SOL    HW139515   1.591   3.120   6.415 -1.3249  1.4099 -1.6023
 9293SOL    HW239516   1.522   3.257   6.445 -1.8978 -2.2140  0.5356
 9294SOL     OW39517   1.088   3.352   6.764  0.3753  0.4687 -0.1381
 9294SOL    HW139518   1.040   3.320   6.841  1.0093 -0.0153  0.0537
 9294SOL    HW239519   1.169   3.303   6.774  0.5964  0.7942 -0.3401
 9295SOL     OW39520   0.330   1.450   6.601  0.2777  0.7927 -0.1358
 9295SOL    HW139521   0.281   1.525   6.635 -0.0654  0.9382 -0.9423
 9295SOL    HW239522   0.419   1.475   6.626  0.9698 -0.6539 -1.1762
 9296SOL     OW39523   4.270   1.204   7.431  0.1336 -0.2511  0.1676
 9296SOL    HW139524   4.296   1.281   7.380  0.6740 -0.8245 -0.4259
 9296SOL    HW239525   4.179   1.233   7.433  0.6016  1.3773 -1.6524
 9297SOL     OW39526   3.877   3.905   7.484 -0.2679  0.0795 -0.4099
 9297SOL    HW139527   3.813   3.931   7.549 -1.8960 -1.7550 -1.2872
 9297SOL    HW239528   3.917   3.989   7.461 -0.2901  0.3144  0.3994
 9298SOL     OW39529   2.107   2.180   5.860 -0.0181 -0.0532 -0.1356
 9298SOL    HW139530   2.180   2.122   5.840 -0.9333 -0.0679 -3.4703
 9298SOL    HW239531   2.079   2.209   5.773 -1.6894  0.7653  0.6585
 9299SOL     OW39532   2.922   2.386   7.020 -0.0005 -0.2028 -0.0128
 9299SOL    HW139533   2.933   2.480   7.035  0.4076 -0.4267  1.0887
 9299SOL    HW239534   2.837   2.375   7.064 -1.3210  0.7625 -2.3000
 9300SOL     OW39535   1.084   4.189   2.423 -0.0937 -0.2333  0.0474
 9300SOL    HW139536   1.158   4.248   2.440  0.8391 -1.8781  1.6688
 9300SOL    HW239537   1.124   4.111   2.384 -0.7537 -0.6978  0.3129
 9301SOL     OW39538   0.535   1.831   4.742  0.5009 -0.3092 -0.0653
 9301SOL    HW139539   0.446   1.864   4.745  0.5375 -0.2023 -0.1768
 9301SOL    HW239540   0.561   1.817   4.833  1.9574 -0.2037 -0.4612
 9302SOL     OW39541   3.152   3.598   3.028  0.4154  0.3678  0.2260
 9302SOL    HW139542   3.097   3.600   3.107 -3.0116 -0.3064 -2.1321
 9302SOL    HW239543   3.156   3.503   3.014 -2.2607  0.2609  0.2099
 9303SOL     OW39544   1.412   3.463   0.995 -0.3836  0.0036  0.1996
 9303SOL    HW139545   1.353   3.475   1.070 -3.6353  0.8878 -2.4884
 9303SOL    HW239546   1.463   3.386   1.019  0.7040  0.7548  0.3194
 9304SOL     OW39547   0.672   1.803   5.523  0.4951  0.2517  0.3859
 9304SOL    HW139548   0.655   1.734   5.587  0.4996 -0.2191 -0.1235
 9304SOL    HW239549   0.708   1.750   5.452  1.8840  1.6788  0.0276
 9305SOL     OW39550   3.428   2.638  13.037  0.3568  0.1807  0.0595
 9305SOL    HW139551   3.403   2.584  12.962 -1.3760  1.5594 -0.3499
 9305SOL    HW239552   3.420   2.575  13.108 -0.4644 -0.7630 -0.8767
 9306SOL     OW39553   0.401   2.390   6.135 -0.4028  0.2478 -0.0350
 9306SOL    HW139554   0.436   2.304   6.111 -1.0334  0.6307 -2.3708
 9306SOL    HW239555   0.438   2.440   6.062  0.2016  0.2086  0.2517
 9307SOL     OW39556   0.277   4.438   5.278  0.0362 -0.3109 -0.6635
 9307SOL    HW139557   0.238   4.515   5.238  3.0873  1.8018  0.4568
 9307SOL    HW239558   0.212   4.406   5.340 -1.2467  2.1804 -0.7637
 9308SOL     OW39559   2.028   1.516   8.413 -0.0992 -0.0583  0.0037
 9308SOL    HW139560   1.940   1.508   8.376  0.6843 -0.8726 -1.7067
 9308SOL    HW239561   2.035   1.428   8.450  0.7096  0.7484  1.7627
 9309SOL     OW39562   2.227   1.576   9.437 -0.5555 -0.1186  0.1419
 9309SOL    HW139563   2.151   1.531   9.473 -1.1542 -0.5238 -1.6297
 9309SOL    HW239564   2.189   1.603   9.354  1.9381  1.0303 -0.6131
 9310SOL     OW39565   0.980   0.547  11.311 -0.1201  0.4035 -0.2323
 9310SOL    HW139566   1.010   0.456  11.311  0.8451  0.7173 -0.3929
 9310SOL    HW239567   1.064   0.593  11.310  0.7730 -1.2110 -0.2014
 9311SOL     OW39568   2.696   2.459   1.238 -0.2257  0.3850  0.8801
 9311SOL    HW139569   2.681   2.544   1.197 -1.2911 -0.8571 -1.2704
 9311SOL    HW239570   2.780   2.443   1.196 -1.1498 -0.6338 -0.5479
 9312SOL     OW39571   3.490   1.881   4.162  0.5102 -0.1080 -0.0189
 9312SOL    HW139572   3.563   1.818   4.159 -0.4890 -1.1882 -1.3270
 9312SOL    HW239573   3.509   1.931   4.241  1.6893  0.7307 -0.8187
 9313SOL     OW39574   1.460   3.112   7.605  0.7323 -0.1193 -0.2445
 9313SOL    HW139575   1.482   3.205   7.594 -0.7073  0.3638  0.9671
 9313SOL    HW239576   1.547   3.076   7.588  0.7661 -0.1681  0.0319
 9314SOL     OW39577   0.653   4.058   9.778  0.6976 -0.1599 -0.1911
 9314SOL    HW139578   0.699   4.095   9.702 -1.7661  1.3391 -0.9605
 9314SOL    HW239579   0.587   4.005   9.735 -0.3209 -2.0005  3.6821
 9315SOL     OW39580   1.865   1.235  12.893  0.0351 -0.0427  0.1381
 9315SOL    HW139581   1.805   1.308  12.908 -0.2678 -0.0777 -0.9081
 9315SOL    HW239582   1.929   1.273  12.832 -2.9261  5.2002  0.2859
 9316SOL     OW39583   4.574   2.607   1.914 -0.1840 -0.7190  0.0065
 9316SOL    HW139584   4.521   2.656   1.851  1.5792  0.2212 -0.7513
 9316SOL    HW239585   4.654   2.587   1.866  0.6482 -0.2700  1.2024
 9317SOL     OW39586   0.721   0.926  13.489  0.1024 -0.0445 -0.2010
 9317SOL    HW139587   0.801   0.965  13.455 -1.5218  3.1229 -0.4458
 9317SOL    HW239588   0.662   0.925  13.414  0.1181  0.3603 -0.2178
 9318SOL     OW39589   4.420   0.076  12.314 -0.7604  0.0535 -0.1483
 9318SOL    HW139590   4.357   0.132  12.359 -1.8385 -1.1856 -0.1173
 9318SOL    HW239591   4.363   0.069  12.236 -0.8485 -2.0837  0.1076
 9319SOL     OW39592   4.368   1.398  10.526 -0.1961  0.2992  0.6257
 9319SOL    HW139593   4.348   1.422  10.617  2.5882 -0.6795  1.5075
 9319SOL    HW239594   4.287   1.349  10.515 -0.4184  0.8436 -0.1033
 9320SOL     OW39595   4.554   2.228   1.068 -0.0052  0.6937 -0.1482
 9320SOL    HW139596   4.587   2.288   1.001  0.2300  0.8386  0.0966
 9320SOL    HW239597   4.463   2.230   1.038 -0.2203 -2.2952  0.3213
 9321SOL     OW39598   4.616   3.192  15.652  0.0546 -0.1810  0.2695
 9321SOL    HW139599   4.558   3.120  15.678 -1.8975  1.5232  0.6004
 9321SOL    HW239600   4.699   3.161  15.687  0.5297  1.8002  0.8714
 9322SOL     OW39601   3.590   0.554   2.033 -0.4757  0.1868 -0.8919
 9322SOL    HW139602   3.684   0.538   2.023 -0.5261  0.6466 -2.0922
 9322SOL    HW239603   3.587   0.648   2.049 -0.2588  0.0179  0.1288
 9323SOL     OW39604   3.992   2.833  12.049 -0.0450 -0.1352  0.4734
 9323SOL    HW139605   4.022   2.745  12.029 -0.1380  0.0781 -0.5873
 9323SOL    HW239606   4.014   2.847  12.142  2.9333 -2.0036  0.0548
 9324SOL     OW39607   1.745   2.425   9.542  0.0243 -0.7475  0.4194
 9324SOL    HW139608   1.794   2.504   9.567 -2.0366  1.0341 -1.0954
 9324SOL    HW239609   1.704   2.399   9.625 -0.4459 -1.2418  0.0285
 9325SOL     OW39610   3.805   0.764   4.240  0.1632  0.0562  0.0221
 9325SOL    HW139611   3.769   0.780   4.152  0.1715  2.8548  0.5200
 9325SOL    HW239612   3.725   0.766   4.291 -0.5082  1.1993 -1.0495
 9326SOL     OW39613   0.580   2.751   0.843  0.6713 -0.3115  0.3438
 9326SOL    HW139614   0.532   2.754   0.926 -0.4773  3.5417 -0.4375
 9326SOL    HW239615   0.527   2.695   0.786  3.0504  0.9208 -3.1250
 9327SOL     OW39616   3.772   1.477   3.987 -0.2991  0.4970  0.5007
 9327SOL    HW139617   3.852   1.495   3.937  0.8240 -1.5500  1.6000
 9327SOL    HW239618   3.724   1.435   3.916  0.8148  1.0244 -0.5759
 9328SOL     OW39619   4.423   3.597   7.710  0.0607  0.2347 -0.6249
 9328SOL    HW139620   4.460   3.637   7.788 -1.5144 -1.3208  0.9282
 9328SOL    HW239621   4.460   3.510   7.723  0.2847  0.6187  1.3220
 9329SOL     OW39622   3.174   3.663  13.106 -0.4446 -0.1103  0.3813
 9329SOL    HW139623   3.128   3.638  13.025 -1.1936  1.9911  0.1485
 9329SOL    HW239624   3.221   3.735  13.064  0.3438 -1.8881 -1.7466
 9330SOL     OW39625   2.209   1.681   8.353 -0.3538 -0.1445 -0.2791
 9330SOL    HW139626   2.142   1.613   8.365  0.5753 -0.7715  1.4170
 9330SOL    HW239627   2.165   1.739   8.416 -1.3778 -0.9303 -0.2618
 9331SOL     OW39628   1.809   2.189  14.422  0.0895 -0.1851  0.2559
 9331SOL    HW139629   1.866   2.259  14.392  0.1610  0.8619  2.8382
 9331SOL    HW239630   1.804   2.217  14.513  2.6002  0.5846  0.1445
 9332SOL     OW39631   0.552   4.026  13.695  0.3087  0.3951  0.1695
 9332SOL    HW139632   0.544   4.114  13.658  2.0042  0.8938  0.9691
 9332SOL    HW239633   0.539   3.981  13.611 -1.6181 -0.4131  0.9189
 9333SOL     OW39634   0.616   2.134   3.752  0.3337  0.1650  0.3072
 9333SOL    HW139635   0.540   2.111   3.805  0.0837  2.2238  0.8174
 9333SOL    HW239636   0.598   2.220   3.716 -1.8461  0.6242  2.5250
 9334SOL     OW39637   3.920   1.613   6.952  0.0636 -0.4250 -0.2135
 9334SOL    HW139638   3.872   1.579   6.876  0.2187 -1.4461  0.1485
 9334SOL    HW239639   3.902   1.707   6.951  3.0636  0.1721  0.9679
 9335SOL     OW39640   2.136   4.533  15.546  0.1205 -0.4692 -0.3859
 9335SOL    HW139641   2.063   4.525  15.607  0.7332 -0.1963  0.3826
 9335SOL    HW239642   2.104   4.478  15.475  0.8276 -0.8443 -0.4155
 9336SOL     OW39643   4.329   1.899  16.332 -0.5463 -0.2083  0.0819
 9336SOL    HW139644   4.420   1.931  16.331 -0.0013 -1.7672  0.5586
 9336SOL    HW239645   4.344   1.805  16.338  3.5997  0.3490 -1.5393
 9337SOL     OW39646   1.787   4.493   1.253 -0.2741  0.3770 -0.2595
 9337SOL    HW139647   1.752   4.582   1.263  2.1282  1.2885  0.0253
 9337SOL    HW239648   1.881   4.512   1.257 -0.3444  0.4897  0.8220
 9338SOL     OW39649   0.981   1.818   7.150 -0.8513 -0.8965 -0.2247
 9338SOL    HW139650   0.974   1.736   7.199  0.3076 -1.1792 -0.5458
 9338SOL    HW239651   1.050   1.855   7.205 -0.3633 -0.6335 -1.0161
 9339SOL     OW39652   3.245   2.587   4.732 -0.1684  0.6470  0.3491
 9339SOL    HW139653   3.223   2.677   4.708 -1.3186  0.0346 -0.8996
 9339SOL    HW239654   3.179   2.576   4.800 -0.6634 -1.0286 -0.4179
 9340SOL     OW39655   1.307   3.583  16.032 -0.5158  0.1928  0.5155
 9340SOL    HW139656   1.282   3.649  16.096  1.4923  1.3475  0.1094
 9340SOL    HW239657   1.364   3.632  15.973  0.2381 -0.0292  1.0568
 9341SOL     OW39658   4.074   3.941   4.479  0.2930 -0.0895 -0.5461
 9341SOL    HW139659   4.091   3.874   4.546 -0.8718  0.2599  0.0934
 9341SOL    HW239660   4.078   4.018   4.535  0.0821  0.3500 -1.1420
 9342SOL     OW39661   3.090   4.434   5.365 -0.1645 -0.2860  0.0992
 9342SOL    HW139662   3.120   4.513   5.318 -1.8038  1.1226  1.4118
 9342SOL    HW239663   3.114   4.452   5.456  0.0144 -1.0905  0.2080
 9343SOL     OW39664   0.097   2.917   4.281  0.1452 -0.1681 -0.4398
 9343SOL    HW139665   0.100   2.829   4.319  0.8064  0.4967  1.0188
 9343SOL    HW239666   0.110   2.902   4.187  0.3179 -0.6781 -0.3353
 9344SOL     OW39667   0.255   2.222  15.228 -0.4367  0.7447 -0.0357
 9344SOL    HW139668   0.219   2.165  15.296  1.1211  0.8775  0.9083
 9344SOL    HW239669   0.272   2.301  15.280  0.9635  1.5439 -1.6830
 9345SOL     OW39670   4.526   4.249   2.430 -0.1793 -0.0172  0.4030
 9345SOL    HW139671   4.559   4.166   2.395 -0.4188  0.2448 -0.4544
 9345SOL    HW239672   4.535   4.247   2.525 -2.1909  2.3135  0.6498
 9346SOL     OW39673   1.672   3.449   3.078  0.4427  0.0878 -0.4602
 9346SOL    HW139674   1.728   3.403   3.016 -0.6930 -0.2912 -1.1959
 9346SOL    HW239675   1.603   3.466   3.015  0.8279  2.2230 -0.3159
 9347SOL     OW39676   3.483   2.494   2.365 -0.5055  0.4535 -0.5881
 9347SOL    HW139677   3.486   2.419   2.425  3.1198  1.0865  0.0195
 9347SOL    HW239678   3.573   2.520   2.384  0.3283 -1.2934 -2.1741
 9348SOL     OW39679   3.437   2.577   8.768 -0.0215  0.1368  0.4454
 9348SOL    HW139680   3.512   2.543   8.817 -1.5393 -1.5357  1.6008
 9348SOL    HW239681   3.365   2.565   8.829  0.9202 -2.3908  1.0560
 9349SOL     OW39682   3.184   1.144   2.831 -0.2937 -0.8812  0.2714
 9349SOL    HW139683   3.254   1.196   2.871 -0.5370  1.1996 -2.0092
 9349SOL    HW239684   3.107   1.181   2.874 -1.8414 -1.5418 -1.9302
 9350SOL     OW39685   2.804   2.236   5.265 -0.2521 -0.5421 -0.1206
 9350SOL    HW139686   2.827   2.327   5.285 -2.7178  0.2184 -0.7297
 9350SOL    HW239687   2.764   2.214   5.349 -2.6039  1.6621 -0.6726
 9351SOL     OW39688   4.309   2.791  17.314  0.2907 -0.2416 -0.2237
 9351SOL    HW139689   4.270   2.728  17.254 -1.2654 -0.0779  0.6057
 9351SOL    HW239690   4.231   2.816  17.364  0.3079  0.6225 -0.6316
 9352SOL     OW39691   2.092   4.628   1.319 -0.0890  0.1494  0.0825
 9352SOL    HW139692   2.084   4.639   1.224  1.3468  1.8927  0.1610
 9352SOL    HW239693   2.186   4.617   1.335 -0.3994 -0.8192  1.1498
 9353SOL     OW39694   2.016   1.333   2.747 -0.2235  0.3699  0.2065
 9353SOL    HW139695   1.942   1.371   2.795 -0.2116  1.9324 -1.0142
 9353SOL    HW239696   2.043   1.411   2.700 -0.8146  0.4995  0.0737
 9354SOL     OW39697   3.624   0.943   2.281 -0.3442  0.0987  0.0612
 9354SOL    HW139698   3.702   0.995   2.264 -1.6045  1.3115 -2.0149
 9354SOL    HW239699   3.603   0.964   2.372 -3.8070  0.5350 -0.8340
 9355SOL     OW39700   1.326   2.556   7.302  0.0529 -0.3950  0.4089
 9355SOL    HW139701   1.237   2.521   7.297 -0.1147  0.0640  0.1968
 9355SOL    HW239702   1.309   2.639   7.347  0.8323  0.4169 -0.7944
 9356SOL     OW39703   4.256   1.269  12.179 -0.0636 -0.3679 -0.0930
 9356SOL    HW139704   4.249   1.277  12.274 -0.4705  0.9643 -0.2425
 9356SOL    HW239705   4.292   1.180  12.182 -2.3912 -1.3895 -2.1939
 9357SOL     OW39706   1.694   0.370   2.763  0.6271  0.0558 -0.2618
 9357SOL    HW139707   1.710   0.292   2.816  0.0066  0.6935  0.8759
 9357SOL    HW239708   1.685   0.330   2.676  1.6127 -0.5496 -0.0819
 9358SOL     OW39709   1.496   1.805   5.751 -0.1135  0.4792 -0.2717
 9358SOL    HW139710   1.542   1.744   5.694 -1.4291 -0.4713 -0.3148
 9358SOL    HW239711   1.557   1.879   5.750  0.3494  0.0809 -2.2821
 9359SOL     OW39712   2.210   4.448  10.239  0.4577 -0.4587 -0.0445
 9359SOL    HW139713   2.174   4.493  10.162 -1.3206 -1.0927  0.4055
 9359SOL    HW239714   2.282   4.401  10.197 -0.5053 -0.5488 -1.5911
 9360SOL     OW39715   1.754   2.819   4.624 -0.1699 -0.2636 -0.5532
 9360SOL    HW139716   1.776   2.761   4.697 -0.4219  0.0830 -0.2063
 9360SOL    HW239717   1.739   2.752   4.556  2.3229  0.5703 -1.9500
 9361SOL     OW39718   1.369   2.381   9.165  0.5117 -0.1604  0.5574
 9361SOL    HW139719   1.384   2.474   9.182  0.2740  0.3436 -1.9962
 9361SOL    HW239720   1.350   2.344   9.251  0.4689 -1.1088  0.1428
 9362SOL     OW39721   2.502   2.954   4.049  0.1169 -0.1327  0.5486
 9362SOL    HW139722   2.590   2.985   4.028  0.4247 -0.7245  0.9668
 9362SOL    HW239723   2.478   2.910   3.967 -1.6318 -1.9037  2.0295
 9363SOL     OW39724   3.579   3.640  10.622 -0.1298 -0.5830 -0.2084
 9363SOL    HW139725   3.525   3.562  10.609 -0.8919  0.4892 -3.5419
 9363SOL    HW239726   3.603   3.634  10.714  0.7387  1.3277 -0.2958
 9364SOL     OW39727   0.647   1.218   8.801  0.1522  0.3144 -0.1112
 9364SOL    HW139728   0.709   1.279   8.760 -0.8103  2.1663  1.1697
 9364SOL    HW239729   0.687   1.132   8.812 -1.1276 -0.0467  1.6417
 9365SOL     OW39730   1.090   0.315   6.276 -0.4631 -0.1114 -0.2127
 9365SOL    HW139731   1.132   0.230   6.280 -2.7279 -1.2766 -1.0363
 9365SOL    HW239732   1.011   0.289   6.229  0.3707 -0.5696 -1.3273
 9366SOL     OW39733   2.665   4.083   1.778 -0.3766  0.1224  0.0773
 9366SOL    HW139734   2.758   4.099   1.763 -0.2228 -0.4183  0.4606
 9366SOL    HW239735   2.646   4.087   1.684  2.7464  0.5637 -0.5209
 9367SOL     OW39736   2.311   0.337   8.059  0.2942 -0.3780 -0.0239
 9367SOL    HW139737   2.405   0.340   8.045  0.3708 -1.4572  0.2334
 9367SOL    HW239738   2.273   0.344   7.971  0.1559  2.4848  0.2660
 9368SOL     OW39739   1.055   2.157   8.132 -0.5044  0.5242 -0.4647
 9368SOL    HW139740   1.108   2.084   8.164 -0.1239  1.2918  0.6609
 9368SOL    HW239741   0.986   2.106   8.091  1.0408 -1.5501 -0.4912
 9369SOL     OW39742   2.409   2.439   2.855  0.0731  0.2829 -0.1804
 9369SOL    HW139743   2.380   2.447   2.764  0.1551 -2.7088 -0.4856
 9369SOL    HW239744   2.453   2.354   2.863  1.1833  0.8976  0.2556
 9370SOL     OW39745   4.404   0.838  15.616  0.8051 -0.1055  0.5985
 9370SOL    HW139746   4.415   0.743  15.614  0.0332 -0.1630 -1.1805
 9370SOL    HW239747   4.462   0.866  15.545  0.2444 -0.3183  0.0591
 9371SOL     OW39748   2.915   2.487   4.649 -0.4117 -0.0225 -0.4180
 9371SOL    HW139749   2.846   2.426   4.676 -1.5065  0.1950 -2.7069
 9371SOL    HW239750   2.963   2.495   4.731  1.0361 -0.0776 -1.2593
 9372SOL     OW39751   1.212   2.072   5.786  0.9664  0.6852 -0.4400
 9372SOL    HW139752   1.144   2.104   5.727 -2.1176  0.5553  3.0707
 9372SOL    HW239753   1.197   1.978   5.771  0.3322  0.6835  0.2096
 9373SOL     OW39754   1.101   2.849   4.079  0.1953 -0.1162  0.0900
 9373SOL    HW139755   1.144   2.766   4.096  0.8289  0.0894 -0.4874
 9373SOL    HW239756   1.038   2.847   4.151  1.7513 -0.6642  1.4373
 9374SOL     OW39757   2.302   1.260   8.756  0.3266 -0.2127 -0.1590
 9374SOL    HW139758   2.228   1.314   8.727 -0.5597 -0.7259  1.1558
 9374SOL    HW239759   2.291   1.265   8.851  2.4598 -1.4526  0.1522
 9375SOL     OW39760   2.262   4.562  12.162 -0.5260  0.3402  0.4874
 9375SOL    HW139761   2.231   4.562  12.071  0.0463 -4.0573  0.2556
 9375SOL    HW239762   2.341   4.511  12.146 -0.5548  0.4455  0.0155
 9376SOL     OW39763   3.117   2.771   8.021 -0.2402  0.0027 -0.1059
 9376SOL    HW139764   3.162   2.731   8.095 -2.2721 -1.1503  0.4972
 9376SOL    HW239765   3.152   2.860   8.030  2.0685 -0.6834 -2.3037
 9377SOL     OW39766   0.486   2.777  14.093  0.1781  0.0477  0.3923
 9377SOL    HW139767   0.572   2.818  14.084  1.1648 -2.1530 -0.0050
 9377SOL    HW239768   0.501   2.684  14.078  1.9255  1.2117 -5.1628
 9378SOL     OW39769   4.670   3.896   9.573 -0.7136 -0.2697 -0.5790
 9378SOL    HW139770   4.631   3.896   9.660 -0.6695 -0.0545 -0.5596
 9378SOL    HW239771   4.704   3.807   9.562  0.4502 -0.1468  2.1805
 9379SOL     OW39772   1.361   2.949  10.064  0.0325  0.5033 -0.0068
 9379SOL    HW139773   1.310   2.964   9.984  0.8791  0.9532 -0.4586
 9379SOL    HW239774   1.331   3.022  10.119 -0.0661  0.5424 -0.1106
 9380SOL     OW39775   3.477   0.228   2.041  0.5287 -0.2224  0.0920
 9380SOL    HW139776   3.550   0.255   2.096  1.6703 -1.5697 -0.7704
 9380SOL    HW239777   3.515   0.238   1.953  1.9467 -0.4706  0.6783
 9381SOL     OW39778   3.019   3.671   7.536 -0.2160 -0.8002 -0.0927
 9381SOL    HW139779   3.105   3.659   7.576 -0.8434  0.8066  1.7111
 9381SOL    HW239780   3.037   3.750   7.485  0.3306 -0.0684  1.2455
 9382SOL     OW39781   0.513   2.531   7.992 -0.1422 -0.2335  0.6641
 9382SOL    HW139782   0.523   2.439   7.968 -0.4048 -0.4077  1.2427
 9382SOL    HW239783   0.603   2.549   8.018 -0.4004  2.7253 -0.4673
 9383SOL     OW39784   0.404   4.307   4.663 -0.3187  0.1368 -0.0955
 9383SOL    HW139785   0.425   4.215   4.649 -3.4523 -0.5938  0.0134
 9383SOL    HW239786   0.319   4.309   4.707 -0.0429  3.1801  0.2962
 9384SOL     OW39787   2.178   0.827   5.443  0.4143 -0.2975 -0.0410
 9384SOL    HW139788   2.112   0.807   5.376  0.5255 -0.2578 -0.1636
 9384SOL    HW239789   2.140   0.813   5.529  2.1149 -3.4961  0.1699
 9385SOL     OW39790   4.075   2.467  16.931  0.0756  0.2470 -0.1550
 9385SOL    HW139791   3.989   2.427  16.944 -0.4149  1.9278  1.8378
 9385SOL    HW239792   4.072   2.530  17.004 -0.7980 -0.2486  0.2395
 9386SOL     OW39793   1.275   3.766   6.724 -0.1705 -0.2287  0.2508
 9386SOL    HW139794   1.347   3.807   6.772  0.2158 -0.7647  0.1348
 9386SOL    HW239795   1.302   3.776   6.633  0.5095  1.5737  0.6490
 9387SOL     OW39796   2.369   2.659   8.989 -0.1840 -0.5372  0.0294
 9387SOL    HW139797   2.296   2.704   9.033 -1.7407 -2.0119 -1.0483
 9387SOL    HW239798   2.397   2.712   8.915 -0.1691  1.0692  1.1903
 9388SOL     OW39799   4.425   2.093   2.489  0.1560  0.0885  0.6017
 9388SOL    HW139800   4.457   2.073   2.577 -3.0391  0.9460  1.9553
 9388SOL    HW239801   4.500   2.118   2.435  0.8292 -0.5630  1.2487
 9389SOL     OW39802   4.203   4.480   3.225  0.1195  0.4460 -0.7921
 9389SOL    HW139803   4.153   4.483   3.144 -1.1128  3.9845  0.1186
 9389SOL    HW239804   4.287   4.520   3.205  0.7218 -1.8930 -2.9300
 9390SOL     OW39805   0.095   0.232   4.013 -0.0003 -0.5521 -0.1495
 9390SOL    HW139806   0.014   0.184   4.034 -0.6627 -0.6036 -2.8038
 9390SOL    HW239807   0.128   0.264   4.097 -2.7803  0.0090  0.7515
 9391SOL     OW39808   4.365   0.353  16.080  0.5018  0.4732  0.4286
 9391SOL    HW139809   4.308   0.398  16.143 -0.9905 -1.1886  0.2679
 9391SOL    HW239810   4.353   0.410  16.005  1.8696  0.8579  0.4898
 9392SOL     OW39811   0.224   3.185  12.863 -0.4303  0.0938  0.4256
 9392SOL    HW139812   0.165   3.114  12.839 -0.6073 -0.1603  1.6195
 9392SOL    HW239813   0.182   3.240  12.930  0.1230  0.4800  0.4552
 9393SOL     OW39814   1.239   2.890  16.763 -0.9288 -0.2716 -0.4073
 9393SOL    HW139815   1.228   2.797  16.745 -0.0452 -0.2028 -1.3156
 9393SOL    HW239816   1.224   2.924  16.675 -0.0907  0.3964 -0.2993
 9394SOL     OW39817   1.253   2.317   8.446  0.1076  0.6328  0.7022
 9394SOL    HW139818   1.307   2.391   8.417 -1.2933  1.7855  1.0020
 9394SOL    HW239819   1.193   2.300   8.373  0.8809  1.7453 -0.1961
 9395SOL     OW39820   3.613   1.153  14.885 -0.2044 -0.1253  0.5528
 9395SOL    HW139821   3.642   1.241  14.909  0.1677  0.1683 -0.9972
 9395SOL    HW239822   3.566   1.164  14.802 -0.6339  2.4134  1.1197
 9396SOL     OW39823   1.290   0.953   6.143  1.0390  0.5930 -0.4279
 9396SOL    HW139824   1.227   1.012   6.102  0.6645 -0.5511 -1.5221
 9396SOL    HW239825   1.290   0.887   6.073  2.3021  0.3158 -0.1715
 9397SOL     OW39826   2.327   1.584   2.185 -0.1274 -0.0971 -0.2011
 9397SOL    HW139827   2.314   1.502   2.234 -0.9789 -0.2560 -0.6999
 9397SOL    HW239828   2.414   1.609   2.217  0.1669 -0.5603 -0.6390
 9398SOL     OW39829   0.174   1.811   7.446  0.5267 -0.2088 -0.2338
 9398SOL    HW139830   0.220   1.772   7.520  2.1122 -0.1878 -1.2115
 9398SOL    HW239831   0.247   1.798   7.385  0.5344 -1.9073  0.1329
 9399SOL     OW39832   2.561   1.998   9.016  0.6301 -0.1995  0.5825
 9399SOL    HW139833   2.605   1.988   8.931  0.7141  2.1167  0.3559
 9399SOL    HW239834   2.538   2.091   9.016 -1.9062 -0.8371 -0.3554
 9400SOL     OW39835   1.357   1.248   0.015  0.0048  0.6366  0.6325
 9400SOL    HW139836   1.391   1.334  17.727 -2.0979  0.5718 -2.6911
 9400SOL    HW239837   1.283   1.277   0.067  0.1898 -1.3501  1.9874
 9401SOL     OW39838   2.806   3.438   7.159 -0.7664 -0.5170 -0.2097
 9401SOL    HW139839   2.877   3.386   7.121 -0.6325 -1.9028  1.9417
 9401SOL    HW239840   2.832   3.429   7.251 -0.5049  1.5603 -0.0605
 9402SOL     OW39841   0.178   0.534   5.493  0.3499  0.3838  0.6941
 9402SOL    HW139842   0.228   0.511   5.571  0.3708  2.6750  1.3476
 9402SOL    HW239843   0.114   0.462   5.497  2.3105 -1.3924 -0.0574
 9403SOL     OW39844   1.621   3.738   5.015  0.5366  0.2518  0.5247
 9403SOL    HW139845   1.613   3.760   4.923 -2.0426  1.3734  1.0346
 9403SOL    HW239846   1.530   3.755   5.039  0.6159  1.5243 -0.1217
 9404SOL     OW39847   0.105   2.026  11.501 -0.2937 -0.2684 -0.1229
 9404SOL    HW139848   0.085   2.102  11.445 -3.4002 -0.6490  0.4906
 9404SOL    HW239849   0.064   1.952  11.456 -0.0189 -1.8635  2.2765
 9405SOL     OW39850   3.534   0.419   2.956 -0.5200 -0.6143  0.0575
 9405SOL    HW139851   3.604   0.421   3.021 -1.1837 -0.3783  0.7573
 9405SOL    HW239852   3.453   0.417   3.006 -0.4418  1.9153  0.2520
 9406SOL     OW39853   1.462   1.662   3.227 -0.2862 -0.0083 -0.2803
 9406SOL    HW139854   1.380   1.613   3.237 -0.3649  0.3286  0.7534
 9406SOL    HW239855   1.440   1.730   3.163 -0.7786 -0.8276 -0.9955
 9407SOL     OW39856   1.872   2.741   5.512  0.2499 -0.2846 -0.2247
 9407SOL    HW139857   1.910   2.823   5.543  1.4097 -1.5478  1.7301
 9407SOL    HW239858   1.778   2.754   5.508  0.3382  1.0581  2.1672
 9408SOL     OW39859   1.636   0.969   6.684 -0.0065  0.3484  0.0261
 9408SOL    HW139860   1.554   1.014   6.666  0.5330  0.4825 -2.0199
 9408SOL    HW239861   1.648   0.907   6.613  2.9869 -0.3577  1.1424
 9409SOL     OW39862   1.886   3.229   6.910  0.5353  0.8788  0.0196
 9409SOL    HW139863   1.804   3.278   6.904 -0.9133 -1.3498  1.6159
 9409SOL    HW239864   1.887   3.204   6.817  0.9213 -0.4378  0.3733
 9410SOL     OW39865   3.060   1.355   6.916 -0.3742  0.3866 -0.5412
 9410SOL    HW139866   2.970   1.339   6.942 -0.3368  1.6361  0.3488
 9410SOL    HW239867   3.116   1.373   6.992 -0.5773  1.3274 -0.6155
 9411SOL     OW39868   2.136   1.637   7.431  0.3989 -0.2844  0.2998
 9411SOL    HW139869   2.181   1.715   7.463 -0.7419  1.0004 -1.2582
 9411SOL    HW239870   2.078   1.676   7.366 -1.0127 -0.9241  1.1522
 9412SOL     OW39871   2.180   2.120  11.859  0.3085 -0.2839  1.1296
 9412SOL    HW139872   2.116   2.050  11.843 -1.0787  1.8164 -2.4838
 9412SOL    HW239873   2.241   2.058  11.898  2.7055  0.4952 -1.3484
 9413SOL     OW39874   2.650   4.684   3.393  0.1384 -0.1396 -0.0301
 9413SOL    HW139875   2.576   0.007   3.369 -0.2189 -2.3249 -4.2280
 9413SOL    HW239876   2.633   4.610   3.334  2.0441  0.3885 -1.2296
 9414SOL     OW39877   0.617   4.139   8.572 -0.0561 -0.0397  0.3137
 9414SOL    HW139878   0.667   4.062   8.545  2.1118  1.7446 -0.8471
 9414SOL    HW239879   0.575   4.155   8.487 -0.4587  0.7692  0.6599
 9415SOL     OW39880   1.080   1.822   4.925  0.3753 -0.0177  0.3259
 9415SOL    HW139881   1.138   1.844   4.852  0.5237  0.1194  0.4859
 9415SOL    HW239882   1.005   1.789   4.875  0.3601 -0.3428  0.5684
 9416SOL     OW39883   2.032   2.080  10.712 -0.3393  0.3829 -0.2681
 9416SOL    HW139884   2.005   1.999  10.757 -2.0705  0.3177 -1.4056
 9416SOL    HW239885   2.116   2.096  10.754 -0.3448  0.6221 -0.3469
 9417SOL     OW39886   0.680   1.941   0.681  0.5956  0.6621 -0.2384
 9417SOL    HW139887   0.635   2.012   0.727 -0.8647 -0.6959  0.4554
 9417SOL    HW239888   0.638   1.864   0.720  0.6841  0.0232 -1.3964
 9418SOL     OW39889   4.387   3.938   4.464  0.0642  0.1201 -0.1190
 9418SOL    HW139890   4.360   4.003   4.528  0.7426  1.6981 -1.4329
 9418SOL    HW239891   4.305   3.903   4.428  0.7035 -1.0657 -0.4431
 9419SOL     OW39892   4.125   3.645  15.793  0.4682  0.2618  0.1943
 9419SOL    HW139893   4.185   3.714  15.764  0.8854 -0.8932 -1.6785
 9419SOL    HW239894   4.158   3.566  15.752  3.0561  2.9151 -2.8711
 9420SOL     OW39895   4.455   4.436  15.160 -0.6048  0.5775  0.1329
 9420SOL    HW139896   4.539   4.482  15.164 -0.1113 -0.2680 -0.5304
 9420SOL    HW239897   4.457   4.386  15.079 -0.5712  1.1259 -0.2005
 9421SOL     OW39898   4.442   3.510   4.377  0.0657 -0.1412  0.4560
 9421SOL    HW139899   4.472   3.435   4.326  0.1342  0.0747  0.1764
 9421SOL    HW239900   4.405   3.466   4.454  0.5975  1.1785  1.4732
 9422SOL     OW39901   2.302   4.527  15.761 -0.1887 -0.8213 -0.3814
 9422SOL    HW139902   2.365   4.500  15.694  2.8278 -0.5792  2.3120
 9422SOL    HW239903   2.236   4.576  15.712  0.2776  0.6592  0.4771
 9423SOL     OW39904   2.171   3.163   2.713 -0.0901  0.1874 -0.0721
 9423SOL    HW139905   2.160   3.233   2.777  1.9644  0.4940 -0.0721
 9423SOL    HW239906   2.190   3.089   2.771  1.7001  2.1501  1.8597
 9424SOL     OW39907   2.229   3.485  16.570  0.3490 -0.2347  0.0243
 9424SOL    HW139908   2.322   3.485  16.589  0.3096 -1.1907  0.2186
 9424SOL    HW239909   2.193   3.485  16.659 -1.4043  0.8920 -0.6807
 9425SOL     OW39910   4.525   0.148   1.641 -0.0024  0.8220 -0.0774
 9425SOL    HW139911   4.494   0.228   1.684  1.9262 -0.8630  4.3730
 9425SOL    HW239912   4.446   0.103   1.611  0.3234 -0.0600  0.4045
 9426SOL     OW39913   3.776   2.582  11.683  0.3219  0.1756  0.0634
 9426SOL    HW139914   3.767   2.565  11.777 -1.5052 -1.4947 -0.3983
 9426SOL    HW239915   3.708   2.524  11.647  0.9738  0.8134 -2.1815
 9427SOL     OW39916   2.582   1.230  13.304 -0.1104 -0.8354  0.0849
 9427SOL    HW139917   2.495   1.201  13.278  1.3848 -2.9550 -2.4883
 9427SOL    HW239918   2.618   1.166  13.365  0.2978 -0.3708  0.3400
 9428SOL     OW39919   3.289   2.560   9.041 -0.1960 -0.3088 -0.6441
 9428SOL    HW139920   3.286   2.561   9.137 -1.4442  0.2701 -0.6865
 9428SOL    HW239921   3.219   2.503   9.010 -1.4580  0.6077  0.5642
 9429SOL     OW39922   2.686   1.368   2.419  0.1772 -0.1212  0.1438
 9429SOL    HW139923   2.772   1.332   2.439  0.3656  1.0352  1.4742
 9429SOL    HW239924   2.632   1.292   2.439 -0.4549  0.6706  1.4592
 9430SOL     OW39925   2.158   0.423   5.504 -0.0732  0.3526 -0.0562
 9430SOL    HW139926   2.198   0.366   5.569 -1.7560 -0.3368  0.3918
 9430SOL    HW239927   2.231   0.482   5.490  0.9470 -0.7648  0.6022
 9431SOL     OW39928   4.311   2.501   3.728 -0.0472  0.5282 -0.5020
 9431SOL    HW139929   4.293   2.564   3.797  1.5767  1.2038 -0.6949
 9431SOL    HW239930   4.406   2.512   3.724  0.0094  0.9723  2.6412
 9432SOL     OW39931   0.117   4.463   3.808  0.0341  0.5988  0.8992
 9432SOL    HW139932   0.168   4.382   3.818  1.3188  1.4515  1.1191
 9432SOL    HW239933   0.178   4.530   3.780  1.2221 -0.9543 -0.2142
 9433SOL     OW39934   0.792   1.992   8.543  0.1560  0.4461  0.6886
 9433SOL    HW139935   0.721   1.928   8.538 -0.2770  0.9482  0.3975
 9433SOL    HW239936   0.841   1.954   8.616  0.0801 -1.7554 -0.4062
 9434SOL     OW39937   1.752   3.074   1.336  0.1292  0.0786 -0.5343
 9434SOL    HW139938   1.677   3.133   1.328  0.3439  0.3489 -0.5444
 9434SOL    HW239939   1.729   3.043   1.424 -1.2577  0.8382 -0.6290
 9435SOL     OW39940   1.181   1.184   4.760  0.2908  0.1089 -0.0363
 9435SOL    HW139941   1.169   1.144   4.846 -1.7441 -1.8854 -1.2817
 9435SOL    HW239942   1.243   1.121   4.724 -1.8143 -1.7651 -0.3389
 9436SOL     OW39943   4.722   1.193   7.218 -0.4339  0.1625 -0.2983
 9436SOL    HW139944   0.015   1.221   7.130  1.0576 -1.3098 -0.3104
 9436SOL    HW239945   0.060   1.233   7.267 -0.6006 -0.9890  0.8686
 9437SOL     OW39946   0.519   3.818  17.170  0.5752  0.5576  0.4514
 9437SOL    HW139947   0.615   3.811  17.171  0.6364  1.6042  1.4733
 9437SOL    HW239948   0.496   3.728  17.189  1.1536  1.0533  3.5107
 9438SOL     OW39949   0.993   3.222  17.558  0.3321 -0.7391 -0.5516
 9438SOL    HW139950   0.977   3.129  17.577  1.3463 -0.3981  1.8514
 9438SOL    HW239951   1.071   3.216  17.503  1.3282  0.0182  0.7839
 9439SOL     OW39952   2.491   2.949   2.347 -0.1105  0.1233 -0.0776
 9439SOL    HW139953   2.414   2.937   2.291  0.9275  0.3604 -1.5704
 9439SOL    HW239954   2.540   3.011   2.294  2.1266 -1.8387 -0.3082
 9440SOL     OW39955   2.261   4.065   5.077 -0.1655 -0.0727 -0.0019
 9440SOL    HW139956   2.190   4.001   5.084  1.0271 -1.3286  0.6191
 9440SOL    HW239957   2.331   4.003   5.097  1.5012  1.9428  0.4687
 9441SOL     OW39958   2.914   0.122   0.420 -0.3837  0.6857  0.2540
 9441SOL    HW139959   2.974   0.046   0.424 -0.3222  0.5957 -2.2823
 9441SOL    HW239960   2.865   0.090   0.344 -0.3009  0.4407  0.3022
 9442SOL     OW39961   2.411   4.049   7.132 -0.1707 -0.0059 -0.2872
 9442SOL    HW139962   2.375   4.112   7.070  0.8934  0.9071  0.0187
 9442SOL    HW239963   2.366   4.065   7.215  2.1859 -0.8877  1.1775
 9443SOL     OW39964   3.456   4.452  10.866 -0.3183 -0.0546 -0.5099
 9443SOL    HW139965   3.437   4.364  10.834 -1.6577  0.0876 -0.1147
 9443SOL    HW239966   3.386   4.464  10.931  1.7559 -3.8462  2.4073
 9444SOL     OW39967   2.132   3.192   7.367 -0.4166  0.2845 -0.2361
 9444SOL    HW139968   2.171   3.120   7.317 -1.7986  0.3276 -1.3724
 9444SOL    HW239969   2.183   3.269   7.344 -0.5314  0.7228  0.9825
 9445SOL     OW39970   2.997   3.906   8.835  0.0046 -0.4557 -0.5110
 9445SOL    HW139971   3.084   3.946   8.834 -0.3215  0.2290 -1.2532
 9445SOL    HW239972   2.967   3.923   8.924 -1.5657  2.0980 -1.5421
 9446SOL     OW39973   3.535   1.780   5.846  0.0387 -0.1379 -0.2402
 9446SOL    HW139974   3.468   1.793   5.779 -0.0766 -1.4251 -0.3600
 9446SOL    HW239975   3.603   1.734   5.798  1.5679  0.4379  1.3554
 9447SOL     OW39976   2.559   2.251   8.066 -0.0658 -0.1100  0.3367
 9447SOL    HW139977   2.533   2.340   8.044 -3.1697 -1.4326 -1.3622
 9447SOL    HW239978   2.516   2.249   8.152  2.2546 -2.8006  1.4438
 9448SOL     OW39979   2.324   3.279   7.626 -0.1990  0.2082 -0.5401
 9448SOL    HW139980   2.371   3.276   7.710  0.2010 -1.5197 -0.8432
 9448SOL    HW239981   2.362   3.211   7.571  0.6826 -0.0850  0.4160
 9449SOL     OW39982   2.408   2.100   8.262  0.7489  0.2512  0.1444
 9449SOL    HW139983   2.381   2.020   8.216 -0.4960  0.3294  0.7365
 9449SOL    HW239984   2.411   2.073   8.354 -1.4416  0.9626  0.4010
 9450SOL     OW39985   0.112   2.878   6.519  0.1919  0.0415 -0.5221
 9450SOL    HW139986   0.182   2.924   6.566 -1.4311  0.5473  1.3680
 9450SOL    HW239987   0.125   2.785   6.536 -0.4775 -0.0741 -0.6543
 9451SOL     OW39988   0.357   1.876  14.362 -0.1105  0.5187  0.5358
 9451SOL    HW139989   0.303   1.797  14.357  0.3753  0.2567 -0.7566
 9451SOL    HW239990   0.392   1.886  14.450 -2.3933  3.2054  1.1482
 9452SOL     OW39991   2.749   4.411   6.143  0.1092  0.0240  0.0816
 9452SOL    HW139992   2.750   4.371   6.230  0.8358  0.5187  0.3026
 9452SOL    HW239993   2.822   4.366   6.101  0.1406  0.9034 -0.7975
 9453SOL     OW39994   3.927   3.476  11.988  0.4930 -0.0618 -0.3130
 9453SOL    HW139995   3.875   3.397  12.003  0.9258 -0.3562 -0.3565
 9453SOL    HW239996   3.966   3.480  12.076  0.7287 -0.2721 -0.4082
 9454SOL     OW39997   2.356   0.666   4.172  0.3399 -1.3628 -0.0456
 9454SOL    HW139998   2.307   0.688   4.251  0.9534 -2.9274  0.7751
 9454SOL    HW239999   2.368   0.572   4.186  0.4082 -1.3586 -0.0751
 9455SOL     OW40000   0.654   0.424  14.627 -0.1672  0.2095 -0.1267
 9455SOL    HW140001   0.738   0.383  14.646  1.3776  3.7074  0.7254
 9455SOL    HW240002   0.666   0.493  14.692 -0.0642  0.8238 -0.7935
 9456SOL     OW40003   2.308   0.953   1.619 -0.2456  0.0420  0.2161
 9456SOL    HW140004   2.245   1.024   1.624 -0.4853 -0.1300 -0.3431
 9456SOL    HW240005   2.392   0.997   1.622 -1.7905  2.9681 -0.0230
 9457SOL     OW40006   1.587   2.589   5.866  0.7050 -0.4343 -0.2888
 9457SOL    HW140007   1.590   2.600   5.771 -0.6956  0.1309 -0.2713
 9457SOL    HW240008   1.491   2.583   5.873  0.8954 -0.8679  1.8661
 9458SOL     OW40009   2.485   3.826  10.979  0.0794  0.0735  0.1903
 9458SOL    HW140010   2.510   3.905  10.932 -3.5907  1.2801  0.3486
 9458SOL    HW240011   2.569   3.796  11.015 -1.6851 -1.6092  2.8974
 9459SOL     OW40012   2.175   3.057   3.404  0.1823  0.2189  0.0229
 9459SOL    HW140013   2.218   2.975   3.429 -2.4306 -0.5448  1.9193
 9459SOL    HW240014   2.140   3.081   3.489  0.1244 -1.1830  0.3913
 9460SOL     OW40015   2.565   2.304   6.139  0.1126 -0.1368 -0.1286
 9460SOL    HW140016   2.472   2.281   6.131 -0.4951  2.0948  0.5966
 9460SOL    HW240017   2.586   2.325   6.048 -2.9158  0.1699 -0.7535
 9461SOL     OW40018   0.180   3.973   6.989  0.2326  0.2282 -0.2030
 9461SOL    HW140019   0.239   3.932   6.927  0.2294 -0.7363  0.4292
 9461SOL    HW240020   0.225   3.945   7.069  3.7920 -1.2269 -2.7691
 9462SOL     OW40021   3.004   2.438   6.521  0.5761 -0.1411 -0.1908
 9462SOL    HW140022   3.034   2.350   6.501  2.4842  0.8315 -1.6890
 9462SOL    HW240023   2.930   2.445   6.461  0.2954  1.4405  0.3232
 9463SOL     OW40024   2.096   0.908   9.180  0.1391 -0.2553 -0.6659
 9463SOL    HW140025   2.041   0.867   9.113  0.2587  1.3301 -1.7387
 9463SOL    HW240026   2.042   0.986   9.187 -1.5907 -1.5719  0.6867
 9464SOL     OW40027   1.299   1.505   6.335 -0.0329  0.7129 -0.3566
 9464SOL    HW140028   1.335   1.593   6.326 -0.1953  0.7457 -0.7217
 9464SOL    HW240029   1.381   1.460   6.313 -0.2692 -1.2515  2.8332
 9465SOL     OW40030   3.870   1.818   7.977 -0.4837  0.2051  0.0757
 9465SOL    HW140031   3.868   1.875   8.054 -1.3951 -1.0106  0.9528
 9465SOL    HW240032   3.844   1.735   8.016 -0.6318  0.2079 -0.0149
 9466SOL     OW40033   1.357   4.258   2.789  0.2881 -0.1164  0.2577
 9466SOL    HW140034   1.316   4.172   2.793 -1.8588  0.9110  0.1168
 9466SOL    HW240035   1.432   4.229   2.736  0.1233 -1.1365  0.5901
 9467SOL     OW40036   0.747   1.770   4.304  0.1264  0.1400  0.1048
 9467SOL    HW140037   0.721   1.745   4.215 -0.6468 -0.2937  0.4554
 9467SOL    HW240038   0.743   1.866   4.303 -0.5227  0.1151  0.5339
 9468SOL     OW40039   0.346   2.970   2.841  0.4647 -0.0606  0.1929
 9468SOL    HW140040   0.398   3.041   2.802 -2.1246  0.3108 -2.5547
 9468SOL    HW240041   0.308   3.021   2.912  1.2800  0.5637  0.1772
 9469SOL     OW40042   4.200   1.954   1.831 -0.0709 -0.0512 -0.1326
 9469SOL    HW140043   4.126   2.015   1.826 -0.2576 -0.2056  0.7439
 9469SOL    HW240044   4.169   1.872   1.793 -0.2242 -0.6251  1.2631
 9470SOL     OW40045   1.586   0.691  17.232  0.3877  0.4010  0.0647
 9470SOL    HW140046   1.501   0.736  17.232 -0.2995 -0.8716  0.0013
 9470SOL    HW240047   1.638   0.740  17.295 -0.2372  0.0666  0.8475
 9471SOL     OW40048   2.344   1.998   9.264  0.1089  0.6496  0.0151
 9471SOL    HW140049   2.345   2.079   9.315 -1.0526 -0.3318  1.5814
 9471SOL    HW240050   2.432   2.010   9.228  0.2696  2.3723  0.9324
 9472SOL     OW40051   0.365   3.999   3.619  0.2046 -1.1311 -0.2343
 9472SOL    HW140052   0.363   4.087   3.582  1.0587 -0.1829  1.9762
 9472SOL    HW240053   0.277   3.992   3.655  0.1682 -0.3158 -0.1662
 9473SOL     OW40054   4.250   1.798   0.536 -0.2081  0.6283 -0.5884
 9473SOL    HW140055   4.282   1.718   0.493  0.0056  0.7917 -0.7359
 9473SOL    HW240056   4.205   1.849   0.468  0.8888  0.8307 -1.1671
 9474SOL     OW40057   3.480   4.714   7.804 -0.1819  0.0369  0.5735
 9474SOL    HW140058   3.573   4.728   7.786 -0.2349 -1.1720 -0.6564
 9474SOL    HW240059   3.484   4.716   7.900  0.1730 -3.7138  0.6344
 9475SOL     OW40060   4.557   3.733   4.515 -0.1888  0.4878 -0.1904
 9475SOL    HW140061   4.488   3.798   4.500 -0.3041  0.7587  1.5476
 9475SOL    HW240062   4.523   3.656   4.469  0.1875  0.8084 -1.0049
 9476SOL     OW40063   3.465   4.469  14.921  0.4118  0.4122 -0.0555
 9476SOL    HW140064   3.551   4.436  14.949  0.4437 -1.3167 -2.1965
 9476SOL    HW240065   3.446   4.408  14.849  0.0350 -0.1160  0.4982
 9477SOL     OW40066   1.125   0.388  17.463 -0.1296 -0.4626  0.4523
 9477SOL    HW140067   1.078   0.310  17.490 -1.8957  0.4947  0.1494
 9477SOL    HW240068   1.214   0.359  17.485 -0.1907 -0.5368  0.5996
 9478SOL     OW40069   3.294   1.576   5.270  0.2584 -0.0934 -0.1272
 9478SOL    HW140070   3.341   1.555   5.189 -0.7927 -0.1234 -0.7173
 9478SOL    HW240071   3.290   1.488   5.308 -3.4586 -0.4286 -1.3477
 9479SOL     OW40072   1.767   2.502   2.306  0.6104 -0.5051  0.1741
 9479SOL    HW140073   1.715   2.565   2.257 -1.5475 -0.4624  2.5872
 9479SOL    HW240074   1.805   2.450   2.235  0.3895  1.2055 -1.2007
 9480SOL     OW40075   2.221   3.417   6.091  0.0741 -0.3356 -0.2613
 9480SOL    HW140076   2.193   3.429   6.000 -1.9526  0.8110  0.5157
 9480SOL    HW240077   2.281   3.343   6.078 -0.8584 -1.2579  0.7565
 9481SOL     OW40078   3.357   2.261   2.769  0.0085 -0.1639 -0.4041
 9481SOL    HW140079   3.362   2.229   2.859 -2.0259 -1.0134 -0.5950
 9481SOL    HW240080   3.261   2.262   2.760 -0.1023  1.6059  1.0339
 9482SOL     OW40081   2.206   3.812   6.200  0.1764  0.2492  0.0712
 9482SOL    HW140082   2.164   3.793   6.116 -1.5205 -1.7864  1.3656
 9482SOL    HW240083   2.193   3.906   6.201 -2.9648 -0.1591 -1.3274
 9483SOL     OW40084   1.943   1.213   7.187  0.5082 -0.1926 -0.4078
 9483SOL    HW140085   1.997   1.173   7.119 -0.5648 -1.7704 -0.3236
 9483SOL    HW240086   1.917   1.294   7.143  0.2057  0.8020  1.5823
 9484SOL     OW40087   4.558   3.871   5.294  0.0376 -0.2471 -0.5028
 9484SOL    HW140088   4.594   3.792   5.332  1.2728  0.7061  0.3157
 9484SOL    HW240089   4.560   3.851   5.200  1.9096 -2.9115  0.1250
 9485SOL     OW40090   2.784   4.687   2.932 -0.8439 -0.0208 -0.2427
 9485SOL    HW140091   2.843   4.731   2.994 -0.6694 -1.5542  0.6863
 9485SOL    HW240092   2.700   4.724   2.960 -1.0206 -0.2405 -0.4895
 9486SOL     OW40093   4.575   2.035   4.933 -0.2884 -0.0883 -0.1036
 9486SOL    HW140094   4.640   2.033   5.003  2.7037  0.7293 -2.8252
 9486SOL    HW240095   4.560   2.129   4.935  0.2631 -0.0500  2.0428
 9487SOL     OW40096   2.672   4.704   3.874  0.0932 -0.1673  0.0666
 9487SOL    HW140097   2.595   0.027   3.875  0.8833  0.9446 -2.8547
 9487SOL    HW240098   2.662   4.661   3.959  2.4550  0.0343  0.4326
 9488SOL     OW40099   0.238   4.023   9.442 -0.4345 -0.4311  0.0316
 9488SOL    HW140100   0.242   4.058   9.354 -1.1975 -2.0957 -0.6760
 9488SOL    HW240101   0.144   4.005   9.449 -0.3550 -1.1788 -0.8279
 9489SOL     OW40102   3.733   3.507   7.990 -0.2102  0.2295  0.0662
 9489SOL    HW140103   3.800   3.565   7.954 -0.9876  0.7098 -0.5977
 9489SOL    HW240104   3.745   3.516   8.085 -1.0075  0.5949  0.1372
 9490SOL     OW40105   4.575   2.307   7.107  0.1016 -0.1375  0.0971
 9490SOL    HW140106   4.656   2.261   7.088 -0.4922 -1.1310 -0.0401
 9490SOL    HW240107   4.516   2.243   7.146 -0.2280 -0.7715 -1.4732
 9491SOL     OW40108   0.276   3.698   8.767  0.2741 -0.1472  0.2500
 9491SOL    HW140109   0.261   3.632   8.700  0.4411  0.4063 -0.3306
 9491SOL    HW240110   0.335   3.756   8.718 -1.3792 -1.6405 -3.4946
 9492SOL     OW40111   0.712   1.620   6.797 -0.2664 -0.2234  0.5221
 9492SOL    HW140112   0.743   1.541   6.753  0.9263  0.3588  0.3296
 9492SOL    HW240113   0.690   1.577   6.879  0.3602 -3.6667 -1.1064
 9493SOL     OW40114   2.069   3.511   7.803  0.0259  0.8435 -0.4158
 9493SOL    HW140115   1.997   3.525   7.865 -0.2862  2.0491 -1.0352
 9493SOL    HW240116   2.022   3.537   7.724 -0.7039 -0.3936 -0.3825
 9494SOL     OW40117   0.376   2.847   4.407  0.0552  0.2735  0.3355
 9494SOL    HW140118   0.309   2.779   4.401  0.5152 -0.2736  1.4503
 9494SOL    HW240119   0.325   2.923   4.436 -1.5271 -0.7579  0.2705
 9495SOL     OW40120   2.755   2.323  17.503  0.4709 -0.5357  0.3639
 9495SOL    HW140121   2.669   2.348  17.469  1.0118 -2.1186 -2.2373
 9495SOL    HW240122   2.747   2.327  17.598 -2.0443 -0.8432  0.1487
 9496SOL     OW40123   2.547   1.217   1.485 -0.7016  0.4064  0.7619
 9496SOL    HW140124   2.583   1.138   1.524  0.3628  0.4161 -0.1912
 9496SOL    HW240125   2.587   1.218   1.398 -2.6762 -0.8652 -0.1555
 9497SOL     OW40126   2.447   3.970   3.906 -0.1067  0.7092 -0.1889
 9497SOL    HW140127   2.516   3.904   3.916 -3.4133 -2.5905  0.8597
 9497SOL    HW240128   2.413   3.968   3.996 -1.6455  0.4996 -0.7672
 9498SOL     OW40129   3.193   3.314   0.890 -0.3330 -0.6162 -0.1019
 9498SOL    HW140130   3.235   3.235   0.926  1.1698  0.1015 -0.2497
 9498SOL    HW240131   3.239   3.311   0.805 -2.4189 -0.7631 -1.2151
 9499SOL     OW40132   1.980   1.489   9.506  0.0245 -0.3052  0.3065
 9499SOL    HW140133   1.899   1.526   9.471  2.0466  2.8274 -1.0770
 9499SOL    HW240134   1.948   1.399   9.505  2.1730 -1.0581 -0.2786
 9500SOL     OW40135   2.604   2.579   6.819 -0.1968 -0.2970 -0.5646
 9500SOL    HW140136   2.648   2.578   6.734  0.6375 -0.4614 -0.1306
 9500SOL    HW240137   2.606   2.671   6.848  1.8930 -0.3191 -0.6765
 9501SOL     OW40138   4.201   1.044   2.690 -0.2182 -0.2458  0.0955
 9501SOL    HW140139   4.245   1.022   2.608 -0.1217 -0.8890  0.3192
 9501SOL    HW240140   4.115   1.059   2.653 -0.6772 -1.6048  0.6094
 9502SOL     OW40141   1.066   2.898   2.863 -0.4220 -0.7165 -0.3351
 9502SOL    HW140142   1.160   2.916   2.859 -0.8405  1.6729  0.7903
 9502SOL    HW240143   1.035   2.903   2.772  1.1639  1.9841 -0.7419
 9503SOL     OW40144   3.864   0.976   7.745  0.8457  0.1895 -0.3041
 9503SOL    HW140145   3.816   0.945   7.821  0.0457  0.2136 -0.8030
 9503SOL    HW240146   3.824   0.933   7.669  0.4386 -1.6020  0.9433
 9504SOL     OW40147   0.216   4.282   6.820 -0.2838  0.6017  0.5168
 9504SOL    HW140148   0.269   4.340   6.875  0.1545  0.4089  0.2925
 9504SOL    HW240149   0.166   4.344   6.766 -0.3498  0.6821  0.6704
 9505SOL     OW40150   0.943   2.968   1.079 -0.5861  0.0311 -0.4933
 9505SOL    HW140151   0.901   3.023   1.013 -0.8876  0.6132  0.1895
 9505SOL    HW240152   1.036   2.980   1.058 -0.8914  1.9264 -0.7639
 9506SOL     OW40153   3.808   1.081   5.665 -0.5580 -0.4755  0.0587
 9506SOL    HW140154   3.853   1.150   5.713  2.1080 -1.3778 -1.1338
 9506SOL    HW240155   3.754   1.116   5.595 -1.8127 -0.5489  0.9860
 9507SOL     OW40156   0.092   0.391   4.517  0.0357 -0.1973  0.1830
 9507SOL    HW140157   0.023   0.381   4.583  0.1729 -1.9579  0.0736
 9507SOL    HW240158   0.112   0.483   4.529 -0.8561 -0.3480  2.8340
 9508SOL     OW40159   3.695   1.413   2.168 -0.2766  0.2428 -0.3868
 9508SOL    HW140160   3.748   1.351   2.218 -0.5744  0.6007  0.3766
 9508SOL    HW240161   3.762   1.446   2.108 -0.5853  0.6004 -0.5340
 9509SOL     OW40162   0.153   0.855   2.126  0.0362  0.0146 -0.0359
 9509SOL    HW140163   0.118   0.884   2.041 -0.1028 -1.1471 -0.3748
 9509SOL    HW240164   0.189   0.768   2.108 -1.8798 -0.7922  0.0220
 9510SOL     OW40165   3.182   0.487   5.438  0.0275 -0.0242 -0.6069
 9510SOL    HW140166   3.242   0.422   5.400  0.8142  0.6257 -0.4689
 9510SOL    HW240167   3.226   0.493   5.522  2.2334 -1.0560 -1.6959
 9511SOL     OW40168   1.595   4.079   7.399 -0.5919  0.1906 -0.3606
 9511SOL    HW140169   1.654   4.120   7.463 -1.3712  1.2651 -0.3355
 9511SOL    HW240170   1.521   4.077   7.459 -0.0564  1.3533  0.3375
 9512SOL     OW40171   3.403   0.529   1.518  0.0001 -0.1844  0.2144
 9512SOL    HW140172   3.309   0.547   1.514 -0.3679 -2.2267 -0.2996
 9512SOL    HW240173   3.416   0.486   1.603 -2.2205 -3.2664 -1.0201
 9513SOL     OW40174   3.433   0.397  10.260  0.2148 -0.4134  0.4162
 9513SOL    HW140175   3.444   0.357  10.173 -1.0477 -1.4393  0.7376
 9513SOL    HW240176   3.483   0.478  10.247  1.6853 -1.3268  0.3992
 9514SOL     OW40177   2.647   3.056   3.000  0.4654  0.0316  0.3218
 9514SOL    HW140178   2.596   3.031   2.923 -1.7819  1.9208  1.1692
 9514SOL    HW240179   2.656   3.151   2.985  3.2121 -0.2672  0.0793
 9515SOL     OW40180   1.875   2.249  16.394  0.2363  0.6448 -0.5747
 9515SOL    HW140181   1.892   2.224  16.303  0.0138 -3.2704  0.4639
 9515SOL    HW240182   1.823   2.180  16.436  4.1933 -0.6535  2.1609
 9516SOL     OW40183   1.523   4.264   4.524  0.3329 -0.5261 -0.3138
 9516SOL    HW140184   1.511   4.266   4.429  0.2380 -0.7909 -0.3072
 9516SOL    HW240185   1.610   4.303   4.531 -0.0200 -0.1130  1.6556
 9517SOL     OW40186   0.836   2.134   3.936  0.0373 -0.5672 -0.6691
 9517SOL    HW140187   0.896   2.179   3.876  0.3847 -1.1372 -0.7473
 9517SOL    HW240188   0.773   2.101   3.872 -0.4141 -0.4319 -0.2934
 9518SOL     OW40189   3.430   3.795   3.716 -0.4146  0.9560  0.1446
 9518SOL    HW140190   3.466   3.855   3.651  0.5691 -1.9193 -1.9898
 9518SOL    HW240191   3.483   3.723   3.681 -1.3188  1.3744 -2.0463
 9519SOL     OW40192   2.067   4.145   3.758 -0.1081 -0.5283  0.3107
 9519SOL    HW140193   2.146   4.154   3.812 -0.8169 -0.4348  1.3355
 9519SOL    HW240194   2.064   4.230   3.714 -1.6416 -1.2598 -0.9939
 9520SOL     OW40195   1.806   2.370   6.849 -0.5818 -0.6081 -0.1601
 9520SOL    HW140196   1.828   2.397   6.938  1.4235  1.7905 -1.3745
 9520SOL    HW240197   1.764   2.451   6.821  2.0543  0.1910 -1.8240
 9521SOL     OW40198   2.862   0.300   3.708 -0.0642  0.4497  0.6950
 9521SOL    HW140199   2.812   0.300   3.789  0.4964 -3.5963  1.0311
 9521SOL    HW240200   2.803   0.269   3.639 -0.2604  2.5356 -0.0862
 9522SOL     OW40201   1.828   2.112  10.045 -0.2995  0.2891  0.3578
 9522SOL    HW140202   1.885   2.187  10.026 -0.8711  0.9984  1.4597
 9522SOL    HW240203   1.887   2.063  10.102 -0.8813 -1.0715 -0.1945
 9523SOL     OW40204   4.519   0.678   6.545  0.2153  0.3322 -0.0207
 9523SOL    HW140205   4.508   0.586   6.567 -0.8857  0.8562  1.6203
 9523SOL    HW240206   4.593   0.672   6.484 -0.2429 -0.0327 -0.5406
 9524SOL     OW40207   1.357   1.834   7.039 -0.1785 -0.7573  0.2943
 9524SOL    HW140208   1.365   1.749   7.082  0.7243  0.0007  1.6034
 9524SOL    HW240209   1.357   1.907   7.100  3.1917 -0.2844 -0.2828
 9525SOL     OW40210   1.060   3.731   7.409 -0.0252  0.0527  0.2004
 9525SOL    HW140211   0.966   3.712   7.402 -0.3391  1.3042  1.0394
 9525SOL    HW240212   1.091   3.699   7.325  0.9510  0.0212  0.5769
 9526SOL     OW40213   1.914   0.365   6.129  0.0575 -0.0889  0.5818
 9526SOL    HW140214   1.964   0.321   6.198 -0.4480 -0.8409  0.4734
 9526SOL    HW240215   1.855   0.292   6.108 -1.4291  1.2912 -0.0291
 9527SOL     OW40216   0.545   4.403   7.663  0.4494  0.3346  0.2950
 9527SOL    HW140217   0.492   4.442   7.733  1.6615  1.0899  0.7870
 9527SOL    HW240218   0.481   4.395   7.592  0.4690 -0.8550  0.4200
 9528SOL     OW40219   0.730   0.749   8.036 -0.2204 -0.3035  0.3124
 9528SOL    HW140220   0.656   0.711   8.083 -0.0823 -2.3511 -1.0946
 9528SOL    HW240221   0.701   0.840   8.033  2.1182  0.4360  0.9984
 9529SOL     OW40222   4.682   1.635   7.352 -0.2087 -0.1971 -0.3462
 9529SOL    HW140223   4.731   1.714   7.374 -2.4224  1.8204 -2.4993
 9529SOL    HW240224   0.006   1.598   7.285  0.0662 -1.0784  0.3820
 9530SOL     OW40225   0.128   0.694   1.211 -0.0347 -0.3045  0.1730
 9530SOL    HW140226   0.077   0.665   1.134  1.2460  0.8860 -1.1184
 9530SOL    HW240227   0.171   0.610   1.222  3.1029  1.5464  1.8278
 9531SOL     OW40228   4.462   2.758   3.019 -0.3370  0.2798  0.4131
 9531SOL    HW140229   4.455   2.692   3.089 -1.8914  0.0870  0.0760
 9531SOL    HW240230   4.468   2.704   2.941  1.4659 -0.5841  1.1426
 9532SOL     OW40231   2.619   2.843   1.345  0.1073  0.6436 -0.5349
 9532SOL    HW140232   2.625   2.797   1.262 -0.7492 -1.5031  0.5780
 9532SOL    HW240233   2.711   2.867   1.357 -0.1980  1.9789 -0.8463
 9533SOL     OW40234   4.096   1.064   3.531  0.3661  0.4662 -0.3046
 9533SOL    HW140235   4.109   1.000   3.602 -2.4690  0.8908  0.5999
 9533SOL    HW240236   4.013   1.048   3.486  0.0594 -0.7821  0.7139
 9534SOL     OW40237   2.981   1.709   3.300 -0.1711  0.4438 -0.5192
 9534SOL    HW140238   3.034   1.700   3.379 -1.1860 -0.4122  0.0745
 9534SOL    HW240239   2.951   1.799   3.312 -0.4190  0.2990 -0.0522
 9535SOL     OW40240   4.423   2.805   2.657 -0.3442  0.3427 -0.3906
 9535SOL    HW140241   4.414   2.895   2.687  0.6544  0.6625 -1.0316
 9535SOL    HW240242   4.390   2.820   2.568 -2.6571  0.8337  0.5610
 9536SOL     OW40243   2.159   2.726   5.479  0.2708 -0.5437 -0.0269
 9536SOL    HW140244   2.064   2.735   5.487  0.4359  0.0368  1.2949
 9536SOL    HW240245   2.168   2.631   5.467 -0.9877 -0.9716  2.6245
 9537SOL     OW40246   0.590   0.266   4.701  0.6961  0.0129 -0.2617
 9537SOL    HW140247   0.523   0.304   4.644  0.4008  0.5008  0.4111
 9537SOL    HW240248   0.671   0.266   4.650 -0.0105  2.1263 -1.3844
 9538SOL     OW40249   0.642   0.441   9.100 -0.0290 -0.0620  1.1812
 9538SOL    HW140250   0.585   0.458   9.176  0.6132  0.8197  1.4790
 9538SOL    HW240251   0.661   0.535   9.092  0.0566 -0.0573  1.4280
 9539SOL     OW40252   3.320   2.003   4.625 -0.1877  0.2240  0.2997
 9539SOL    HW140253   3.245   2.041   4.579  0.5489 -0.9505 -1.8647
 9539SOL    HW240254   3.338   1.926   4.570  1.4386 -0.3344  1.6027
 9540SOL     OW40255   4.129   3.082   5.069 -0.3632  0.0997 -0.5890
 9540SOL    HW140256   4.127   3.104   4.976  2.7062  2.8702  0.0057
 9540SOL    HW240257   4.121   2.986   5.066 -2.0214  0.1749  0.7677
 9541SOL     OW40258   4.364   0.317   9.536 -0.5994 -0.5223 -0.5572
 9541SOL    HW140259   4.452   0.281   9.544 -0.9996 -1.8301 -1.8662
 9541SOL    HW240260   4.320   0.287   9.615 -2.4697 -0.2321 -1.4857
 9542SOL     OW40261   1.419   4.246   4.776  0.3036  0.5474 -0.6144
 9542SOL    HW140262   1.491   4.212   4.830  0.6847  3.3606  0.6132
 9542SOL    HW240263   1.464   4.271   4.695 -0.8015  2.2894 -0.6838
 9543SOL     OW40264   4.334   1.097  11.140 -0.8092  0.0528 -0.0134
 9543SOL    HW140265   4.243   1.068  11.138  0.0552 -2.6010 -1.3779
 9543SOL    HW240266   4.325   1.161  11.069 -0.0483 -0.0417 -0.1932
 9544SOL     OW40267   2.519   3.235   3.782 -0.1146  0.1943 -0.0710
 9544SOL    HW140268   2.450   3.178   3.749 -1.2404  0.9416  0.9657
 9544SOL    HW240269   2.520   3.227   3.877 -0.1559 -1.3867 -0.2149
 9545SOL     OW40270   2.919   1.940   3.382  0.1554  0.5497  1.1205
 9545SOL    HW140271   2.893   2.007   3.446  1.5456 -1.0922  3.4395
 9545SOL    HW240272   2.995   1.985   3.344  0.0181 -0.4346 -0.2956
 9546SOL     OW40273   1.537   1.098   4.627 -0.4937 -0.2074 -0.0172
 9546SOL    HW140274   1.595   1.075   4.700  0.2186  1.1847 -0.1518
 9546SOL    HW240275   1.599   1.141   4.568  0.0178  2.5916  2.5622
 9547SOL     OW40276   3.536   1.256   3.568  0.0954  0.7066  0.0469
 9547SOL    HW140277   3.492   1.173   3.550 -1.7636  2.0155 -1.4136
 9547SOL    HW240278   3.541   1.290   3.479  0.8206  1.7957  0.4949
 9548SOL     OW40279   1.464   1.827  15.208  0.1178  0.2411 -0.1705
 9548SOL    HW140280   1.526   1.792  15.272 -0.6119 -0.4219  0.1689
 9548SOL    HW240281   1.416   1.888  15.264  0.4371  1.2807 -1.0263
 9549SOL     OW40282   0.742   4.708   5.050  0.0970 -0.0232  0.2723
 9549SOL    HW140283   0.792   4.660   4.983  0.0728  1.0594 -0.5138
 9549SOL    HW240284   0.814   0.022   5.091  0.3752 -0.2847  0.0920
 9550SOL     OW40285   0.008   2.764   2.908 -0.8179  0.4235  0.2921
 9550SOL    HW140286   4.694   2.710   2.845  0.8518 -1.7939  0.9082
 9550SOL    HW240287   4.711   2.847   2.872 -1.8673  1.3558  3.4087
 9551SOL     OW40288   2.367   1.089   9.566  0.0333  0.8793 -0.5081
 9551SOL    HW140289   2.403   1.000   9.567  0.2017  0.9510  0.6809
 9551SOL    HW240290   2.286   1.070   9.519 -0.5970  2.2421  0.0450
 9552SOL     OW40291   3.278   4.483   7.954  0.2929 -0.0572  0.5778
 9552SOL    HW140292   3.297   4.497   7.862 -0.5139 -2.2776  0.0806
 9552SOL    HW240293   3.351   4.429   7.983 -1.9236 -2.8604  0.9148
 9553SOL     OW40294   3.861   3.863   7.942 -0.2910  0.1899 -0.7169
 9553SOL    HW140295   3.885   3.881   7.850  0.9801 -0.1870 -0.4621
 9553SOL    HW240296   3.945   3.834   7.977  0.1157 -0.0087 -1.8525
 9554SOL     OW40297   2.290   0.330  14.704  0.1418 -0.3654  0.1346
 9554SOL    HW140298   2.346   0.333  14.626  0.9660  0.0935  0.7409
 9554SOL    HW240299   2.206   0.354  14.666  0.6072 -0.0521 -0.7126
 9555SOL     OW40300   0.973   3.251   4.050  1.0734 -0.5672 -0.2051
 9555SOL    HW140301   0.945   3.342   4.038 -1.3590 -1.3747 -0.6501
 9555SOL    HW240302   1.012   3.242   4.136 -2.0851 -0.6473  1.2164
 9556SOL     OW40303   0.720   2.488   4.534 -0.2058  0.5054  0.0139
 9556SOL    HW140304   0.690   2.401   4.506 -2.1483  0.3507  2.6033
 9556SOL    HW240305   0.696   2.541   4.458 -1.6355  1.8887  1.4461
 9557SOL     OW40306   2.755   2.367   6.447  0.2845 -0.0968 -0.2195
 9557SOL    HW140307   2.769   2.281   6.407  2.5886  0.0516  0.2164
 9557SOL    HW240308   2.782   2.351   6.538  2.9626 -1.2136 -1.2069
 9558SOL     OW40309   1.809   3.974   3.262  0.4855  0.7004  0.2390
 9558SOL    HW140310   1.715   3.982   3.245  0.8973 -1.3154 -2.8456
 9558SOL    HW240311   1.824   3.899   3.321  1.6807  0.1473 -0.7719
 9559SOL     OW40312   4.000   2.586   2.162 -0.1446 -0.5445 -0.2365
 9559SOL    HW140313   3.937   2.520   2.191 -0.2557 -0.4762 -0.3204
 9559SOL    HW240314   3.961   2.617   2.080 -2.1945  1.9007  1.6575
 9560SOL     OW40315   2.051   0.397  14.568  0.2258  0.5256  0.1250
 9560SOL    HW140316   2.070   0.466  14.505  2.8404  0.2285  0.5992
 9560SOL    HW240317   1.962   0.373  14.542  1.9491 -3.3750 -2.1182
 9561SOL     OW40318   3.847   1.719   0.267  0.2619 -0.4080 -0.7468
 9561SOL    HW140319   3.766   1.750   0.310  1.1802 -1.3456  1.6766
 9561SOL    HW240320   3.821   1.741   0.178 -2.3596  0.2232  0.1770
 9562SOL     OW40321   4.016   0.338   1.862  0.7034 -0.3670 -0.7593
 9562SOL    HW140322   4.100   0.295   1.877  0.6244  0.3340  1.8848
 9562SOL    HW240323   3.983   0.288   1.788 -0.6844  0.0855 -0.4556
 9563SOL     OW40324   4.067   3.561   6.082  0.0667 -0.0684 -0.0572
 9563SOL    HW140325   3.974   3.568   6.059 -0.0370  0.0752  0.4157
 9563SOL    HW240326   4.108   3.547   5.996  1.1731 -0.9602  0.6160
 9564SOL     OW40327   4.672   0.142  12.425 -0.1547  0.1420  0.1313
 9564SOL    HW140328   4.688   0.236  12.429 -0.4447  0.2956 -2.5040
 9564SOL    HW240329   4.606   0.115  12.362  0.3211  0.0921 -0.3429
 9565SOL     OW40330   2.559   2.822   7.817  0.0386  0.5385 -0.1456
 9565SOL    HW140331   2.474   2.780   7.833  1.0673 -0.6539  2.1307
 9565SOL    HW240332   2.599   2.831   7.903  1.1815  1.2841 -0.7652
 9566SOL     OW40333   1.745   0.317  12.996  0.5406 -1.0055  0.0342
 9566SOL    HW140334   1.753   0.390  13.057  1.2124  0.5412 -1.9183
 9566SOL    HW240335   1.766   0.360  12.914  2.0577  0.0943  1.0142
 9567SOL     OW40336   2.318   2.655   9.317 -0.1716 -0.2055  0.4023
 9567SOL    HW140337   2.272   2.696   9.243  0.7793  0.8473  0.4116
 9567SOL    HW240338   2.412   2.666   9.305  0.0840 -2.9822 -0.3425
 9568SOL     OW40339   0.229   2.350   5.785 -0.0413  0.3480 -0.0023
 9568SOL    HW140340   0.243   2.359   5.691  0.3941 -0.5338 -0.0193
 9568SOL    HW240341   0.224   2.255   5.795 -1.4437  0.5976  1.7416
 9569SOL     OW40342   0.662   0.261   8.341  0.6225  0.1943 -0.2232
 9569SOL    HW140343   0.715   0.338   8.320  0.6243 -0.4996 -2.7492
 9569SOL    HW240344   0.575   0.284   8.307  0.8567  0.1686 -0.8374
   4.73409   4.73409  17.73546
