Membrane in water
40344
    1TMC1    C1    1   3.524   0.777  11.418 -0.3148  0.7842  0.0472
    1TMC1    C2    2   3.547   0.733  11.292 -0.6395  1.1416  0.2612
    1TMC1    C3    3   3.650   0.790  11.219 -0.0623 -0.5719  0.3851
    1TMC1    C4    4   3.609   0.874  11.471 -0.6390  0.0941  0.1882
    1TMC1    C5    5   3.709   0.932  11.397  0.4205 -0.0177  0.2050
    1TMC1    C6    6   3.736   0.888  11.264 -0.0591 -0.8347  0.7086
    1TMC1     C    7   3.413   0.723  11.497 -0.5121 -0.5375  0.0042
    1TMC1     O    8   3.382   0.800  11.588 -0.3538  0.3263 -0.1565
    1TMC1     H    9   3.480   0.661  11.245 -0.4570  0.6406  0.7726
    1TMC1    H1   10   3.591   0.909  11.572 -1.0155 -0.5937  0.3567
    1TMC1    H2   11   3.819   0.928  11.208 -1.3063  0.4523 -0.2494
    1TMC1    C7   12   3.806   1.004  11.466 -0.0657 -0.1408  0.0010
    1TMC1    C8   13   3.707   0.738  11.098 -0.3498 -0.5794  0.4610
    1TMC1    O1   14   3.864   0.955  11.565 -0.5952  0.1894  0.4792
    1TMC1    O2   15   3.803   0.789  11.043 -0.3537 -0.7459  0.0940
    1TMC1    O3   16   3.856   1.085  11.372  0.2908  0.6950 -0.2263
    1TMC1    H3   17   3.793   1.097  11.297  1.0158 -1.3601 -1.1683
    1TMC1    O5   18   3.673   0.607  11.091  0.0962 -0.6729  0.1741
    1TMC1    H5   19   3.598   0.592  11.151  0.4146 -0.9889  0.4966
    2MPD2     C   20   3.142   0.369  11.709  0.2870  0.3747 -0.0886
    2MPD2    C1   21   3.125   0.507  11.716 -0.3994 -0.0048  0.0822
    2MPD2    C2   22   3.222   0.576  11.637  1.2902  0.8385  0.5642
    2MPD2    C3   23   3.317   0.511  11.561 -0.1688  0.2660 -0.1341
    2MPD2    C4   24   3.325   0.375  11.559 -0.2167 -0.0494  0.0884
    2MPD2    C5   25   3.242   0.300  11.639 -0.4155 -0.0982 -0.7155
    2MPD2     H   26   3.208   0.684  11.644  2.9739  1.0813  0.1937
    2MPD2    H1   27   3.411   0.331  11.509 -0.6160 -0.4886 -0.2125
    2MPD2    H2   28   3.065   0.305  11.751 -0.2606  0.7164 -0.5689
    2MPD2    H3   29   3.250   0.192  11.639  2.9966  0.1766  0.4284
    2MPD2     N   30   3.403   0.587  11.482 -0.1469 -0.8933 -0.4066
    2MPD2    H5   31   3.446   0.551  11.397  1.4915 -0.4885  0.2403
    2MPD2    N1   32   3.022   0.578  11.775 -0.3122 -0.1123 -0.1005
    2MPD2    H7   33   3.010   0.678  11.764  0.3893 -0.1524 -1.2752
    3TMC1    C1   34   2.144   2.113  10.726 -0.6220  0.1806 -0.0865
    3TMC1    C2   35   2.242   2.191  10.686  0.3453  0.3041  0.2514
    3TMC1    C3   36   2.300   2.161  10.563 -0.0486  0.7017  0.9274
    3TMC1    C4   37   2.118   2.001  10.658  0.2488 -0.8615 -0.7786
    3TMC1    C5   38   2.160   1.988  10.530 -1.0336 -0.3974 -0.4153
    3TMC1    C6   39   2.256   2.064  10.478  0.0258  0.8952 -0.4832
    3TMC1     C   40   2.083   2.127  10.855 -0.5647 -0.5609  0.2285
    3TMC1     O   41   2.059   2.018  10.910 -0.4162  0.3880 -0.2034
    3TMC1     H   42   2.280   2.269  10.751  1.4915  0.7954 -1.0070
    3TMC1    H1   43   2.048   1.927  10.696  0.2067 -0.0549  0.7289
    3TMC1    H2   44   2.275   2.069  10.372 -1.3335  0.9419 -0.7229
    3TMC1    C7   45   2.130   1.865  10.452 -0.4332  0.7265 -0.3075
    3TMC1    C8   46   2.406   2.256  10.522  0.6394  0.5049  0.1777
    3TMC1    O1   47   2.056   1.782  10.498 -0.1190  0.2571  0.6022
    3TMC1    O2   48   2.399   2.376  10.555 -0.2022 -0.0039  0.6624
    3TMC1    O3   49   2.245   1.831  10.391 -0.2007 -0.5293  0.2409
    3TMC1    H3   50   2.326   1.882  10.409 -0.9914  0.0230  2.1883
    3TMC1    O5   51   2.495   2.198  10.445 -0.0482 -0.5359  0.3872
    3TMC1    H5   52   2.482   2.101  10.439  1.5351 -0.8767  2.5607
    4MPD2     C   53   1.919   2.409  11.254 -0.1232  0.5093  0.4092
    4MPD2    C1   54   1.958   2.490  11.153 -0.6397 -0.4134 -0.2258
    4MPD2    C2   55   2.015   2.438  11.043 -0.2721 -0.5304 -0.0603
    4MPD2    C3   56   2.032   2.301  11.029  0.6528  0.4400  0.3492
    4MPD2    C4   57   1.972   2.216  11.118 -0.9057 -0.7054  0.0685
    4MPD2    C5   58   1.928   2.267  11.240  0.4084 -0.3723  0.5952
    4MPD2     H   59   2.057   2.504  10.968  1.2572  0.2267  1.4622
    4MPD2    H1   60   1.992   2.110  11.103 -1.7265 -0.9031  0.3480
    4MPD2    H2   61   1.881   2.438  11.351 -2.9884  1.2940 -0.9599
    4MPD2    H3   62   1.886   2.205  11.318 -1.8568 -0.2953 -0.5688
    4MPD2     N   63   2.084   2.258  10.903  0.4903 -0.2051  0.3186
    4MPD2    H5   64   2.102   2.328  10.832 -2.9276  2.3275  1.9081
    4MPD2    N1   65   1.936   2.630  11.159  0.0391 -0.0792 -0.1005
    4MPD2    H7   66   1.956   2.670  11.067 -0.9340  0.5701 -0.0339
    5TCq1    O1   67   2.256   4.666  11.323  0.4208  0.3618  0.5302
    5TCq1    C1   68   2.262   4.540  11.262  0.4141  0.9972  1.3704
    5TCq1    O2   69   2.178   4.450  11.267 -0.8254 -0.4520  0.4002
    5TCq1    C2   70   2.401   4.506  11.217 -0.4225 -0.4839 -0.4760
    5TCq1    C3   71   2.505   4.540  11.293 -0.3524  0.4648  0.5786
    5TCq1    C4   72   2.622   4.476  11.269  0.3920 -0.4907  0.8664
    5TCq1    C5   73   2.637   4.388  11.165 -0.4969 -0.1154  0.2725
    5TCq1    C6   74   2.522   4.346  11.099 -0.6117 -0.0830 -0.2406
    5TCq1    C7   75   2.397   4.406  11.121  0.3110 -0.2807 -0.5850
    5TCq1    C8   76   2.516   4.214  11.038  0.3149 -0.3284  0.8134
    5TCq1    O4   77   2.601   4.132  11.073  0.4067  0.4455 -0.2043
    5TCq1    C9   78   2.739   4.498  11.353 -0.5784  0.0934  0.1487
    5TCq1    O5   79   2.758   4.607  11.417 -0.5136 -0.5370 -0.0839
    5TCq1    O6   80   2.815   4.397  11.363  0.1569  0.3980 -0.0110
    5TCq1    H1   81   2.335   4.713  11.290 -0.6568  0.8136 -1.3975
    5TCq1    H2   82   2.489   4.616  11.369 -2.7785  0.0242  0.4982
    5TCq1    H3   83   2.733   4.339  11.151  0.2470  1.4810 -0.2797
    5TCq1    H4   84   2.303   4.370  11.081 -1.1291  1.3675  1.3331
    6MPD2     C   85   2.245   4.093  10.823  0.0591  0.4648  0.4052
    6MPD2    C1   86   2.364   4.088  10.885  0.7462  0.3945  0.6390
    6MPD2    C2   87   2.442   3.972  10.876 -0.3891  0.2514  0.4047
    6MPD2    C3   88   2.393   3.860  10.813  0.6666  0.3352  0.4675
    6MPD2    C4   89   2.265   3.868  10.756 -0.2297 -1.0121 -0.4585
    6MPD2    C5   90   2.193   3.985  10.757  0.8585 -0.2119 -0.6434
    6MPD2     H   91   2.543   3.962  10.913 -1.2112 -2.4419  1.8993
    6MPD2    H1   92   2.211   3.783  10.715 -1.4645 -0.7548  0.6182
    6MPD2    H2   93   2.174   4.175  10.828 -0.6892 -0.3169  2.7249
    6MPD2    H3   94   2.096   3.995  10.710  0.4803 -3.1313 -0.5107
    6MPD2     N   95   2.477   3.744  10.818 -0.1940  0.3069  1.5861
    6MPD2    H5   96   2.545   3.732  10.893  0.4697  0.0678  0.9497
    6MPD2    N1   97   2.402   4.200  10.960 -0.8313  0.0467  0.0100
    6MPD2    H7   98   2.351   4.284  10.938 -2.6576 -1.3855 -1.2361
    7TCq1    O1   99   4.561   3.432  13.715 -0.7346  0.2459 -0.4286
    7TCq1    C1  100   4.631   3.544  13.733 -0.5303  0.4905 -0.1529
    7TCq1    O2  101   4.598   3.658  13.765  0.2503  0.2165 -0.9633
    7TCq1    C2  102   0.013   3.517  13.670  0.2702 -0.4804 -0.1895
    7TCq1    C3  103   0.075   3.626  13.613 -0.0527 -0.1001 -0.2844
    7TCq1    C4  104   0.163   3.612  13.512 -0.2145 -0.3065 -0.1471
    7TCq1    C5  105   0.187   3.486  13.474  0.2239  0.0595  0.0363
    7TCq1    C6  106   0.139   3.379  13.542  0.0043  0.7947  0.7978
    7TCq1    C7  107   0.054   3.389  13.650 -0.3196  0.4058 -0.4561
    7TCq1    C8  108   0.168   3.248  13.487 -0.6535  0.2276 -0.7213
    7TCq1    O4  109   0.081   3.163  13.510  0.6860  0.2224 -0.1993
    7TCq1    C9  110   0.200   3.720  13.432 -0.6834  0.1147 -0.1099
    7TCq1    O5  111   0.191   3.835  13.481  0.2393 -0.3336 -0.1894
    7TCq1    O6  112   0.241   3.682  13.317 -0.4047  0.0775 -0.0963
    7TCq1    H1  113   4.608   3.372  13.653  2.0388  2.2073 -0.2495
    7TCq1    H2  114   0.042   3.726  13.635 -0.7106 -0.6417  1.1967
    7TCq1    H3  115   0.248   3.478  13.385 -0.6302  0.4920 -0.5865
    7TCq1    H4  116   0.016   3.294  13.687  1.7850 -0.1195  0.3298
    8MPD2     C  117   0.460   2.908  13.266 -0.4133 -0.2037 -0.1508
    8MPD2    C1  118   0.336   2.893  13.312 -0.3783  0.4463 -0.0476
    8MPD2    C2  119   0.282   3.005  13.369  0.0133  0.1647  0.3408
    8MPD2    C3  120   0.349   3.128  13.376 -0.0158 -0.8972  0.1414
    8MPD2    C4  121   0.487   3.130  13.337  0.3610  0.1103 -0.6715
    8MPD2    C5  122   0.538   3.017  13.288 -0.2292  0.5021  0.1557
    8MPD2     H  123   0.178   2.988  13.397 -0.6412  0.8914 -1.6456
    8MPD2    H1  124   0.538   3.225  13.347  0.2841  0.1516 -0.6649
    8MPD2    H2  125   0.506   2.824  13.215 -1.4369  0.6010 -2.4097
    8MPD2    H3  126   0.639   3.022  13.249 -0.2455  0.4208  0.1025
    8MPD2     N  127   0.295   3.243  13.437 -0.4756 -0.1750  0.2213
    8MPD2    H5  128   0.363   3.313  13.466 -2.9034  2.8564 -1.3408
    8MPD2    N1  129   0.272   2.765  13.303  0.8589  0.0934 -0.3318
    8MPD2    H7  130   0.330   2.695  13.260  1.6432 -0.5023  1.6829
    9TMC1    C1  131   3.413   2.185  10.959 -0.8309  0.4924 -0.1547
    9TMC1    C2  132   3.433   2.075  10.884  0.3931 -0.3500  0.1249
    9TMC1    C3  133   3.561   2.056  10.833  0.3894  0.1056 -0.2832
    9TMC1    C4  134   3.514   2.281  10.968 -0.3667 -0.7028  0.2890
    9TMC1    C5  135   3.629   2.259  10.910 -0.5446  0.3238 -0.5618
    9TMC1    C6  136   3.660   2.150  10.838 -0.3761 -0.2902  0.1703
    9TMC1     C  137   3.282   2.234  10.986 -1.1374  0.1540  0.5781
    9TMC1     O  138   3.269   2.352  11.014  0.0886 -0.9090 -0.1649
    9TMC1     H  139   3.353   2.012  10.847 -1.0790  1.1647  0.7486
    9TMC1    H1  140   3.487   2.360  11.036 -0.9908 -1.5818  1.0627
    9TMC1    H2  141   3.760   2.122  10.806 -1.4153 -0.9226 -2.5506
    9TMC1    C7  142   3.740   2.340  10.950  0.3605 -0.4365 -0.4637
    9TMC1    C8  143   3.573   1.949  10.740 -0.3309  0.1920  0.1901
    9TMC1    O1  144   3.700   2.451  10.980  0.3087  0.0863 -0.2148
    9TMC1    O2  145   3.514   1.841  10.754 -0.0602 -0.5459  0.2507
    9TMC1    O3  146   3.819   2.263  11.026  0.1648 -0.3843 -0.0203
    9TMC1    H3  147   3.826   2.173  10.986  2.3337  0.3085 -1.1363
    9TMC1    O5  148   3.632   2.002  10.635  0.6588  0.2952  0.4024
    9TMC1    H5  149   3.613   2.098  10.630  0.0833  0.0903 -1.2513
   10MPD2     C  150   2.983   2.267  11.056 -0.1385 -0.5973 -0.9999
   10MPD2    C1  151   3.051   2.149  11.023  0.1101 -0.1247 -0.3621
   10MPD2    C2  152   2.981   2.031  11.042  0.1941  0.6024 -0.1266
   10MPD2    C3  153   2.847   2.024  11.081 -0.5670  0.4393  0.0060
   10MPD2    C4  154   2.799   2.139  11.136  0.4834 -0.7245  0.6060
   10MPD2    C5  155   2.861   2.256  11.123  0.3161  0.2635 -0.3586
   10MPD2     H  156   3.036   1.941  11.017  0.9889  1.1083 -0.1953
   10MPD2    H1  157   2.702   2.144  11.183  0.0655  1.2393 -0.4695
   10MPD2    H2  158   3.027   2.366  11.045 -0.3629 -0.3674  0.1669
   10MPD2    H3  159   2.824   2.349  11.164  2.1410  0.7983  0.0763
   10MPD2     N  160   2.757   1.916  11.087 -0.9095 -0.4932 -0.1762
   10MPD2    H5  161   2.664   1.930  11.125 -1.7590 -1.6243 -1.8390
   10MPD2    N1  162   3.190   2.132  10.991  0.4227 -0.6533 -0.3207
   10MPD2    H7  163   3.224   2.037  10.988  0.2770 -0.7117 -0.1044
   11TCq1    O1  164   2.905   1.780  14.099  0.5319 -0.5928 -0.2323
   11TCq1    C1  165   2.818   1.677  14.068  1.0789  0.8216 -0.1267
   11TCq1    O2  166   2.841   1.584  13.993  0.1266 -0.4578  0.1783
   11TCq1    C2  167   2.682   1.735  14.079 -0.1548  0.4243  0.1093
   11TCq1    C3  168   2.665   1.828  14.173 -0.7578 -0.8106  0.2719
   11TCq1    C4  169   2.543   1.891  14.171 -0.6833  0.0398  0.3269
   11TCq1    C5  170   2.443   1.858  14.085 -0.2176 -0.5108 -0.4000
   11TCq1    C6  171   2.467   1.751  13.999 -0.1592  0.8204  0.3748
   11TCq1    C7  172   2.590   1.686  13.996 -0.4535 -0.0020 -0.0144
   11TCq1    C8  173   2.361   1.722  13.895 -0.2245  0.4780  0.0907
   11TCq1    O4  174   2.273   1.808  13.888  0.1109 -0.1025  0.3007
   11TCq1    C9  175   2.543   2.012  14.254  0.4085 -0.1778 -0.5690
   11TCq1    O5  176   2.656   2.064  14.286 -0.2272 -0.1407 -0.1922
   11TCq1    O6  177   2.428   2.066  14.273  0.7515  0.0135  0.0291
   11TCq1    H1  178   3.000   1.759  14.083  0.8532  0.6127  0.0850
   11TCq1    H2  179   2.748   1.855  14.237  0.2622  1.2334 -1.8833
   11TCq1    H3  180   2.345   1.904  14.094 -0.9531 -2.2041  0.1460
   11TCq1    H4  181   2.627   1.613  13.925 -0.5530  0.6621 -0.7508
   12MPD2     C  182   2.186   1.596  13.681  0.0564 -0.4483 -0.6900
   12MPD2    C1  183   2.312   1.557  13.713 -0.2226 -0.8939  0.8089
   12MPD2    C2  184   2.369   1.455  13.642 -0.1694 -0.8278 -0.3214
   12MPD2    C3  185   2.302   1.384  13.548 -0.6595  0.0312  0.0036
   12MPD2    C4  186   2.165   1.409  13.531 -1.2362 -0.3948 -0.5651
   12MPD2    C5  187   2.110   1.524  13.594  0.6942 -0.6415  0.2963
   12MPD2     H  188   2.471   1.427  13.664 -0.2573 -0.8560  0.0595
   12MPD2    H1  189   2.105   1.343  13.470  3.1263 -3.3173 -1.6794
   12MPD2    H2  190   2.136   1.677  13.733 -0.8603 -0.0325 -2.2139
   12MPD2    H3  191   2.003   1.539  13.583  0.9402  0.2610 -0.8619
   12MPD2     N  192   2.359   1.280  13.472 -0.6898 -0.4794  0.2895
   12MPD2    H5  193   2.295   1.233  13.407 -0.3351 -1.6976  0.8165
   12MPD2    N1  194   2.386   1.609  13.821 -0.5112  0.8344  0.0582
   12MPD2    H7  195   2.467   1.556  13.852 -2.6038 -2.1004  0.5306
   13TCq1    O1  196   2.923   1.510  10.426 -0.0669 -0.1522 -0.3244
   13TCq1    C1  197   2.809   1.450  10.459  0.9080 -0.3247 -0.3261
   13TCq1    O2  198   2.802   1.329  10.481 -0.2999 -0.3781  0.4057
   13TCq1    C2  199   2.707   1.542  10.504  0.4158 -0.8740  0.1208
   13TCq1    C3  200   2.680   1.649  10.428  0.2720  0.7216  0.4222
   13TCq1    C4  201   2.606   1.750  10.482 -0.1424 -0.2073 -0.4534
   13TCq1    C5  202   2.546   1.739  10.602  0.0321  0.0021 -0.0919
   13TCq1    C6  203   2.572   1.628  10.675  1.2374  1.0804  0.1127
   13TCq1    C7  204   2.649   1.520  10.628  0.5219  0.0381 -0.1654
   13TCq1    C8  205   2.498   1.612  10.803  0.4398 -0.3284  0.1967
   13TCq1    O4  206   2.415   1.696  10.834  0.1629 -0.0700 -1.3013
   13TCq1    C9  207   2.580   1.866  10.398 -1.3792  0.2991 -0.9458
   13TCq1    O5  208   2.483   1.944  10.430  0.6178 -0.2034 -0.0987
   13TCq1    O6  209   2.657   1.873  10.302  0.2586 -0.1162  0.3437
   13TCq1    H1  210   2.914   1.605  10.450 -1.0147  0.2316 -2.2421
   13TCq1    H2  211   2.705   1.639  10.323 -0.5125 -0.0722  0.3045
   13TCq1    H3  212   2.489   1.818  10.649  3.6292  2.9718 -0.7779
   13TCq1    H4  213   2.669   1.428  10.683 -0.1445 -0.8134 -1.3592
   14MPD2     C  214   2.468   1.305  11.014  0.4552 -0.2906  0.1587
   14MPD2    C1  215   2.443   1.438  10.975  0.2493  0.0738 -0.7888
   14MPD2    C2  216   2.338   1.502  11.044  0.0786  0.0964 -0.5429
   14MPD2    C3  217   2.270   1.439  11.141  0.6667  0.1954 -0.1848
   14MPD2    C4  218   2.295   1.306  11.171 -0.5205 -0.0565  0.1034
   14MPD2    C5  219   2.390   1.233  11.100  0.4337  0.3514 -0.1199
   14MPD2     H  220   2.312   1.602  11.014  0.7806  0.6103  0.5536
   14MPD2    H1  221   2.242   1.253  11.250 -1.5636  0.1407 -0.4631
   14MPD2    H2  222   2.559   1.251  10.990  0.1290 -0.7905  0.0320
   14MPD2    H3  223   2.412   1.129  11.117  0.9336  0.8174  2.1314
   14MPD2     N  224   2.176   1.521  11.210 -0.6236 -0.2645 -0.1435
   14MPD2    H5  225   2.188   1.620  11.188 -2.3026 -0.8121 -3.5641
   14MPD2    N1  226   2.530   1.492  10.872 -0.1654 -0.2274 -0.1988
   14MPD2    H7  227   2.605   1.434  10.836  1.6140  2.0203 -0.1198
   15TCq1    O1  228   0.862   1.228   2.136  0.3348 -0.1384  0.1556
   15TCq1    C1  229   0.812   1.235   2.011  0.1871  0.0188  0.2122
   15TCq1    O2  230   0.888   1.202   1.918 -0.0540  0.1666 -0.4538
   15TCq1    C2  231   0.673   1.207   2.017 -0.3402  0.4728 -0.6675
   15TCq1    C3  232   0.596   1.280   2.104 -0.4445  0.4963  0.8382
   15TCq1    C4  233   0.463   1.261   2.108  0.0456 -0.5223 -0.3198
   15TCq1    C5  234   0.409   1.161   2.035 -0.4697 -0.8363  0.3998
   15TCq1    C6  235   0.488   1.091   1.945  0.1844  0.6642  0.2067
   15TCq1    C7  236   0.618   1.113   1.936 -0.0408 -0.3061  0.3274
   15TCq1    C8  237   0.436   0.977   1.878 -0.7997 -0.4269 -1.0326
   15TCq1    O4  238   0.511   0.893   1.824  0.2183  0.4026 -0.5847
   15TCq1    C9  239   0.379   1.351   2.175  0.9095 -0.2181  0.5223
   15TCq1    O5  240   0.253   1.321   2.171 -0.0869 -0.3102 -0.0616
   15TCq1    O6  241   0.433   1.417   2.265 -0.8071  0.3354 -0.1526
   15TCq1    H1  242   0.807   1.246   2.215  0.5508  1.4203 -0.0346
   15TCq1    H2  243   0.641   1.359   2.163 -0.0054  0.8199  0.0808
   15TCq1    H3  244   0.303   1.135   2.036 -0.0260 -2.6362  0.3384
   15TCq1    H4  245   0.675   1.061   1.859 -2.1606 -0.1804 -1.3276
   16MPD2     C  246   0.097   0.985   1.716 -0.6937  0.7189 -0.5976
   16MPD2    C1  247   0.228   0.933   1.738  0.3571 -0.0632 -0.3724
   16MPD2    C2  248   0.279   0.843   1.648  0.4369  0.3396 -0.7510
   16MPD2    C3  249   0.203   0.793   1.542  0.3045 -0.3699  0.2522
   16MPD2    C4  250   0.076   0.839   1.522 -0.6483  0.6903 -0.0147
   16MPD2    C5  251   0.021   0.928   1.615  0.3451  0.1992  0.6219
   16MPD2     H  252   0.381   0.818   1.675  1.4100  1.6457 -3.2209
   16MPD2    H1  253   0.008   0.805   1.444 -1.4790  1.1956  0.4926
   16MPD2    H2  254   0.050   1.064   1.774  1.7666  0.8577  1.1691
   16MPD2    H3  255   4.659   0.961   1.597 -0.3793 -1.8831  0.9054
   16MPD2     N  256   0.276   0.722   1.444  0.0718 -0.1407 -0.9918
   16MPD2    H5  257   0.370   0.690   1.466 -0.4029 -0.4869  0.5380
   16MPD2    N1  258   0.305   0.997   1.843  0.7123  0.3818 -0.3296
   16MPD2    H7  259   0.252   1.073   1.885  1.4053 -0.0815  1.3724
   17TMC1    C1  260   2.901   0.356  11.462 -0.5112 -0.1991 -0.1862
   17TMC1    C2  261   2.789   0.317  11.523 -0.0778 -0.1633 -0.0408
   17TMC1    C3  262   2.775   0.181  11.566  0.6286  0.5014 -0.0375
   17TMC1    C4  263   3.002   0.259  11.435  0.0401 -0.1375 -0.4068
   17TMC1    C5  264   2.978   0.132  11.469  0.4330  0.4249 -0.2885
   17TMC1    C6  265   2.872   0.090  11.549 -0.6271 -0.5326 -0.4938
   17TMC1     C  266   2.925   0.497  11.430  0.0525  0.4646 -0.1924
   17TMC1     O  267   2.842   0.572  11.474 -0.4030  0.6284  0.1884
   17TMC1     H  268   2.702   0.381  11.522  0.3368  0.3927 -0.2048
   17TMC1    H1  269   3.090   0.279  11.375 -0.4732 -2.1841 -1.8263
   17TMC1    H2  270   2.870   4.733  11.598 -0.9967 -0.5171 -0.4823
   17TMC1    C7  271   3.078   0.033  11.416 -0.5061  0.0497  0.2670
   17TMC1    C8  272   2.641   0.138  11.588 -0.1421  0.5281 -0.5149
   17TMC1    O1  273   3.194   0.068  11.396 -0.3939 -0.5700 -0.0910
   17TMC1    O2  274   2.556   0.217  11.627  0.1318  0.6751  0.5544
   17TMC1    O3  275   3.025   4.643  11.416  0.5326  0.1233 -0.2205
   17TMC1    H3  276   2.930   4.647  11.393  0.6812 -1.4297 -1.1565
   17TMC1    O5  277   2.601   0.033  11.516 -0.4736  0.0871  0.5767
   17TMC1    H5  278   2.667   4.715  11.473 -0.4793  0.0539  0.6135
   18MPD2     C  279   3.052   0.767  11.395 -0.0659  0.0511 -0.0754
   18MPD2    C1  280   3.069   0.662  11.306 -0.0764  0.7626 -0.2197
   18MPD2    C2  281   3.149   0.673  11.201  0.1313 -0.0852  0.5361
   18MPD2    C3  282   3.204   0.794  11.164 -0.2837 -0.2315  0.4737
   18MPD2    C4  283   3.173   0.902  11.247 -0.2907  0.0815 -0.7911
   18MPD2    C5  284   3.108   0.885  11.364  0.5640 -0.1220  0.0586
   18MPD2     H  285   3.169   0.587  11.137 -3.1982  0.4448 -1.2560
   18MPD2    H1  286   3.202   1.003  11.223 -0.0220  0.2851  0.4199
   18MPD2    H2  287   3.008   0.752  11.493  2.6493 -0.0592  1.1251
   18MPD2    H3  288   3.103   0.971  11.430  1.5374  0.6745 -0.8847
   18MPD2     N  289   3.284   0.828  11.051  0.0588 -0.0268  0.0082
   18MPD2    H5  290   3.315   0.925  11.049  0.9674 -0.3280  0.0082
   18MPD2    N1  291   3.020   0.530  11.338  0.2755 -0.7342 -0.3248
   18MPD2    H7  292   3.039   0.455  11.272 -0.5943  0.9099 -2.4445
   19TMC2    C1  293   3.552   1.608  13.838  0.1684  0.2804 -0.0909
   19TMC2    C2  294   3.454   1.675  13.781  0.0353 -0.3592  0.1611
   19TMC2    C3  295   3.329   1.624  13.780 -0.2438  0.0888  0.0863
   19TMC2    C4  296   3.533   1.484  13.896  0.1551  0.3465  1.1388
   19TMC2    C5  297   3.407   1.436  13.898 -0.4601 -0.0738 -0.5694
   19TMC2    C6  298   3.302   1.507  13.843 -0.5531  0.3560  0.1994
   19TMC2     C  299   3.667   1.685  13.875  0.4376 -0.9009 -0.1231
   19TMC2     O  300   3.689   1.787  13.811  0.2185 -0.3717  0.4160
   19TMC2     H  301   3.472   1.776  13.745  1.4027 -0.8610 -0.5348
   19TMC2    H1  302   3.621   1.429  13.926  0.0592 -0.1235  0.5685
   19TMC2    H2  303   3.202   1.465  13.833 -0.2503 -0.0762 -1.0292
   19TMC2    C7  304   3.394   1.303  13.947  0.3616  0.3122  0.3085
   19TMC2    C8  305   3.232   1.715  13.722  0.0384  0.2265 -0.8085
   19TMC2    O1  306   3.490   1.232  13.949  0.3456 -0.1466  0.1174
   19TMC2    O2  307   3.272   1.791  13.631 -0.1397  0.3452 -0.3958
   19TMC2    O5  308   3.135   1.745  13.811 -0.1881 -0.1706 -0.0913
   19TMC2    H5  309   3.136   1.701  13.899 -1.5278 -0.4071 -0.1899
   20MPD2     C  310   3.920   1.807  13.997  0.4839  0.3568 -0.1591
   20MPD2    C1  311   3.872   1.677  14.022  0.4013  0.0677 -0.2949
   20MPD2    C2  312   3.949   1.588  14.093 -0.0527  0.5715 -0.0449
   20MPD2    C3  313   4.072   1.632  14.147 -0.0763  0.6097  0.2142
   20MPD2    C4  314   4.118   1.764  14.127 -1.0449  0.8908  0.2496
   20MPD2    C5  315   4.037   1.849  14.059  0.0046  0.6112  0.9505
   20MPD2     H  316   3.907   1.491  14.118 -1.3270  1.3395  0.7710
   20MPD2    H1  317   4.210   1.805  14.167 -0.6114 -1.1263  1.3246
   20MPD2    H2  318   3.881   1.884  13.932 -0.7825  0.1936  0.4065
   20MPD2    H3  319   4.053   1.956  14.053  0.8528  0.4417  0.1153
   20MPD2     N  320   4.161   1.545  14.214  0.3644 -0.0476 -0.2954
   20MPD2    H5  321   4.248   1.582  14.252 -0.2565  1.8872 -0.7976
   20MPD2    N1  322   3.747   1.625  13.974 -0.0568 -0.0457  0.6613
   20MPD2    H7  323   3.738   1.530  14.006 -0.6098  0.1937  1.2197
   21TMC2    C1  324   1.367   1.842  14.816 -0.4714 -0.6278  0.9879
   21TMC2    C2  325   1.405   1.750  14.911  0.2271  0.5875 -0.5487
   21TMC2    C3  326   1.357   1.758  15.041  0.1283 -0.6934 -0.5557
   21TMC2    C4  327   1.282   1.944  14.847  0.5969 -0.5282  0.2507
   21TMC2    C5  328   1.244   1.957  14.980  0.5334 -0.5649 -0.2930
   21TMC2    C6  329   1.277   1.862  15.076 -1.2794 -0.1534  0.5869
   21TMC2     C  330   1.409   1.818  14.675 -0.6653  0.4830  0.2686
   21TMC2     O  331   1.511   1.751  14.662 -0.0985 -0.0573 -0.4077
   21TMC2     H  332   1.467   1.665  14.886 -0.1540 -0.3775  1.7600
   21TMC2    H1  333   1.248   2.008  14.766 -1.2787 -0.7283  0.8999
   21TMC2    H2  334   1.250   1.870  15.181 -1.8684 -2.2022  0.5921
   21TMC2    C7  335   1.157   2.063  15.013 -0.4575  0.3188 -0.3239
   21TMC2    C8  336   1.375   1.646  15.129  0.0361 -0.4619  0.4173
   21TMC2    O1  337   1.103   2.065  15.122 -0.1395  0.5085 -0.6575
   21TMC2    O2  338   1.468   1.565  15.121 -0.4293 -0.0496  0.1290
   21TMC2    O5  339   1.262   1.631  15.194 -0.2836  0.0724  0.3168
   21TMC2    H5  340   1.193   1.694  15.166  0.2001  1.0027  1.2220
   22MPD2     C  341   1.377   1.838  14.172  0.1126  0.0054  0.0449
   22MPD2    C1  342   1.470   1.783  14.251 -0.3378  0.4930  0.0122
   22MPD2    C2  343   1.458   1.798  14.391 -0.1214  0.3742 -0.1064
   22MPD2    C3  344   1.352   1.860  14.446 -0.2366 -0.2376 -0.2116
   22MPD2    C4  345   1.258   1.911  14.360 -0.1680 -0.5745 -0.4755
   22MPD2    C5  346   1.270   1.903  14.225  0.2416 -0.8365 -0.1211
   22MPD2     H  347   1.537   1.758  14.454 -1.1999  2.2394  2.4306
   22MPD2    H1  348   1.172   1.971  14.388 -0.0806 -0.0744 -1.2743
   22MPD2    H2  349   1.390   1.838  14.064 -2.5227 -0.2858 -0.2647
   22MPD2    H3  350   1.199   1.947  14.156  2.2042  0.3401 -1.3900
   22MPD2     N  351   1.328   1.872  14.582  0.3401  0.0687 -0.3077
   22MPD2    H5  352   1.248   1.918  14.624 -0.7838 -0.7275 -1.5857
   22MPD2    N1  353   1.580   1.712  14.201 -0.0141 -0.2780  0.2849
   22MPD2    H7  354   1.654   1.688  14.266 -0.0532 -2.0139 -0.3353
   23TMC2    C1  355   3.423   3.399  14.787  0.0382 -0.6047  0.4012
   23TMC2    C2  356   3.352   3.491  14.854 -0.1034  0.0106  0.4593
   23TMC2    C3  357   3.224   3.514  14.809 -0.6519  0.2370  0.7016
   23TMC2    C4  358   3.379   3.325  14.680  0.2589 -0.4925 -0.1424
   23TMC2    C5  359   3.247   3.347  14.648  0.2272  0.4641 -0.8245
   23TMC2    C6  360   3.166   3.446  14.707 -0.4239 -0.1793 -0.6213
   23TMC2     C  361   3.548   3.360  14.839 -0.8470  0.5201 -0.3855
   23TMC2     O  362   3.584   3.395  14.950  0.4528 -0.5353 -0.2232
   23TMC2     H  363   3.393   3.521  14.950 -0.2582  2.9774 -0.4016
   23TMC2    H1  364   3.419   3.235  14.633  0.7513 -1.1122  1.4694
   23TMC2    H2  365   3.077   3.478  14.653  0.5119 -0.3837 -2.2759
   23TMC2    C7  366   3.190   3.267  14.538  0.9244 -0.4759  0.0838
   23TMC2    C8  367   3.133   3.590  14.901  0.5690  0.1265  0.8040
   23TMC2    O1  368   3.274   3.231  14.456  0.3472  0.1297  0.0734
   23TMC2    O2  369   3.021   3.552  14.932  0.0689  0.1672 -0.4063
   23TMC2    O5  370   3.212   3.686  14.953 -0.2652 -0.2792 -0.4878
   23TMC2    H5  371   3.298   3.698  14.907  0.2868 -2.1122  0.0673
   24MPD2     C  372   3.955   3.045  14.759 -1.1006 -0.7207  0.2671
   24MPD2    C1  373   3.887   3.089  14.876 -0.4240  0.5736  0.6125
   24MPD2    C2  374   3.784   3.175  14.869  0.1302  0.2593 -0.0340
   24MPD2    C3  375   3.745   3.232  14.748 -0.2390 -0.5173 -0.5247
   24MPD2    C4  376   3.815   3.194  14.632  0.0476  0.7681 -0.2523
   24MPD2    C5  377   3.921   3.107  14.641 -0.0003  0.2117  0.0407
   24MPD2     H  378   3.731   3.213  14.956  0.5573  0.4002  0.1648
   24MPD2    H1  379   3.799   3.243  14.537 -1.8441  0.5771 -0.0287
   24MPD2    H2  380   4.044   2.984  14.757  0.2330  1.1708  1.6144
   24MPD2    H3  381   3.972   3.072  14.552 -2.3224  3.2176 -2.4658
   24MPD2     N  382   3.631   3.312  14.733  0.2332 -0.5160 -0.0220
   24MPD2    H5  383   3.605   3.340  14.639  2.8662 -1.3495 -0.9864
   24MPD2    N1  384   3.926   3.051  15.012 -0.4534 -0.6956 -0.0939
   24MPD2    H7  385   3.889   3.111  15.085 -2.8355  1.7966 -3.3707
   25TMC2    C1  386   2.046   0.751  11.708 -0.2424 -0.5821 -0.4871
   25TMC2    C2  387   2.134   0.853  11.741 -0.9623 -0.5406  0.1042
   25TMC2    C3  388   2.085   0.958  11.818  0.3208  0.1930 -0.2433
   25TMC2    C4  389   1.920   0.755  11.748  0.6655 -0.6734  0.6227
   25TMC2    C5  390   1.879   0.849  11.841 -0.2102 -0.1294 -0.2754
   25TMC2    C6  391   1.958   0.958  11.875  0.4928  0.0290 -0.1648
   25TMC2     C  392   2.104   0.624  11.670  0.0735 -0.7248  0.4058
   25TMC2     O  393   2.228   0.623  11.649 -0.4587 -0.2602 -0.8534
   25TMC2     H  394   2.233   0.863  11.696 -0.5032  1.4263  1.5441
   25TMC2    H1  395   1.852   0.672  11.735  1.6238 -1.0813 -1.6725
   25TMC2    H2  396   1.925   1.032  11.947 -0.5190 -0.0378 -0.5575
   25TMC2    C7  397   1.789   0.808  11.943  0.5857 -0.3976  0.7823
   25TMC2    C8  398   2.176   1.067  11.844 -0.2151  0.1707 -0.8665
   25TMC2    O1  399   1.776   0.687  11.956 -0.2702  0.4871  0.5739
   25TMC2    O2  400   2.292   1.037  11.852 -0.1065  0.2026 -0.1873
   25TMC2    O5  401   2.137   1.169  11.767  0.0800  0.3932  0.4012
   25TMC2    H5  402   2.040   1.175  11.756  0.2537  2.5089 -0.0108
   26MPD2     C  403   2.079   0.141  11.505 -0.9087  0.4128  0.0513
   26MPD2    C1  404   1.953   0.183  11.532  0.2279  0.1463  0.5821
   26MPD2    C2  405   1.932   0.304  11.598  0.3956 -0.7558 -0.6341
   26MPD2    C3  406   2.041   0.384  11.634 -0.8906 -0.5373  0.0999
   26MPD2    C4  407   2.167   0.336  11.611  0.1525  0.1369  0.3077
   26MPD2    C5  408   2.181   0.215  11.551 -0.4389 -0.3762  0.3245
   26MPD2     H  409   1.836   0.354  11.614  0.5964 -0.3469 -0.6980
   26MPD2    H1  410   2.257   0.392  11.632 -0.5307  0.8593  1.3601
   26MPD2    H2  411   2.097   0.051  11.447 -1.4991 -0.0053  0.5030
   26MPD2    H3  412   2.284   0.182  11.539 -0.3976  0.2892 -1.0761
   26MPD2     N  413   2.014   0.516  11.676 -0.7292  1.0289 -0.1403
   26MPD2    H5  414   1.918   0.547  11.689 -0.8758  0.5189 -0.0114
   26MPD2    N1  415   1.849   0.102  11.489  0.0142  0.6525  0.0074
   26MPD2    H7  416   1.868   0.021  11.431  0.7360 -0.5183  1.8693
   27TMC2    C1  417   1.048   2.782  12.165  0.7158 -0.0554  0.1837
   27TMC2    C2  418   1.045   2.904  12.095  0.6973 -0.0011 -0.1791
   27TMC2    C3  419   1.067   3.016  12.166 -0.3778 -0.3683  0.3181
   27TMC2    C4  420   1.101   2.771  12.289  0.1196  0.6801  0.5330
   27TMC2    C5  421   1.143   2.894  12.345 -0.4850  0.2435 -0.7425
   27TMC2    C6  422   1.123   3.013  12.291  0.2143 -0.5954  0.4034
   27TMC2     C  423   0.956   2.680  12.110 -0.1831 -0.5501  0.3912
   27TMC2     O  424   0.941   2.659  11.990 -0.5910 -0.2780 -0.4070
   27TMC2     H  425   0.998   2.908  11.997  2.5971 -1.0207 -1.1413
   27TMC2    H1  426   1.105   2.675  12.340  0.6087  1.0801  1.2461
   27TMC2    H2  427   1.143   3.104  12.347 -0.1364  0.0469 -0.5093
   27TMC2    C7  428   1.165   2.888  12.492  0.0834  0.4113  0.2660
   27TMC2    C8  429   1.033   3.142  12.110 -0.5238  0.2173 -0.1259
   27TMC2    O1  430   1.083   2.825  12.559 -0.4988  0.6460  0.3450
   27TMC2    O2  431   1.017   3.237  12.184 -0.0595  0.7835 -0.4879
   27TMC2    O5  432   1.087   3.138  11.987 -0.3957  0.3571 -0.6649
   27TMC2    H5  433   1.111   3.049  11.954  1.5249  0.4856  0.4126
   28MPD2     C  434   0.555   2.384  12.170  0.3138 -0.1651  0.2726
   28MPD2    C1  435   0.570   2.458  12.287  0.6027 -0.6627 -0.7509
   28MPD2    C2  436   0.683   2.535  12.306  0.5347  1.3326 -0.4882
   28MPD2    C3  437   0.772   2.542  12.205 -0.2900 -0.8292  0.3972
   28MPD2    C4  438   0.762   2.454  12.101  0.6208 -0.3075  0.0556
   28MPD2    C5  439   0.656   2.376  12.079 -0.2628 -0.3042  0.4765
   28MPD2     H  440   0.696   2.600  12.391 -0.5962  1.6176 -0.5289
   28MPD2    H1  441   0.832   2.464  12.018  1.4094 -0.8048  0.6577
   28MPD2    H2  442   0.476   2.310  12.167  1.0177 -0.8915 -0.3701
   28MPD2    H3  443   0.651   2.305  11.997  0.7123  1.4035 -1.0646
   28MPD2     N  444   0.884   2.640  12.218  0.2586 -0.0989  0.3596
   28MPD2    H5  445   0.887   2.699  12.300  0.2098  1.2400 -0.5932
   28MPD2    N1  446   0.461   2.434  12.379 -0.0578  0.3566  0.7879
   28MPD2    H7  447   0.388   2.379  12.336  1.0287  0.9961 -1.9028
   29TMC2    C1  448   0.678   0.287  14.186  0.0964 -0.1552  0.4797
   29TMC2    C2  449   0.814   0.262  14.201 -0.4226  0.2202 -0.1035
   29TMC2    C3  450   0.896   0.367  14.158 -0.0955  0.0702 -0.4711
   29TMC2    C4  451   0.635   0.408  14.136  0.0262 -0.2259  0.4905
   29TMC2    C5  452   0.723   0.504  14.110  0.6171  0.1769 -0.2651
   29TMC2    C6  453   0.860   0.496  14.127 -0.3770  0.5051 -0.0258
   29TMC2     C  454   0.593   0.173  14.211 -0.2842  0.1652 -0.3092
   29TMC2     O  455   0.651   0.064  14.192 -0.2390  0.6269  0.4140
   29TMC2     H  456   0.856   0.183  14.263  1.9710  1.5487 -0.0461
   29TMC2    H1  457   0.528   0.426  14.129  0.3862  1.3240 -1.2151
   29TMC2    H2  458   0.934   0.566  14.091  2.2174 -1.7629  0.8618
   29TMC2    C7  459   0.672   0.635  14.119  0.1243  0.0278  0.0220
   29TMC2    C8  460   1.039   0.341  14.134 -0.5816  0.3604  0.1225
   29TMC2    O1  461   0.570   0.666  14.061 -0.3322  0.4751 -0.1461
   29TMC2    O2  462   1.123   0.430  14.140 -0.1314 -0.2095 -0.2206
   29TMC2    O5  463   1.063   0.217  14.112 -0.6768  0.2660  0.3209
   29TMC2    H5  464   0.985   0.163  14.087 -0.8056  0.2115  0.8370
   30MPD2     C  465   0.131   4.678  14.218 -0.0935  0.4051  0.3713
   30MPD2    C1  466   0.256   4.624  14.199  0.1053  0.8253 -0.3631
   30MPD2    C2  467   0.363   4.717  14.191 -0.3978  0.7205 -0.7238
   30MPD2    C3  468   0.349   0.106  14.222  0.3808  0.1648  0.1584
   30MPD2    C4  469   0.221   0.151  14.251  0.2306 -0.5297  0.7408
   30MPD2    C5  470   0.112   0.073  14.234 -0.1157  0.0730 -0.1009
   30MPD2     H  471   0.457   4.682  14.150 -0.1053 -2.0883  2.3355
   30MPD2    H1  472   0.204   0.254  14.278  0.0186 -0.5866  0.8242
   30MPD2    H2  473   0.040   4.619  14.221  0.6254 -0.6279  1.6030
   30MPD2    H3  474   0.015   0.111  14.265 -0.2456 -0.2729 -0.0804
   30MPD2     N  475   0.455   0.204  14.229 -0.1683 -0.5754 -0.5997
   30MPD2    H5  476   0.431   0.302  14.243 -3.2208 -1.3577 -0.3679
   30MPD2    N1  477   0.274   4.482  14.163  0.3876 -0.2438 -0.0090
   30MPD2    H7  478   0.366   4.466  14.123 -0.3405 -0.0722 -1.7905
   31TMC2    C1  479   2.840   3.883  15.782 -0.5079  0.3926  0.3792
   31TMC2    C2  480   2.721   3.958  15.803 -0.3890  0.3063 -0.0172
   31TMC2    C3  481   2.680   3.953  15.930  0.9141  0.4757  0.2428
   31TMC2    C4  482   2.908   3.818  15.885 -0.2534  0.7333  0.6813
   31TMC2    C5  483   2.864   3.831  16.017  0.3098  0.5385  0.0865
   31TMC2    C6  484   2.744   3.893  16.033  0.4859 -0.5090  0.5084
   31TMC2     C  485   2.879   3.856  15.640 -0.2727 -0.0349 -0.5687
   31TMC2     O  486   2.796   3.871  15.552  0.3529  0.4185  0.3533
   31TMC2     H  487   2.671   4.012  15.723  0.2562  1.2729  0.2334
   31TMC2    H1  488   2.996   3.756  15.871  0.0172  1.2428  0.1554
   31TMC2    H2  489   2.700   3.894  16.132  1.5721  1.2010  0.9705
   31TMC2    C7  490   2.938   3.780  16.131  0.0212  0.3788  0.2070
   31TMC2    C8  491   2.544   3.987  15.968 -0.4526  0.4365 -0.5980
   31TMC2    O1  492   3.005   3.682  16.104  0.2449  0.2390 -0.1455
   31TMC2    O2  493   2.483   3.952  16.064 -0.0809 -0.3029 -0.4946
   31TMC2    O5  494   2.499   4.070  15.872  0.2764 -0.0970  0.0201
   31TMC2    H5  495   2.563   4.103  15.805 -0.2417 -0.9151 -0.8903
   32MPD2     C  496   3.226   3.713  15.286 -0.6055 -0.4021 -1.0307
   32MPD2    C1  497   3.120   3.795  15.269  0.1449 -0.2420  0.7147
   32MPD2    C2  498   3.043   3.826  15.383 -0.3137  0.5326 -0.0700
   32MPD2    C3  499   3.081   3.770  15.507  0.6932  0.6393  0.2784
   32MPD2    C4  500   3.190   3.684  15.511  0.3561  0.9526  0.3175
   32MPD2    C5  501   3.264   3.655  15.398  0.2853 -0.8488  0.1850
   32MPD2     H  502   2.965   3.901  15.386 -0.1063  0.6970  1.3877
   32MPD2    H1  503   3.229   3.643  15.604 -1.2535  0.2750  0.7051
   32MPD2    H2  504   3.293   3.694  15.203  0.1950 -4.3279  0.5082
   32MPD2    H3  505   3.349   3.589  15.405  2.3112  1.8957  1.7613
   32MPD2     N  506   3.009   3.809  15.628 -0.3016 -0.3469 -0.0756
   32MPD2    H5  507   3.053   3.763  15.707 -3.1033 -1.0592  1.0680
   32MPD2    N1  508   3.088   3.842  15.140 -0.7550 -0.2320  0.3542
   32MPD2    H7  509   3.132   3.801  15.058 -0.8315 -1.3168  0.8535
   33TMC2    C1  510   3.786   1.698  10.450  0.4131  0.4023 -0.2313
   33TMC2    C2  511   3.919   1.685  10.425  0.0964 -0.7167  0.0830
   33TMC2    C3  512   3.975   1.781  10.338 -0.0316 -0.1568  0.7693
   33TMC2    C4  513   3.708   1.801  10.396 -0.1229 -0.2295  0.5183
   33TMC2    C5  514   3.769   1.893  10.309  0.2920  0.8474 -0.5284
   33TMC2    C6  515   3.899   1.873  10.278 -0.0478 -0.0447 -0.6818
   33TMC2     C  516   3.724   1.590  10.518  0.0254 -0.7771  0.2037
   33TMC2     O  517   3.792   1.498  10.565 -0.0347  0.2252 -0.0652
   33TMC2     H  518   3.976   1.601  10.463  3.2608  0.7275 -1.4238
   33TMC2    H1  519   3.611   1.823  10.438  0.7415 -0.1952  2.5413
   33TMC2    H2  520   3.953   1.949  10.223  0.8324 -0.4734 -0.4120
   33TMC2    C7  521   3.713   2.020  10.270 -0.3949  0.0664  0.8335
   33TMC2    C8  522   4.106   1.768  10.298  0.1114 -0.3744  0.1674
   33TMC2    O1  523   3.797   2.099  10.229  0.0587  0.1743 -0.3671
   33TMC2    O2  524   4.182   1.863  10.286  0.3266 -0.1051  0.3401
   33TMC2    O5  525   4.132   1.643  10.283 -0.2079 -0.5267  0.2742
   33TMC2    H5  526   4.055   1.583  10.282  0.1725 -1.0045 -0.3364
   34MPD2     C  527   3.299   1.343  10.675 -0.5732  0.0684  0.7474
   34MPD2    C1  528   3.433   1.297  10.679  0.3444  0.6251  0.8481
   34MPD2    C2  529   3.531   1.378  10.630  0.3913 -0.6964  0.6201
   34MPD2    C3  530   3.496   1.502  10.575  0.2268  0.1796 -0.0464
   34MPD2    C4  531   3.364   1.549  10.585  1.1547  0.5537  0.7852
   34MPD2    C5  532   3.262   1.460  10.619  0.4779  0.6169  0.1923
   34MPD2     H  533   3.633   1.342  10.623  0.2222 -0.6881 -2.1120
   34MPD2    H1  534   3.334   1.650  10.559 -2.8969 -0.9022 -0.2206
   34MPD2    H2  535   3.220   1.273  10.701  0.6497 -1.5862 -0.0121
   34MPD2    H3  536   3.158   1.491  10.611  0.7306  1.2382 -0.8402
   34MPD2     N  537   3.587   1.595  10.516 -0.4191  0.8743  0.0842
   34MPD2    H5  538   3.551   1.678  10.472 -3.6280 -0.6990 -0.2670
   34MPD2    N1  539   3.456   1.172  10.736  0.2880 -0.1802 -0.0123
   34MPD2    H7  540   3.369   1.127  10.763  0.0702  0.3477  0.1575
   35TMC2    C1  541   3.714   2.816  11.492 -0.8915 -0.3060  0.1504
   35TMC2    C2  542   3.634   2.921  11.489  0.1669 -1.0036 -0.1026
   35TMC2    C3  543   3.499   2.896  11.469  0.0411  0.2108  0.4395
   35TMC2    C4  544   3.663   2.689  11.498 -0.8120  0.3990 -0.3252
   35TMC2    C5  545   3.527   2.667  11.487  1.0023 -0.3314  0.3354
   35TMC2    C6  546   3.441   2.770  11.471 -0.1807  0.0534 -0.4989
   35TMC2     C  547   3.855   2.837  11.458 -0.1711  0.6186  0.2060
   35TMC2     O  548   3.878   2.939  11.395 -0.1270 -0.0241 -0.4759
   35TMC2     H  549   3.671   3.021  11.510  0.3437 -0.9556 -0.6290
   35TMC2    H1  550   3.729   2.605  11.483  0.6363  1.3484  0.6935
   35TMC2    H2  551   3.336   2.745  11.457 -0.6523  0.6429  2.0698
   35TMC2    C7  552   3.488   2.523  11.474  0.0854  0.3372 -0.5008
   35TMC2    C8  553   3.404   3.005  11.494  0.5265 -0.0343  0.0355
   35TMC2    O1  554   3.568   2.440  11.511 -0.3024  0.0199  0.1776
   35TMC2    O2  555   3.429   3.115  11.545 -0.3703  0.4305  0.1841
   35TMC2    O5  556   3.304   2.985  11.409  0.1189  0.0068  0.5940
   35TMC2    H5  557   3.323   2.903  11.358  0.2265  0.0196  0.6125
   36MPD2     C  558   4.366   2.802  11.536  0.2084  0.5764 -0.3152
   36MPD2    C1  559   4.308   2.684  11.576  0.2978 -0.7691 -0.1015
   36MPD2    C2  560   4.169   2.672  11.570 -0.3434  0.0642  0.1233
   36MPD2    C3  561   4.092   2.769  11.504  0.6492 -0.6505  0.4084
   36MPD2    C4  562   4.162   2.877  11.446 -0.2003  0.2408  0.4580
   36MPD2    C5  563   4.292   2.895  11.460  0.2586  0.4305 -0.5103
   36MPD2     H  564   4.118   2.585  11.610 -2.0836  0.2350 -1.7358
   36MPD2    H1  565   4.105   2.950  11.389 -1.5773  0.1847  1.7585
   36MPD2    H2  566   4.473   2.822  11.536  0.0869  1.2830  1.6370
   36MPD2    H3  567   4.338   2.985  11.421  1.6388  0.2664  0.7510
   36MPD2     N  568   3.951   2.749  11.509  0.2159  0.7863 -0.1747
   36MPD2    H5  569   3.913   2.673  11.564 -0.4287  0.6410 -0.8124
   36MPD2    N1  570   4.391   2.591  11.635 -0.1294  0.3447 -0.5929
   36MPD2    H7  571   4.483   2.625  11.658 -0.2008  1.4884 -2.0167
   37TMC2    C1  572   1.679   2.840  12.266  1.2762  0.0790  0.6704
   37TMC2    C2  573   1.556   2.875  12.218 -0.0625 -1.0868 -0.1767
   37TMC2    C3  574   1.536   2.934  12.099  0.0483  0.4283  0.7650
   37TMC2    C4  575   1.788   2.869  12.192 -0.1558  0.4679  0.3603
   37TMC2    C5  576   1.767   2.929  12.075  0.1216  0.4710 -0.2366
   37TMC2    C6  577   1.642   2.957  12.023 -0.1366  0.3995 -0.4810
   37TMC2     C  578   1.691   2.834  12.411  0.2485 -1.3934  0.2910
   37TMC2     O  579   1.595   2.875  12.479 -0.0417 -0.0020  0.2165
   37TMC2     H  580   1.466   2.854  12.275 -0.9972  0.8922 -0.9197
   37TMC2    H1  581   1.891   2.854  12.224 -0.4130 -1.6984  0.1815
   37TMC2    H2  582   1.612   3.003  11.930  1.5123  2.7297  0.1623
   37TMC2    C7  583   1.886   2.960  11.996  0.9294  0.4873 -0.3424
   37TMC2    C8  584   1.411   2.936  12.033  0.4379  0.8324 -0.2317
   37TMC2    O1  585   1.997   2.934  12.036 -0.1730  0.0216  0.3832
   37TMC2    O2  586   1.401   2.894  11.918 -0.1575  0.5082 -0.0896
   37TMC2    O5  587   1.360   3.047  12.080  0.2187  0.2105 -0.3720
   37TMC2    H5  588   1.380   3.063  12.175 -0.5522 -0.3568 -0.1139
   38MPD2     C  589   1.933   2.686  12.852 -0.3168 -0.2753 -0.9716
   38MPD2    C1  590   2.010   2.647  12.745  0.1293  0.6787  0.0456
   38MPD2    C2  591   1.961   2.675  12.619 -0.3097  1.1100  0.0285
   38MPD2    C3  592   1.843   2.745  12.593  0.7624  0.4738 -0.7271
   38MPD2    C4  593   1.773   2.783  12.704  0.0280 -0.9552 -0.1190
   38MPD2    C5  594   1.815   2.753  12.832  0.2764 -0.1363 -0.1317
   38MPD2     H  595   2.018   2.638  12.534  1.5402  0.7468  1.4179
   38MPD2    H1  596   1.674   2.828  12.703  1.7228  2.7684  0.0427
   38MPD2    H2  597   1.960   2.661  12.954 -0.8567 -0.1344 -0.7930
   38MPD2    H3  598   1.760   2.790  12.917  0.0299  0.7880 -0.6889
   38MPD2     N  599   1.803   2.772  12.454 -0.1932 -0.2355 -0.5118
   38MPD2    H5  600   1.874   2.765  12.381  1.6962  0.5708  1.2270
   38MPD2    N1  601   2.122   2.558  12.753 -0.2335 -0.2791 -0.1711
   38MPD2    H7  602   2.182   2.551  12.671 -0.3294 -2.4513 -0.0599
   39TMC2    C1  603   1.291   4.219   1.089  0.6389  0.3269  0.5913
   39TMC2    C2  604   1.352   4.102   1.025 -0.1482  0.5547  0.2009
   39TMC2    C3  605   1.465   4.060   1.086  0.1544  0.3273 -0.6063
   39TMC2    C4  606   1.352   4.290   1.194  0.2080 -0.4318 -0.8770
   39TMC2    C5  607   1.458   4.219   1.250  0.2411  0.5147  0.5305
   39TMC2    C6  608   1.507   4.107   1.204  0.0409  0.3622  0.1193
   39TMC2     C  609   1.157   4.254   1.045 -0.3523 -0.0808  0.6682
   39TMC2     O  610   1.117   4.356   1.095 -0.0150  0.6260 -0.6634
   39TMC2     H  611   1.337   4.058   0.928 -1.0562 -0.4314  0.7940
   39TMC2    H1  612   1.293   4.357   1.255  1.5195  0.0788 -0.1531
   39TMC2    H2  613   1.599   4.068   1.246  0.6415  2.6208  0.8841
   39TMC2    C7  614   1.524   4.280   1.363  0.6140  0.2152 -0.1039
   39TMC2    C8  615   1.569   3.985   1.011  0.7910 -0.4016  0.7801
   39TMC2    O1  616   1.610   4.220   1.423 -0.0237  0.8507  0.1245
   39TMC2    O2  617   1.690   3.997   1.028  0.2689 -0.4225 -0.0037
   39TMC2    O5  618   1.506   3.898   0.921  0.4354 -0.1879 -0.2242
   39TMC2    H5  619   1.416   3.875   0.954 -0.8108  0.5504 -3.1028
   40MPD2     C  620   0.935   4.033   0.867  0.6229  0.4154 -0.2386
   40MPD2    C1  621   0.971   4.149   0.925  0.2422 -0.4415  0.7246
   40MPD2    C2  622   0.883   4.257   0.922 -0.3113  0.1777  0.2208
   40MPD2    C3  623   0.758   4.240   0.868  0.3661  0.3673 -0.4589
   40MPD2    C4  624   0.724   4.129   0.792  0.6356  0.7413  0.7036
   40MPD2    C5  625   0.813   4.021   0.805 -0.2208  0.4501 -0.3788
   40MPD2     H  626   0.905   4.349   0.975  0.6704  0.8973 -1.4559
   40MPD2    H1  627   0.622   4.110   0.764  1.5332  0.7264 -2.5525
   40MPD2    H2  628   0.998   3.945   0.869 -1.2852 -1.0182 -3.0045
   40MPD2    H3  629   0.779   3.936   0.748 -1.6785  0.2813  0.7326
   40MPD2     N  630   0.657   4.336   0.888  0.1445  0.3160  0.0790
   40MPD2    H5  631   0.566   4.315   0.847  0.4447 -1.6701  0.4004
   40MPD2    N1  632   1.099   4.150   0.983  0.5220  0.2282 -0.0133
   40MPD2    H7  633   1.161   4.070   0.974 -1.4643 -1.5983  2.5234
   41TMC2    C1  634   3.652   2.720  13.242 -0.6983 -0.2512 -0.0147
   41TMC2    C2  635   3.741   2.817  13.232 -0.7194 -0.5025 -0.1418
   41TMC2    C3  636   3.758   2.857  13.104  0.4472  0.3245  0.8107
   41TMC2    C4  637   3.565   2.675  13.144  0.6084 -0.0616 -0.2425
   41TMC2    C5  638   3.598   2.709  13.018  0.4650 -0.2473 -0.0694
   41TMC2    C6  639   3.696   2.799  12.996 -0.6330 -0.0287 -0.3907
   41TMC2     C  640   3.667   2.634  13.361 -0.3112  0.1289  0.2672
   41TMC2     O  641   3.625   2.520  13.342 -0.2609  0.4917 -0.2270
   41TMC2     H  642   3.813   2.846  13.308 -1.2675 -0.7407  0.4661
   41TMC2    H1  643   3.488   2.599  13.150  1.4347 -0.9153 -0.5551
   41TMC2    H2  644   3.722   2.831  12.896  0.7604 -2.3569 -0.7690
   41TMC2    C7  645   3.535   2.634  12.912  0.3351  0.2727  0.1656
   41TMC2    C8  646   3.881   2.924  13.070  0.3461 -0.1673  0.2985
   41TMC2    O1  647   3.420   2.605  12.933 -0.2515  0.1072 -0.1463
   41TMC2    O2  648   3.933   3.022  13.123 -0.2128  0.2313  0.0847
   41TMC2    O5  649   3.944   2.837  12.994 -0.1349 -0.0432 -0.3550
   41TMC2    H5  650   3.903   2.751  12.970  2.9979 -1.4170 -0.8039
   42MPD2     C  651   3.789   2.504  13.600  0.0353 -0.9242  0.2805
   42MPD2    C1  652   3.773   2.640  13.589  0.0034  0.3485 -0.2681
   42MPD2    C2  653   3.826   2.714  13.690  0.1080 -0.2441 -0.5672
   42MPD2    C3  654   3.895   2.658  13.795 -0.5130  0.1497  0.7632
   42MPD2    C4  655   3.915   2.521  13.797  0.2362  0.4461  0.3046
   42MPD2    C5  656   3.857   2.444  13.704  0.2906 -0.1262  0.1091
   42MPD2     H  657   3.815   2.822  13.679  0.5944 -0.1432 -0.0954
   42MPD2    H1  658   3.972   2.478  13.879 -1.0078  0.5644  1.2279
   42MPD2    H2  659   3.760   2.436  13.521  0.2200 -0.1969 -0.4134
   42MPD2    H3  660   3.864   2.336  13.703  0.5628 -0.1000 -0.6529
   42MPD2     N  661   3.957   2.729  13.890 -0.2753  0.1737 -0.9918
   42MPD2    H5  662   4.019   2.680  13.954  1.1914  3.1801 -0.1251
   42MPD2    N1  663   3.723   2.700  13.473 -0.4881  0.1199  0.0657
   42MPD2    H7  664   3.718   2.801  13.468  1.5813  0.1461 -1.4864
   43TMC2    C1  665   0.779   1.148   0.934 -0.2787 -0.1683  0.6484
   43TMC2    C2  666   0.713   1.266   0.943  0.3076  0.0583  0.2635
   43TMC2    C3  667   0.749   1.352   1.045 -0.0810  0.0827 -0.3955
   43TMC2    C4  668   0.880   1.115   1.016  0.2870  0.0349  0.1953
   43TMC2    C5  669   0.913   1.198   1.114 -0.6477 -0.0361  0.0533
   43TMC2    C6  670   0.845   1.314   1.142  0.0587  0.4296 -0.2701
   43TMC2     C  671   0.781   1.065   0.810 -0.6255 -0.4418 -0.4203
   43TMC2     O  672   0.875   0.991   0.793 -0.6231 -0.1485  0.6228
   43TMC2     H  673   0.630   1.284   0.875  0.7479  2.7963  0.4536
   43TMC2    H1  674   0.923   1.015   1.017  0.3378  0.0487 -0.7617
   43TMC2    H2  675   0.882   1.380   1.219 -3.4529  0.8590  1.0682
   43TMC2    C7  676   1.051   1.183   1.170  0.9810 -0.5492 -0.7102
   43TMC2    C8  677   0.649   1.446   1.084 -0.1607 -0.4076 -0.5227
   43TMC2    O1  678   1.128   1.134   1.090  0.4477 -0.3434  0.5216
   43TMC2    O2  679   0.664   1.525   1.178  0.4181  0.2650 -0.4221
   43TMC2    O5  680   0.565   1.477   0.985  0.4675 -0.0259 -0.1213
   43TMC2    H5  681   0.563   1.419   0.906  1.6810 -0.4121  0.1294
   44MPD2     C  682   0.556   0.913   0.368 -0.0390 -0.0150 -0.3642
   44MPD2    C1  683   0.691   0.899   0.407  0.5487 -0.0925 -0.8479
   44MPD2    C2  684   0.724   0.960   0.530  0.4553  0.2378 -0.6182
   44MPD2    C3  685   0.637   1.026   0.609 -0.7523  0.2758 -0.0889
   44MPD2    C4  686   0.509   1.043   0.563 -0.0942  0.0293  0.0164
   44MPD2    C5  687   0.468   0.993   0.443  0.5299  0.3935 -0.1363
   44MPD2     H  688   0.829   0.954   0.554  0.8121 -1.2462 -2.5606
   44MPD2    H1  689   0.441   1.095   0.629  0.3722 -1.0973  1.3771
   44MPD2    H2  690   0.514   0.855   0.287  0.1327  0.7827 -1.0270
   44MPD2    H3  691   0.364   1.000   0.415  1.0806  0.0401 -2.2521
   44MPD2     N  692   0.671   1.090   0.733  0.0537 -0.9036  0.1795
   44MPD2    H5  693   0.612   1.167   0.763  0.6315 -0.2499 -0.3746
   44MPD2    N1  694   0.780   0.812   0.342  0.1115  0.4100  0.7310
   44MPD2    H7  695   0.867   0.792   0.390  0.1672 -0.4684  0.2622
   45TMC2    C1  696   1.326   3.234   9.761 -0.4035  0.6102 -1.1344
   45TMC2    C2  697   1.237   3.266   9.662  0.3240 -0.5631  1.0843
   45TMC2    C3  698   1.206   3.400   9.646 -0.1666 -0.1212  0.3831
   45TMC2    C4  699   1.388   3.327   9.830 -0.4918 -0.2546 -0.1772
   45TMC2    C5  700   1.360   3.459   9.807  0.5472 -0.3958  0.0919
   45TMC2    C6  701   1.261   3.502   9.726 -0.3110  0.3019  0.3498
   45TMC2     C  702   1.301   3.103   9.836  0.5186  0.4904  0.3003
   45TMC2     O  703   1.357   3.085   9.944 -0.0781 -0.0894 -0.3309
   45TMC2     H  704   1.189   3.186   9.607 -0.7326  1.7539 -1.4121
   45TMC2    H1  705   1.464   3.294   9.900 -0.9606 -0.1215  0.3973
   45TMC2    H2  706   1.203   3.591   9.751  0.2100  0.5422  0.6847
   45TMC2    C7  707   1.452   3.546   9.883  0.4119 -0.3758  0.0381
   45TMC2    C8  708   1.087   3.437   9.581 -0.3812  0.2442 -0.2634
   45TMC2    O1  709   1.511   3.510   9.979  0.3419  0.2958  0.3369
   45TMC2    O2  710   1.010   3.348   9.542 -0.4195 -0.2367 -0.1661
   45TMC2    O5  711   1.126   3.545   9.515  0.1694 -0.0554 -0.1275
   45TMC2    H5  712   1.218   3.578   9.526  0.0818  0.4142 -0.7919
   46MPD2     C  713   1.220   2.839   9.942 -0.0373 -0.2327  0.8474
   46MPD2    C1  714   1.153   2.907   9.849 -0.3714 -0.2526 -0.2650
   46MPD2    C2  715   1.043   2.840   9.798 -0.3453 -0.6906 -0.4793
   46MPD2    C3  716   1.001   2.715   9.839  0.0575 -0.1922 -0.9928
   46MPD2    C4  717   1.076   2.650   9.926 -0.6694 -0.7796  0.4484
   46MPD2    C5  718   1.184   2.714   9.986 -0.7556  0.6508 -0.1265
   46MPD2     H  719   0.982   2.885   9.719  0.0984  1.1269  0.2042
   46MPD2    H1  720   1.060   2.550   9.965 -2.4476 -0.9358 -0.6545
   46MPD2    H2  721   1.308   2.877   9.992  0.6257  3.0484 -2.8291
   46MPD2    H3  722   1.249   2.655  10.049  1.3214  2.0733 -0.9581
   46MPD2     N  723   0.897   2.651   9.765  0.7939  0.4627 -0.3268
   46MPD2    H5  724   0.860   2.712   9.692  0.4817  0.5020 -0.1369
   46MPD2    N1  725   1.200   3.023   9.791  0.6983  0.2675 -0.0283
   46MPD2    H7  726   1.151   3.053   9.707  1.6061 -0.1434 -0.7062
   47TMC2    C1  727   3.677   3.809  10.002 -0.0846  0.8233  0.3007
   47TMC2    C2  728   3.704   3.793  10.132  0.5349  0.3316 -0.5551
   47TMC2    C3  729   3.637   3.864  10.224 -0.2239 -0.4060 -0.0814
   47TMC2    C4  730   3.572   3.884   9.960  0.8648  0.1821  0.1205
   47TMC2    C5  731   3.497   3.955  10.051 -0.3850  0.2208 -0.7855
   47TMC2    C6  732   3.535   3.952  10.188 -0.5782  0.4800 -0.3427
   47TMC2     C  733   3.748   3.733   9.905  0.1150  0.6688 -0.0339
   47TMC2     O  734   3.684   3.711   9.803  0.4302 -0.3786 -0.2195
   47TMC2     H  735   3.787   3.729  10.161 -0.8951 -0.4230  1.8751
   47TMC2    H1  736   3.540   3.902   9.858 -1.0234  2.6966  1.1401
   47TMC2    H2  737   3.485   4.005  10.268  1.0008  0.6155  0.5545
   47TMC2    C7  738   3.363   3.944  10.027 -0.4626  0.0961  0.3150
   47TMC2    C8  739   3.708   3.878  10.349  0.0903 -0.0837 -0.2738
   47TMC2    O1  740   3.331   3.941   9.907  0.7568  0.0413 -0.1593
   47TMC2    O2  741   3.825   3.844  10.372  0.7338  0.0551 -0.0114
   47TMC2    O5  742   3.610   3.876  10.443  0.7584  0.4898 -0.5846
   47TMC2    H5  743   3.517   3.899  10.422  0.2835  1.1221  2.1691
   48MPD2     C  744   3.958   3.600   9.738  0.7572  0.2651  0.9022
   48MPD2    C1  745   3.964   3.624   9.877  0.5313 -0.0989 -0.0421
   48MPD2    C2  746   4.077   3.580   9.940  0.2738 -0.2877 -0.8157
   48MPD2    C3  747   4.192   3.531   9.875 -0.3333  0.3538  0.6774
   48MPD2    C4  748   4.184   3.524   9.735 -0.3902 -0.0212  0.1306
   48MPD2    C5  749   4.061   3.543   9.674 -0.2509  0.0321 -0.0917
   48MPD2     H  750   4.090   3.589  10.047  0.7557 -1.5162 -0.7617
   48MPD2    H1  751   4.269   3.484   9.680 -0.8469 -1.6739  0.6373
   48MPD2    H2  752   3.864   3.616   9.688  0.7495 -0.7624  0.5798
   48MPD2    H3  753   4.047   3.520   9.569  1.7306  0.6834 -0.5166
   48MPD2     N  754   4.305   3.503   9.949 -0.4437  0.2371 -0.9673
   48MPD2    H5  755   4.299   3.514  10.050  0.8024  0.8002 -0.9460
   48MPD2    N1  756   3.870   3.694   9.955  0.1083  0.2530 -0.2600
   48MPD2    H7  757   3.904   3.730  10.043 -2.3756  0.6940  0.4946
   49TMC2    C1  758   1.592   1.196   9.880  0.3525  0.3944  0.5166
   49TMC2    C2  759   1.584   1.216   9.748 -0.0649 -0.5987 -0.3279
   49TMC2    C3  760   1.586   1.114   9.666  0.5662 -0.1031 -0.5392
   49TMC2    C4  761   1.620   1.075   9.932  0.1038 -0.3497 -0.4190
   49TMC2    C5  762   1.622   0.971   9.844 -0.1183  0.6453  0.1500
   49TMC2    C6  763   1.601   0.985   9.708  0.6747 -0.7460  0.4622
   49TMC2     C  764   1.615   1.307   9.965  0.1791  0.3923 -0.3529
   49TMC2     O  765   1.605   1.417   9.906 -0.3351 -0.4179 -0.0014
   49TMC2     H  766   1.549   1.311   9.710 -1.6702 -0.6822  0.9186
   49TMC2    H1  767   1.616   1.055  10.039  2.2098 -1.7781 -0.6175
   49TMC2    H2  768   1.611   0.905   9.635  0.1064 -1.0828  0.7557
   49TMC2    C7  769   1.642   0.841   9.900  0.8845  0.7289  0.4794
   49TMC2    C8  770   1.556   1.136   9.525  0.3786 -1.1394  0.6744
   49TMC2    O1  771   1.675   0.837  10.014  0.6003  0.3554 -0.2754
   49TMC2    O2  772   1.590   1.240   9.472  0.1172  0.2886  0.3492
   49TMC2    O5  773   1.449   1.070   9.489 -0.2339 -0.9883  0.2039
   49TMC2    H5  774   1.429   0.988   9.539 -0.3287 -2.5424 -2.4055
   50MPD2     C  775   1.682   1.533  10.159 -0.2172 -0.9251  0.1792
   50MPD2    C1  776   1.690   1.398  10.188  0.2284 -0.5102 -0.6332
   50MPD2    C2  777   1.745   1.369  10.309  0.1608  0.0066 -0.0802
   50MPD2    C3  778   1.785   1.469  10.404  0.4410 -0.1303 -0.1150
   50MPD2    C4  779   1.766   1.598  10.370 -0.2243  0.5214 -0.2756
   50MPD2    C5  780   1.720   1.629  10.245 -0.0994 -0.5165  0.3803
   50MPD2     H  781   1.770   1.268  10.338 -0.5005 -0.1414 -0.0246
   50MPD2    H1  782   1.782   1.684  10.433 -0.4575  0.2710  0.1244
   50MPD2    H2  783   1.628   1.567  10.072  0.5012 -0.1446  0.0366
   50MPD2    H3  784   1.705   1.732  10.214  1.6960 -0.4130 -0.1192
   50MPD2     N  785   1.841   1.437  10.532 -0.2541 -0.0962  0.3675
   50MPD2    H5  786   1.864   1.514  10.594  0.1196  1.6260 -1.9050
   50MPD2    N1  787   1.651   1.291  10.094 -0.8037 -0.4211  0.0169
   50MPD2    H7  788   1.670   1.197  10.128  0.9367 -0.1077 -0.0460
   51TMC2    C1  789   3.508   3.858   2.066 -0.1307 -0.0262  0.4204
   51TMC2    C2  790   3.509   3.940   2.177 -0.1151  0.1142  0.2697
   51TMC2    C3  791   3.630   3.967   2.229  0.5925 -0.9068  0.4225
   51TMC2    C4  792   3.626   3.825   2.012 -0.3339 -0.3889 -0.5289
   51TMC2    C5  793   3.744   3.860   2.066 -0.2757 -0.0057 -0.4417
   51TMC2    C6  794   3.752   3.934   2.178 -0.3278 -0.1092 -0.0426
   51TMC2     C  795   3.383   3.841   1.987  0.6359 -0.4081  0.0101
   51TMC2     O  796   3.395   3.813   1.872 -0.1051 -0.2899  0.3885
   51TMC2     H  797   3.419   3.978   2.223 -1.5828  1.8200 -4.0432
   51TMC2    H1  798   3.626   3.755   1.930  1.3746  0.6537 -1.4064
   51TMC2    H2  799   3.851   3.950   2.220 -0.7014  1.6208  0.1597
   51TMC2    C7  800   3.870   3.858   1.997 -0.4288 -0.1927 -0.3296
   51TMC2    C8  801   3.631   4.050   2.351  0.5686  0.0143 -0.6511
   51TMC2    O1  802   3.942   3.954   2.018 -0.1475  0.0948 -0.2886
   51TMC2    O2  803   3.537   4.045   2.436  0.5015 -0.2277  1.0210
   51TMC2    O5  804   3.721   4.142   2.341 -0.0983  0.6466  0.5620
   51TMC2    H5  805   3.777   4.155   2.261 -0.8858 -0.4291 -0.1616
   52MPD2     C  806   2.869   3.855   1.940 -0.1379 -0.0439  0.2326
   52MPD2    C1  807   2.969   3.858   1.844 -0.7427 -0.0042 -0.5444
   52MPD2    C2  808   3.104   3.862   1.883  0.2265  0.3429  0.2403
   52MPD2    C3  809   3.136   3.863   2.022  0.6961  0.3270 -0.1987
   52MPD2    C4  810   3.036   3.854   2.114  0.2161 -0.9005  0.1161
   52MPD2    C5  811   2.904   3.842   2.074  0.2332 -0.1767  0.0368
   52MPD2     H  812   3.184   3.869   1.810 -0.1823  1.0360 -0.1381
   52MPD2    H1  813   3.065   3.844   2.218  2.1809  0.0259 -0.3505
   52MPD2    H2  814   2.772   3.819   1.909 -0.0164  0.2098 -0.4424
   52MPD2    H3  815   2.835   3.818   2.154 -1.0263  0.3372 -0.8872
   52MPD2     N  816   3.274   3.862   2.068  0.4533 -0.3839  0.0605
   52MPD2    H5  817   3.294   3.860   2.168  2.1211 -2.0042 -0.3191
   52MPD2    N1  818   2.942   3.834   1.706 -0.6702 -0.4042 -0.4339
   52MPD2    H7  819   3.017   3.809   1.643 -0.8621 -2.0713 -0.0022
   53TMC2    C1  820   2.502   3.119  11.648 -0.3622 -0.2521 -0.1795
   53TMC2    C2  821   2.577   3.023  11.585  0.6450 -0.2881  0.1434
   53TMC2    C3  822   2.662   2.944  11.661  0.3956  0.5514  0.0173
   53TMC2    C4  823   2.524   3.143  11.779  0.0951  0.0388  0.2863
   53TMC2    C5  824   2.618   3.072  11.852 -0.4609 -0.0536 -0.0085
   53TMC2    C6  825   2.677   2.956  11.793 -0.3202  0.4191 -0.6576
   53TMC2     C  826   2.378   3.164  11.598 -0.4308 -0.5046  0.5231
   53TMC2     O  827   2.364   3.202  11.478  0.1929  0.0005 -0.1360
   53TMC2     H  828   2.553   2.999  11.483 -2.6299  1.0310  0.6129
   53TMC2    H1  829   2.474   3.226  11.828  1.1396  0.4774  0.6143
   53TMC2    H2  830   2.750   2.893  11.843 -0.1561  0.2750 -1.0761
   53TMC2    C7  831   2.546   3.051  11.976  0.8263  0.5850  0.0701
   53TMC2    C8  832   2.780   2.890  11.588 -0.2540 -0.4081 -0.2389
   53TMC2    O1  833   2.427   3.052  11.955 -0.8849  0.2861 -0.3178
   53TMC2    O2  834   2.860   2.818  11.649 -0.2654  0.5475  0.0263
   53TMC2    O5  835   2.779   2.921  11.457  0.1172 -0.3353 -0.0939
   53TMC2    H5  836   2.705   2.968  11.412  1.4438  2.1385  0.3259
   54MPD2     C  837   2.083   3.214  11.580  0.0963 -0.2194  0.8763
   54MPD2    C1  838   2.149   3.157  11.689 -0.4750  0.1584  0.6764
   54MPD2    C2  839   2.072   3.089  11.787 -1.1466 -0.5727 -0.0224
   54MPD2    C3  840   1.933   3.086  11.780 -0.5223 -0.3610  0.2641
   54MPD2    C4  841   1.867   3.150  11.678 -0.0457  0.4727  0.1345
   54MPD2    C5  842   1.945   3.214  11.578  0.1564  0.3646  0.3974
   54MPD2     H  843   2.132   3.044  11.865  0.2170  2.3204  0.5879
   54MPD2    H1  844   1.759   3.158  11.679 -0.0171  1.0803 -1.1700
   54MPD2    H2  845   2.144   3.267  11.508 -1.1431  1.7318  1.2569
   54MPD2    H3  846   1.902   3.272  11.498 -2.0535  1.0854  2.1113
   54MPD2     N  847   1.849   3.016  11.871  0.3646 -0.5812  0.0227
   54MPD2    H5  848   1.749   3.015  11.854 -0.0477  2.7810  2.2069
   54MPD2    N1  849   2.287   3.148  11.701 -0.1145  0.3501  0.2900
   54MPD2    H7  850   2.328   3.094  11.778  0.4552 -0.2211 -0.4166
   55TMC2    C1  851   3.658   1.062   0.003 -0.4776 -0.1980 -0.3433
   55TMC2    C2  852   3.705   0.986  17.662  0.5348 -0.0617 -0.0684
   55TMC2    C3  853   3.811   0.903  17.686  0.2224  0.0035 -0.7584
   55TMC2    C4  854   3.717   1.066   0.126  0.2303  0.4334  0.5561
   55TMC2    C5  855   3.802   0.968   0.152  0.3461 -0.7957 -0.4563
   55TMC2    C6  856   3.852   0.880   0.060  0.2379 -0.3886 -0.8559
   55TMC2     C  857   3.550   1.161  17.736 -0.3525  0.6412 -0.1660
   55TMC2     O  858   3.480   1.194   0.074  0.4682  0.7600  0.4415
   55TMC2     H  859   3.651   0.976  17.568  0.3479  0.5393 -0.0214
   55TMC2    H1  860   3.677   1.140   0.194  0.9336  0.5040  0.8939
   55TMC2    H2  861   3.937   0.816   0.082  1.7013  1.5965 -0.7755
   55TMC2    C7  862   3.828   0.932   0.288 -0.3419  0.3245  0.2232
   55TMC2    C8  863   3.861   0.823  17.571  0.0756  0.6043  0.2510
   55TMC2    O1  864   3.924   0.856   0.305  0.3225  0.0659  0.1681
   55TMC2    O2  865   3.820   0.823  17.456  0.2617 -0.4068  0.3096
   55TMC2    O5  866   3.926   0.710  17.616  0.5235  0.3011 -0.1857
   55TMC2    H5  867   3.918   0.688  17.711 -1.0617 -1.5008 -0.7430
   56MPD2     C  868   3.447   1.313  17.422 -0.3929 -0.9737  0.2053
   56MPD2    C1  869   3.442   1.291  17.556  0.4783 -0.0922  0.0767
   56MPD2    C2  870   3.345   1.356  17.627 -0.6720  0.1433  0.0467
   56MPD2    C3  871   3.250   1.433  17.573 -0.2804  0.5789  0.1567
   56MPD2    C4  872   3.257   1.457  17.437 -0.0878  0.6694 -0.3387
   56MPD2    C5  873   3.356   1.392  17.360 -0.2933  1.2843  0.5332
   56MPD2     H  874   3.342   1.356  17.735 -0.8647 -2.2316  0.0350
   56MPD2    H1  875   3.188   1.519  17.381 -0.7631  0.5376  0.3460
   56MPD2    H2  876   3.521   1.260  17.363 -0.4099 -1.3120  0.4870
   56MPD2    H3  877   3.345   1.413  17.254  2.5813  2.1023  0.4036
   56MPD2     N  878   3.170   1.509  17.662  0.1186 -0.0675 -0.0431
   56MPD2    H5  879   3.179   1.494   0.004  1.1668  1.3798  0.0821
   56MPD2    N1  880   3.532   1.191  17.604 -0.5630 -0.6661  0.4679
   56MPD2    H7  881   3.591   1.147  17.534 -0.1397  0.1642  0.3003
   57TMC2    C1  882   2.286   1.784  13.127  1.3122 -0.0254 -0.9291
   57TMC2    C2  883   2.253   1.716  13.015  0.1629 -0.1388 -0.0649
   57TMC2    C3  884   2.348   1.696  12.920 -0.2613  0.1139 -0.1457
   57TMC2    C4  885   2.414   1.835  13.145 -0.2336  0.8694 -0.0450
   57TMC2    C5  886   2.507   1.791  13.057  0.0911  0.1910 -0.4154
   57TMC2    C6  887   2.475   1.730  12.934  0.3779 -0.3095 -0.3636
   57TMC2     C  888   2.199   1.787  13.249 -0.6118 -0.5097  0.3150
   57TMC2     O  889   2.217   1.888  13.319 -0.1742  0.4506 -0.3008
   57TMC2     H  890   2.150   1.694  12.987 -0.3392 -1.7010  2.9128
   57TMC2    H1  891   2.432   1.894  13.234  1.2536 -1.5453  1.2563
   57TMC2    H2  892   2.556   1.713  12.865  1.1709 -2.7233  1.1545
   57TMC2    C7  893   2.647   1.813  13.081 -0.1469  0.0346 -0.8271
   57TMC2    C8  894   2.318   1.611  12.805 -0.1448  0.3453  0.6037
   57TMC2    O1  895   2.671   1.901  13.160  0.3123 -0.0710  0.6282
   57TMC2    O2  896   2.220   1.539  12.810 -0.3499  0.6591 -0.0689
   57TMC2    O5  897   2.391   1.639  12.702 -0.6496 -0.4858 -0.1620
   57TMC2    H5  898   2.455   1.713  12.713 -0.7728  0.1103 -3.3165
   58MPD2     C  899   1.754   1.659  13.471 -0.7007  0.4798  0.2031
   58MPD2    C1  900   1.849   1.747  13.508  0.8093  0.1254  0.1338
   58MPD2    C2  901   1.965   1.761  13.436 -0.0096  0.4786 -0.1834
   58MPD2    C3  902   1.981   1.694  13.314  0.1229 -0.6147  0.2694
   58MPD2    C4  903   1.886   1.604  13.280  0.3494 -0.3034 -0.2581
   58MPD2    C5  904   1.775   1.579  13.360 -0.0060  1.1977  0.9292
   58MPD2     H  905   2.040   1.832  13.471  1.3508 -0.8625 -0.4015
   58MPD2    H1  906   1.909   1.537  13.197  1.8365 -2.2965  1.7573
   58MPD2    H2  907   1.668   1.640  13.535 -0.9622 -0.6242 -0.4933
   58MPD2    H3  908   1.706   1.498  13.344  0.6334  1.3408 -2.6232
   58MPD2     N  909   2.102   1.691  13.237 -0.2398 -0.5591  0.7459
   58MPD2    H5  910   2.111   1.632  13.154  0.9227 -1.1910  1.3221
   58MPD2    N1  911   1.839   1.811  13.636 -0.3233 -0.1810  0.7990
   58MPD2    H7  912   1.918   1.864  13.672 -0.1007  0.9449 -1.4086
   59TMC2    C1  913   0.309   1.810  12.652  0.4197 -0.1803 -0.0226
   59TMC2    C2  914   0.377   1.696  12.687 -0.0892 -0.6667  0.8443
   59TMC2    C3  915   0.347   1.578  12.625  1.1961  0.6524  0.0517
   59TMC2    C4  916   0.210   1.810  12.554  0.4267 -0.5015  0.2581
   59TMC2    C5  917   0.185   1.686  12.491  0.0523  0.1204  0.3919
   59TMC2    C6  918   0.246   1.573  12.529 -0.0984 -0.4733 -0.4449
   59TMC2     C  919   0.382   1.933  12.660 -0.5299 -0.1627 -0.1960
   59TMC2     O  920   0.403   1.990  12.554  0.3333 -0.3549 -0.5064
   59TMC2     H  921   0.452   1.696  12.765  0.3089 -4.7741  0.4623
   59TMC2    H1  922   0.162   1.898  12.512 -1.1817 -0.8686  1.3431
   59TMC2    H2  923   0.237   1.484  12.467  0.8891 -0.6354 -0.3635
   59TMC2    C7  924   0.070   1.671  12.406  0.5074  0.0922 -1.0902
   59TMC2    C8  925   0.432   1.466  12.622 -0.4438 -0.3029  0.2095
   59TMC2    O1  926   0.036   1.553  12.393 -0.3696  0.0779  0.1801
   59TMC2    O2  927   0.425   1.362  12.562 -0.7373 -0.0480  0.3240
   59TMC2    O5  928   0.545   1.494  12.679 -0.6498 -0.7842 -0.4353
   59TMC2    H5  929   0.550   1.587  12.709  0.3655 -0.9596 -0.0375
   60MPD2     C  930   0.523   2.194  12.735 -0.4601  0.5735 -0.0901
   60MPD2    C1  931   0.474   2.097  12.825  0.3291 -0.3931 -0.7135
   60MPD2    C2  932   0.490   2.125  12.961 -0.1837  0.6538  0.7345
   60MPD2    C3  933   0.561   2.240  13.001 -0.0885  0.2176 -0.7810
   60MPD2    C4  934   0.621   2.317  12.914  0.5898 -0.3723  0.3856
   60MPD2    C5  935   0.599   2.297  12.776 -0.0898  0.6361  0.3193
   60MPD2     H  936   0.461   2.050  13.033  1.5003 -1.2705 -0.5874
   60MPD2    H1  937   0.668   2.411  12.940  2.0771 -0.5600 -1.6254
   60MPD2    H2  938   0.522   2.173  12.629  0.0692  1.9015 -0.3693
   60MPD2    H3  939   0.636   2.366  12.701 -0.3449  1.5933  1.0691
   60MPD2     N  940   0.597   2.260  13.139  0.0160 -0.8703 -0.5769
   60MPD2    H5  941   0.670   2.329  13.153 -1.4331  0.0905  2.2665
   60MPD2    N1  942   0.418   1.968  12.788  0.3128  0.1764 -0.7012
   60MPD2    H7  943   0.395   1.904  12.863  0.1226 -1.3315 -2.0413
   61TMC2    C1  944   4.205   3.161  15.619  0.3593 -0.4832  0.0750
   61TMC2    C2  945   4.149   3.118  15.739  0.1903 -0.0454  0.1864
   61TMC2    C3  946   4.100   3.219  15.820 -0.2412 -0.4894 -0.7460
   61TMC2    C4  947   4.223   3.292  15.590  0.3673 -0.1057  0.0038
   61TMC2    C5  948   4.193   3.385  15.688 -1.1332  0.0477  0.1063
   61TMC2    C6  949   4.129   3.352  15.806 -0.4010 -0.0733 -0.6450
   61TMC2     C  950   4.218   3.059  15.520 -0.9732  0.0449 -0.0448
   61TMC2     O  951   4.159   2.951  15.536  0.0208  0.5544 -0.3930
   61TMC2     H  952   4.148   3.012  15.761  1.6604  0.1627  1.2204
   61TMC2    H1  953   4.238   3.327  15.489 -0.1426  1.6174  0.5212
   61TMC2    H2  954   4.108   3.427  15.882  0.6009 -1.1579  0.7045
   61TMC2    C7  955   4.257   3.515  15.669  0.6840  0.4237 -0.6242
   61TMC2    C8  956   4.036   3.169  15.939  0.3293  1.1381  0.4835
   61TMC2    O1  957   4.266   3.559  15.557 -0.0478 -0.6607 -0.1179
   61TMC2    O2  958   4.044   3.050  15.965 -0.1916 -0.5721 -0.2013
   61TMC2    O5  959   3.962   3.264  16.004 -0.2963  0.2697  0.0590
   61TMC2    H5  960   3.944   3.349  15.959 -1.4996 -0.4507 -0.8009
   62MPD2     C  961   4.310   2.862  15.309 -0.6233  0.2172 -0.1104
   62MPD2    C1  962   4.361   2.992  15.326  0.2449  0.0381  0.3086
   62MPD2    C2  963   4.457   3.042  15.240  0.1850  0.5312  0.1666
   62MPD2    C3  964   4.514   2.962  15.145 -0.5209 -0.3203  0.4057
   62MPD2    C4  965   4.457   2.831  15.125  0.3876 -0.5624  0.1806
   62MPD2    C5  966   4.358   2.780  15.211 -0.3386 -0.1662  1.1152
   62MPD2     H  967   4.484   3.144  15.265  1.7125  0.6675 -1.9293
   62MPD2    H1  968   4.483   2.758  15.048  0.7439 -2.1075  1.7732
   62MPD2    H2  969   4.229   2.823  15.369  1.0353 -2.6941  0.2469
   62MPD2    H3  970   4.335   2.674  15.212  0.6853 -0.3981  0.7589
   62MPD2     N  971   4.615   3.000  15.059 -0.2703  0.5409 -0.0367
   62MPD2    H5  972   4.654   2.932  14.993  0.5152  2.4759 -1.5544
   62MPD2    N1  973   4.314   3.085  15.422  0.1933  0.5343  0.2391
   62MPD2    H7  974   4.351   3.179  15.412  1.6104 -0.0012  0.4773
   63TMC2    C1  975   3.125   3.277  10.125 -0.3193 -0.6740  1.0764
   63TMC2    C2  976   3.154   3.246   9.995 -0.1877  0.2949 -0.6154
   63TMC2    C3  977   3.074   3.273   9.892  0.1605  1.2083  0.2356
   63TMC2    C4  978   2.998   3.329  10.153  0.3895  0.0050  0.2506
   63TMC2    C5  979   2.922   3.362  10.045  0.3893  0.1969  0.2538
   63TMC2    C6  980   2.957   3.338   9.915  0.5300 -0.0185 -0.4251
   63TMC2     C  981   3.196   3.203  10.229 -0.8304 -0.2501 -0.1013
   63TMC2     O  982   3.248   3.101  10.188  0.1587 -0.5401  0.7291
   63TMC2     H  983   3.234   3.175   9.977  0.7517  1.4784 -1.1500
   63TMC2    H1  984   2.967   3.337  10.257 -3.4943  0.7824 -0.9794
   63TMC2    H2  985   2.907   3.390   9.834  0.0933  0.4759  0.1653
   63TMC2    C7  986   2.799   3.436  10.085  0.2633 -0.8064 -0.6371
   63TMC2    C8  987   3.116   3.252   9.759  0.5477 -0.0564  1.1329
   63TMC2    O1  988   2.777   3.465  10.201 -0.2454  0.1481  0.3278
   63TMC2    O2  989   3.230   3.234   9.718  0.8529  0.1390 -0.5852
   63TMC2    O5  990   3.005   3.218   9.692  0.2949 -0.5627 -0.0842
   63TMC2    H5  991   2.921   3.226   9.740  0.9779  0.3156  0.9637
   64MPD2     C  992   3.368   3.139  10.706 -0.1961  0.1953  0.0054
   64MPD2    C1  993   3.360   3.044  10.611  0.7329 -0.0093  0.8908
   64MPD2    C2  994   3.304   3.079  10.488  0.5069 -0.3285  0.3464
   64MPD2    C3  995   3.258   3.211  10.476 -0.3794 -0.2501  0.2087
   64MPD2    C4  996   3.252   3.292  10.578  0.0974  0.0195  0.8499
   64MPD2    C5  997   3.312   3.256  10.691  0.1863  0.6052 -0.9780
   64MPD2     H  998   3.308   3.015  10.401 -1.5937  0.1726 -0.1107
   64MPD2    H1  999   3.216   3.394  10.563  0.5326 -0.0280 -0.4499
   64MPD2    H2 1000   3.412   3.109  10.800  1.9924 -0.7518 -1.2897
   64MPD2    H3 1001   3.322   3.329  10.770 -0.8693 -1.0879  0.7385
   64MPD2     N 1002   3.200   3.263  10.357 -0.4151  0.7393  0.0927
   64MPD2    H5 1003   3.173   3.361  10.353 -2.6558  0.1570  0.5508
   64MPD2    N1 1004   3.417   2.920  10.633  0.1377 -0.2415  0.3233
   64MPD2    H7 1005   3.466   2.904  10.721 -1.1887 -0.0445  1.1002
   65TMC2    C1 1006   4.628   3.349  15.673  0.0226  0.2913  0.2541
   65TMC2    C2 1007   4.570   3.341  15.553  0.9938 -0.2534 -0.7160
   65TMC2    C3 1008   4.542   3.454  15.481 -0.0671  0.3468 -0.0095
   65TMC2    C4 1009   4.680   3.467  15.720 -0.0941 -0.0383 -0.8916
   65TMC2    C5 1010   4.658   3.582  15.642  0.0876 -0.2839  0.6545
   65TMC2    C6 1011   4.591   3.579  15.517 -0.3255  0.0945 -0.0617
   65TMC2     C 1012   4.600   3.239  15.762  1.0780  0.0631  0.5754
   65TMC2     O 1013   4.611   3.251  15.882  0.9054  0.2444 -0.0254
   65TMC2     H 1014   4.537   3.250  15.504 -0.9621 -0.6866  1.3934
   65TMC2    H1 1015   4.733   3.468  15.814 -1.8404 -0.3010  0.1051
   65TMC2    H2 1016   4.570   3.669  15.461 -2.2546 -0.6884 -0.5943
   65TMC2    C7 1017   4.726   3.710  15.673 -0.0302 -0.0710 -0.4769
   65TMC2    C8 1018   4.492   3.438  15.343 -0.1163  0.4743  0.2706
   65TMC2    O1 1019   4.711   3.798  15.581  0.1140  0.4925  0.3013
   65TMC2    O2 1020   4.413   3.348  15.314  0.0504  0.3644 -0.3268
   65TMC2    O5 1021   4.581   3.494  15.258  0.4462  0.4798  0.6607
   65TMC2    H5 1022   4.643   3.553  15.307  0.4078 -0.2373  1.5593
   66MPD2     C 1023   4.582   2.954  15.878 -0.5568  0.3256 -0.4173
   66MPD2    C1 1024   4.596   2.987  15.746 -0.0076 -0.0713  0.1022
   66MPD2    C2 1025   4.621   2.889  15.651  0.1540  0.2524 -0.7276
   66MPD2    C3 1026   4.620   2.756  15.688 -0.0639 -0.6342  0.4113
   66MPD2    C4 1027   4.606   2.727  15.825  0.5374 -0.1862 -0.1493
   66MPD2    C5 1028   4.586   2.826  15.911 -0.7312  0.0897 -0.1045
   66MPD2     H 1029   4.632   2.925  15.549  1.4717  0.3913 -0.5436
   66MPD2    H1 1030   4.606   2.625  15.862 -0.6501  0.8432  2.6643
   66MPD2    H2 1031   4.573   3.034  15.951 -1.7781 -0.5777  0.4186
   66MPD2    H3 1032   4.586   2.794  16.015  5.8782 -0.9927 -0.4812
   66MPD2     N 1033   4.641   2.648  15.601 -0.2716 -0.2954  0.2395
   66MPD2    H5 1034   4.633   2.554  15.640  0.5288 -0.7378 -0.6503
   66MPD2    N1 1035   4.605   3.122  15.693 -0.2730 -0.4920  0.3342
   66MPD2    H7 1036   4.616   3.129  15.592  2.1317  0.8278  0.6886
   67TMC2    C1 1037   0.310   1.614  14.084  0.6768 -0.0703  0.6589
   67TMC2    C2 1038   0.290   1.507  14.169 -0.2843 -0.3369  0.8397
   67TMC2    C3 1039   0.286   1.539  14.303  0.0469  0.1558 -0.6699
   67TMC2    C4 1040   0.322   1.740  14.133  0.6826  0.2860  0.2881
   67TMC2    C5 1041   0.341   1.764  14.267  0.3913 -0.3552  0.4172
   67TMC2    C6 1042   0.335   1.659  14.358 -0.0589 -0.1948  0.1620
   67TMC2     C 1043   0.247   1.602  13.959  0.8745 -0.6994 -0.0747
   67TMC2     O 1044   0.261   1.498  13.896  0.3383  1.0111 -0.0176
   67TMC2     H 1045   0.264   1.411  14.125  0.4207  0.5755 -1.5377
   67TMC2    H1 1046   0.314   1.824  14.064  1.4270 -1.4486 -1.9014
   67TMC2    H2 1047   0.346   1.677  14.464 -0.2561  0.3578  0.0854
   67TMC2    C7 1048   0.391   1.892  14.304  0.6877 -0.5777 -0.1245
   67TMC2    C8 1049   0.248   1.436  14.402  0.2260  0.2070  0.1100
   67TMC2    O1 1050   0.425   1.960  14.211 -0.1601 -0.8412 -0.1818
   67TMC2    O2 1051   0.338   1.389  14.471  0.5452 -0.1986  0.0314
   67TMC2    O5 1052   0.151   1.359  14.350  0.4697  0.1972 -0.0250
   67TMC2    H5 1053   0.088   1.413  14.298  2.3158  0.2445 -2.2070
   68MPD2     C 1054   0.095   1.654  13.702 -0.4869 -0.5412 -0.2844
   68MPD2    C1 1055   0.075   1.721  13.821 -0.9128 -0.0858 -0.3307
   68MPD2    C2 1056   4.702   1.800  13.838 -0.3710 -0.6592 -0.5787
   68MPD2    C3 1057   4.613   1.815  13.739 -0.1804  0.3403  0.3758
   68MPD2    C4 1058   4.637   1.763  13.618 -0.7584  0.0243  0.6978
   68MPD2    C5 1059   0.004   1.679  13.599 -0.0043 -0.1677  0.1088
   68MPD2     H 1060   4.686   1.852  13.931  3.6154  0.8788 -0.7595
   68MPD2    H1 1061   4.568   1.771  13.535  0.5621  1.5705 -0.2516
   68MPD2    H2 1062   0.164   1.572  13.687  1.6726  1.0216  1.0865
   68MPD2    H3 1063   0.013   1.626  13.505 -2.3701  0.0661 -0.2444
   68MPD2     N 1064   4.498   1.897  13.758  0.4239  0.1754 -0.0155
   68MPD2    H5 1065   4.494   1.931  13.853  0.8299  0.4531 -0.1013
   68MPD2    N1 1066   0.157   1.703  13.935 -0.6910 -0.6644 -0.7080
   68MPD2    H7 1067   0.140   1.770  14.009  0.9137 -1.2559  0.2085
   69TMC2    C1 1068   2.293   3.324  12.558 -0.3878  0.1582  0.0424
   69TMC2    C2 1069   2.172   3.386  12.548 -0.0280  1.1219  0.6700
   69TMC2    C3 1070   2.151   3.459  12.436 -0.1008  0.1607  0.0535
   69TMC2    C4 1071   2.378   3.315  12.449  0.8093 -0.3404 -0.3754
   69TMC2    C5 1072   2.345   3.379  12.337  0.1708  0.1965  1.1156
   69TMC2    C6 1073   2.237   3.457  12.328  0.2639 -0.4604 -0.3314
   69TMC2     C 1074   2.330   3.266  12.682  0.3527 -0.2826 -0.0226
   69TMC2     O 1075   2.236   3.226  12.755  0.1018 -0.2514 -0.0077
   69TMC2     H 1076   2.098   3.382  12.626  1.7379 -0.3052  2.2632
   69TMC2    H1 1077   2.474   3.266  12.463  0.1539 -0.7804  2.6089
   69TMC2    H2 1078   2.201   3.501  12.235 -1.8208  0.3919  0.8809
   69TMC2    C7 1079   2.452   3.399  12.245  0.0981  0.3733  0.2555
   69TMC2    C8 1080   2.014   3.495  12.411 -0.3930  0.4030  0.2938
   69TMC2    O1 1081   2.557   3.356  12.277 -0.1028 -0.2762 -0.0002
   69TMC2    O2 1082   1.970   3.503  12.297  0.5299 -0.4923  0.4435
   69TMC2    O5 1083   1.961   3.564  12.510 -0.9797 -0.2818 -0.3793
   69TMC2    H5 1084   2.007   3.562  12.597  0.2868 -1.2766 -1.0891
   70MPD2     C 1085   2.666   3.293  12.849 -0.5496 -0.2172  0.4711
   70MPD2    C1 1086   2.534   3.236  12.823  0.2241  0.0936 -0.0383
   70MPD2    C2 1087   2.480   3.131  12.898 -0.0855  0.3700 -0.5871
   70MPD2    C3 1088   2.550   3.094  13.012  0.1099 -0.7366 -0.5822
   70MPD2    C4 1089   2.662   3.156  13.047 -1.2548  0.0703  0.4148
   70MPD2    C5 1090   2.720   3.250  12.966  0.2631  0.9568 -0.2548
   70MPD2     H 1091   2.389   3.082  12.867  1.6580 -1.6351 -2.5547
   70MPD2    H1 1092   2.722   3.119  13.130 -1.6691 -2.5431 -0.4586
   70MPD2    H2 1093   2.714   3.363  12.782 -0.3145 -2.6975 -1.9229
   70MPD2    H3 1094   2.818   3.288  12.992 -0.4678  3.5210 -1.3393
   70MPD2     N 1095   2.521   2.979  13.095 -0.1712 -1.3737 -0.9110
   70MPD2    H5 1096   2.585   2.965  13.173  0.3363  2.5291 -0.6031
   70MPD2    N1 1097   2.463   3.282  12.705  0.6566 -0.0502  0.1049
   70MPD2    H7 1098   2.512   3.354  12.652  0.4932  1.0383  1.4338
   71TMC2    C1 1099   0.418   4.013   1.001 -0.7569  0.3330  0.5823
   71TMC2    C2 1100   0.530   4.072   1.049  0.7015 -0.0649  0.1721
   71TMC2    C3 1101   0.611   4.001   1.125 -0.3403 -0.1867  0.0882
   71TMC2    C4 1102   0.388   3.882   1.032 -0.0250  0.0164 -0.1422
   71TMC2    C5 1103   0.482   3.812   1.102 -0.3407  0.0822 -0.2226
   71TMC2    C6 1104   0.592   3.871   1.149  0.5437 -0.2948 -0.1265
   71TMC2     C 1105   0.362   4.081   0.882 -0.6385  0.2232 -0.0271
   71TMC2     O 1106   0.408   4.190   0.864  0.1276  0.5259  0.3851
   71TMC2     H 1107   0.564   4.174   1.033 -0.4369  0.5052  1.3613
   71TMC2    H1 1108   0.286   3.844   1.026  0.9427 -2.1322 -2.7163
   71TMC2    H2 1109   0.650   3.811   1.218 -0.0526  1.1161  1.5904
   71TMC2    C7 1110   0.467   3.669   1.125  0.2422 -0.2104 -0.2051
   71TMC2    C8 1111   0.721   4.058   1.187  0.4772  0.1348  0.2422
   71TMC2    O1 1112   0.544   3.612   1.199  0.1910  0.2932  0.6530
   71TMC2    O2 1113   0.820   3.991   1.214 -0.8118 -0.3758 -0.2823
   71TMC2    O5 1114   0.664   4.153   1.263  0.2020  0.3104  0.3818
   71TMC2    H5 1115   0.582   4.197   1.234  1.4214  1.8349 -0.8042
   72MPD2     C 1116   0.096   4.110   0.433  0.8800  0.0232 -0.4523
   72MPD2    C1 1117   0.184   4.197   0.499  0.0153 -0.6368  0.1287
   72MPD2    C2 1118   0.241   4.158   0.621 -0.1033  0.6068  0.3757
   72MPD2    C3 1119   0.209   4.037   0.688  0.3754  0.2127 -0.1177
   72MPD2    C4 1120   0.120   3.957   0.623 -0.4409 -0.4200 -0.0207
   72MPD2    C5 1121   0.063   3.995   0.501 -0.5309  0.1806 -0.6574
   72MPD2     H 1122   0.310   4.230   0.664 -0.3859  0.0286  1.7823
   72MPD2    H1 1123   0.088   3.862   0.664  1.5307 -1.3726 -0.6798
   72MPD2    H2 1124   0.054   4.130   0.335 -0.0676  0.1610 -0.0181
   72MPD2    H3 1125   4.722   3.938   0.456  1.1461 -0.1505 -3.2531
   72MPD2     N 1126   0.275   4.001   0.809  0.6527  0.2098 -0.0012
   72MPD2    H5 1127   0.237   3.913   0.842 -1.8170  1.8884  1.7015
   72MPD2    N1 1128   0.211   4.328   0.445  0.0419  0.5580 -0.0843
   72MPD2    H7 1129   0.256   4.387   0.515  4.5015 -1.1767 -1.5412
   73TMC2    C1 1130   3.819   0.878  13.821 -0.9262 -0.3770  0.1521
   73TMC2    C2 1131   3.736   0.856  13.926 -0.6323 -0.3434  0.2264
   73TMC2    C3 1132   3.789   0.783  14.036 -0.1423 -0.3182  0.3241
   73TMC2    C4 1133   3.944   0.828  13.817  0.4843 -0.1463 -0.1194
   73TMC2    C5 1134   3.991   0.754  13.924  0.0164  1.0035  0.1952
   73TMC2    C6 1135   3.910   0.722  14.031 -0.3784 -0.3808  0.0287
   73TMC2     C 1136   3.807   1.010  13.755  0.3035 -0.0744  0.3084
   73TMC2     O 1137   3.919   1.064  13.743  0.1709  0.2299 -0.1495
   73TMC2     H 1138   3.632   0.885  13.935  0.1843  2.9512 -0.9306
   73TMC2    H1 1139   3.997   0.828  13.722  0.6412 -0.6474 -0.0318
   73TMC2    H2 1140   3.956   0.659  14.107 -0.5516 -0.7545 -0.1749
   73TMC2    C7 1141   4.101   0.820  13.977  1.1832 -0.3708 -0.7193
   73TMC2    C8 1142   3.705   0.744  14.138  0.3453  0.3694  0.0685
   73TMC2    O1 1143   4.187   0.753  14.033 -0.2748  0.1341  0.3509
   73TMC2    O2 1144   3.729   0.646  14.212  0.0146  0.2209  0.4625
   73TMC2    O5 1145   3.607   0.835  14.143 -0.2158  0.4723  0.7096
   73TMC2    H5 1146   3.631   0.917  14.094 -0.5972 -0.1710 -0.5496
   74MPD2     C 1147   3.618   1.446  13.557 -0.6146 -0.0399 -0.3469
   74MPD2    C1 1148   3.736   1.415  13.618  0.1029  0.7471  0.8406
   74MPD2    C2 1149   3.761   1.286  13.663  0.3769 -0.0735 -0.7576
   74MPD2    C3 1150   3.663   1.194  13.673 -0.6908 -0.2180  1.4535
   74MPD2    C4 1151   3.540   1.228  13.630  0.9491  0.0568  0.3628
   74MPD2    C5 1152   3.510   1.352  13.571 -0.1016 -0.2543  0.3731
   74MPD2     H 1153   3.856   1.267  13.712  0.4943  0.2661 -0.8536
   74MPD2    H1 1154   3.457   1.159  13.640  1.4481 -0.6835 -0.5906
   74MPD2    H2 1155   3.602   1.544  13.513  0.0855  0.2651  0.0825
   74MPD2    H3 1156   3.410   1.368  13.531  0.8060  3.3061 -0.4950
   74MPD2     N 1157   3.686   1.069  13.738  0.8719 -0.4369  0.0038
   74MPD2    H5 1158   3.608   1.007  13.760  3.3413 -3.6088 -0.3078
   74MPD2    N1 1159   3.838   1.511  13.625  0.4133  0.0545  0.4147
   74MPD2    H7 1160   3.824   1.593  13.567 -1.4087 -1.4575 -1.2750
   75TMC2    C1 1161   4.332   2.059  13.729  0.4286  0.0488  0.3390
   75TMC2    C2 1162   4.332   2.061  13.867 -0.5116 -0.0701  0.1448
   75TMC2    C3 1163   4.308   2.180  13.926  0.0243 -0.6420  0.0920
   75TMC2    C4 1164   4.290   2.160  13.645  0.5673  0.0409 -0.0247
   75TMC2    C5 1165   4.262   2.275  13.714 -0.7073 -0.0300 -0.1149
   75TMC2    C6 1166   4.272   2.293  13.850 -0.5201 -0.0398  0.2279
   75TMC2     C 1167   4.404   1.945  13.669 -0.8013 -0.1270 -0.2002
   75TMC2     O 1168   4.388   1.922  13.550 -0.2109  0.0962 -0.1978
   75TMC2     H 1169   4.330   1.972  13.928 -0.2614 -0.0368  0.2011
   75TMC2    H1 1170   4.277   2.138  13.539 -1.8491  1.4556 -0.0196
   75TMC2    H2 1171   4.231   2.378  13.903 -0.6858  0.3055 -0.4568
   75TMC2    C7 1172   4.200   2.380  13.643  0.0817  0.3277  0.3562
   75TMC2    C8 1173   4.294   2.183  14.069  0.9662 -0.7369  0.2080
   75TMC2    O1 1174   4.205   2.492  13.695 -0.2108 -0.0851 -0.0811
   75TMC2    O2 1175   4.281   2.081  14.135 -0.4959  0.3744  0.1900
   75TMC2    O5 1176   4.342   2.309  14.107 -0.2532 -0.2786  0.3839
   75TMC2    H5 1177   4.363   2.367  14.032 -0.6517 -1.2475 -0.4788
   76TMC2    C1 1178   2.956   2.172  11.672 -0.0411  0.0631  0.5237
   76TMC2    C2 1179   2.871   2.137  11.570  0.2371  0.5356  0.6701
   76TMC2    C3 1180   2.834   2.010  11.554 -0.6732  0.0171 -0.0749
   76TMC2    C4 1181   3.033   2.076  11.735  0.2279 -0.2099 -0.3169
   76TMC2    C5 1182   2.991   1.945  11.724  0.7764 -0.0868  0.1449
   76TMC2    C6 1183   2.900   1.911  11.628 -1.0762  0.4917 -0.0687
   76TMC2     C 1184   2.992   2.317  11.675  0.5220  0.5075 -0.2402
   76TMC2     O 1185   2.914   2.393  11.615  0.5462 -0.2587  0.3073
   76TMC2     H 1186   2.843   2.218  11.504  0.7837  0.4153  0.2943
   76TMC2    H1 1187   3.099   2.098  11.818 -2.9659 -1.3217  2.5456
   76TMC2    H2 1188   2.881   1.806  11.613  1.9578 -0.1334  0.5045
   76TMC2    C7 1189   3.063   1.827  11.786  0.9947  0.3558  0.3322
   76TMC2    C8 1190   2.741   1.965  11.456  0.1565  0.0526 -0.1563
   76TMC2    O1 1191   3.015   1.718  11.770  0.2746 -0.0858  0.8615
   76TMC2    O2 1192   2.748   1.855  11.399 -0.3785  0.2649  0.2846
   76TMC2    O5 1193   2.655   2.068  11.437 -0.0569  0.6654  0.3708
   76TMC2    H5 1194   2.643   2.127  11.515  0.7771  2.0437 -0.5624
   77MPD2     C 1195   3.321   2.703  11.771 -0.5113 -0.1204  0.3850
   77MPD2    C1 1196   3.178   2.702  11.751 -0.7370 -0.3618 -0.9026
   77MPD2    C2 1197   3.108   2.583  11.734 -0.0495 -0.3521 -0.1477
   77MPD2    C3 1198   3.173   2.461  11.747  0.0403  0.1534 -0.0950
   77MPD2    C4 1199   3.309   2.467  11.776 -0.5812 -0.1559  0.5119
   77MPD2    C5 1200   3.383   2.582  11.790  0.1342  0.8060  0.2072
   77MPD2     H 1201   3.003   2.596  11.711  0.8656  4.3523 -1.8192
   77MPD2    H1 1202   3.363   2.374  11.784 -2.0931 -1.0463  0.3151
   77MPD2    H2 1203   3.375   2.797  11.770  1.7253 -1.3702  2.2178
   77MPD2    H3 1204   3.485   2.576  11.826  1.0784  4.1593 -1.9016
   77MPD2     N 1205   3.117   2.336  11.728  0.1943 -0.1421 -0.3593
   77MPD2    H5 1206   3.178   2.258  11.750 -0.8923 -0.6587  0.8088
   77MPD2    N1 1207   3.109   2.820  11.742 -0.1396 -0.1654 -0.5249
   77MPD2    H7 1208   3.014   2.823  11.707  0.0423  1.9833 -0.8023
   78TMC2    C1 1209   4.122   2.777   0.918  0.3523  0.1908 -0.1203
   78TMC2    C2 1210   4.059   2.875   0.849 -0.2542 -0.0858  0.1373
   78TMC2    C3 1211   4.123   2.986   0.810 -0.0237  0.0969  1.1738
   78TMC2    C4 1212   4.253   2.781   0.953 -0.3245  0.1666  0.1500
   78TMC2    C5 1213   4.316   2.893   0.917  0.2577  0.0626  0.1194
   78TMC2    C6 1214   4.255   2.996   0.851  0.2728 -0.4632 -0.3792
   78TMC2     C 1215   4.044   2.664   0.976  0.6852 -0.2692  0.3521
   78TMC2     O 1216   4.103   2.609   1.068  0.2805  0.0078  0.3947
   78TMC2     H 1217   3.956   2.854   0.820 -0.0226 -1.6589  0.4629
   78TMC2    H1 1218   4.305   2.691   0.982 -1.2965 -0.5010 -0.2045
   78TMC2    H2 1219   4.317   3.083   0.833 -1.7715  1.3454  1.2009
   78TMC2    C7 1220   4.460   2.895   0.922 -0.4951  0.1422 -0.1608
   78TMC2    C8 1221   4.054   3.095   0.750  0.1729  0.7825  0.0277
   78TMC2    O1 1222   4.518   2.972   0.846 -0.1553 -0.2109 -0.4666
   78TMC2    O2 1223   4.114   3.181   0.688  0.2947 -0.1720  0.0458
   78TMC2    O5 1224   3.939   3.120   0.818 -0.2184  0.1381 -0.1838
   78TMC2    H5 1225   3.913   3.057   0.888 -0.3296 -1.8757 -2.0565
   79MPD1     C 1226   3.698   2.299   0.937 -0.5771 -0.3648  0.2271
   79MPD1    C1 1227   3.766   2.330   1.053  0.0205 -0.3174  0.4321
   79MPD1    C2 1228   3.852   2.435   1.039 -0.0117 -0.4127  0.4038
   79MPD1    C3 1229   3.850   2.524   0.930 -0.1175 -0.0040  0.1483
   79MPD1    C4 1230   3.778   2.496   0.825 -0.1553  0.2255 -0.0407
   79MPD1    C5 1231   3.701   2.387   0.830 -0.2604 -0.0294  0.7337
   79MPD1     H 1232   3.921   2.456   1.120 -0.4968  1.4400  0.3378
   79MPD1    H1 1233   3.781   2.563   0.740 -1.1389  0.3178 -0.0041
   79MPD1    H2 1234   3.639   2.208   0.934 -2.4312  0.9084 -1.6991
   79MPD1    H3 1235   3.636   2.368   0.746  0.0348  0.2595  0.4426
   79MPD1     N 1236   3.930   2.634   0.911  0.3214  0.1721 -0.1810
   79MPD1    H5 1237   3.915   2.680   0.822 -0.1298 -1.8272 -1.1382
   79MPD1    N1 1238   3.772   2.239   1.164 -0.1989 -0.1705  0.1790
   79MPD1    H6 1239   3.782   2.279   1.257  1.1594 -1.3647  0.5280
   79MPD1    H7 1240   3.688   2.182   1.158  0.8682 -1.5472 -1.4883
   80TMC2    C1 1241   2.266   2.255  11.831  0.1912 -0.2333 -0.0564
   80TMC2    C2 1242   2.166   2.330  11.763 -0.0756 -0.0535 -0.7889
   80TMC2    C3 1243   2.050   2.271  11.752  0.1209  0.4026  0.0592
   80TMC2    C4 1244   2.253   2.125  11.858  0.0733 -0.1478 -0.5682
   80TMC2    C5 1245   2.123   2.071  11.844 -0.6051  0.2145 -0.1402
   80TMC2    C6 1246   2.021   2.147  11.798 -0.3730 -0.3324 -0.4645
   80TMC2     C 1247   2.366   2.338  11.884  0.1262  0.2087 -0.1756
   80TMC2     O 1248   2.396   2.436  11.817  0.3256 -0.0354 -0.5941
   80TMC2     H 1249   2.175   2.435  11.738  0.0397  0.0649 -0.2546
   80TMC2    H1 1250   2.336   2.069  11.899  1.7091  2.2239 -0.6477
   80TMC2    H2 1251   1.920   2.106  11.799 -0.6475  0.3553  0.6396
   80TMC2    C7 1252   2.093   1.938  11.899  0.3008  0.8772  0.3513
   80TMC2    C8 1253   1.946   2.333  11.680 -0.3269 -0.1935 -0.1118
   80TMC2    O1 1254   1.986   1.937  11.954  0.9070 -0.0159 -0.8711
   80TMC2    O2 1255   1.944   2.453  11.658 -0.9683  0.4778 -0.1042
   80TMC2    O5 1256   1.932   2.244  11.583 -0.2629 -0.0082 -0.6301
   80TMC2    H5 1257   1.970   2.154  11.594 -2.9733 -0.8020  2.3996
   81MPD2     C 1258   2.548   2.467  12.069  0.0427 -0.0067 -0.7930
   81MPD2    C1 1259   2.453   2.375  12.108 -0.1740  0.1161 -0.2283
   81MPD2    C2 1260   2.437   2.341  12.244 -0.3767  0.8417 -0.6630
   81MPD2    C3 1261   2.516   2.413  12.337  0.7094 -0.1173  0.0066
   81MPD2    C4 1262   2.598   2.507  12.292 -0.1963 -0.1757 -0.9495
   81MPD2    C5 1263   2.618   2.535  12.159  0.0297 -0.0367 -0.3513
   81MPD2     H 1264   2.373   2.257  12.271  0.8130  0.0599 -0.3018
   81MPD2    H1 1265   2.656   2.561  12.366  0.5808  0.4272 -1.9916
   81MPD2    H2 1266   2.576   2.484  11.965 -1.1830 -0.4186 -1.1923
   81MPD2    H3 1267   2.687   2.613  12.126 -1.0665  0.4404 -1.5197
   81MPD2     N 1268   2.493   2.402  12.477 -0.2028 -0.0423 -0.0699
   81MPD2    H5 1269   2.545   2.472  12.528  1.3563  0.0651 -1.7763
   81MPD2    N1 1270   2.376   2.298  12.018  0.3001 -0.4225  0.8017
   81MPD2    H7 1271   2.321   2.217  12.047 -3.5233  2.2294  1.0230
   82TMC2    C1 1272   0.859   1.576  11.290  0.0856  0.3689  0.8852
   82TMC2    C2 1273   0.975   1.591  11.360  0.6661 -0.0397 -0.0445
   82TMC2    C3 1274   1.034   1.483  11.411  0.6126 -0.8020 -0.1898
   82TMC2    C4 1275   0.799   1.453  11.268 -0.2468 -0.3086 -0.1015
   82TMC2    C5 1276   0.863   1.350  11.316  0.2104  0.6426  0.5322
   82TMC2    C6 1277   0.969   1.363  11.399  1.2276  0.2575 -0.7617
   82TMC2     C 1278   0.767   1.689  11.273 -0.5295 -0.0204 -0.2367
   82TMC2     O 1279   0.694   1.687  11.176  0.7663 -0.0178 -0.8847
   82TMC2     H 1280   1.022   1.689  11.360  2.5395 -0.9565  1.9298
   82TMC2    H1 1281   0.700   1.456  11.224 -0.2448  0.0833 -0.0852
   82TMC2    H2 1282   1.021   1.279  11.445  2.4056  1.7778  0.6846
   82TMC2    C7 1283   0.782   1.241  11.363  0.4415  0.0991 -0.4214
   82TMC2    C8 1284   1.153   1.502  11.497 -0.1520 -0.0091 -0.5551
   82TMC2    O1 1285   0.791   1.209  11.481 -0.1426  0.0161  0.1054
   82TMC2    O2 1286   1.218   1.409  11.532 -0.5861 -0.1094 -0.4396
   82TMC2    O5 1287   1.162   1.623  11.555 -0.0642  0.3427  0.0606
   82TMC2    H5 1288   1.083   1.682  11.553  0.0657  0.4686 -2.3713
   83MPD2     C 1289   0.713   2.190  11.296 -0.0653 -0.0045  0.4386
   83MPD2    C1 1290   0.638   2.100  11.229 -0.0440 -0.3095 -0.2818
   83MPD2    C2 1291   0.666   1.966  11.252  0.0867  0.3109  0.1832
   83MPD2    C3 1292   0.762   1.925  11.341 -0.1073  0.3981  0.2304
   83MPD2    C4 1293   0.835   2.017  11.406  0.0150 -0.0917 -0.0336
   83MPD2    C5 1294   0.812   2.145  11.380  0.4145 -0.1153 -0.1253
   83MPD2     H 1295   0.611   1.900  11.186  2.4092 -0.5413 -0.9023
   83MPD2    H1 1296   0.908   1.986  11.480  1.8003 -0.6567 -2.0622
   83MPD2    H2 1297   0.698   2.297  11.300  1.3169  0.0796  3.3405
   83MPD2    H3 1298   0.874   2.218  11.432  1.8236 -1.4882  0.1107
   83MPD2     N 1299   0.802   1.791  11.358  0.5132  0.3123 -0.2592
   83MPD2    H5 1300   0.867   1.779  11.435 -0.0769 -2.1915 -0.1698
   83MPD2    N1 1301   0.536   2.157  11.143  0.1528  0.3127  0.1113
   83MPD2    H7 1302   0.530   2.258  11.145 -0.5994  0.3290 -2.6152
   84TMC2    C1 1303   1.904   1.360  10.937  0.2638  0.0569 -0.5242
   84TMC2    C2 1304   1.952   1.240  10.975 -0.1454 -0.0628 -0.3525
   84TMC2    C3 1305   1.986   1.150  10.874  0.5937  0.1261  0.2960
   84TMC2    C4 1306   1.866   1.388  10.810  0.8130  0.3066  0.5154
   84TMC2    C5 1307   1.904   1.293  10.717  0.2814  0.3022 -0.7912
   84TMC2    C6 1308   1.969   1.172  10.739 -0.0323  0.5758 -0.2237
   84TMC2     C 1309   1.839   1.441  11.038  0.2905  0.4468  0.2707
   84TMC2     O 1310   1.760   1.380  11.105  0.3465 -0.2177  0.1602
   84TMC2     H 1311   1.977   1.227  11.079  0.8454  0.1641 -0.5678
   84TMC2    H1 1312   1.812   1.477  10.780  0.9409  0.2556  0.1353
   84TMC2    H2 1313   1.994   1.094  10.669  0.4723  0.0248  0.5701
   84TMC2    C7 1314   1.873   1.308  10.574 -0.2357 -0.2103  0.4155
   84TMC2    C8 1315   2.071   1.037  10.923 -0.2643 -0.7649  0.1292
   84TMC2    O1 1316   1.874   1.207  10.507  0.5763  0.2934  0.0727
   84TMC2    O2 1317   2.054   0.981  11.028  0.7711 -0.6031 -0.4842
   84TMC2    O5 1318   2.153   0.996  10.827 -0.2682 -0.7079 -0.2370
   84TMC2    H5 1319   2.158   1.066  10.759  1.1266 -0.5063  0.0678
   85TMC2    C1 1320   2.290   4.281  16.264  0.0297 -0.4240  0.1401
   85TMC2    C2 1321   2.219   4.183  16.200  1.2004 -0.3887  0.4101
   85TMC2    C3 1322   2.226   4.186  16.063 -0.3200  0.2349  0.0926
   85TMC2    C4 1323   2.356   4.376  16.197  0.8028 -0.5726 -0.0576
   85TMC2    C5 1324   2.370   4.377  16.065  0.4552 -0.2583  0.4434
   85TMC2    C6 1325   2.303   4.277  15.998 -0.1731  0.0449  0.2801
   85TMC2     C 1326   2.369   4.221  16.374 -0.4590  0.2142  0.5401
   85TMC2     O 1327   2.417   4.291  16.465 -0.1140 -0.2109 -0.5297
   85TMC2     H 1328   2.173   4.101  16.254 -0.4738 -0.3684 -0.9811
   85TMC2    H1 1329   2.427   4.440  16.248 -0.3904  1.3842 -0.8706
   85TMC2    H2 1330   2.302   4.269  15.890 -0.0418  0.7673  0.2216
   85TMC2    C7 1331   2.490   4.430  16.011 -0.2229  0.1806  0.6892
   85TMC2    C8 1332   2.142   4.085  16.000 -0.4357 -0.0370  0.5138
   85TMC2    O1 1333   2.578   4.465  16.088  0.8237 -0.6775  0.2090
   85TMC2    O2 1334   2.029   4.050  16.032  0.7040 -0.0690  0.3212
   85TMC2    O5 1335   2.211   4.049  15.893 -0.8221  0.6215  0.1509
   85TMC2    H5 1336   2.301   4.086  15.879  0.2756 -1.3096  2.1312
   86MPD2     C 1337   2.575   3.797  16.565  0.5576 -0.3057  0.2279
   86MPD2    C1 1338   2.518   3.770  16.445 -0.1347 -0.3179 -0.4756
   86MPD2    C2 1339   2.479   3.869  16.363  0.3439 -0.7345 -0.1650
   86MPD2    C3 1340   2.466   3.998  16.409 -0.8766 -0.0515 -0.1674
   86MPD2    C4 1341   2.509   4.025  16.541  0.0335 -0.8193 -0.0246
   86MPD2    C5 1342   2.570   3.923  16.613  0.5136 -0.1605 -0.0829
   86MPD2     H 1343   2.429   3.840  16.271 -1.6108 -0.3473  0.7737
   86MPD2    H1 1344   2.515   4.124  16.585  0.4286 -0.8185 -0.0816
   86MPD2    H2 1345   2.617   3.721  16.631  2.0024  0.0131 -0.3167
   86MPD2    H3 1346   2.619   3.939  16.708  0.7086 -0.1702 -0.1797
   86MPD2     N 1347   2.390   4.090  16.337 -0.2813  0.0937  0.3915
   86MPD2    H5 1348   2.343   4.050  16.257 -1.8272 -0.4376  1.5708
   86MPD2    N1 1349   2.497   3.636  16.394  0.2341 -0.0261  0.1119
   86MPD2    H7 1350   2.454   3.620  16.304  0.8538 -0.5307 -0.0921
   87TMC2    C1 1351   0.742   1.854   0.999  0.6043  0.2613  0.4488
   87TMC2    C2 1352   0.863   1.876   1.065 -0.5225  0.3285  0.0557
   87TMC2    C3 1353   0.872   1.952   1.172  0.1977 -0.2644  0.1774
   87TMC2    C4 1354   0.620   1.905   1.044  0.8065 -0.2424 -0.3225
   87TMC2    C5 1355   0.634   1.971   1.161  0.7352  0.4900 -0.0862
   87TMC2    C6 1356   0.752   2.007   1.220  0.5607 -0.1398 -0.5390
   87TMC2     C 1357   0.743   1.792   0.865  0.1918 -0.1171 -0.2859
   87TMC2     O 1358   0.660   1.831   0.785 -0.1565  0.4035  0.1999
   87TMC2     H 1359   0.951   1.822   1.031 -1.0314 -0.4537 -0.0082
   87TMC2    H1 1360   0.534   1.862   0.994  0.0033  0.8011  0.1704
   87TMC2    H2 1361   0.750   2.049   1.320 -2.7520 -2.1478  0.2286
   87TMC2    C7 1362   0.515   2.028   1.214 -0.1687 -0.9781 -0.3572
   87TMC2    C8 1363   0.999   2.017   1.208 -0.1095 -0.5326  0.3214
   87TMC2    O1 1364   0.502   2.056   1.331  0.3580  0.6132 -0.2751
   87TMC2    O2 1365   1.106   1.965   1.180  0.1796 -0.5837 -0.1814
   87TMC2    O5 1366   0.978   2.139   1.256 -0.3166  0.6169  0.0849
   87TMC2    H5 1367   0.884   2.167   1.245 -0.8842 -1.2653  0.1890
   88MPD2     C 1368   0.239   2.130   1.244 -0.3890  0.9367  0.0149
   88MPD2    C1 1369   0.318   2.155   1.125  0.3534  0.0166 -0.3235
   88MPD2    C2 1370   0.277   2.245   1.025 -0.5391  0.5327 -0.8136
   88MPD2    C3 1371   0.164   2.324   1.058 -0.2015 -0.1648 -0.1496
   88MPD2    C4 1372   0.083   2.289   1.161  0.4364 -0.0673 -0.0689
   88MPD2    C5 1373   0.123   2.199   1.257 -0.0809 -0.2386 -0.1433
   88MPD2     H 1374   0.343   2.270   0.943 -1.2841  1.3322 -1.1613
   88MPD2    H1 1375   4.732   2.344   1.180  1.7154  2.6667 -1.8276
   88MPD2    H2 1376   0.256   2.058   1.323 -0.4429  0.6786 -0.2094
   88MPD2    H3 1377   0.062   2.192   1.346 -0.7727 -1.2046 -0.6993
   88MPD2     N 1378   0.117   2.435   0.984  0.0701 -0.4602  0.5495
   88MPD2    H5 1379   0.025   2.473   1.001 -0.3976 -0.6153 -1.6722
   88MPD2    N1 1380   0.445   2.087   1.113 -0.1844  0.0025 -0.1693
   88MPD2    H7 1381   0.495   2.097   1.026 -0.2103 -0.7512 -0.2676
   89TMC2    C1 1382   1.429   0.351   1.566  0.2802  0.0658  0.1309
   89TMC2    C2 1383   1.354   0.430   1.651 -0.2020 -0.1730  0.1572
   89TMC2    C3 1384   1.278   0.525   1.581 -0.3617  0.2198  0.7423
   89TMC2    C4 1385   1.431   0.361   1.431 -0.1709 -0.2196 -0.0096
   89TMC2    C5 1386   1.359   0.462   1.376  0.0012  0.3545 -0.1244
   89TMC2    C6 1387   1.278   0.537   1.451 -0.4947  0.5165  0.4046
   89TMC2     C 1388   1.465   0.221   1.616 -0.2983 -0.4907  0.7972
   89TMC2     O 1389   1.504   0.216   1.731  0.4749  0.1212  0.3295
   89TMC2     H 1390   1.347   0.413   1.758 -0.4584  3.1202  0.6528
   89TMC2    H1 1391   1.515   0.317   1.379 -1.3724 -1.4552 -0.8734
   89TMC2    H2 1392   1.217   0.620   1.417  0.2933  0.4134 -1.2477
   89TMC2    C7 1393   1.391   0.498   1.240 -0.6886 -0.3335 -0.5018
   89TMC2    C8 1394   1.191   0.612   1.653  0.0186  0.6933 -0.4312
   89TMC2    O1 1395   1.475   0.427   1.192 -0.6940 -0.4071 -0.1472
   89TMC2    O2 1396   1.077   0.631   1.612  0.3179  0.3329  0.3271
   89TMC2    O5 1397   1.269   0.697   1.722 -0.0986 -0.3798 -0.2332
   89TMC2    H5 1398   1.365   0.676   1.715  0.2826  1.5139 -0.7338
   90MPD2     C 1399   1.561   4.458   1.594  0.0164 -0.0880 -1.4113
   90MPD2    C1 1400   1.519   4.501   1.471 -0.4756  1.0648 -0.6390
   90MPD2    C2 1401   1.491   4.634   1.452 -0.0602  0.1320  0.7219
   90MPD2    C3 1402   1.502   4.725   1.553  0.3443 -0.1979  0.4637
   90MPD2    C4 1403   1.546   4.681   1.680 -1.4283  0.0493  0.1511
   90MPD2    C5 1404   1.570   4.548   1.700  0.0726  0.7052  0.0380
   90MPD2     H 1405   1.462   4.669   1.354 -0.7181 -1.0666  0.4870
   90MPD2    H1 1406   1.560   0.007   1.765  1.8525  1.8900 -1.8751
   90MPD2    H2 1407   1.581   4.353   1.612 -0.4684  0.2516  1.0635
   90MPD2    H3 1408   1.595   4.513   1.799  1.6010  1.2162 -0.1772
   90MPD2     N 1409   1.461   0.122   1.519  0.1236 -0.6697  0.2173
   90MPD2    H5 1410   1.433   0.147   1.425  0.8555  1.4924  0.5626
   90MPD2    N1 1411   1.499   4.417   1.362  0.3555  0.1690  0.1910
   90MPD2    H7 1412   1.450   4.453   1.281  0.9657  0.7672  0.0910
   91TMC2    C1 1413   2.536   0.441  16.788  0.4419  0.0342 -0.1728
   91TMC2    C2 1414   2.587   0.536  16.701  0.1590 -0.0524  0.5018
   91TMC2    C3 1415   2.494   0.594  16.614  0.2391  0.6963  0.5308
   91TMC2    C4 1416   2.400   0.407  16.791  1.0231  0.4222  0.0751
   91TMC2    C5 1417   2.321   0.469  16.702  0.5489 -0.9129  0.6378
   91TMC2    C6 1418   2.366   0.562  16.611 -0.6569  0.0543 -0.2146
   91TMC2     C 1419   2.627   0.358  16.859 -0.3179  0.3652  0.0130
   91TMC2     O 1420   2.579   0.288  16.952 -0.2657 -0.2820 -0.6527
   91TMC2     H 1421   2.688   0.574  16.709  0.2478 -0.3682  0.8605
   91TMC2    H1 1422   2.367   0.334  16.863  0.4392  2.6898  2.1132
   91TMC2    H2 1423   2.297   0.611  16.543  0.1605  1.5065 -0.0103
   91TMC2    C7 1424   2.188   0.418  16.685 -0.2735  0.0702  0.0646
   91TMC2    C8 1425   2.526   0.691  16.519 -0.6418 -0.2187  0.5172
   91TMC2    O1 1426   2.129   0.376  16.783 -0.6828  0.2750  0.2108
   91TMC2    O2 1427   2.440   0.768  16.485 -0.0699 -0.3093  0.6481
   91TMC2    O5 1428   2.613   0.638  16.434 -0.2031  0.1009  0.4110
   91TMC2    H5 1429   2.644   0.547  16.450 -0.1066  0.2085  0.8410
   92MPD2     C 1430   2.795   0.105  16.882  0.3732 -0.4487 -0.1118
   92MPD2    C1 1431   2.830   0.218  16.812  0.7415 -0.1369 -0.3060
   92MPD2    C2 1432   2.954   0.231  16.753 -0.5073 -0.5811 -1.1447
   92MPD2    C3 1433   3.045   0.125  16.752 -0.4249 -0.4268 -0.0437
   92MPD2    C4 1434   3.012   0.014  16.828 -0.6077 -0.1151  0.1521
   92MPD2    C5 1435   2.887   0.002  16.896  0.9290  0.2103  0.1284
   92MPD2     H 1436   2.975   0.334  16.724 -0.3950  0.3069  2.0390
   92MPD2    H1 1437   3.078   4.669  16.844 -2.1045 -1.4404 -0.6303
   92MPD2    H2 1438   2.700   0.096  16.933  0.3692 -1.1254 -0.2400
   92MPD2    H3 1439   2.869   4.656  16.959  0.3415 -0.2524 -0.6594
   92MPD2     N 1440   3.169   0.144  16.678  0.0956 -0.5106  0.1181
   92MPD2    H5 1441   3.183   0.235  16.636  1.0110 -0.2228  1.0472
   92MPD2    N1 1442   2.748   0.334  16.805  0.2951 -0.2766  0.0268
   92MPD2    H7 1443   2.767   0.396  16.726  1.4879  0.0999  0.6163
   93TMC2    C1 1444   4.069   0.181  14.328 -0.1282 -0.4843 -0.1179
   93TMC2    C2 1445   4.095   0.170  14.461 -0.2348 -0.8207 -0.1591
   93TMC2    C3 1446   4.219   0.124  14.498  0.4221  0.9389 -0.1278
   93TMC2    C4 1447   4.166   0.161  14.230  0.2850 -0.6099  0.0774
   93TMC2    C5 1448   4.284   0.112  14.270 -0.7163 -0.0320  0.3529
   93TMC2    C6 1449   4.315   0.095  14.408 -0.7770 -0.0177 -0.0944
   93TMC2     C 1450   3.923   0.199  14.290  0.2327 -0.2475 -0.1707
   93TMC2     O 1451   3.856   0.275  14.359  0.2261  0.3423  0.0264
   93TMC2     H 1452   4.023   0.187  14.540 -2.4079 -0.7331 -2.1380
   93TMC2    H1 1453   4.147   0.187  14.126  0.9421 -0.6995 -0.0643
   93TMC2    H2 1454   4.411   0.054  14.438  0.8661  2.3174 -2.1728
   93TMC2    C7 1455   4.394   0.158  14.192 -0.3730 -0.9894  0.1278
   93TMC2    C8 1456   4.243   0.096  14.638 -0.3737  0.0174  0.0466
   93TMC2    O1 1457   4.487   0.081  14.180  0.6549 -0.2751  0.1400
   93TMC2    O2 1458   4.166   0.142  14.720 -0.0164 -0.0516  0.1813
   93TMC2    O5 1459   4.335   0.001  14.654 -0.3407  0.1494 -0.5655
   93TMC2    H5 1460   4.360   4.693  14.572  1.0218 -1.8291  1.0097
   94MPD2     C 1461   3.649   0.077  14.279  0.0164  0.7682 -0.4071
   94MPD2    C1 1462   3.745   0.069  14.177  0.9531  0.8115 -0.3035
   94MPD2    C2 1463   3.703   0.020  14.053 -0.0402 -0.1424  0.8625
   94MPD2    C3 1464   3.572   4.708  14.045 -0.2311 -0.1035 -0.2460
   94MPD2    C4 1465   3.484   4.707  14.158 -0.7052  0.4236 -0.3079
   94MPD2    C5 1466   3.524   0.033  14.269 -0.0334 -0.3869 -0.6404
   94MPD2     H 1467   3.768   0.019  13.966 -0.1020 -1.6626  0.8477
   94MPD2    H1 1468   3.387   4.660  14.144 -1.4701  1.0058  2.8770
   94MPD2    H2 1469   3.680   0.115  14.376 -2.6346  1.3275  0.2156
   94MPD2    H3 1470   3.455   0.037  14.353  2.0653  2.6978  0.9216
   94MPD2     N 1471   3.505   4.670  13.922  0.3421 -0.3450 -0.7289
   94MPD2    H5 1472   3.413   4.632  13.939 -0.9612  3.4238  0.7245
   94MPD2    N1 1473   3.879   0.113  14.193  0.4991 -0.1043 -0.4804
   94MPD2    H7 1474   3.941   0.080  14.119 -0.1629  0.4672 -1.2895
   95TMC2    C1 1475   4.032   1.887  15.724 -0.0808  0.1212 -0.0021
   95TMC2    C2 1476   3.978   1.760  15.706  0.1637  0.0098 -0.3481
   95TMC2    C3 1477   3.895   1.727  15.806  1.2373 -0.1128  0.3799
   95TMC2    C4 1478   4.005   1.967  15.830  0.0137  0.0252  0.4749
   95TMC2    C5 1479   3.923   1.913  15.930 -0.4326  0.3080  0.9235
   95TMC2    C6 1480   3.864   1.791  15.922  0.4411 -0.3361  0.6710
   95TMC2     C 1481   4.112   1.947  15.617 -0.1252 -0.4518  0.1245
   95TMC2     O 1482   4.148   2.063  15.640 -0.2725 -0.1546  0.8502
   95TMC2     H 1483   4.004   1.703  15.618 -0.1011  0.5764 -0.7949
   95TMC2    H1 1484   4.039   2.070  15.821 -3.3021  1.1303  0.4132
   95TMC2    H2 1485   3.815   1.745  16.007 -0.4249 -1.1898 -0.2933
   95TMC2    C7 1486   3.930   1.970  16.058  0.2789 -0.0989 -0.0522
   95TMC2    C8 1487   3.867   1.585  15.799 -0.5331 -0.1158  0.2031
   95TMC2    O1 1488   3.904   1.893  16.150  0.0826 -0.5799 -0.4200
   95TMC2    O2 1489   3.941   1.512  15.739  0.5412  0.0652  0.4224
   95TMC2    O5 1490   3.772   1.544  15.883  0.0247  0.7170  0.1094
   95TMC2    H5 1491   3.712   1.621  15.891  0.0073  0.8178 -1.0159
   96MPD2     C 1492   4.417   1.925  15.210  0.4747 -1.2177  0.5198
   96MPD2    C1 1493   4.399   2.023  15.298 -0.3404  0.1011  0.5340
   96MPD2    C2 1494   4.310   2.002  15.398 -0.1231  0.9931  0.6227
   96MPD2    C3 1495   4.254   1.877  15.420  0.5471  0.6957  0.3300
   96MPD2    C4 1496   4.282   1.784  15.333  0.0666  0.3266 -0.4952
   96MPD2    C5 1497   4.361   1.802  15.223 -0.3477 -0.7429  0.3104
   96MPD2     H 1498   4.289   2.081  15.469 -1.3051 -0.7362  2.1916
   96MPD2    H1 1499   4.248   1.681  15.344  1.4243 -0.1837 -1.0542
   96MPD2    H2 1500   4.490   1.934  15.129  0.2042  0.7750  0.4974
   96MPD2    H3 1501   4.391   1.731  15.147 -0.0810  2.6643 -2.7774
   96MPD2     N 1502   4.158   1.853  15.518 -0.0297  0.3625  0.3461
   96MPD2    H5 1503   4.138   1.753  15.517  1.1252  0.1261 -0.2361
   96MPD2    N1 1504   4.461   2.143  15.270 -0.5759 -0.5557  0.2149
   96MPD2    H7 1505   4.488   2.153  15.173  2.8361  0.6244  1.2952
   97TMC2    C1 1506   2.285   4.361  17.565  0.2190 -0.5250 -0.1322
   97TMC2    C2 1507   2.389   4.298  17.495 -0.3941  0.3350  0.3815
   97TMC2    C3 1508   2.509   4.372  17.476  0.9416 -0.2578  0.1470
   97TMC2    C4 1509   2.300   4.495  17.595 -0.3007 -0.9296  0.2856
   97TMC2    C5 1510   2.415   4.563  17.580  0.0221 -0.0056 -0.7113
   97TMC2    C6 1511   2.523   4.505  17.517 -0.6198 -0.2213 -0.5442
   97TMC2     C 1512   2.198   4.285  17.656 -0.3225 -0.4205  1.1460
   97TMC2     O 1513   2.161   4.339   0.000  0.4911 -0.9335 -0.1991
   97TMC2     H 1514   2.380   4.196  17.460  1.6111 -0.3456  1.8360
   97TMC2    H1 1515   2.226   4.537  17.662  0.2892 -1.9928  1.6049
   97TMC2    H2 1516   2.616   4.559  17.508 -1.4606  1.5516  1.5066
   97TMC2    C7 1517   2.430   4.701  17.622 -0.0646  0.9488 -0.8401
   97TMC2    C8 1518   2.612   4.331  17.385 -0.2817  0.2113  0.3139
   97TMC2    O1 1519   2.536   0.010  17.645 -0.1243 -0.5330 -0.1928
   97TMC2    O2 1520   2.694   4.415  17.343 -0.9204  0.4271  0.3244
   97TMC2    O5 1521   2.627   4.194  17.386 -0.4305 -0.3044 -0.1792
   97TMC2    H5 1522   2.563   4.139  17.434 -0.0841 -0.4798  0.0842
   98MPD2     C 1523   1.859   3.922  17.729 -0.1231 -0.7325  0.4844
   98MPD2    C1 1524   1.917   4.004   0.064  0.0581  0.1255  0.2197
   98MPD2    C2 1525   2.016   4.087   0.019 -0.2864 -0.5545  0.1860
   98MPD2    C3 1526   2.059   4.083  17.642  0.1942 -0.5023 -0.1766
   98MPD2    C4 1527   1.994   4.000  17.552 -0.4984  0.1093 -0.4427
   98MPD2    C5 1528   1.887   3.918  17.590  0.4073  0.6314 -0.4758
   98MPD2     H 1529   2.066   4.150   0.091 -2.0864  4.5574 -3.0764
   98MPD2    H1 1530   2.016   4.016  17.447 -2.1725 -0.7969 -0.9432
   98MPD2    H2 1531   1.789   3.855   0.019  1.0088 -1.1304  1.5864
   98MPD2    H3 1532   1.835   3.854  17.519 -0.2940 -0.7093  1.2342
   98MPD2     N 1533   2.158   4.169  17.600 -1.0446  0.4015  0.6304
   98MPD2    H5 1534   2.197   4.149  17.509  2.0436 -0.8060  2.2110
   98MPD2    N1 1535   1.867   3.991   0.201  0.4507 -0.2116  0.1639
   98MPD2    H7 1536   1.790   3.927   0.217 -0.5159  1.3807  1.8436
   99TMC2    C1 1537   1.383   1.580   1.856  0.8369  0.0259  0.8879
   99TMC2    C2 1538   1.472   1.565   1.959 -0.3723  0.0736 -1.2446
   99TMC2    C3 1539   1.429   1.621   2.075 -0.4360  0.8702 -0.0804
   99TMC2    C4 1540   1.254   1.622   1.875  0.2037  0.3280  0.0603
   99TMC2    C5 1541   1.218   1.670   1.998  0.2412  0.3014  0.0384
   99TMC2    C6 1542   1.313   1.682   2.094 -0.1884 -0.3737  1.3140
   99TMC2     C 1543   1.414   1.512   1.726  0.2996  0.0139  0.3166
   99TMC2     O 1544   1.535   1.502   1.705 -0.0735 -0.1610 -1.1246
   99TMC2     H 1545   1.575   1.533   1.953 -0.6247 -1.0434  0.2921
   99TMC2    H1 1546   1.185   1.626   1.791 -2.0688 -0.4569  1.8882
   99TMC2    H2 1547   1.273   1.705   2.192  0.1949  0.5307  1.2586
   99TMC2    C7 1548   1.078   1.703   2.034  0.5361  0.6834 -0.7290
   99TMC2    C8 1549   1.540   1.664   2.162  0.9902 -0.3417  0.2513
   99TMC2    O1 1550   1.041   1.764   2.137 -0.3108 -0.2740  0.0371
   99TMC2    O2 1551   1.659   1.633   2.149  0.3333  0.0253  0.6369
   99TMC2    O5 1552   1.497   1.737   2.267  0.2167 -0.0446 -0.6285
   99TMC2    H5 1553   1.414   1.786   2.246  0.4759  2.3042  3.8381
  100MPD2     C 1554   1.428   1.375   1.470  0.1887 -0.0134 -0.0574
  100MPD2    C1 1555   1.311   1.386   1.545  0.0609  0.8223 -0.6091
  100MPD2    C2 1556   1.198   1.345   1.483 -0.6429  0.2176  0.8314
  100MPD2    C3 1557   1.190   1.276   1.358  0.2800 -0.5297  0.3706
  100MPD2    C4 1558   1.317   1.250   1.305  0.4883 -0.1487  0.5268
  100MPD2    C5 1559   1.433   1.296   1.355 -0.4018 -0.1186 -0.9140
  100MPD2     H 1560   1.102   1.352   1.534 -0.4906  1.0480  0.9862
  100MPD2    H1 1561   1.331   1.188   1.217  4.1853 -1.1315  1.8176
  100MPD2    H2 1562   1.525   1.401   1.510 -0.6159 -0.8256  2.4392
  100MPD2    H3 1563   1.526   1.278   1.301  1.4683  0.8794  1.9805
  100MPD2     N 1564   1.066   1.242   1.295  0.4683 -0.5458 -0.3059
  100MPD2    H5 1565   0.987   1.281   1.345  2.2265 -0.4461  2.3686
  100MPD2    N1 1566   1.308   1.460   1.661 -0.2843 -1.1885 -0.2976
  100MPD2    H7 1567   1.216   1.459   1.704 -0.6050  2.4533 -0.9154
  101TMC2    C1 1568   1.409   2.792  13.465 -0.1949 -0.0375  0.1662
  101TMC2    C2 1569   1.439   2.803  13.597  0.6598  0.4895 -0.3116
  101TMC2    C3 1570   1.558   2.859  13.632  0.4701 -0.3951  0.8319
  101TMC2    C4 1571   1.498   2.835  13.371 -0.8914 -0.2116 -0.3378
  101TMC2    C5 1572   1.619   2.884  13.410 -0.8088  0.4896 -0.1793
  101TMC2    C6 1573   1.650   2.898  13.543  0.4023  0.9096  0.1608
  101TMC2     C 1574   1.331   2.674  13.434 -0.3066  0.7461  0.2304
  101TMC2     O 1575   1.252   2.655  13.529  0.2750  0.8767 -0.0314
  101TMC2     H 1576   1.379   2.775  13.683  2.2149 -1.7622  0.0666
  101TMC2    H1 1577   1.467   2.831  13.267 -0.5495  0.8528 -0.4808
  101TMC2    H2 1578   1.738   2.943  13.588  0.7157 -0.2000  0.6876
  101TMC2    C7 1579   1.708   2.919  13.304  1.0059 -0.1089  0.0253
  101TMC2    C8 1580   1.602   2.846  13.775 -0.2344 -0.5389 -1.0099
  101TMC2    O1 1581   1.664   2.903  13.192 -0.4052  0.0508 -0.8286
  101TMC2    O2 1582   1.718   2.830  13.799 -0.8193  0.3513 -0.2440
  101TMC2    O5 1583   1.525   2.935  13.839  0.0243 -0.1928  0.1262
  101TMC2    H5 1584   1.446   2.975  13.797 -0.4486 -1.5065 -0.2226
  102MPD2     C 1585   1.358   2.406  13.182 -0.9087  0.1312  0.2426
  102MPD2    C1 1586   1.302   2.478  13.284 -0.1829 -0.3631 -0.0404
  102MPD2    C2 1587   1.186   2.431  13.345 -0.1240  0.3923 -0.3409
  102MPD2    C3 1588   1.139   2.301  13.316 -0.0204  0.4039 -0.5614
  102MPD2    C4 1589   1.205   2.236  13.217  0.0911 -0.2273 -0.9275
  102MPD2    C5 1590   1.308   2.285  13.149 -0.2885  0.1335  0.4978
  102MPD2     H 1591   1.143   2.487  13.428 -1.7135  0.1192 -0.9822
  102MPD2    H1 1592   1.183   2.133  13.190  0.5899 -0.0760 -1.9213
  102MPD2    H2 1593   1.442   2.453  13.131 -0.5496 -0.3753  0.3557
  102MPD2    H3 1594   1.360   2.231  13.071 -1.2951  0.2083 -0.2209
  102MPD2     N 1595   1.028   2.244  13.385  0.0166  0.2285  0.0184
  102MPD2    H5 1596   0.982   2.295  13.460  0.0089  0.0449  0.1387
  102MPD2    N1 1597   1.361   2.605  13.315 -0.7669  0.6852  0.3557
  102MPD2    H7 1598   1.439   2.642  13.262 -0.7969  0.3836  0.1021
  103TMC2    C1 1599   3.724   1.952  12.230 -0.2738 -0.4009 -0.9838
  103TMC2    C2 1600   3.812   1.851  12.266 -0.7086 -0.3551  0.3885
  103TMC2    C3 1601   3.914   1.882  12.354 -0.0821  0.3369 -0.1615
  103TMC2    C4 1602   3.741   2.081  12.271  0.8243 -0.0230  0.1891
  103TMC2    C5 1603   3.835   2.110  12.368  0.8630  0.0169  0.3479
  103TMC2    C6 1604   3.928   2.014  12.407  0.5981  0.6716 -0.5417
  103TMC2     C 1605   3.606   1.932  12.140 -0.0545 -0.2147 -0.3357
  103TMC2     O 1606   3.537   2.030  12.111 -1.1492  0.4459 -0.2090
  103TMC2     H 1607   3.813   1.752  12.223  0.0268 -0.3074  0.2934
  103TMC2    H1 1608   3.672   2.156  12.236 -1.3795 -1.7393  0.9040
  103TMC2    H2 1609   4.015   2.047  12.462  0.4892 -2.1691  1.3506
  103TMC2    C7 1610   3.801   2.219  12.462 -0.1502  0.2789 -0.4038
  103TMC2    C8 1611   4.020   1.783  12.368  0.2819  0.9785  0.3984
  103TMC2    O1 1612   3.888   2.261  12.538 -0.3508  0.5581  0.8332
  103TMC2    O2 1613   4.042   1.695  12.285  0.7564 -0.1546 -0.0474
  103TMC2    O5 1614   4.080   1.810  12.485 -0.0848  0.4570 -0.3329
  103TMC2    H5 1615   4.023   1.867  12.541  1.6684 -1.0700  3.0313
  104MPD2     C 1616   3.439   1.615  12.052 -0.0273  0.1486 -0.2765
  104MPD2    C1 1617   3.466   1.750  12.047  0.4992 -0.4875 -0.5821
  104MPD2    C2 1618   3.377   1.825  11.974  0.4607  0.1241 -0.7608
  104MPD2    C3 1619   3.270   1.774  11.907 -0.1225  0.5667 -0.2651
  104MPD2    C4 1620   3.240   1.641  11.921 -0.2832  1.5189 -0.4113
  104MPD2    C5 1621   3.329   1.559  11.999 -0.8995  0.0009 -0.1973
  104MPD2     H 1622   3.397   1.931  11.965  1.4597 -0.3722 -4.3296
  104MPD2    H1 1623   3.147   1.594  11.891 -0.8606  3.0539 -1.0286
  104MPD2    H2 1624   3.506   1.547  12.105 -2.0232 -0.9983  0.7847
  104MPD2    H3 1625   3.314   1.454  12.022  0.1491  0.1654  1.2604
  104MPD2     N 1626   3.186   1.864  11.841 -0.3012  0.3472 -0.2857
  104MPD2    H5 1627   3.218   1.961  11.837  0.7409 -0.0414 -1.3424
  104MPD2    N1 1628   3.579   1.795  12.111  0.2930 -0.5392 -0.1072
  104MPD2    H7 1629   3.638   1.726  12.155 -0.2571  1.1378  3.2625
  105TMC2    C1 1630   0.590   1.541  17.757  0.1653  0.0072 -0.6868
  105TMC2    C2 1631   0.510   1.644   0.018 -0.3180 -0.8954  0.5449
  105TMC2    C3 1632   0.450   1.664   0.142 -0.5387 -0.0440  0.2261
  105TMC2    C4 1633   0.616   1.452   0.099  0.3027  0.1475  0.2844
  105TMC2    C5 1634   0.575   1.483   0.231  0.5663 -0.3936 -0.2246
  105TMC2    C6 1635   0.487   1.593   0.248  0.5156  0.7156  0.5224
  105TMC2     C 1636   0.647   1.514  17.627 -0.2537 -0.4810 -0.0625
  105TMC2     O 1637   0.718   1.416  17.619 -0.1448  0.5444  0.2188
  105TMC2     H 1638   0.470   1.694  17.687  4.0305  0.9493 -0.3566
  105TMC2    H1 1639   0.696   1.379   0.088  0.1684  0.2234 -1.3040
  105TMC2    H2 1640   0.452   1.627   0.344  0.0341  2.0750 -0.1372
  105TMC2    C7 1641   0.639   1.421   0.348 -0.3528  0.6521 -0.3665
  105TMC2    C8 1642   0.367   1.779   0.178  0.0516  0.0085 -0.0477
  105TMC2    O1 1643   0.712   1.330   0.319  0.3830 -0.1173 -0.1618
  105TMC2    O2 1644   0.300   1.797   0.283 -0.3826  0.3485 -0.4082
  105TMC2    O5 1645   0.411   1.886   0.104 -0.3864  0.2512  0.2572
  105TMC2    H5 1646   0.460   1.857   0.024  2.9505  1.0520  1.9940
  106MPD2     C 1647   0.650   1.556  17.116  0.3185 -0.1276  0.1880
  106MPD2    C1 1648   0.587   1.672  17.165  0.6065  0.3924 -0.0045
  106MPD2    C2 1649   0.589   1.689  17.304 -0.1857 -0.5249  0.7094
  106MPD2    C3 1650   0.636   1.590  17.393  0.6117 -0.0771 -0.2032
  106MPD2    C4 1651   0.702   1.479  17.336 -0.7408 -0.2299 -0.1739
  106MPD2    C5 1652   0.697   1.458  17.201 -0.0332 -0.0005  0.1949
  106MPD2     H 1653   0.536   1.774  17.346 -2.3886 -2.3124  1.5625
  106MPD2    H1 1654   0.747   1.402  17.398  0.5145  0.6587  0.0243
  106MPD2    H2 1655   0.662   1.542  17.009  1.2645  1.2209  0.1266
  106MPD2    H3 1656   0.757   1.380  17.155 -0.9171 -0.3098 -0.4458
  106MPD2     N 1657   0.621   1.609  17.534  0.2864 -0.5547  0.4151
  106MPD2    H5 1658   0.572   1.694  17.563  0.5555  0.1765 -1.2508
  106MPD2    N1 1659   0.528   1.769  17.082 -0.8675 -0.4211  0.4897
  106MPD2    H7 1660   0.493   1.856  17.120 -1.6894  0.2306 -1.7196
  107TMC2    C1 1661   1.381   1.725  11.817  0.1390 -0.3898 -0.3508
  107TMC2    C2 1662   1.409   1.594  11.851 -0.8389  0.3637 -0.4458
  107TMC2    C3 1663   1.487   1.527  11.767 -0.6176 -0.2200  0.6862
  107TMC2    C4 1664   1.428   1.787  11.712 -0.2542 -0.0195 -0.5941
  107TMC2    C5 1665   1.492   1.705  11.625  0.6178  0.4237  0.8139
  107TMC2    C6 1666   1.535   1.577  11.646 -0.6526 -0.1834  0.4895
  107TMC2     C 1667   1.284   1.784  11.902 -0.8033  0.1694  1.1656
  107TMC2     O 1668   1.223   1.709  11.976 -0.1550 -0.1747  0.0486
  107TMC2     H 1669   1.409   1.560  11.954 -0.7539  1.2216 -0.1668
  107TMC2    H1 1670   1.398   1.886  11.680 -0.1061  0.3298  0.3756
  107TMC2    H2 1671   1.598   1.525  11.575 -0.4983  0.3506  0.2396
  107TMC2    C7 1672   1.544   1.785  11.514 -0.4713  0.1567 -0.8852
  107TMC2    C8 1673   1.504   1.390  11.792 -0.3182 -0.6833 -0.3831
  107TMC2    O1 1674   1.561   1.902  11.542  0.6356  0.1483  0.5242
  107TMC2    O2 1675   1.568   1.320  11.712 -0.5493 -0.0222 -0.4697
  107TMC2    O5 1676   1.406   1.347  11.873 -0.5914  0.0501  0.1243
  107TMC2    H5 1677   1.333   1.408  11.895 -0.6254  0.1552 -0.2812
  108MPD2     C 1678   1.187   2.134  11.895 -0.0072 -0.4485  0.0503
  108MPD2    C1 1679   1.195   2.010  11.953  0.2734  0.2589  0.2427
  108MPD2    C2 1680   1.121   1.980  12.067 -0.2436  0.4492  0.3535
  108MPD2    C3 1681   1.046   2.085  12.127 -0.4962  0.2879 -0.1257
  108MPD2    C4 1682   1.041   2.208  12.074  0.1745 -0.3151  0.2468
  108MPD2    C5 1683   1.103   2.228  11.954  0.1951  0.5913 -0.5464
  108MPD2     H 1684   1.110   1.882  12.111  0.3514  0.2657  0.0753
  108MPD2    H1 1685   1.004   2.291  12.133 -0.3348 -0.3048 -0.0909
  108MPD2    H2 1686   1.245   2.159  11.806  0.5963 -0.2915  0.4892
  108MPD2    H3 1687   1.104   2.330  11.916  0.5591  2.0649  3.4560
  108MPD2     N 1688   0.957   2.071  12.234  0.2661 -0.0466 -0.5652
  108MPD2    H5 1689   0.886   2.141  12.255  0.4960  0.2560 -0.8079
  108MPD2    N1 1690   1.278   1.918  11.891 -0.0670  0.3348 -0.0378
  108MPD2    H7 1691   1.332   1.957  11.814  1.2363 -1.5302 -0.0676
  109TMC2    C1 1692   0.687   4.016   0.424  0.6159 -0.5586  0.6942
  109TMC2    C2 1693   0.629   4.134   0.427 -0.9921  0.0723 -0.1670
  109TMC2    C3 1694   0.710   4.237   0.455 -0.0732  0.6473  0.1044
  109TMC2    C4 1695   0.819   4.003   0.454 -0.7444  0.3953 -0.0701
  109TMC2    C5 1696   0.902   4.111   0.464  0.1397 -0.1810  0.5452
  109TMC2    C6 1697   0.842   4.235   0.483 -0.0235  0.4499  0.1737
  109TMC2     C 1698   0.626   3.884   0.462  0.2429  0.4888  0.4790
  109TMC2     O 1699   0.696   3.803   0.520 -0.2625 -0.4452  0.4988
  109TMC2     H 1700   0.522   4.147   0.413 -0.8425  1.6641  0.1931
  109TMC2    H1 1701   0.872   3.908   0.457 -0.0178  0.7823 -0.6229
  109TMC2    H2 1702   0.899   4.327   0.485 -0.5175  0.7900 -1.2376
  109TMC2    C7 1703   1.038   4.101   0.509 -0.6751  0.0267  0.1613
  109TMC2    C8 1704   0.656   4.371   0.442 -0.1331  0.5151 -0.5152
  109TMC2    O1 1705   1.095   3.999   0.485  0.0603  0.0629 -0.6641
  109TMC2    O2 1706   0.544   4.391   0.387  0.5333 -0.1898  0.2567
  109TMC2    O5 1707   0.694   4.425   0.553  0.5068  0.2461  0.6854
  109TMC2    H5 1708   0.789   4.423   0.574  0.6553  0.7230  0.0530
  110MPD2     C 1709   0.216   3.574   0.480 -0.3318 -0.5348 -0.0256
  110MPD2    C1 1710   0.324   3.588   0.565  0.4526 -0.2879 -0.6545
  110MPD2    C2 1711   0.423   3.681   0.539 -0.4532  0.2100  0.4749
  110MPD2    C3 1712   0.402   3.769   0.437  0.5368 -0.0406  0.9266
  110MPD2    C4 1713   0.290   3.759   0.356 -0.3923 -0.1622 -0.8380
  110MPD2    C5 1714   0.197   3.669   0.385 -0.1649 -0.2926 -0.2527
  110MPD2     H 1715   0.512   3.680   0.601 -0.4505  1.3559  0.4967
  110MPD2    H1 1716   0.280   3.818   0.266  0.9388 -0.1066 -0.9623
  110MPD2    H2 1717   0.140   3.501   0.504 -1.7084  1.1744  0.8362
  110MPD2    H3 1718   0.113   3.654   0.319 -0.0429  1.8067 -0.8673
  110MPD2     N 1719   0.495   3.872   0.410  0.3280 -0.1953 -0.0974
  110MPD2    H5 1720   0.464   3.935   0.337  0.5935 -1.0692 -0.9671
  110MPD2    N1 1721   0.334   3.485   0.663  0.0406  0.1507 -0.4086
  110MPD2    H7 1722   0.263   3.413   0.656  0.4157 -0.3438  0.9045
  111TMC2    C1 1723   1.058   3.541  11.946 -0.0330  0.5402 -0.1906
  111TMC2    C2 1724   0.998   3.607  12.047 -0.0064 -0.1890  0.3968
  111TMC2    C3 1725   1.035   3.594  12.179 -0.0278 -0.5008  0.8509
  111TMC2    C4 1726   1.186   3.480  11.972  0.4209 -0.1879  0.6416
  111TMC2    C5 1727   1.233   3.485  12.106 -0.1365 -0.7255  0.6505
  111TMC2    C6 1728   1.151   3.529  12.210  0.4713 -0.4883 -0.0921
  111TMC2     C 1729   1.012   3.563  11.808 -0.2219  0.3331  0.3065
  111TMC2     O 1730   1.087   3.547  11.714 -0.8761  0.1116  0.8959
  111TMC2     H 1731   0.928   3.688  12.028  2.8257  2.2289  0.3868
  111TMC2    H1 1732   1.228   3.425  11.888 -1.3401 -0.1588 -0.2507
  111TMC2    H2 1733   1.191   3.531  12.311 -4.3584 -1.5482  1.8213
  111TMC2    C7 1734   1.352   3.418  12.142 -0.6683 -0.1034 -0.0299
  111TMC2    C8 1735   0.969   3.679  12.285 -0.0402 -1.0012 -0.4224
  111TMC2    O1 1736   1.361   3.386  12.261 -0.7203  0.1498  0.0993
  111TMC2    O2 1737   0.875   3.748  12.248 -0.0061 -0.8613  0.0833
  111TMC2    O5 1738   0.980   3.610  12.402 -0.0010 -0.1233  0.1106
  111TMC2    H5 1739   1.034   3.529  12.393 -0.3865 -0.3151 -0.5146
  112MPD2     C 1740   0.667   3.721  11.466  0.0418  0.7136  0.1622
  112MPD2    C1 1741   0.809   3.727  11.463  0.4995 -0.1381 -0.2282
  112MPD2    C2 1742   0.884   3.687  11.572 -0.1693 -0.7366  0.8074
  112MPD2    C3 1743   0.817   3.649  11.694 -0.3273 -0.4299 -0.1802
  112MPD2    C4 1744   0.678   3.642  11.693  0.1553  0.0669 -0.5978
  112MPD2    C5 1745   0.605   3.681  11.583 -0.6173 -0.0923 -0.4618
  112MPD2     H 1746   0.992   3.685  11.565 -0.3114 -0.4986 -1.2602
  112MPD2    H1 1747   0.620   3.630  11.783  0.4491  0.4897 -0.3563
  112MPD2    H2 1748   0.612   3.734  11.373  0.2029  0.4705  0.0322
  112MPD2    H3 1749   0.497   3.678  11.590 -0.6153 -0.3619 -0.5119
  112MPD2     N 1750   0.878   3.579  11.794  0.6654 -0.8900 -0.1369
  112MPD2    H5 1751   0.816   3.556  11.871 -1.5538  0.8916 -1.3922
  112MPD2    N1 1752   0.879   3.774  11.352  0.1431  0.2323  0.5095
  112MPD2    H7 1753   0.978   3.791  11.364  0.3442 -1.2792  1.0945
  113TMC2    C1 1754   4.341   1.202   0.795 -0.0833  0.2922 -0.3092
  113TMC2    C2 1755   4.240   1.286   0.755  0.1305 -0.3326 -0.2277
  113TMC2    C3 1756   4.137   1.227   0.690 -0.0953 -0.5140 -0.1976
  113TMC2    C4 1757   4.333   1.066   0.772 -0.4729 -0.1672  0.4727
  113TMC2    C5 1758   4.225   1.011   0.714  0.1715  0.3823 -0.0718
  113TMC2    C6 1759   4.122   1.092   0.668  0.0546 -0.0232  1.1605
  113TMC2     C 1760   4.445   1.261   0.880  0.0953 -0.8082  0.1832
  113TMC2     O 1761   4.437   1.379   0.900  0.4396  0.2909  0.0547
  113TMC2     H 1762   4.256   1.393   0.766 -1.6126 -0.1661  0.7251
  113TMC2    H1 1763   4.422   1.006   0.790  0.0773  0.3259 -0.6145
  113TMC2    H2 1764   4.044   1.053   0.604 -0.2251  0.3107  1.2974
  113TMC2    C7 1765   4.211   0.871   0.689  0.6916 -0.1382 -0.1531
  113TMC2    C8 1766   4.022   1.315   0.665  0.2807 -0.7757 -0.4670
  113TMC2    O1 1767   4.144   0.832   0.595 -0.6122 -0.5275 -0.1486
  113TMC2    O2 1768   3.994   1.406   0.743 -0.6120 -0.0143 -0.3401
  113TMC2    O5 1769   3.955   1.268   0.554  0.2321  0.3455 -0.3402
  113TMC2    H5 1770   4.021   1.214   0.504 -1.2180 -0.7263 -1.0836
  114MPD2     C 1771   0.127   1.195   1.158 -0.0303 -1.1102 -0.0573
  114MPD2    C1 1772   0.065   1.310   1.114  0.2969 -0.0360 -0.5918
  114MPD2    C2 1773   4.685   1.306   1.041 -0.0633 -0.2435 -0.6512
  114MPD2    C3 1774   4.638   1.182   0.999 -0.6422 -0.6027  0.6367
  114MPD2    C4 1775   4.711   1.065   1.033 -0.3438  0.4980  0.0391
  114MPD2    C5 1776   0.080   1.080   1.117  0.3730  0.1481 -0.7669
  114MPD2     H 1777   4.634   1.400   1.029  0.4059  0.0263 -0.5204
  114MPD2    H1 1778   4.705   0.969   0.983  0.3875  0.1137  0.6758
  114MPD2    H2 1779   0.217   1.189   1.219 -0.5153  1.1126  0.8762
  114MPD2    H3 1780   0.139   0.994   1.147 -2.7407 -1.5437  0.5772
  114MPD2     N 1781   4.526   1.167   0.924 -0.0296 -0.4814  0.5968
  114MPD2    H5 1782   4.492   1.072   0.912  1.8974 -0.8582 -2.0288
  114MPD2    N1 1783   0.120   1.436   1.149 -0.8058 -0.4061  0.1914
  114MPD2    H7 1784   0.061   1.517   1.129 -1.0362 -0.8992 -1.1469
  115TMC2    C1 1785   0.921   4.129  17.467 -0.2891  0.5244  0.0393
  115TMC2    C2 1786   1.014   4.026  17.474 -0.5983  0.0608 -0.3620
  115TMC2    C3 1787   1.121   4.045  17.553  0.0773 -0.7614  0.0355
  115TMC2    C4 1788   0.942   4.256  17.521  0.4465  0.2333 -0.0493
  115TMC2    C5 1789   1.063   4.271  17.588 -0.6500 -0.0474 -0.0086
  115TMC2    C6 1790   1.152   4.170  17.603 -0.0385 -0.0826  0.3034
  115TMC2     C 1791   0.781   4.080  17.441 -0.1358  0.3900  0.2654
  115TMC2     O 1792   0.768   3.960  17.423 -0.0455 -0.3221 -0.0108
  115TMC2     H 1793   0.998   3.931  17.423 -0.9696 -0.1781  0.2004
  115TMC2    H1 1794   0.864   4.331  17.527  0.9618  0.6706  1.1588
  115TMC2    H2 1795   1.243   4.186  17.661 -2.8169  2.8371  3.8106
  115TMC2    C7 1796   1.111   4.405  17.617 -0.7176 -0.2599 -0.3916
  115TMC2    C8 1797   1.223   3.945  17.549  0.6923  0.0724 -0.1980
  115TMC2    O1 1798   1.209   4.415  17.694  0.3406  0.1305 -0.3234
  115TMC2    O2 1799   1.345   3.962  17.561 -0.1221  0.2404  0.0328
  115TMC2    O5 1800   1.157   3.836  17.592 -0.5689  0.0092  0.2152
  115TMC2    H5 1801   1.060   3.837  17.584 -0.4573  2.5485 -0.9382
  116MPD2     C 1802   0.282   4.121  17.505  0.2992 -0.2394  0.3809
  116MPD2    C1 1803   0.353   4.020  17.446  0.6414  0.0120 -0.1375
  116MPD2    C2 1804   0.488   4.039  17.427 -1.0100  0.2961 -0.0227
  116MPD2    C3 1805   0.550   4.160  17.468 -0.0544  0.1226  0.4562
  116MPD2    C4 1806   0.472   4.263  17.519  0.7564  0.2396 -0.1854
  116MPD2    C5 1807   0.341   4.239  17.537  0.3681  0.0012  0.4626
  116MPD2     H 1808   0.551   3.956  17.399 -1.6460 -0.0615 -0.3990
  116MPD2    H1 1809   0.506   4.358  17.558  0.9031 -1.3854  3.5545
  116MPD2    H2 1810   0.177   4.110  17.530  0.0530  1.0089 -0.1039
  116MPD2    H3 1811   0.288   4.318  17.590  0.8286 -0.2293  1.2789
  116MPD2     N 1812   0.689   4.178  17.462 -0.0761  0.0812 -0.2911
  116MPD2    H5 1813   0.720   4.273  17.482 -1.4906  0.3609  0.6226
  116MPD2    N1 1814   0.278   3.903  17.412  0.1719 -0.4534  0.4023
  116MPD2    H7 1815   0.177   3.901  17.423  0.2727 -2.6136  0.7896
  117TMC2    C1 1816   3.289   0.492  13.594 -0.5526 -0.2920 -0.8967
  117TMC2    C2 1817   3.395   0.412  13.570  0.1971  0.0239 -0.0791
  117TMC2    C3 1818   3.512   0.470  13.607  0.3923  0.1759 -0.8600
  117TMC2    C4 1819   3.291   0.622  13.645 -0.0797  0.3909  0.7617
  117TMC2    C5 1820   3.414   0.680  13.668 -0.1653 -0.8214  0.8513
  117TMC2    C6 1821   3.528   0.599  13.650  0.2801 -0.1024  0.7102
  117TMC2     C 1822   3.157   0.423  13.575  0.6666 -0.2825  0.4800
  117TMC2     O 1823   3.165   0.303  13.571  0.0414  0.5440  0.2136
  117TMC2     H 1824   3.388   0.314  13.524 -0.7570 -1.1124  2.4975
  117TMC2    H1 1825   3.201   0.680  13.663 -0.5015 -0.1442  0.3608
  117TMC2    H2 1826   3.624   0.644  13.669  0.6679  0.3626 -2.3568
  117TMC2    C7 1827   3.409   0.791  13.754 -0.0917 -0.3236 -0.1651
  117TMC2    C8 1828   3.627   0.388  13.606  0.3052 -0.1399  0.0168
  117TMC2    O1 1829   3.483   0.886  13.742 -0.5113  0.2150 -0.3344
  117TMC2    O2 1830   3.739   0.437  13.610  0.3488  0.0336  1.1584
  117TMC2    O5 1831   3.589   0.289  13.691  0.2501  1.1856 -0.1965
  117TMC2    H5 1832   3.492   0.279  13.704  0.3883 -1.5309 -1.1593
  118MPD2     C 1833   3.121   0.875  13.979 -0.3414 -0.7876 -0.6078
  118MPD2    C1 1834   3.240   0.893  13.910 -0.3900  0.1056  0.0684
  118MPD2    C2 1835   3.287   1.025  13.909 -0.3504 -0.2384 -0.1146
  118MPD2    C3 1836   3.223   1.129  13.971 -0.3888  0.1581  0.1809
  118MPD2    C4 1837   3.097   1.112  14.028  0.1709  0.5721 -0.0229
  118MPD2    C5 1838   3.052   0.982  14.027  0.6239 -0.5967  0.5550
  118MPD2     H 1839   3.377   1.049  13.854  0.4253 -0.1125  1.2207
  118MPD2    H1 1840   3.037   1.191  14.070  1.0142  2.4020 -2.2588
  118MPD2    H2 1841   3.074   0.779  13.993 -0.5765 -0.3430  1.6984
  118MPD2    H3 1842   2.955   0.967  14.074  0.0652  1.0167 -0.0746
  118MPD2     N 1843   3.264   1.265  13.952  0.5122  0.0217  0.2560
  118MPD2    H5 1844   3.198   1.339  13.974  0.7160 -0.2456  1.7472
  118MPD2    N1 1845   3.300   0.788  13.839  0.6592  0.6736  0.4629
  118MPD2    H7 1846   3.256   0.698  13.852  1.1439  0.8452  3.1611
  119TMC2    C1 1847   1.673   2.146  13.470 -0.9642 -0.0289  0.7882
  119TMC2    C2 1848   1.700   2.179  13.339  0.3268  0.5184 -0.2484
  119TMC2    C3 1849   1.617   2.123  13.243 -0.0969  0.2254 -0.0865
  119TMC2    C4 1850   1.568   2.067  13.510 -1.0257  0.3601  0.7898
  119TMC2    C5 1851   1.487   2.017  13.411 -0.3889 -0.5217 -0.2409
  119TMC2    C6 1852   1.509   2.044  13.276  0.3847 -0.3901  0.4639
  119TMC2     C 1853   1.775   2.175  13.574  0.0285 -1.1664  0.1697
  119TMC2     O 1854   1.732   2.179  13.691 -0.1334  0.1013 -0.2411
  119TMC2     H 1855   1.777   2.247  13.304  1.1011 -1.4631 -2.4377
  119TMC2    H1 1856   1.555   2.043  13.615 -0.7815 -0.2121  0.6851
  119TMC2    H2 1857   1.432   2.003  13.212  0.4829 -0.7177  0.5551
  119TMC2    C7 1858   1.355   1.955  13.453  0.2550  0.1978  0.1589
  119TMC2    C8 1859   1.656   2.154  13.107  0.0966  0.6057 -0.3928
  119TMC2    O1 1860   1.259   1.967  13.379  0.0699  0.1069 -0.4610
  119TMC2    O2 1861   1.742   2.230  13.071  0.0044 -0.4492 -0.4868
  119TMC2    O5 1862   1.582   2.083  13.023 -0.3412  0.1586 -0.9107
  119TMC2    H5 1863   1.550   1.996  13.056  1.1257  0.6957  1.8239
  120MPD2     C 1864   2.237   2.063  13.751 -0.2124 -0.0575  0.1189
  120MPD2    C1 1865   2.116   2.089  13.816  0.4703 -0.6323 -0.3667
  120MPD2    C2 1866   2.006   2.123  13.744  0.8246 -0.3474  0.1821
  120MPD2    C3 1867   2.005   2.121  13.605 -0.4399 -0.4010 -0.1682
  120MPD2    C4 1868   2.125   2.088  13.548  0.0395 -0.1353 -0.3312
  120MPD2    C5 1869   2.238   2.052  13.618 -0.2563  0.0768 -0.3053
  120MPD2     H 1870   1.930   2.171  13.804 -0.6904 -1.9292 -0.4878
  120MPD2    H1 1871   2.145   2.090  13.441 -0.0973  0.4087 -0.3440
  120MPD2    H2 1872   2.322   2.032  13.811 -0.2650  0.3411  0.3952
  120MPD2    H3 1873   2.328   2.022  13.565 -1.4792 -1.8551 -1.2554
  120MPD2     N 1874   1.899   2.153  13.526 -0.5024  0.2253  0.0591
  120MPD2    H5 1875   1.915   2.144  13.427 -2.3808 -2.6776  0.0366
  120MPD2    N1 1876   2.112   2.068  13.960  0.0319  0.2672 -0.1996
  120MPD2    H7 1877   2.204   2.069  14.003 -0.5473  1.5638  1.0061
  121TMC2    C1 1878   3.370   3.605  14.260  0.0940 -0.0780  0.2618
  121TMC2    C2 1879   3.351   3.501  14.178  0.2695 -1.1908 -0.7688
  121TMC2    C3 1880   3.221   3.453  14.184 -0.1544 -0.6635 -0.1208
  121TMC2    C4 1881   3.281   3.655  14.353  0.0047 -0.2581 -0.2860
  121TMC2    C5 1882   3.158   3.592  14.355 -0.1404 -0.2647  0.0643
  121TMC2    C6 1883   3.127   3.493  14.271 -0.2706 -0.3409 -1.0459
  121TMC2     C 1884   3.495   3.669  14.265  0.2932 -0.7806  0.7510
  121TMC2     O 1885   3.525   3.713  14.377  0.6053  0.1630  0.1379
  121TMC2     H 1886   3.424   3.452  14.114  0.3670  0.9356 -2.3035
  121TMC2    H1 1887   3.308   3.742  14.411  0.3186 -0.6785  0.1981
  121TMC2    H2 1888   3.029   3.447  14.274 -0.1962 -0.4300 -0.1354
  121TMC2    C7 1889   3.051   3.641  14.439 -0.3697  0.2300 -0.3683
  121TMC2    C8 1890   3.188   3.341  14.112 -0.1277  0.1316  0.3078
  121TMC2    O1 1891   3.085   3.717  14.525 -0.4683 -0.0418 -0.3372
  121TMC2    O2 1892   3.090   3.266  14.119 -0.8285  0.1493  0.2877
  121TMC2    O5 1893   3.234   3.375  13.991 -0.2133  0.4425 -0.4305
  121TMC2    H5 1894   3.284   3.460  13.992 -0.7981  0.7900 -1.1854
  122MPD2     C 1895   3.686   3.884  14.210 -0.2750  0.0769  0.1727
  122MPD2    C1 1896   3.653   3.790  14.116 -0.4882 -0.0543  0.9736
  122MPD2    C2 1897   3.694   3.816  13.987 -0.3363 -0.0500 -0.8749
  122MPD2    C3 1898   3.784   3.918  13.955  0.3726 -0.8584  0.0282
  122MPD2    C4 1899   3.814   4.005  14.057  0.0936 -0.2644 -0.5245
  122MPD2    C5 1900   3.768   3.990  14.182  0.5227 -0.1798 -0.0903
  122MPD2     H 1901   3.644   3.763  13.907 -0.7359  2.8102 -2.5184
  122MPD2    H1 1902   3.895   4.077  14.044  1.1161 -1.2968  0.0843
  122MPD2    H2 1903   3.654   3.878  14.314 -2.0182 -0.3665 -0.3787
  122MPD2    H3 1904   3.797   4.055  14.264 -1.9854  1.2272 -0.3010
  122MPD2     N 1905   3.837   3.939  13.825  0.4794 -0.0348 -0.7927
  122MPD2    H5 1906   3.895   4.018  13.800 -0.5590  1.5252  1.6951
  122MPD2    N1 1907   3.547   3.698  14.142  0.3326  0.3001 -0.4761
  122MPD2    H7 1908   3.499   3.661  14.061 -0.5106  1.0760 -0.3315
  123TMC2    C1 1909   1.497   1.665  10.666 -0.2504  0.5944 -1.2494
  123TMC2    C2 1910   1.600   1.738  10.706  0.5719 -0.5528 -0.2064
  123TMC2    C3 1911   1.637   1.844  10.637  0.1609 -0.0216 -0.2592
  123TMC2    C4 1912   1.422   1.706  10.559 -0.5432 -0.3190  0.3857
  123TMC2    C5 1913   1.467   1.817  10.494 -0.3284 -0.9060 -0.6626
  123TMC2    C6 1914   1.575   1.895  10.529  0.3532  0.2306  0.2371
  123TMC2     C 1915   1.473   1.537  10.731  0.2552  0.1982 -0.1481
  123TMC2     O 1916   1.537   1.507  10.835  0.0799  0.0136 -0.3488
  123TMC2     H 1917   1.662   1.707  10.790 -0.4942 -0.1001  0.7500
  123TMC2    H1 1918   1.332   1.656  10.525 -1.0079 -0.0313  1.1961
  123TMC2    H2 1919   1.617   1.979  10.475  0.2904  2.6738  3.9713
  123TMC2    C7 1920   1.426   1.808  10.352 -0.0272 -0.1050 -0.0686
  123TMC2    C8 1921   1.750   1.920  10.683 -0.3074  0.5129 -0.3854
  123TMC2    O1 1922   1.397   1.695  10.319 -0.7801  0.2685 -0.3160
  123TMC2    O2 1923   1.813   1.999  10.612 -1.0401  0.1038  0.4031
  123TMC2    O5 1924   1.755   1.919  10.819 -0.2323 -0.1179  0.0244
  123TMC2    H5 1925   1.674   1.882  10.859 -1.1888  0.7285 -1.1384
  124MPD2     C 1926   1.257   1.062  10.721 -0.0555  0.3796  0.8714
  124MPD2    C1 1927   1.250   1.114  10.599  0.0255 -0.0917 -0.6211
  124MPD2    C2 1928   1.293   1.241  10.574 -0.1584 -1.0610  0.3677
  124MPD2    C3 1929   1.364   1.315  10.672 -0.3580  0.4966  0.6139
  124MPD2    C4 1930   1.386   1.253  10.791  0.0364  0.0130  0.4626
  124MPD2    C5 1931   1.330   1.128  10.813 -0.4306 -0.3249 -0.4754
  124MPD2     H 1932   1.284   1.288  10.477  1.0311  0.3647  0.9306
  124MPD2    H1 1933   1.455   1.291  10.865 -0.3170  0.7922  0.3910
  124MPD2    H2 1934   1.218   0.962  10.735 -1.5547  0.5311 -2.2315
  124MPD2    H3 1935   1.343   1.072  10.905 -2.7408  0.0620  0.0849
  124MPD2     N 1936   1.403   1.448  10.644  0.4347  0.0851 -0.0286
  124MPD2    H5 1937   1.386   1.480  10.549 -1.4819  1.8981  0.9234
  124MPD2    N1 1938   1.178   1.038  10.500 -0.2084 -0.0466 -0.2239
  124MPD2    H7 1939   1.171   0.938  10.517  1.2666  0.1244  1.3329
  125TMC2    C1 1940   2.548   3.869   9.598 -0.4624 -0.5161  0.5216
  125TMC2    C2 1941   2.600   3.755   9.546 -0.0336  0.0773 -0.4400
  125TMC2    C3 1942   2.689   3.683   9.628  0.0120  0.0574  0.1808
  125TMC2    C4 1943   2.592   3.908   9.724  0.0575  0.3855  0.4587
  125TMC2    C5 1944   2.685   3.838   9.797 -0.7170  0.5674  0.2727
  125TMC2    C6 1945   2.729   3.724   9.746 -0.5760  0.3786  0.0613
  125TMC2     C 1946   2.448   3.951   9.523 -0.3889 -0.3477 -0.2807
  125TMC2     O 1947   2.428   4.064   9.567  0.1602 -0.0345 -0.2544
  125TMC2     H 1948   2.593   3.727   9.441 -0.6052  1.2876 -0.7227
  125TMC2    H1 1949   2.557   4.003   9.762  1.0008  1.8211 -2.1968
  125TMC2    H2 1950   2.802   3.660   9.794 -0.2869  0.9371  0.3688
  125TMC2    C7 1951   2.729   3.878   9.926 -0.9009  0.0306  0.7484
  125TMC2    C8 1952   2.743   3.561   9.578 -0.2710  0.0248 -0.4563
  125TMC2    O1 1953   2.663   3.962   9.984 -0.5102 -0.3545  0.3083
  125TMC2    O2 1954   2.850   3.512   9.620  0.3764 -0.4186 -0.7476
  125TMC2    O5 1955   2.660   3.494   9.502  0.0265 -0.0071 -0.3236
  125TMC2    H5 1956   2.574   3.537   9.482  0.2263  0.9528  0.8466
  126MPD1     C 1957   2.101   4.004   9.141 -0.8362  0.0630  0.6953
  126MPD1    C1 1958   2.141   3.871   9.145 -0.0516 -0.1209 -0.0143
  126MPD1    C2 1959   2.243   3.828   9.228 -0.3484 -0.0689 -0.7004
  126MPD1    C3 1960   2.294   3.915   9.324 -0.5966  0.7344  0.6833
  126MPD1    C4 1961   2.253   4.047   9.320 -0.3989  0.0345  0.1440
  126MPD1    C5 1962   2.162   4.093   9.230  0.3216 -0.1835 -0.5905
  126MPD1     H 1963   2.274   3.724   9.231 -1.2887 -0.3628 -1.1340
  126MPD1    H1 1964   2.290   4.122   9.389 -1.9517  2.0190 -1.1638
  126MPD1    H2 1965   2.026   4.047   9.076 -2.1668  1.8181  3.3704
  126MPD1    H3 1966   2.131   4.197   9.231 -2.1926 -0.9271  0.1102
  126MPD1     N 1967   2.387   3.876   9.425  0.0875  0.1348  0.3805
  126MPD1    H5 1968   2.417   3.779   9.411 -1.0601  0.2908 -3.1031
  126MPD1    N1 1969   2.099   3.792   9.028 -0.4337  0.6964 -0.8555
  126MPD1    H6 1970   2.105   3.693   9.051 -1.4340  0.6294 -0.8512
  126MPD1    H7 1971   2.005   3.814   8.996 -1.4506 -0.1246  1.5219
  127TMC2    C1 1972   3.805   2.832  10.160 -0.3649 -0.8121 -0.2366
  127TMC2    C2 1973   3.748   2.864  10.040  0.0227 -0.4209  0.1876
  127TMC2    C3 1974   3.636   2.801  10.005 -0.0920  0.5752 -0.3671
  127TMC2    C4 1975   3.744   2.743  10.243 -0.4330 -0.3975 -0.2806
  127TMC2    C5 1976   3.637   2.674  10.201 -0.7105 -0.8260  0.5108
  127TMC2    C6 1977   3.572   2.712  10.090 -0.0785 -0.8633  0.1192
  127TMC2     C 1978   3.923   2.903  10.196 -0.5977 -0.4386 -0.2008
  127TMC2     O 1979   3.966   2.975  10.111 -0.3096 -0.9862 -0.0262
  127TMC2     H 1980   3.795   2.936   9.974  0.3028 -2.2200 -1.5952
  127TMC2    H1 1981   3.783   2.723  10.342 -0.3548 -0.0866 -0.2502
  127TMC2    H2 1982   3.486   2.662  10.047 -1.9253  2.1477  0.3108
  127TMC2    C7 1983   3.609   2.548  10.261 -0.2144  0.4330  0.0540
  127TMC2    C8 1984   3.563   2.829   9.890 -0.3558  0.2893  0.0731
  127TMC2    O1 1985   3.695   2.497  10.328 -0.1492 -0.2872  0.1565
  127TMC2    O2 1986   3.442   2.838   9.889 -0.3207  0.0131  0.1069
  127TMC2    O5 1987   3.660   2.867   9.802 -0.1939  0.5831  0.4701
  127TMC2    H5 1988   3.746   2.828   9.828 -1.4147 -1.7405  1.0451
  128MPD2     C 1989   4.016   3.027  10.525  0.2536 -0.1519  0.1649
  128MPD2    C1 1990   4.036   2.997  10.391 -0.1775  0.0914  0.5401
  128MPD2    C2 1991   4.154   3.049  10.332 -0.2000  0.0864  0.8196
  128MPD2    C3 1992   4.237   3.141  10.393  0.2623  0.7720 -0.6960
  128MPD2    C4 1993   4.208   3.187  10.520 -0.1968  0.8038 -0.3077
  128MPD2    C5 1994   4.103   3.115  10.584 -0.3948  0.0303 -0.0280
  128MPD2     H 1995   4.182   3.023  10.230  1.1651  1.9376  0.7264
  128MPD2    H1 1996   4.258   3.263  10.579 -0.1962 -0.1315  0.9001
  128MPD2    H2 1997   3.936   2.983  10.582 -0.4433  0.7006 -0.1557
  128MPD2    H3 1998   4.084   3.135  10.689  2.0009  0.5522  0.3150
  128MPD2     N 1999   4.333   3.200  10.315 -0.1746  0.5576 -0.1857
  128MPD2    H5 2000   4.331   3.186  10.215 -0.9952  2.6264 -0.4680
  128MPD2    N1 2001   3.944   2.904  10.331  0.2034 -0.0786 -0.1564
  128MPD2    H7 2002   3.876   2.856  10.390 -0.6500  0.5771 -0.5987
  129TMC2    C1 2003   2.909   2.827   1.955 -0.7845  0.1420  0.0967
  129TMC2    C2 2004   2.839   2.908   2.043 -0.5532 -0.3109 -0.3569
  129TMC2    C3 2005   2.756   2.853   2.132 -0.1353  0.1246  0.5925
  129TMC2    C4 2006   2.892   2.694   1.969  0.6723 -0.2302 -0.3487
  129TMC2    C5 2007   2.798   2.643   2.051  0.0038 -0.4463  0.3680
  129TMC2    C6 2008   2.721   2.721   2.129 -0.1195  0.0662  0.2820
  129TMC2     C 2009   2.964   2.880   1.833 -0.3610  0.1346 -0.7078
  129TMC2     O 2010   3.050   2.809   1.772  0.8063  0.5854  0.1826
  129TMC2     H 2011   2.851   3.016   2.039 -1.0728 -0.1656  2.2866
  129TMC2    H1 2012   2.952   2.630   1.906  0.8305  1.2451 -1.7094
  129TMC2    H2 2013   2.637   2.687   2.188 -0.7299 -0.0878 -0.6773
  129TMC2    C7 2014   2.727   2.529   1.999 -0.1788 -0.8064  0.9802
  129TMC2    C8 2015   2.665   2.936   2.208  0.9773 -0.0806  0.8781
  129TMC2    O1 2016   2.605   2.518   2.004  0.3258  0.4866  0.2763
  129TMC2    O2 2017   2.545   2.924   2.217 -0.2707  0.3621  0.3523
  129TMC2    O5 2018   2.732   3.047   2.249 -0.2733  0.0585  1.1928
  129TMC2    H5 2019   2.830   3.042   2.245 -0.2778  0.4651  0.5749
  130MPD2     C 2020   3.060   3.032   1.592  0.0953  0.3696  0.5674
  130MPD2    C1 2021   2.969   3.075   1.691  0.8486  0.5798  0.0474
  130MPD2    C2 2022   2.923   3.204   1.670  0.2130 -0.8558  0.8011
  130MPD2    C3 2023   2.944   3.272   1.552 -0.0309 -0.8200 -0.3663
  130MPD2    C4 2024   3.029   3.219   1.455 -0.8183  0.7868 -0.4586
  130MPD2    C5 2025   3.098   3.100   1.486  0.4249  0.5605  0.2779
  130MPD2     H 2026   2.865   3.257   1.744  1.4796 -0.2521  1.3505
  130MPD2    H1 2027   3.053   3.274   1.365  0.8012  1.4783  0.3914
  130MPD2    H2 2028   3.101   2.933   1.609 -0.5096  0.3474  1.8855
  130MPD2    H3 2029   3.171   3.058   1.417  0.6570  0.3094  0.6780
  130MPD2     N 2030   2.883   3.389   1.522 -0.0387  0.6757 -0.4348
  130MPD2    H5 2031   2.833   3.436   1.598  2.0161 -0.0621  1.3618
  130MPD2    N1 2032   2.927   3.006   1.807  0.1362  0.1681 -0.1858
  130MPD2    H7 2033   2.853   3.044   1.865  1.8135 -0.9602  2.6973
  131TMC2    C1 2034   0.938   1.855   9.963 -0.3513  0.3831 -0.6439
  131TMC2    C2 2035   0.968   1.907  10.090  0.1888 -0.1741 -0.0558
  131TMC2    C3 2036   1.030   2.028  10.091 -0.0577  0.8646  0.8053
  131TMC2    C4 2037   0.947   1.925   9.843  0.8509 -0.7708 -0.0618
  131TMC2    C5 2038   1.004   2.046   9.856 -0.3985  0.4977 -0.3830
  131TMC2    C6 2039   1.046   2.101   9.977  0.1540 -0.1343 -0.2902
  131TMC2     C 2040   0.902   1.707   9.964 -0.0680  0.1307 -0.1420
  131TMC2     O 2041   0.875   1.643  10.066  0.5199 -0.3948  0.1736
  131TMC2     H 2042   0.941   1.855  10.182  1.1600 -1.1173 -0.3078
  131TMC2    H1 2043   0.914   1.903   9.742  0.2693  1.4007 -0.3439
  131TMC2    H2 2044   1.122   2.179   9.981 -0.2477  0.2664 -0.5290
  131TMC2    C7 2045   0.991   2.127   9.739 -0.5693  0.1047  0.0984
  131TMC2    C8 2046   1.068   2.095  10.214 -0.0375  0.3556 -0.0807
  131TMC2    O1 2047   0.897   2.114   9.664  0.8398  0.2627  0.3007
  131TMC2    O2 2048   1.103   2.216  10.211 -0.0868 -0.4887 -0.0758
  131TMC2    O5 2049   1.120   2.001  10.299  0.3165  0.1253 -0.3967
  131TMC2    H5 2050   1.106   1.905  10.285 -2.5999  0.2926  1.2953
  132MPD2     C 2051   0.901   1.489   9.660 -0.2995 -0.1250 -0.1104
  132MPD2    C1 2052   0.914   1.525   9.791 -0.2665  0.8443 -0.0925
  132MPD2    C2 2053   0.910   1.427   9.883  1.1811 -0.1576  0.4892
  132MPD2    C3 2054   0.900   1.292   9.848  0.2876  0.1835  0.5510
  132MPD2    C4 2055   0.892   1.250   9.720  0.0096 -0.3221  0.4701
  132MPD2    C5 2056   0.875   1.353   9.628 -0.7733 -0.7399 -0.0651
  132MPD2     H 2057   0.916   1.444   9.990  1.0226  0.5688  0.3820
  132MPD2    H1 2058   0.852   1.155   9.686 -1.2323 -0.2541  1.7033
  132MPD2    H2 2059   0.904   1.562   9.580  0.8141 -1.0496 -0.9242
  132MPD2    H3 2060   0.837   1.337   9.528  0.5674 -2.3029 -0.3345
  132MPD2     N 2061   0.892   1.208   9.957 -0.0645 -0.5043  0.2362
  132MPD2    H5 2062   0.896   1.254  10.048 -0.0187  0.5079 -0.2817
  132MPD2    N1 2063   0.925   1.656   9.835  0.4116 -0.3277  0.2194
  132MPD2    H7 2064   0.944   1.720   9.759  1.1968  0.6129  1.2100
  133TMC2    C1 2065   4.682   1.791   9.791 -0.6224 -0.4938 -0.4667
  133TMC2    C2 2066   4.669   1.667   9.829  0.1628 -0.2868  0.0418
  133TMC2    C3 2067   4.552   1.603   9.803  0.1931  0.5574  0.2909
  133TMC2    C4 2068   4.590   1.851   9.707 -0.1371  0.8332  0.1881
  133TMC2    C5 2069   4.477   1.784   9.671 -0.3888 -0.3327  0.7559
  133TMC2    C6 2070   4.463   1.656   9.710 -0.3438  0.5264  0.3113
  133TMC2     C 2071   0.062   1.861   9.816 -0.2212 -0.8142 -0.5705
  133TMC2     O 2072   0.056   1.979   9.786 -0.3566  0.1498  0.2263
  133TMC2     H 2073   0.010   1.612   9.875  1.3760  1.9250  0.5657
  133TMC2    H1 2074   4.612   1.952   9.674  0.3113 -0.4170 -3.3400
  133TMC2    H2 2075   4.381   1.590   9.687 -0.1540  0.6241 -0.6243
  133TMC2    C7 2076   4.364   1.854   9.609  0.5587 -0.7352  0.6109
  133TMC2    C8 2077   4.539   1.462   9.799  0.1023  0.4092  0.3639
  133TMC2    O1 2078   4.376   1.972   9.581 -0.2924 -0.3342  0.2901
  133TMC2    O2 2079   4.498   1.398   9.705 -0.4529  0.4094  0.5148
  133TMC2    O5 2080   4.619   1.408   9.899 -0.2919 -0.2565  0.4558
  133TMC2    H5 2081   4.621   1.459   9.983 -0.2778 -0.9272  0.8695
  134MPD2     C 2082   0.407   1.736   9.861  0.2640 -1.0612  0.3632
  134MPD2    C1 2083   0.305   1.828   9.847 -0.9182  0.7057 -0.6959
  134MPD2    C2 2084   0.339   1.964   9.817  0.1251  0.2859 -0.2468
  134MPD2    C3 2085   0.475   2.001   9.807 -0.3708  1.2598  0.4541
  134MPD2    C4 2086   0.572   1.908   9.827  0.5102 -0.0328 -0.2730
  134MPD2    C5 2087   0.536   1.780   9.851  1.1384  0.6099 -0.1737
  134MPD2     H 2088   0.261   2.039   9.807  0.0758  0.4274  1.0979
  134MPD2    H1 2089   0.676   1.937   9.826  1.3763 -3.1274 -1.1644
  134MPD2    H2 2090   0.384   1.636   9.897 -2.0915 -0.9471 -0.8276
  134MPD2    H3 2091   0.620   1.714   9.867 -0.2826 -1.1448  0.0060
  134MPD2     N 2092   0.529   2.137   9.794  0.0550 -0.5148 -0.0731
  134MPD2    H5 2093   0.628   2.150   9.813  0.0663 -1.3027  0.4206
  134MPD2    N1 2094   0.167   1.780   9.836 -0.6383 -0.4665  0.1336
  134MPD2    H7 2095   0.149   1.681   9.821 -1.8828 -0.4807  1.6801
  135TMC2    C1 2096   2.877   4.278   9.567 -0.2777 -0.1049  0.0060
  135TMC2    C2 2097   2.818   4.277   9.443  0.0515 -0.2247  0.4462
  135TMC2    C3 2098   2.679   4.306   9.427 -0.3902  0.1621  0.4118
  135TMC2    C4 2099   2.801   4.301   9.672 -0.3475  0.1177 -0.8377
  135TMC2    C5 2100   2.668   4.320   9.657  0.2852  0.3865 -0.3258
  135TMC2    C6 2101   2.600   4.314   9.538  0.1673  0.0514 -0.3063
  135TMC2     C 2102   2.988   4.178   9.583 -0.4191 -0.9104  0.5723
  135TMC2     O 2103   2.983   4.114   9.684  0.2738 -0.4985 -0.0578
  135TMC2     H 2104   2.873   4.261   9.351  0.5453  1.1054  0.5044
  135TMC2    H1 2105   2.847   4.293   9.771 -2.9077 -2.1461  0.1497
  135TMC2    H2 2106   2.496   4.340   9.526  0.1583  0.8417  1.3955
  135TMC2    C7 2107   2.591   4.346   9.776 -0.0784 -0.3193  0.3780
  135TMC2    C8 2108   2.621   4.272   9.295 -0.0646  0.0886  0.2196
  135TMC2    O1 2109   2.630   4.426   9.863 -0.7046 -0.2044  0.2023
  135TMC2    O2 2110   2.673   4.201   9.209  0.2941  0.1910  0.4193
  135TMC2    O5 2111   2.502   4.333   9.292  0.2216  0.4662  0.2909
  135TMC2    H5 2112   2.484   4.412   9.348  2.2596 -0.8019  2.7379
  136MPD2     C 2113   3.248   4.077   9.593  0.1510 -0.6238  0.2036
  136MPD2    C1 2114   3.176   4.074   9.475 -0.3778  0.1535 -0.2381
  136MPD2    C2 2115   3.214   4.000   9.364  0.3616 -0.3756 -0.3229
  136MPD2    C3 2116   3.329   3.925   9.373 -0.0257 -0.2075 -0.0454
  136MPD2    C4 2117   3.408   3.940   9.488  0.0112  0.5794  0.1630
  136MPD2    C5 2118   3.369   4.008   9.595 -0.2913 -0.3658  0.0127
  136MPD2     H 2119   3.158   4.001   9.271  0.8141 -0.4729 -0.5945
  136MPD2    H1 2120   3.504   3.891   9.494 -0.7228 -1.3599 -3.5662
  136MPD2    H2 2121   3.214   4.134   9.678 -0.4592  0.4320 -0.7466
  136MPD2    H3 2122   3.424   4.012   9.688 -0.0157 -2.2035 -0.0720
  136MPD2     N 2123   3.376   3.847   9.267 -0.0534  0.1337 -0.4115
  136MPD2    H5 2124   3.469   3.812   9.290  0.2711  0.4841 -1.1978
  136MPD2    N1 2125   3.051   4.146   9.468 -0.4491  0.6264  0.0743
  136MPD2    H7 2126   3.027   4.180   9.375 -0.5857  0.3816  0.0205
  137TMC2    C1 2127   2.574   2.248  10.120 -0.5525 -0.4963  0.5987
  137TMC2    C2 2128   2.630   2.122  10.105  0.3696  0.0693  0.0034
  137TMC2    C3 2129   2.547   2.019  10.064  0.0172  0.4359 -0.0127
  137TMC2    C4 2130   2.441   2.268  10.092  0.2097  0.3224  0.8761
  137TMC2    C5 2131   2.362   2.162  10.054  0.0536 -0.1075  0.0387
  137TMC2    C6 2132   2.417   2.034  10.036  0.2704 -0.8212 -0.7310
  137TMC2     C 2133   2.654   2.364  10.162 -0.1403  0.5256  0.3556
  137TMC2     O 2134   2.596   2.476  10.157 -0.1187  0.0968  0.4348
  137TMC2     H 2135   2.738   2.117  10.099  0.3478  0.3287 -0.6218
  137TMC2    H1 2136   2.392   2.362  10.113 -0.9130 -0.1490  0.4010
  137TMC2    H2 2137   2.363   1.949   9.994 -0.8201 -0.7801  0.5923
  137TMC2    C7 2138   2.213   2.174  10.064 -0.4683  0.4991 -0.1571
  137TMC2    C8 2139   2.615   1.918   9.986 -0.0005 -0.0158  0.4244
  137TMC2    O1 2140   2.159   2.065  10.059  0.0326  0.6680 -0.1161
  137TMC2    O2 2141   2.618   1.933   9.864 -0.2297 -0.2218 -0.1146
  137TMC2    O5 2142   2.724   1.894  10.063 -1.1154  0.1327  0.6756
  137TMC2    H5 2143   2.699   1.885  10.158 -0.9152 -0.8946  0.6290
  138MPD2     C 2144   2.963   2.361  10.374 -0.0397 -0.5912 -0.0100
  138MPD2    C1 2145   2.859   2.412  10.303  1.1812 -0.2392 -0.1065
  138MPD2    C2 2146   2.846   2.550  10.297  0.9051  0.3512  0.2775
  138MPD2    C3 2147   2.932   2.638  10.364  0.4365 -0.4277  1.0520
  138MPD2    C4 2148   3.036   2.585  10.431 -0.4047 -0.5419 -0.1394
  138MPD2    C5 2149   3.043   2.453  10.435 -0.6107 -0.4702  0.3095
  138MPD2     H 2150   2.766   2.591  10.236 -2.4531 -2.1301  3.0199
  138MPD2    H1 2151   3.113   2.635  10.489 -2.8182  1.7804  1.0566
  138MPD2    H2 2152   2.975   2.254  10.388  2.0041  0.0586  3.2095
  138MPD2    H3 2153   3.121   2.416  10.500  1.0824 -1.4443 -2.2937
  138MPD2     N 2154   2.894   2.778  10.360  0.1747 -0.1816  0.0798
  138MPD2    H5 2155   2.818   2.799  10.295 -0.2883 -1.9795  0.0269
  138MPD2    N1 2156   2.765   2.321  10.234 -0.1257  0.1047 -0.4677
  138MPD2    H7 2157   2.780   2.221  10.242 -1.0828  0.1053  1.2731
  139TMC2    C1 2158   3.259   1.548  13.322  0.1535 -0.2981  0.0825
  139TMC2    C2 2159   3.369   1.626  13.300  0.3198 -0.2483 -0.1465
  139TMC2    C3 2160   3.344   1.760  13.292  0.1046 -0.6815  0.9233
  139TMC2    C4 2161   3.135   1.601  13.360  0.4498  0.0036  0.3768
  139TMC2    C5 2162   3.117   1.739  13.358  0.6835  0.2358  0.3150
  139TMC2    C6 2163   3.225   1.820  13.327 -0.2701 -0.2936 -0.9511
  139TMC2     C 2164   3.289   1.408  13.305  0.3043  0.1867 -0.6252
  139TMC2     O 2165   3.375   1.389  13.223 -0.3957 -0.0371 -0.3462
  139TMC2     H 2166   3.466   1.592  13.264 -0.3570  0.0237 -2.2480
  139TMC2    H1 2167   3.052   1.538  13.391 -0.6036  1.6610  0.9510
  139TMC2    H2 2168   3.216   1.928  13.331  1.2505 -0.0744 -4.0377
  139TMC2    C7 2169   3.003   1.800  13.414 -0.1242  0.3472 -0.4013
  139TMC2    C8 2170   3.453   1.857  13.294  0.3510  0.1519  0.1875
  139TMC2    O1 2171   3.012   1.921  13.441 -0.3540 -0.2906  0.3573
  139TMC2    O2 2172   3.558   1.847  13.232 -0.0284  0.0830 -0.1900
  139TMC2    O5 2173   3.448   1.902  13.421  0.5970  0.0536 -0.1716
  139TMC2    H5 2174   3.367   1.876  13.470  0.7445 -0.0522  0.0142
  140MPD2     C 2175   3.121   1.079  13.368 -0.2839  0.1718 -1.2581
  140MPD2    C1 2176   3.219   1.170  13.355 -0.6178 -0.0198  0.9261
  140MPD2    C2 2177   3.352   1.124  13.364 -0.0656  0.4927 -0.7756
  140MPD2    C3 2178   3.383   0.991  13.373 -0.0069 -0.4700 -0.0983
  140MPD2    C4 2179   3.279   0.903  13.400  0.4549  0.3714  0.0619
  140MPD2    C5 2180   3.150   0.949  13.405 -0.2430  0.2496  0.6425
  140MPD2     H 2181   3.430   1.200  13.364 -0.3002  0.7659  1.8763
  140MPD2    H1 2182   3.289   0.797  13.421  1.0035  0.4366  0.1260
  140MPD2    H2 2183   3.018   1.113  13.359 -0.5352 -0.4904 -0.9098
  140MPD2    H3 2184   3.073   0.874  13.422  2.3782 -2.0516  2.3093
  140MPD2     N 2185   3.517   0.943  13.384  0.2925  0.1453 -0.2668
  140MPD2    H5 2186   3.588   1.016  13.383 -0.4924  0.9021 -0.3611
  140MPD2    N1 2187   3.196   1.316  13.352  0.5108  0.3279  0.1422
  140MPD2    H7 2188   3.111   1.347  13.398 -0.0676 -0.2541 -0.5467
  141TMC2    C1 2189   4.003   2.902  14.046  0.5157  0.5186  0.2348
  141TMC2    C2 2190   3.970   3.025  14.103  0.4405  0.3906 -0.2073
  141TMC2    C3 2191   4.047   3.090  14.191  0.4386 -0.4417 -0.2216
  141TMC2    C4 2192   4.121   2.840  14.084  0.5526 -1.0372 -0.6542
  141TMC2    C5 2193   4.205   2.918  14.165  0.5833  0.2261 -0.6732
  141TMC2    C6 2194   4.172   3.036  14.223 -0.7070  0.7424 -0.3525
  141TMC2     C 2195   3.934   2.865  13.926 -0.0354  0.6417  0.2084
  141TMC2     O 2196   3.833   2.932  13.909  0.3005 -0.1232  0.5289
  141TMC2     H 2197   3.875   3.073  14.083  1.3791  1.1705 -2.9105
  141TMC2    H1 2198   4.158   2.758  14.023  0.0824 -3.1424  1.8319
  141TMC2    H2 2199   4.243   3.085  14.288  0.1234  0.4099 -1.0007
  141TMC2    C7 2200   4.344   2.864  14.181 -0.2771  0.1997 -0.6080
  141TMC2    C8 2201   3.993   3.204  14.255 -0.0767 -0.0737 -0.5633
  141TMC2    O1 2202   4.377   2.787  14.090 -0.1286 -0.4493 -0.0151
  141TMC2    O2 2203   4.051   3.312  14.272 -0.3792 -0.1345 -0.0841
  141TMC2    O5 2204   3.873   3.175  14.311 -0.0094  0.1996  0.5842
  141TMC2    H5 2205   3.850   3.080  14.301  1.7522 -0.2168  0.5995
  142TMC2    C1 2206   1.227   1.303   9.705  0.2740  0.0658 -0.3934
  142TMC2    C2 2207   1.263   1.323   9.576 -0.0675  0.3840  0.3302
  142TMC2    C3 2208   1.290   1.453   9.542  0.1356 -0.0630 -0.1600
  142TMC2    C4 2209   1.225   1.401   9.803  0.3817 -0.5526  0.1751
  142TMC2    C5 2210   1.259   1.527   9.757  0.3226 -0.4262 -0.1785
  142TMC2    C6 2211   1.305   1.551   9.634  0.2764 -0.6328  0.2151
  142TMC2     C 2212   1.212   1.170   9.754  0.3208  0.0533 -0.0749
  142TMC2     O 2213   1.197   1.080   9.672 -0.3546  0.1881  0.3335
  142TMC2     H 2214   1.280   1.246   9.502 -0.2515  0.8332 -0.1760
  142TMC2    H1 2215   1.186   1.389   9.903  1.3890 -0.2675  0.5966
  142TMC2    H2 2216   1.325   1.653   9.602  0.4510  0.0005  2.3287
  142TMC2    C7 2217   1.291   1.616   9.868  0.0850  0.4724 -0.2667
  142TMC2    C8 2218   1.376   1.464   9.430  0.8281  0.5704 -0.6122
  142TMC2    O1 2219   1.271   1.570   9.983  0.0299  0.2757  0.3952
  142TMC2    O2 2220   1.471   1.538   9.432 -0.1052  0.1420 -0.0455
  142TMC2    O5 2221   1.305   1.422   9.321 -0.3257  0.1703 -0.7283
  142TMC2    H5 2222   1.228   1.369   9.349  0.2586 -0.2728  0.0656
  143MPD2     C 2223   1.340   0.830  10.126 -0.3924 -0.7310 -0.2790
  143MPD2    C1 2224   1.270   0.813  10.005  0.8664  0.4713 -0.0420
  143MPD2    C2 2225   1.229   0.923   9.936  0.0387 -0.0324 -0.4083
  143MPD2    C3 2226   1.257   1.052   9.972 -0.1071 -0.8364 -0.1731
  143MPD2    C4 2227   1.331   1.069  10.087  0.4629 -0.5173 -0.2165
  143MPD2    C5 2228   1.371   0.958  10.159 -0.2202  0.1538  0.3638
  143MPD2     H 2229   1.161   0.908   9.853 -0.3671 -1.8882  0.2606
  143MPD2    H1 2230   1.362   1.164  10.131 -1.4576  1.4426 -3.0803
  143MPD2    H2 2231   1.394   0.749  10.174  2.1789  0.0452 -1.8776
  143MPD2    H3 2232   1.428   0.984  10.247  0.0051  0.0095  0.2591
  143MPD2     N 2233   1.232   1.165   9.893  0.7851  0.3181  0.5084
  143MPD2    H5 2234   1.237   1.254   9.941 -1.1240  2.2966 -2.9577
  143MPD2    N1 2235   1.249   0.679   9.966  0.0221  0.2454  0.0090
  143MPD2    H7 2236   1.279   0.603  10.026 -1.3412  1.4775  2.2367
  144TMC2    C1 2237   0.485   0.616   0.696 -0.5573 -0.1890 -0.1366
  144TMC2    C2 2238   0.515   0.485   0.654  0.1753 -0.3510 -0.6114
  144TMC2    C3 2239   0.635   0.434   0.670 -0.5412 -0.4671  0.2041
  144TMC2    C4 2240   0.583   0.695   0.757 -0.4191 -0.0719  0.5402
  144TMC2    C5 2241   0.704   0.627   0.786 -0.1022  0.4059 -0.1940
  144TMC2    C6 2242   0.726   0.501   0.745  0.4723  0.5801 -0.3751
  144TMC2     C 2243   0.356   0.671   0.668 -0.2315 -0.7301  0.6303
  144TMC2     O 2244   0.276   0.601   0.608  0.2802 -0.3267 -0.4232
  144TMC2     H 2245   0.432   0.429   0.612  1.7296 -1.7963 -1.7452
  144TMC2    H1 2246   0.569   0.799   0.784 -0.9520  0.2642 -0.9845
  144TMC2    H2 2247   0.821   0.451   0.760 -0.8353 -1.8982 -0.2329
  144TMC2    C7 2248   0.764   0.654   0.914  0.6568 -0.3327  0.2022
  144TMC2    C8 2249   0.676   0.294   0.642 -0.2767 -0.2784  0.2553
  144TMC2    O1 2250   0.840   0.570   0.960  0.0920 -0.3425 -0.2991
  144TMC2    O2 2251   0.778   0.274   0.583  0.5692  0.1876  0.0072
  144TMC2    O5 2252   0.643   0.231   0.760  0.1574 -0.1610 -0.5831
  144TMC2    H5 2253   0.574   0.282   0.807 -0.3584  0.4316 -1.9551
  145MPD2     C 2254   0.028   1.066   0.654 -0.1570 -0.1058  0.3460
  145MPD2    C1 2255   0.028   0.950   0.580  0.6761  0.1203 -0.3923
  145MPD2    C2 2256   0.131   0.854   0.600 -0.0013  0.1629  0.4297
  145MPD2    C3 2257   0.222   0.873   0.708 -0.0483 -0.5765  1.1510
  145MPD2    C4 2258   0.210   0.988   0.783 -0.0452  0.3830 -0.3274
  145MPD2    C5 2259   0.124   1.080   0.747 -0.1806  0.4775  0.4852
  145MPD2     H 2260   0.128   0.764   0.539 -2.9027  1.2208 -0.9896
  145MPD2    H1 2261   0.287   1.014   0.854  1.1105  0.9295 -1.7803
  145MPD2    H2 2262   4.705   1.150   0.628  0.0752  0.3569  1.2500
  145MPD2    H3 2263   0.140   1.174   0.799  0.1281  0.3252  0.6703
  145MPD2     N 2264   0.334   0.796   0.729  0.0353 -0.1107  0.6727
  145MPD2    H5 2265   0.381   0.829   0.813 -0.9269  0.7803  0.8712
  145MPD2    N1 2266   4.666   0.926   0.483  0.0256  0.3960  0.0628
  145MPD2    H7 2267   4.676   0.844   0.424  0.9245  0.9461 -0.5393
  146TMC2    C1 2268   1.049   4.174  12.491  0.4827 -0.7600  0.0276
  146TMC2    C2 2269   0.940   4.213  12.421 -0.4747 -0.9601 -0.0792
  146TMC2    C3 2270   0.930   4.160  12.295 -0.5403  0.4806  0.1952
  146TMC2    C4 2271   1.142   4.073  12.458 -0.6122  0.4215 -0.5794
  146TMC2    C5 2272   1.123   4.026  12.330  0.1604 -0.2505 -0.7851
  146TMC2    C6 2273   1.019   4.057  12.253  0.4474 -0.3209 -0.4982
  146TMC2     C 2274   1.061   4.235  12.617  0.0991 -0.3278 -0.1056
  146TMC2     O 2275   1.029   4.352  12.623 -0.3645  0.3517 -0.2400
  146TMC2     H 2276   0.880   4.297  12.453  0.5089  0.1918 -1.2616
  146TMC2    H1 2277   1.226   4.054  12.523  0.3753  3.0699 -1.0556
  146TMC2    H2 2278   1.003   4.027  12.150  0.3533 -0.3305 -0.4812
  146TMC2    C7 2279   1.211   3.917  12.282 -0.2065 -0.0529 -0.1543
  146TMC2    C8 2280   0.815   4.193  12.219 -0.4256 -0.1783 -0.3282
  146TMC2    O1 2281   1.192   3.883  12.162 -0.0421  0.2819 -0.1842
  146TMC2    O2 2282   0.820   4.211  12.097 -0.3224  0.8840 -0.6946
  146TMC2    O5 2283   0.739   4.093  12.269 -0.5112  0.7074  0.0284
  146TMC2    H5 2284   0.760   4.061  12.359  1.6026 -1.2266 -1.1483
  147MPD2     C 2285   1.613   3.624  12.360  0.7396  0.3986 -0.2960
  147MPD2    C1 2286   1.556   3.640  12.484  0.3963 -0.0189  0.0394
  147MPD2    C2 2287   1.440   3.714  12.486 -0.0012  0.6279  0.3905
  147MPD2    C3 2288   1.383   3.770  12.369  0.6833 -0.0339  0.2296
  147MPD2    C4 2289   1.440   3.740  12.252  0.2723  0.6128 -0.6997
  147MPD2    C5 2290   1.557   3.674  12.247  0.1045  0.7454  0.5404
  147MPD2     H 2291   1.385   3.739  12.576 -1.0345 -1.3554  0.2992
  147MPD2    H1 2292   1.403   3.779  12.158 -0.4386  3.2709  0.6834
  147MPD2    H2 2293   1.711   3.579  12.345  0.3435 -0.9834  1.3024
  147MPD2    H3 2294   1.610   3.673  12.153 -0.0802 -2.3506  0.4597
  147MPD2     N 2295   1.280   3.865  12.386 -0.1881 -0.3182  0.0782
  147MPD2    H5 2296   1.253   3.884  12.482  0.1589  0.7765 -0.0379
  147MPD2    N1 2297   1.619   3.580  12.597  0.5819  0.3031 -0.3837
  147MPD2    H7 2298   1.712   3.540  12.588  0.5296 -0.1810  1.1260
  148TMC2    C1 2299   1.595   2.527  11.427  0.1609  0.5322  0.1904
  148TMC2    C2 2300   1.576   2.462  11.550 -0.7749 -0.7421 -0.0621
  148TMC2    C3 2301   1.579   2.324  11.556 -0.5996  0.0882 -0.4788
  148TMC2    C4 2302   1.602   2.444  11.313 -0.3252  1.0221  0.4211
  148TMC2    C5 2303   1.596   2.309  11.322  0.1665 -0.4578  0.2025
  148TMC2    C6 2304   1.579   2.245  11.442 -0.1532 -0.8783 -0.4069
  148TMC2     C 2305   1.521   2.650  11.415 -0.1157  0.2841  0.2558
  148TMC2     O 2306   1.496   2.711  11.522 -0.3093 -0.4024  0.4850
  148TMC2     H 2307   1.553   2.518  11.639 -0.2549 -0.2956 -0.2122
  148TMC2    H1 2308   1.641   2.484  11.220  0.3750  1.2551  0.8152
  148TMC2    H2 2309   1.589   2.138  11.454  1.3211 -0.7097 -0.1344
  148TMC2    C7 2310   1.571   2.235  11.195  0.0573 -0.6667 -0.3162
  148TMC2    C8 2311   1.570   2.255  11.683 -0.4354 -0.3541  1.3220
  148TMC2    O1 2312   1.517   2.126  11.213 -0.1424  0.5538 -0.6102
  148TMC2    O2 2313   1.627   2.301  11.786  0.3982 -0.1868 -0.5789
  148TMC2    O5 2314   1.482   2.151  11.685  0.3555 -0.5225  0.3246
  148TMC2    H5 2315   1.437   2.137  11.598  0.0485  1.1350  0.2255
  149MPD2     C 2316   1.298   2.851  11.331  0.4946 -0.8489  0.7288
  149MPD2    C1 2317   1.358   2.754  11.250 -0.0721  0.0921  0.0884
  149MPD2    C2 2318   1.313   2.733  11.119 -0.4135 -0.2173  0.4119
  149MPD2    C3 2319   1.211   2.808  11.068 -0.4816  0.6131 -0.3159
  149MPD2    C4 2320   1.150   2.900  11.153 -0.0753 -0.0439 -0.0898
  149MPD2    C5 2321   1.193   2.919  11.283 -0.0917 -0.8749  0.1211
  149MPD2     H 2322   1.358   2.657  11.058 -0.3563  0.4759 -0.4144
  149MPD2    H1 2323   1.072   2.959  11.107 -0.2851  1.2320  1.9481
  149MPD2    H2 2324   1.313   2.867  11.437  1.2096  0.7081  0.3858
  149MPD2    H3 2325   1.146   2.997  11.343  0.1649 -0.1267 -0.6444
  149MPD2     N 2326   1.177   2.799  10.933  0.0649  0.4053  0.4635
  149MPD2    H5 2327   1.088   2.833  10.896  0.1315  1.0457  0.8999
  149MPD2    N1 2328   1.461   2.664  11.293  0.2296 -0.1344 -0.5794
  149MPD2    H7 2329   1.493   2.607  11.216  0.4533 -1.1322  0.2417
  150TMC2    C1 2330   2.836   1.799  12.079  0.0451 -0.2782 -0.2725
  150TMC2    C2 2331   2.797   1.673  12.122 -0.4018  0.6007 -0.2502
  150TMC2    C3 2332   2.868   1.608  12.217 -0.8018  0.6857 -0.2811
  150TMC2    C4 2333   2.945   1.861  12.133 -0.0257  0.5012  0.3370
  150TMC2    C5 2334   3.014   1.787  12.225 -0.2301  0.2316  0.2295
  150TMC2    C6 2335   2.982   1.661  12.267 -0.2433  0.1120  0.5595
  150TMC2     C 2336   2.743   1.876  11.997 -0.2604 -0.0515 -0.2744
  150TMC2     O 2337   2.699   1.983  12.035 -0.1085  0.1626 -0.3202
  150TMC2     H 2338   2.707   1.629  12.080  1.2709 -3.9704  0.9379
  150TMC2    H1 2339   2.961   1.967  12.115 -1.9547  0.5382 -1.2440
  150TMC2    H2 2340   3.043   1.611  12.342 -1.1323 -1.5264  0.1639
  150TMC2    C7 2341   3.122   1.859  12.292  0.2090  1.0189  0.0454
  150TMC2    C8 2342   2.847   1.466  12.242 -0.2802  1.5626 -0.2501
  150TMC2    O1 2343   3.116   1.982  12.283 -0.3296 -0.1201 -0.0239
  150TMC2    O2 2344   2.898   1.414  12.342 -0.2857 -0.2760 -0.0197
  150TMC2    O5 2345   2.831   1.404  12.123 -0.0335 -0.1517  0.4917
  150TMC2    H5 2346   2.821   1.456  12.040  0.4062  2.4771  2.0714
  151MPD2     C 2347   2.438   1.884  11.574 -0.3437  0.9716 -0.5629
  151MPD2    C1 2348   2.508   1.766  11.583  0.2358 -0.0977  0.3340
  151MPD2    C2 2349   2.583   1.733  11.692  0.0438 -0.1617  0.0821
  151MPD2    C3 2350   2.602   1.825  11.792  0.5459  0.2404  0.4883
  151MPD2    C4 2351   2.535   1.946  11.787 -0.9975 -0.4768  0.4338
  151MPD2    C5 2352   2.458   1.972  11.677 -0.1008 -0.5952 -0.1281
  151MPD2     H 2353   2.635   1.639  11.705  0.3923 -0.1479 -1.2344
  151MPD2    H1 2354   2.553   2.032  11.851 -2.5672 -0.4702  0.8491
  151MPD2    H2 2355   2.370   1.908  11.493 -0.1676 -2.9937 -1.8811
  151MPD2    H3 2356   2.422   2.073  11.664 -0.0355 -0.4732  0.6553
  151MPD2     N 2357   2.699   1.794  11.895 -0.4075  0.2300  0.7278
  151MPD2    H5 2358   2.745   1.705  11.883 -0.6365 -0.0871  2.2023
  151MPD2    N1 2359   2.515   1.668  11.479 -0.4291 -0.1386 -0.6316
  151MPD2    H7 2360   2.589   1.598  11.479 -1.3577 -1.1343 -1.9198
  152TMC2    C1 2361   2.911   1.549  12.644 -1.0235  0.0055  0.1539
  152TMC2    C2 2362   3.019   1.470  12.622  0.4622  0.9362 -0.6248
  152TMC2    C3 2363   3.137   1.535  12.637  0.1701  0.0439  0.3641
  152TMC2    C4 2364   2.909   1.678  12.674 -0.4398 -0.3876  0.0059
  152TMC2    C5 2365   3.029   1.741  12.669  0.5165  0.3630 -0.1361
  152TMC2    C6 2366   3.147   1.669  12.656  0.2106 -0.2653  0.9674
  152TMC2     C 2367   2.781   1.485  12.651  0.2678 -0.0442  0.1509
  152TMC2     O 2368   2.695   1.558  12.606 -0.3367  0.6639 -0.1856
  152TMC2     H 2369   2.998   1.367  12.593  0.2983  0.6737  0.4235
  152TMC2    H1 2370   2.822   1.725  12.717 -0.3164 -0.5912  0.4767
  152TMC2    H2 2371   3.245   1.714  12.654  0.0108  0.0701 -1.2419
  152TMC2    C7 2372   3.033   1.881  12.701 -0.0030  0.4382  0.5783
  152TMC2    C8 2373   3.252   1.453  12.674  0.0274  0.7845  0.2444
  152TMC2    O1 2374   2.929   1.947  12.704 -0.0766  0.1085  0.2881
  152TMC2    O2 2375   3.321   1.496  12.764 -0.2154  0.2514 -0.0504
  152TMC2    O5 2376   3.216   1.325  12.651 -0.0577 -0.2512  0.4860
  152TMC2    H5 2377   3.195   1.307  12.557  0.9498  0.7475  0.0762
  153MPD2     C 2378   2.650   1.151  12.768 -0.1748  0.2904 -0.6540
  153MPD2    C1 2379   2.649   1.273  12.705 -0.6782  0.7348  0.0319
  153MPD2    C2 2380   2.526   1.316  12.643 -0.0585  0.2221 -0.5804
  153MPD2    C3 2381   2.413   1.234  12.649 -0.3392  0.4093  0.0648
  153MPD2    C4 2382   2.424   1.112  12.715  0.2512  0.4959  0.5372
  153MPD2    C5 2383   2.541   1.073  12.775 -0.6730  0.1148  0.4150
  153MPD2     H 2384   2.526   1.411  12.591 -1.1279  0.9757  0.7753
  153MPD2    H1 2385   2.346   1.036  12.714 -1.5563  2.3590 -0.8059
  153MPD2    H2 2386   2.732   1.106  12.823  0.7390  0.2082 -2.0734
  153MPD2    H3 2387   2.540   0.974  12.819  2.0096 -1.6450 -3.5070
  153MPD2     N 2388   2.295   1.284  12.590  0.0683 -0.6828 -0.2545
  153MPD2    H5 2389   2.311   1.364  12.530  0.0123 -0.2985  0.2409
  153MPD2    N1 2390   2.762   1.359  12.706 -0.0906  0.3589 -0.8379
  153MPD2    H7 2391   2.851   1.316  12.732 -0.7377 -0.5436 -0.1143
  154TMC2    C1 2392   0.057   1.395   0.485 -0.4074  0.5679 -0.7601
  154TMC2    C2 2393   0.142   1.391   0.591 -0.7798  0.0527 -1.0472
  154TMC2    C3 2394   0.271   1.343   0.578  1.2202  0.7132  0.0461
  154TMC2    C4 2395   0.096   1.353   0.362 -0.6837  0.4714  0.8285
  154TMC2    C5 2396   0.226   1.313   0.347 -0.4830  0.5768 -0.4716
  154TMC2    C6 2397   0.311   1.304   0.455  0.5259  0.6993  0.6106
  154TMC2     C 2398   4.661   1.430   0.513  0.3557  0.5762 -0.3268
  154TMC2     O 2399   4.642   1.483   0.619 -0.3936 -0.0198 -0.1250
  154TMC2     H 2400   0.115   1.430   0.689  2.8165 -1.5848  0.6100
  154TMC2    H1 2401   0.036   1.376   0.274 -0.7834 -2.2959  0.1799
  154TMC2    H2 2402   0.415   1.290   0.425  0.2062  0.3426 -0.3346
  154TMC2    C7 2403   0.288   1.296   0.216 -0.1103 -0.4682 -0.0316
  154TMC2    C8 2404   0.377   1.395   0.665 -0.1497  0.3130 -0.7969
  154TMC2    O1 2405   0.383   1.218   0.209  0.0068 -0.3812  0.4955
  154TMC2    O2 2406   0.460   1.321   0.712  0.2554 -0.2299  0.1330
  154TMC2    O5 2407   0.350   1.525   0.690  0.0382  0.0467 -0.3485
  154TMC2    H5 2408   0.289   1.563   0.624 -2.4579 -2.4008  0.5284
  155MPD2     C 2409   4.345   1.393   0.315  0.3025 -0.0939 -0.2317
  155MPD2    C1 2410   4.429   1.430   0.421  0.1307 -0.3529 -0.4977
  155MPD2    C2 2411   4.373   1.516   0.518  0.7131  0.2992 -0.4943
  155MPD2    C3 2412   4.248   1.556   0.507 -1.0702  0.3108 -0.7824
  155MPD2    C4 2413   4.163   1.506   0.411  0.0873  0.4911  0.4500
  155MPD2    C5 2414   4.217   1.427   0.314 -0.4667 -1.0241 -0.0542
  155MPD2     H 2415   4.424   1.560   0.603 -1.8955  1.4577  0.4595
  155MPD2    H1 2416   4.064   1.548   0.393  0.9345  2.2165 -0.2510
  155MPD2    H2 2417   4.393   1.340   0.233  0.2747 -0.4988  0.0142
  155MPD2    H3 2418   4.156   1.407   0.227 -0.9330 -0.0897  0.0664
  155MPD2     N 2419   4.216   1.658   0.594  0.1257  0.1015 -0.1742
  155MPD2    H5 2420   4.280   1.679   0.669  1.1656  1.6792 -1.4924
  155MPD2    N1 2421   4.570   1.394   0.415 -0.1820  0.1056 -0.3147
  155MPD2    H7 2422   4.611   1.338   0.341  0.5328  2.5546 -1.7678
  156TMC2    C1 2423   3.982   3.934  12.500  0.8600  0.0227 -0.6788
  156TMC2    C2 2424   4.044   3.813  12.517 -0.6478  0.0094 -0.0012
  156TMC2    C3 2425   4.067   3.732  12.406  0.1302 -0.2319 -0.0095
  156TMC2    C4 2426   3.944   3.972  12.373 -0.2285 -0.1169  0.0333
  156TMC2    C5 2427   3.976   3.893  12.263 -0.7606  0.1645 -0.1833
  156TMC2    C6 2428   4.028   3.767  12.279 -0.3747 -0.4599  0.1370
  156TMC2     C 2429   3.874   3.962  12.591 -0.3732  0.4386 -0.6262
  156TMC2     O 2430   3.763   3.963  12.539  0.0123 -0.4506  0.3329
  156TMC2     H 2431   4.080   3.784  12.615 -0.1802 -0.0410 -0.1899
  156TMC2    H1 2432   3.889   4.064  12.360 -0.0699 -0.0317 -0.0269
  156TMC2    H2 2433   4.019   3.693  12.199  0.8206 -0.8789  0.3961
  156TMC2    C7 2434   3.944   3.938  12.130 -0.2590 -0.5869  0.1394
  156TMC2    C8 2435   4.113   3.598  12.424  0.1067  0.1396  0.6547
  156TMC2    O1 2436   3.864   4.030  12.118  0.0200 -0.4902 -0.0375
  156TMC2    O2 2437   4.132   3.555  12.540  0.9910 -0.6235  0.2827
  156TMC2    O5 2438   4.175   3.563  12.316 -0.3362 -0.0749  0.2169
  156TMC2    H5 2439   4.165   3.626  12.241  0.1268  0.6454  0.7673
  157MPD2     C 2440   3.904   4.065  12.946 -0.5902  0.2907 -0.3649
  157MPD2    C1 2441   3.837   4.029  12.829  0.5562 -0.0043 -0.1041
  157MPD2    C2 2442   3.701   4.048  12.822 -0.9903  0.1593 -0.0950
  157MPD2    C3 2443   3.632   4.107  12.925  0.2733 -0.4335  0.4036
  157MPD2    C4 2444   3.700   4.146  13.041  0.0741  0.0372  0.2154
  157MPD2    C5 2445   3.833   4.119  13.052  0.4746  0.0969 -0.4118
  157MPD2     H 2446   3.649   4.007  12.737 -0.0168  0.2306 -0.7268
  157MPD2    H1 2447   3.648   4.190  13.125 -0.2902 -0.8812  0.4700
  157MPD2    H2 2448   4.012   4.074  12.942 -0.4846 -0.9626 -0.4787
  157MPD2    H3 2449   3.891   4.150  13.138  1.3175  0.0937 -0.9754
  157MPD2     N 2450   3.493   4.125  12.889 -0.1029  0.2911 -0.6183
  157MPD2    H5 2451   3.471   4.099  12.794  1.6893  0.1760 -1.0025
  157MPD2    N1 2452   3.919   3.990  12.719 -0.3314 -0.2920  0.0465
  157MPD2    H7 2453   4.019   3.993  12.735  0.0291 -0.2702 -2.2209
  158TMC2    C1 2454   3.054   3.206  13.435  0.3254  0.7423 -0.5097
  158TMC2    C2 2455   3.036   3.314  13.359 -0.9908  0.3247 -0.5222
  158TMC2    C3 2456   2.905   3.337  13.318 -0.1203  0.5198  0.2417
  158TMC2    C4 2457   2.954   3.116  13.479  0.2961 -0.6052  0.1722
  158TMC2    C5 2458   2.833   3.136  13.422  0.1879 -0.2294 -0.3523
  158TMC2    C6 2459   2.808   3.252  13.345 -0.1269 -1.0366 -0.3757
  158TMC2     C 2460   3.185   3.206  13.499 -0.1712 -1.1104  0.3471
  158TMC2     O 2461   3.246   3.313  13.500  0.9409 -0.5871  0.0942
  158TMC2     H 2462   3.118   3.368  13.315  1.2752 -1.2183  1.8386
  158TMC2    H1 2463   2.982   3.021  13.522  2.6822  0.5385  1.1897
  158TMC2    H2 2464   2.708   3.276  13.311 -0.8594 -1.4978  1.4158
  158TMC2    C7 2465   2.721   3.047  13.443 -0.2486 -0.4199 -0.4092
  158TMC2    C8 2466   2.872   3.466  13.254  0.3231  0.2422 -0.1077
  158TMC2    O1 2467   2.638   3.050  13.354  0.2753 -0.1754 -0.2465
  158TMC2    O2 2468   2.759   3.494  13.213 -0.0712 -0.4805 -0.2374
  158TMC2    O5 2469   2.954   3.571  13.304  0.0914 -0.2976 -0.1999
  158TMC2    H5 2470   3.042   3.539  13.333  0.2096 -2.5330 -2.9919
  159MPD2     C 2471   3.538   3.069  13.831 -0.1231  0.2719 -0.3608
  159MPD2    C1 2472   3.478   2.957  13.784  0.9356 -0.3168  0.4378
  159MPD2    C2 2473   3.371   2.965  13.701 -0.9237  0.7626  0.4136
  159MPD2    C3 2474   3.323   3.085  13.663 -0.0117  0.0305 -0.1408
  159MPD2    C4 2475   3.386   3.199  13.708 -0.3062 -0.3508 -0.4864
  159MPD2    C5 2476   3.487   3.188  13.799  0.2953 -0.0713 -0.0984
  159MPD2     H 2477   3.322   2.872  13.671 -0.7748  1.6335 -2.5084
  159MPD2    H1 2478   3.361   3.303  13.690  0.9699  0.2643  1.2567
  159MPD2    H2 2479   3.626   3.058  13.894 -0.6846 -0.2522  0.3385
  159MPD2    H3 2480   3.543   3.273  13.836  0.7487 -1.0698  1.5176
  159MPD2     N 2481   3.217   3.094  13.570 -0.4692  0.2961  0.1391
  159MPD2    H5 2482   3.168   3.008  13.545 -0.2913  0.4744 -0.7914
  159MPD2    N1 2483   3.533   2.840  13.839  0.1561 -0.3461  0.1953
  159MPD2    H7 2484   3.616   2.854  13.896  2.1625 -0.2290 -2.7492
  160TMC2    C1 2485   3.268   0.909   1.226  0.0403 -0.4405  0.2911
  160TMC2    C2 2486   3.164   0.836   1.176  0.8404  0.3023  0.8678
  160TMC2    C3 2487   3.201   0.723   1.109 -0.4242 -0.2291  0.2920
  160TMC2    C4 2488   3.403   0.890   1.203 -0.1971  0.2512  0.6167
  160TMC2    C5 2489   3.434   0.783   1.126  0.2096  0.0637 -0.1678
  160TMC2    C6 2490   3.331   0.703   1.072 -0.3091  0.0663 -0.3116
  160TMC2     C 2491   3.230   1.010   1.322  0.4268  0.4573 -0.5544
  160TMC2     O 2492   3.306   1.037   1.409  0.1844 -0.0147  0.6438
  160TMC2     H 2493   3.073   0.829   1.234 -0.9230  0.4068 -1.9184
  160TMC2    H1 2494   3.474   0.957   1.250 -2.6613  2.3212  1.3936
  160TMC2    H2 2495   3.360   0.610   1.025 -0.7135 -0.6487  0.8654
  160TMC2    C7 2496   3.576   0.744   1.121  0.4932  0.0489  0.3330
  160TMC2    C8 2497   3.107   0.619   1.066  0.8591  0.8242  0.2839
  160TMC2    O1 2498   3.594   0.623   1.115 -0.0181 -0.0099  0.0062
  160TMC2    O2 2499   3.132   0.507   1.018  0.0451 -0.5155  0.4539
  160TMC2    O5 2500   2.978   0.670   1.063 -0.1858  0.7450  0.4557
  160TMC2    H5 2501   2.971   0.756   1.109 -1.2837  1.5629 -1.2433
  161MPD2     C 2502   3.135   1.272   1.432 -0.2472  0.4908 -0.1021
  161MPD2    C1 2503   3.085   1.215   1.321  0.3297 -0.6010 -0.2230
  161MPD2    C2 2504   2.991   1.283   1.244 -0.0937  0.5774 -0.4155
  161MPD2    C3 2505   2.954   1.415   1.267 -1.6602 -0.4031 -0.7472
  161MPD2    C4 2506   3.003   1.472   1.385 -0.0698  0.6037  0.0827
  161MPD2    C5 2507   3.084   1.396   1.467  0.2301  0.1917  0.3977
  161MPD2     H 2508   2.948   1.242   1.153  1.7710 -0.3598 -0.8535
  161MPD2    H1 2509   2.972   1.569   1.422 -0.5381  0.7168 -0.6108
  161MPD2    H2 2510   3.217   1.227   1.487  0.7004  3.3102  0.7828
  161MPD2    H3 2511   3.112   1.436   1.563  0.2551 -0.9477  0.8621
  161MPD2     N 2512   2.876   1.499   1.182  0.2231 -0.3434  0.7360
  161MPD2    H5 2513   2.875   1.596   1.214 -2.0864  0.4843 -1.7983
  161MPD2    N1 2514   3.122   1.088   1.272  0.7981 -0.2353 -0.3093
  161MPD2    H7 2515   3.074   1.051   1.190 -1.1039 -1.0521  1.1656
  162TMC2    C1 2516   1.578   2.951   1.236  0.1404  0.5293 -0.0992
  162TMC2    C2 2517   1.468   3.010   1.280 -0.4044  0.6965  0.1954
  162TMC2    C3 2518   1.414   2.993   1.405 -0.9080  0.6926  0.1089
  162TMC2    C4 2519   1.644   2.871   1.327  0.2799 -0.3521  0.7054
  162TMC2    C5 2520   1.610   2.872   1.460  0.1036 -0.0456 -0.0218
  162TMC2    C6 2521   1.500   2.941   1.502  0.1693 -0.4472 -0.3606
  162TMC2     C 2522   1.581   2.919   1.091  0.5875  0.2373 -0.0460
  162TMC2     O 2523   1.483   2.956   1.030 -0.3312 -0.2006 -1.0518
  162TMC2     H 2524   1.404   3.064   1.211 -1.6599  0.0904  0.8774
  162TMC2    H1 2525   1.729   2.810   1.299 -1.6797 -1.5877 -2.6486
  162TMC2    H2 2526   1.477   2.945   1.608 -2.1777  0.0140 -0.8870
  162TMC2    C7 2527   1.703   2.820   1.565 -0.4911 -1.1978 -0.3924
  162TMC2    C8 2528   1.300   3.067   1.446  0.2547 -0.2387  0.0006
  162TMC2    O1 2529   1.683   2.862   1.681 -0.3979  0.2861  0.3215
  162TMC2    O2 2530   1.263   3.054   1.561 -0.2793  0.0284 -0.3872
  162TMC2    O5 2531   1.207   3.039   1.345 -0.1354  0.3275  0.0776
  162TMC2    H5 2532   1.231   2.975   1.274 -0.0311  1.8019 -1.2131
  163MPD2     C 2533   1.768   2.661   0.692 -0.4388  0.1034  0.9652
  163MPD2    C1 2534   1.640   2.707   0.720 -0.4300 -0.2024  0.7339
  163MPD2    C2 2535   1.624   2.779   0.831 -0.2409  0.1021  0.7941
  163MPD2    C3 2536   1.722   2.799   0.925 -0.0454 -0.6599 -0.4156
  163MPD2    C4 2537   1.848   2.754   0.898  0.0035 -0.2512 -0.5830
  163MPD2    C5 2538   1.868   2.684   0.782  0.3523  0.3384 -0.0342
  163MPD2     H 2539   1.524   2.817   0.852 -0.0463  1.8054 -1.3798
  163MPD2    H1 2540   1.933   2.773   0.963 -0.2046 -0.0361 -0.3719
  163MPD2    H2 2541   1.793   2.612   0.598 -1.1141 -1.6450  1.7004
  163MPD2    H3 2542   1.969   2.647   0.767  0.4956  0.3985  0.7478
  163MPD2     N 2543   1.699   2.858   1.049  0.0415  0.3877  0.9741
  163MPD2    H5 2544   1.777   2.852   1.114 -0.2630  0.6006  1.3609
  163MPD2    N1 2545   1.536   2.681   0.627  0.4306  0.6878 -0.2454
  163MPD2    H7 2546   1.562   2.639   0.538  0.4243  0.5442 -0.1787
  164TMC2    C1 2547   1.841   2.841  11.219  0.6967 -0.0904 -0.3731
  164TMC2    C2 2548   1.906   2.898  11.109 -0.2389  0.4993  0.0726
  164TMC2    C3 2549   1.877   3.032  11.086 -0.4195  0.4375  0.4044
  164TMC2    C4 2550   1.766   2.915  11.309  0.5385  0.2905 -0.6555
  164TMC2    C5 2551   1.751   3.043  11.291 -0.2739 -0.9738 -0.6939
  164TMC2    C6 2552   1.799   3.103  11.176 -0.4905  0.3223 -0.7334
  164TMC2     C 2553   1.873   2.706  11.254  0.3065  0.1270 -0.1052
  164TMC2     O 2554   1.847   2.675  11.371 -0.9455  0.0212  0.0829
  164TMC2     H 2555   1.984   2.845  11.054  0.6892  0.6427  1.2414
  164TMC2    H1 2556   1.736   2.869  11.402  2.6117 -0.6656 -0.4622
  164TMC2    H2 2557   1.784   3.210  11.161 -0.6075  0.3205 -0.6268
  164TMC2    C7 2558   1.619   3.107  11.340  0.1589  0.5549  0.0378
  164TMC2    C8 2559   1.966   3.115  11.010  0.4812 -0.2998  0.0925
  164TMC2    O1 2560   1.595   3.208  11.275  0.3874  0.4385  0.4364
  164TMC2    O2 2561   2.012   3.223  11.035 -0.4357 -0.9214 -0.6511
  164TMC2    O5 2562   1.967   3.062  10.885 -0.0012 -0.1267 -0.2741
  164TMC2    H5 2563   1.910   2.982  10.878 -0.2425  0.1350 -1.2638
  165TMC2    C1 2564   4.418   4.072   1.684 -0.4084  0.6485  0.7757
  165TMC2    C2 2565   4.467   4.048   1.561 -0.5109  0.2347  0.6139
  165TMC2    C3 2566   4.576   4.118   1.521  0.3930 -0.3525  0.2479
  165TMC2    C4 2567   4.467   4.177   1.756 -0.2638  0.4224 -0.7572
  165TMC2    C5 2568   4.563   4.255   1.709  0.2021  0.3699  0.1620
  165TMC2    C6 2569   4.627   4.223   1.597 -0.0937  0.2576  0.0709
  165TMC2     C 2570   4.303   3.993   1.738 -0.3742 -0.4004 -0.1020
  165TMC2     O 2571   4.236   4.046   1.822 -0.0583 -0.2320 -0.2303
  165TMC2     H 2572   4.414   3.981   1.495  0.1336 -1.8372  2.1935
  165TMC2    H1 2573   4.425   4.199   1.853  0.5930  0.4300 -0.3865
  165TMC2    H2 2574   4.707   4.280   1.552 -0.0676  0.1298 -0.0435
  165TMC2    C7 2575   4.566   4.400   1.734  0.4848  0.2409  0.2628
  165TMC2    C8 2576   4.613   4.115   1.378  0.2377  0.3480 -0.0491
  165TMC2    O1 2577   4.656   4.464   1.684  0.1549  0.0476 -0.1925
  165TMC2    O2 2578   4.636   4.218   1.320  0.3864  0.1582 -0.0388
  165TMC2    O5 2579   4.565   4.010   1.313 -0.7016 -0.1451  0.1871
  165TMC2    H5 2580   4.567   3.924   1.360 -1.3275 -0.2504  0.0280
  166MPD2     C 2581   4.004   3.577   1.798 -0.1455 -0.2228  0.4131
  166MPD2    C1 2582   3.992   3.705   1.848  0.4166  0.2032 -0.2021
  166MPD2    C2 2583   4.084   3.800   1.805 -1.1566 -0.0862  0.4288
  166MPD2    C3 2584   4.191   3.770   1.727 -0.2108 -0.4689 -0.7901
  166MPD2    C4 2585   4.212   3.639   1.690 -0.1187  0.0722  0.0487
  166MPD2    C5 2586   4.117   3.543   1.715  0.8443  0.1862  0.9205
  166MPD2     H 2587   4.065   3.902   1.835  0.3965 -0.5578  2.9747
  166MPD2    H1 2588   4.294   3.621   1.621  0.7636  1.6684  0.6815
  166MPD2    H2 2589   3.933   3.500   1.826  0.4532 -0.5094  1.1461
  166MPD2    H3 2590   4.141   3.443   1.679 -0.1753  0.4344 -0.4238
  166MPD2     N 2591   4.284   3.866   1.690  0.3426 -1.1631 -0.5664
  166MPD2    H5 2592   4.352   3.840   1.619  1.7846  0.2245  0.3078
  166MPD2    N1 2593   3.892   3.734   1.942 -0.4501 -0.0375 -0.1098
  166MPD2    H7 2594   3.823   3.663   1.963  0.7937 -0.7767  1.5446
  167TMC2    C1 2595   1.109   2.778  13.210  0.1377 -0.6043 -0.1427
  167TMC2    C2 2596   1.036   2.825  13.323 -0.3640 -0.0780 -0.2675
  167TMC2    C3 2597   0.929   2.752  13.357  0.1299  0.4086  0.1581
  167TMC2    C4 2598   1.070   2.666  13.140  0.4555 -0.0853 -0.5366
  167TMC2    C5 2599   0.956   2.600  13.180  0.3029  0.0339 -0.7818
  167TMC2    C6 2600   0.891   2.633  13.294  0.6144 -0.1513 -0.3035
  167TMC2     C 2601   1.192   2.876  13.139  0.5245 -0.5004  0.5004
  167TMC2     O 2602   1.238   2.965  13.207 -0.3467 -0.2100  0.7015
  167TMC2     H 2603   1.072   2.914  13.372 -1.8340 -0.1372  0.9072
  167TMC2    H1 2604   1.126   2.650  13.049  0.3778 -0.3388 -0.5419
  167TMC2    H2 2605   0.813   2.566  13.327 -0.1792  0.2545 -1.3622
  167TMC2    C7 2606   0.917   2.471  13.119  0.2517 -0.6370  0.2324
  167TMC2    C8 2607   0.815   2.816  13.414 -0.5718 -0.0065  0.2574
  167TMC2    O1 2608   0.830   2.409  13.177 -0.3748  0.0155 -0.2401
  167TMC2    O2 2609   0.697   2.791  13.386  0.3610 -0.1446  0.2627
  167TMC2    O5 2610   0.856   2.912  13.499  0.3724 -0.1182 -0.1382
  167TMC2    H5 2611   0.948   2.888  13.523  1.5717  2.7334 -1.7890
  168MPD2     C 2612   1.365   3.031  12.947  0.1209  0.3664  0.4946
  168MPD2    C1 2613   1.258   2.950  12.916 -0.4322 -0.1818 -0.3568
  168MPD2    C2 2614   1.233   2.923  12.783  0.1176  0.3900 -0.1350
  168MPD2    C3 2615   1.296   2.988  12.679  0.1907  0.3811  0.0622
  168MPD2    C4 2616   1.399   3.068  12.713 -0.0757 -0.0774 -1.0303
  168MPD2    C5 2617   1.432   3.088  12.846 -0.0408 -0.9233  0.4405
  168MPD2     H 2618   1.148   2.862  12.755  0.5891 -0.6370  0.6486
  168MPD2    H1 2619   1.446   3.120  12.630 -1.2455 -0.5429 -1.9864
  168MPD2    H2 2620   1.399   3.048  13.048  2.3215  1.1548 -0.3617
  168MPD2    H3 2621   1.526   3.139  12.863  0.1275 -1.2559  0.5234
  168MPD2     N 2622   1.269   2.966  12.539  0.5585 -0.2846  0.4010
  168MPD2    H5 2623   1.325   3.018  12.471 -0.0363 -2.2024 -1.5356
  168MPD2    N1 2624   1.177   2.879  13.001 -0.4432 -0.0951 -0.1030
  168MPD2    H7 2625   1.118   2.809  12.957 -1.3887  1.6594 -1.5786
  169MPD1     C 2626   4.054   1.149   9.707  0.1399  1.1063  0.0234
  169MPD1    C1 2627   3.946   1.228   9.686  0.0343 -0.6787 -0.3497
  169MPD1    C2 2628   3.947   1.358   9.722 -0.4068  0.4223 -0.0965
  169MPD1    C3 2629   4.045   1.415   9.791 -1.0144 -0.5454  0.7526
  169MPD1    C4 2630   4.157   1.333   9.812 -0.6942  0.5034 -0.6032
  169MPD1    C5 2631   4.160   1.202   9.775  0.5693 -0.2143 -0.3308
  169MPD1     H 2632   3.867   1.418   9.681 -0.7289 -0.9606 -1.4849
  169MPD1    H1 2633   4.233   1.363   9.883  0.8039  0.6576 -2.2836
  169MPD1    H2 2634   4.062   1.053   9.658  0.4230  0.9464  0.3778
  169MPD1    H3 2635   4.244   1.141   9.805  2.0579  0.9051 -2.2518
  169MPD1     N 2636   4.037   1.547   9.842 -0.1621  0.0201 -0.4400
  169MPD1    H5 2637   3.949   1.595   9.826  0.5073  0.8688 -1.6471
  169MPD1    N1 2638   3.841   1.193   9.589  0.2586  0.1587  0.4466
  169MPD1    H6 2639   3.815   1.096   9.605 -0.2973  0.8156  3.6141
  169MPD1    H7 2640   3.755   1.246   9.600  0.8425  0.7182  2.3683
  170MPD1     C 2641   1.705   4.154  13.468  0.2254  0.2472 -0.3980
  170MPD1    C1 2642   1.697   4.268  13.392 -0.2710  0.4614 -0.6850
  170MPD1    C2 2643   1.718   4.384  13.454  0.1869  0.2725 -0.1184
  170MPD1    C3 2644   1.741   4.391  13.594  0.5020 -0.9130 -0.2331
  170MPD1    C4 2645   1.741   4.274  13.666  0.0069 -0.1970 -0.2002
  170MPD1    C5 2646   1.730   4.159  13.605 -0.2057 -1.0257  0.0655
  170MPD1     H 2647   1.719   4.474  13.394 -1.2221 -0.1630 -0.8023
  170MPD1    H1 2648   1.762   4.274  13.772  0.0492  0.6770 -0.2079
  170MPD1    H2 2649   1.695   4.057  13.419  0.0931  1.6285 -3.0859
  170MPD1    H3 2650   1.740   4.067  13.661 -0.4548 -0.0771  1.6498
  170MPD1     N 2651   1.759   4.523  13.641 -0.7809  0.0232 -0.6755
  170MPD1    H5 2652   1.763   4.597  13.573  2.8548 -0.1106 -0.5900
  170MPD1    N1 2653   1.681   4.270  13.253  0.3140 -0.0247  0.0945
  170MPD1    H6 2654   1.655   4.365  13.226 -0.4304 -0.1907  0.2509
  170MPD1    H7 2655   1.613   4.202  13.221 -1.3179  1.9198 -0.6034
  171MPD1     C 2656   0.210   0.908  14.701  0.1625  0.4918 -0.7832
  171MPD1    C1 2657   0.157   0.999  14.793  0.3689 -0.0559  0.3723
  171MPD1    C2 2658   0.189   0.978  14.926  0.1278 -0.4734 -0.0008
  171MPD1    C3 2659   0.256   0.864  14.971 -0.5528 -0.3674  0.1669
  171MPD1    C4 2660   0.295   0.774  14.875  0.2231  0.1168  0.2280
  171MPD1    C5 2661   0.276   0.796  14.743 -0.4344  0.0096 -0.8555
  171MPD1     H 2662   0.159   1.059  14.992 -3.7828 -1.2127 -0.8703
  171MPD1    H1 2663   0.364   0.697  14.909  1.5617  2.0870  1.9382
  171MPD1    H2 2664   0.216   0.923  14.594  2.9991  1.2802 -0.4955
  171MPD1    H3 2665   0.321   0.728  14.671 -0.8394 -0.5696 -0.5599
  171MPD1     N 2666   0.298   0.834  15.102 -0.3392  0.2783 -0.5927
  171MPD1    H5 2667   0.345   0.744  15.114  0.0930  0.5041 -0.5689
  171MPD1    N1 2668   0.114   1.122  14.747  0.0321  0.4019  0.2028
  171MPD1    H6 2669   0.061   1.106  14.661 -0.8221  1.3012  0.5690
  171MPD1    H7 2670   0.053   1.173  14.809  1.8112 -0.4969  2.6852
  172MPD1     C 2671   0.447   0.389   0.269 -0.1546  0.0248  0.5934
  172MPD1    C1 2672   0.332   0.446   0.312  0.3013 -0.1435 -0.2146
  172MPD1    C2 2673   0.285   0.556   0.251 -0.0286  1.1316  0.0565
  172MPD1    C3 2674   0.365   0.616   0.154  0.0079 -0.4493 -0.3755
  172MPD1    C4 2675   0.479   0.554   0.106  0.5173 -0.0837  0.2577
  172MPD1    C5 2676   0.524   0.443   0.176 -0.1642 -1.1949  0.2262
  172MPD1     H 2677   0.188   0.593   0.280 -0.9150 -1.6936  0.7122
  172MPD1    H1 2678   0.527   0.593   0.017  0.1432 -2.8460 -1.1503
  172MPD1    H2 2679   0.494   0.307   0.324  0.1696  0.6501  1.2540
  172MPD1    H3 2680   0.613   0.391   0.144  0.1042 -0.6073  0.0174
  172MPD1     N 2681   0.321   0.733   0.088 -0.0573  0.0896 -0.7095
  172MPD1    H5 2682   0.387   0.784   0.029  1.9086 -1.6569 -0.0437
  172MPD1    N1 2683   0.255   0.375   0.404  0.1780  0.0070  0.2605
  172MPD1    H6 2684   0.309   0.308   0.458  0.4264  0.6911  0.8693
  172MPD1    H7 2685   0.210   0.439   0.470  1.0317  0.2327  0.6200
  173MPD1     C 2686   1.375   0.943  14.294 -0.5483 -0.9423  0.4073
  173MPD1    C1 2687   1.258   0.878  14.269 -0.1152  0.2262  1.4758
  173MPD1    C2 2688   1.262   0.744  14.253 -0.2883 -0.9331  0.0368
  173MPD1    C3 2689   1.373   0.660  14.262  0.1894  0.2076  0.1139
  173MPD1    C4 2690   1.490   0.728  14.281 -0.0099  0.0817 -0.1193
  173MPD1    C5 2691   1.490   0.868  14.295 -0.4168 -0.1055 -0.0596
  173MPD1     H 2692   1.167   0.703  14.220 -0.8315 -0.1737  0.6417
  173MPD1    H1 2693   1.587   0.683  14.298 -0.6535 -1.5578 -0.8464
  173MPD1    H2 2694   1.388   1.050  14.305  1.6760 -0.9422 -2.1873
  173MPD1    H3 2695   1.586   0.918  14.310 -0.9952  0.5664  1.4836
  173MPD1     N 2696   1.355   0.524  14.264  0.0747  0.0710 -0.0847
  173MPD1    H5 2697   1.262   0.491  14.240  0.3208  0.9233 -2.1868
  173MPD1    N1 2698   1.129   0.946  14.267  0.6880 -0.6021 -0.1564
  173MPD1    H6 2699   1.061   0.911  14.199 -0.2143 -0.2469  0.5645
  173MPD1    H7 2700   1.133   1.047  14.254  1.0249 -0.7776 -1.4148
  174MPD1     C 2701   1.944   4.489  14.359  0.1101 -0.0889  0.1198
  174MPD1    C1 2702   1.869   4.503  14.250 -0.1863  0.4216  0.1249
  174MPD1    C2 2703   1.760   4.577  14.262  0.1588 -0.5090  0.1909
  174MPD1    C3 2704   1.714   4.625  14.382 -0.3834 -0.7836 -0.4790
  174MPD1    C4 2705   1.781   4.590  14.499 -0.6697  0.1116  0.2223
  174MPD1    C5 2706   1.896   4.517  14.484  0.4319  0.3709  0.0671
  174MPD1     H 2707   1.705   4.600  14.171  1.9577  1.4259 -0.4075
  174MPD1    H1 2708   1.752   4.631  14.595 -0.9494 -0.1496  0.2513
  174MPD1    H2 2709   2.042   4.443  14.356 -0.0209 -0.3027 -0.7674
  174MPD1    H3 2710   1.950   4.486  14.573  1.8006  0.0790 -0.8695
  174MPD1     N 2711   1.596   4.707  14.377  0.2821  0.2963 -0.1056
  174MPD1    H5 2712   1.562   4.739  14.286 -1.2481  0.2678  0.4532
  174MPD1    N1 2713   1.920   4.477  14.126 -0.0912  0.5514 -0.2519
  174MPD1    H6 2714   1.983   4.398  14.117 -1.0200 -0.1530 -0.6754
  174MPD1    H7 2715   1.850   4.443  14.060  2.1789 -3.4560 -0.5999
  175MPD1     C 2716   3.779   2.114  15.444  0.2982  0.3596  0.0867
  175MPD1    C1 2717   3.805   1.998  15.362  0.4921 -0.3541 -0.5104
  175MPD1    C2 2718   3.771   1.871  15.405 -0.0487  0.2172 -0.5105
  175MPD1    C3 2719   3.699   1.848  15.525 -0.1884  0.8875 -0.1436
  175MPD1    C4 2720   3.682   1.962  15.600 -0.4476 -0.2811 -0.0716
  175MPD1    C5 2721   3.722   2.094  15.570  0.6499  0.1463 -0.4793
  175MPD1     H 2722   3.803   1.787  15.345  0.1034 -0.1413  0.0721
  175MPD1    H1 2723   3.629   1.953  15.695 -1.5893  2.4074 -0.4763
  175MPD1    H2 2724   3.812   2.213  15.412  1.7286  0.2828  1.3270
  175MPD1    H3 2725   3.705   2.184  15.627  0.1142  0.1389 -0.6367
  175MPD1     N 2726   3.656   1.724  15.576  0.1977  0.1563 -0.3124
  175MPD1    H5 2727   3.613   1.722  15.668  1.1076 -0.2614  0.1043
  175MPD1    N1 2728   3.891   2.009  15.246 -0.2884  0.1284 -0.2466
  175MPD1    H6 2729   3.900   2.101  15.204 -1.5948  0.8490  1.0880
  175MPD1    H7 2730   3.869   1.932  15.183 -0.6815 -0.3204  0.4483
  176MPD1     C 2731   1.250   2.719  16.624 -0.2015  0.0676  0.6453
  176MPD1    C1 2732   1.300   2.829  16.564 -0.0613  0.5949 -0.3647
  176MPD1    C2 2733   1.327   2.940  16.645  0.1149 -0.4260  0.6501
  176MPD1    C3 2734   1.310   2.935  16.787  0.4382 -0.4506  0.1098
  176MPD1    C4 2735   1.259   2.817  16.839 -0.3376 -0.0681  0.0187
  176MPD1    C5 2736   1.229   2.712  16.758 -0.2070  0.3561  0.4412
  176MPD1     H 2737   1.378   3.025  16.602 -1.6418  0.1262 -0.3830
  176MPD1    H1 2738   1.255   2.809  16.947  2.8191  1.1023  0.2262
  176MPD1    H2 2739   1.208   2.642  16.561  0.8400 -1.5645  1.9701
  176MPD1    H3 2740   1.200   2.615  16.796 -0.6760 -0.2527 -1.4418
  176MPD1     N 2741   1.330   3.052  16.863 -0.3046  0.0535 -1.1176
  176MPD1    H5 2742   1.350   3.135  16.808 -0.1832  0.2801 -0.7297
  176MPD1    N1 2743   1.307   2.853  16.424  0.5008 -0.1026 -0.2215
  176MPD1    H6 2744   1.313   2.765  16.374  2.7284  1.2621 -2.3868
  176MPD1    H7 2745   1.388   2.912  16.407  0.7840 -0.6408 -0.7230
  177MPD1     C 2746   0.498   3.656  10.460  0.5424 -0.8549  0.1610
  177MPD1    C1 2747   0.458   3.530  10.495  0.4469 -0.5908 -1.0634
  177MPD1    C2 2748   0.350   3.476  10.435 -0.9762 -0.1766  0.0796
  177MPD1    C3 2749   0.275   3.545  10.342 -0.1783 -0.4528  0.0525
  177MPD1    C4 2750   0.312   3.675  10.317  0.2453  0.4693 -0.4997
  177MPD1    C5 2751   0.424   3.727  10.372  0.6227  0.5239 -0.6135
  177MPD1     H 2752   0.323   3.373  10.452  0.2621 -0.8388 -1.9306
  177MPD1    H1 2753   0.254   3.737  10.250 -0.9048 -0.6274 -0.5210
  177MPD1    H2 2754   0.591   3.696  10.499 -0.3611  1.8641 -0.4740
  177MPD1    H3 2755   0.458   3.828  10.349  2.8877 -0.0856  0.0078
  177MPD1     N 2756   0.154   3.488  10.294 -0.2669 -0.2313  0.5594
  177MPD1    H5 2757   0.125   3.401  10.339 -2.9510  0.7619  0.7003
  177MPD1    N1 2758   0.536   3.452  10.577  0.2032  0.2561  0.0449
  177MPD1    H6 2759   0.477   3.392  10.634 -0.0377  0.7117  0.2745
  177MPD1    H7 2760   0.610   3.502  10.625 -0.7567  1.1831  0.5780
  178MPD1     C 2761   2.040   3.734   0.594 -0.3772  0.3340 -0.2547
  178MPD1    C1 2762   1.961   3.668   0.501  0.5924  0.0412 -0.4263
  178MPD1    C2 2763   1.999   3.675   0.369 -0.2364  0.5766  0.5299
  178MPD1    C3 2764   2.106   3.760   0.337 -0.5660 -0.7268  0.2226
  178MPD1    C4 2765   2.180   3.831   0.434  0.0277  0.2532  0.3484
  178MPD1    C5 2766   2.150   3.806   0.559  0.3268  0.0055  0.0112
  178MPD1     H 2767   1.944   3.637   0.283 -0.1356 -1.4602  1.3761
  178MPD1    H1 2768   2.269   3.890   0.415 -0.3251  0.2852 -1.2096
  178MPD1    H2 2769   2.006   3.743   0.696  0.1019  0.5701 -0.1120
  178MPD1    H3 2770   2.197   3.861   0.640 -0.9555 -0.4818  1.0878
  178MPD1     N 2771   2.164   3.774   0.206 -0.2166 -0.0443 -0.0856
  178MPD1    H5 2772   2.226   3.853   0.191 -0.4778 -0.2256 -2.0090
  178MPD1    N1 2773   1.863   3.581   0.541 -0.3461 -0.1696  0.5022
  178MPD1    H6 2774   1.830   3.612   0.632 -0.5908 -1.2478  0.7887
  178MPD1    H7 2775   1.779   3.592   0.485 -1.1671 -0.8724  1.5885
  179MPD1     C 2776   1.538   2.284  14.752 -0.6976 -0.1020  0.3378
  179MPD1    C1 2777   1.584   2.201  14.849 -0.4480 -0.7754 -0.3527
  179MPD1    C2 2778   1.528   2.211  14.973  0.3748 -0.8455  0.4138
  179MPD1    C3 2779   1.430   2.301  15.009  0.1968  0.0611  0.1679
  179MPD1    C4 2780   1.376   2.387  14.910 -0.0822 -0.3738  0.6460
  179MPD1    C5 2781   1.425   2.372  14.777  0.1315 -0.4795 -0.3613
  179MPD1     H 2782   1.579   2.145  15.042  2.3165 -1.6924 -1.8267
  179MPD1    H1 2783   1.295   2.455  14.937  1.5421  1.6794  0.3405
  179MPD1    H2 2784   1.582   2.280  14.653 -1.2098 -0.6366  0.1319
  179MPD1    H3 2785   1.392   2.436  14.696  0.2419 -0.6799 -0.5646
  179MPD1     N 2786   1.374   2.307  15.140  0.0491  0.2905  0.4327
  179MPD1    H5 2787   1.291   2.365  15.141 -0.0939  0.0868  0.3773
  179MPD1    N1 2788   1.695   2.125  14.828  0.4980 -0.2599  0.2233
  179MPD1    H6 2789   1.702   2.038  14.880  0.3150  0.4162  1.3859
  179MPD1    H7 2790   1.700   2.108  14.728 -0.9360 -3.2792  0.6815
  180MPD1     C 2791   1.387   3.297  15.371  0.5501  0.2391 -0.1308
  180MPD1    C1 2792   1.492   3.374  15.324  0.1625 -0.8743  0.1265
  180MPD1    C2 2793   1.460   3.437  15.208 -0.7448  0.3330  0.0990
  180MPD1    C3 2794   1.346   3.418  15.130 -0.4977  0.7612  0.0715
  180MPD1    C4 2795   1.257   3.326  15.176 -0.2259  0.6753 -0.3105
  180MPD1    C5 2796   1.279   3.261  15.294  0.0007 -0.1444 -0.3995
  180MPD1     H 2797   1.528   3.512  15.169  0.0277 -1.4963 -2.1082
  180MPD1    H1 2798   1.160   3.310  15.130 -0.1178 -1.1720  0.1228
  180MPD1    H2 2799   1.383   3.245  15.466 -0.8316 -0.1401 -0.3902
  180MPD1    H3 2800   1.197   3.204  15.338 -0.2925  0.4047 -0.2291
  180MPD1     N 2801   1.332   3.486  15.006 -0.8080 -0.1347 -0.1601
  180MPD1    H5 2802   1.409   3.547  14.979  0.4313 -1.5424  0.2278
  180MPD1    N1 2803   1.605   3.413  15.402 -0.2554 -0.6220 -0.0215
  180MPD1    H6 2804   1.637   3.340  15.465 -0.5285  0.0548  0.9045
  180MPD1    H7 2805   1.680   3.457  15.349  2.0377 -1.2510  2.6946
  181MPD1     C 2806   2.219   0.590  10.134  0.5255 -0.8552  0.3644
  181MPD1    C1 2807   2.280   0.705  10.081 -0.2860  0.0058  0.4313
  181MPD1    C2 2808   2.416   0.740  10.111 -0.3801 -0.0411 -0.1367
  181MPD1    C3 2809   2.490   0.654  10.194  0.5547  0.2221 -0.0542
  181MPD1    C4 2810   2.430   0.541  10.246  0.0246  0.2370  0.3262
  181MPD1    C5 2811   2.300   0.507  10.203 -0.8956 -0.3891 -0.4386
  181MPD1     H 2812   2.455   0.831  10.067 -0.3871 -0.6534 -1.3860
  181MPD1    H1 2813   2.482   0.469  10.309 -2.0768 -1.7020 -0.1628
  181MPD1    H2 2814   2.111   0.577  10.127  0.3620  1.0172 -0.5498
  181MPD1    H3 2815   2.253   0.424  10.254  0.7049  1.0568  3.3930
  181MPD1     N 2816   2.624   0.672  10.239 -0.1408  0.3428 -0.7002
  181MPD1    H5 2817   2.672   0.587  10.269  0.4123  0.5227 -1.0830
  181MPD1    N1 2818   2.205   0.785   9.988 -0.0754  0.1475 -0.3863
  181MPD1    H6 2819   2.111   0.788  10.028 -0.0665  0.7782 -0.4159
  181MPD1    H7 2820   2.228   0.884   9.993  1.3175 -0.2501  1.3933
  182MPD1     C 2821   0.716   4.633   1.521 -0.7329 -0.3121  0.6637
  182MPD1    C1 2822   0.716   4.576   1.396  0.3303  0.7420  0.2460
  182MPD1    C2 2823   0.606   4.506   1.350  0.6773  0.4862 -0.0745
  182MPD1    C3 2824   0.484   4.518   1.406 -0.1271  0.3227 -0.5074
  182MPD1    C4 2825   0.482   4.594   1.526  0.3165 -0.6658 -0.2328
  182MPD1    C5 2826   0.596   4.645   1.588  0.5868  0.9917  0.4763
  182MPD1     H 2827   0.615   4.456   1.254  0.7624  0.7302 -0.1954
  182MPD1    H1 2828   0.393   4.597   1.588 -0.3345  0.6676 -1.2149
  182MPD1    H2 2829   0.807   4.679   1.559 -0.7078  0.5755 -0.4470
  182MPD1    H3 2830   0.599   4.693   1.685 -0.1034  1.4137  0.2921
  182MPD1     N 2831   0.361   4.477   1.347  0.2243  0.6803  0.0258
  182MPD1    H5 2832   0.276   4.521   1.381 -0.6127 -0.6601 -0.2945
  182MPD1    N1 2833   0.836   4.565   1.330  0.2958 -0.7299 -0.2778
  182MPD1    H6 2834   0.829   4.539   1.232  0.6440 -0.6343 -0.3250
  182MPD1    H7 2835   0.905   4.639   1.344 -0.0620 -0.6800  1.2690
  183MPD1     C 2836   3.481   4.209   8.875 -0.2901 -0.0821 -0.2593
  183MPD1    C1 2837   3.480   4.350   8.887 -0.5403 -0.5544  0.1404
  183MPD1    C2 2838   3.491   4.412   9.015 -0.0890 -0.0141  0.4033
  183MPD1    C3 2839   3.532   4.335   9.122 -0.1104  0.0636 -0.3525
  183MPD1    C4 2840   3.545   4.193   9.109  1.0622  0.4993 -0.2029
  183MPD1    C5 2841   3.524   4.141   8.985  0.1913 -0.2079  0.2552
  183MPD1     H 2842   3.494   4.520   9.017 -2.1106  0.0473  0.2020
  183MPD1    H1 2843   3.572   4.122   9.187 -0.6574  1.6680  1.4934
  183MPD1    H2 2844   3.464   4.163   8.778 -0.4121 -2.5580  0.9275
  183MPD1    H3 2845   3.532   4.033   8.976  1.3078  0.0176 -1.3808
  183MPD1     N 2846   3.541   4.400   9.247  0.1453 -0.5378  0.6557
  183MPD1    H5 2847   3.503   4.494   9.234  1.4289  0.0231  0.9190
  183MPD1    N1 2848   3.450   4.430   8.776  0.0551 -0.1500 -0.3278
  183MPD1    H6 2849   3.466   4.382   8.688 -0.1092 -1.8941  0.6137
  183MPD1    H7 2850   3.487   4.525   8.780  0.1230 -0.0889 -2.2410
  184MPD1     C 2851   4.016   3.196   9.540  0.0570 -0.3957  0.1232
  184MPD1    C1 2852   3.963   3.273   9.445 -1.0093  0.7868 -0.2217
  184MPD1    C2 2853   3.848   3.341   9.480  0.2011  0.0062 -0.4079
  184MPD1    C3 2854   3.786   3.325   9.606  0.4401 -0.2906  0.1314
  184MPD1    C4 2855   3.847   3.253   9.706 -0.8700  0.7365 -0.7939
  184MPD1    C5 2856   3.958   3.183   9.668 -0.3641 -0.2405  0.6110
  184MPD1     H 2857   3.815   3.413   9.406  0.1881  0.1097 -0.3006
  184MPD1    H1 2858   3.807   3.217   9.800 -0.9243 -0.4918 -1.2877
  184MPD1    H2 2859   4.105   3.137   9.519  1.0183  2.3251 -3.3246
  184MPD1    H3 2860   4.011   3.119   9.738  2.6358  0.4689 -1.0253
  184MPD1     N 2861   3.660   3.383   9.637 -0.4516 -0.4788 -0.0402
  184MPD1    H5 2862   3.633   3.379   9.735 -0.0836 -1.9823 -0.0024
  184MPD1    N1 2863   4.013   3.270   9.313 -0.3441  0.0853  0.0383
  184MPD1    H6 2864   4.115   3.274   9.312 -0.4544  2.8534 -0.3652
  184MPD1    H7 2865   3.983   3.357   9.269 -0.1149  0.8079  1.3201
  185MPD1     C 2866   2.734   3.849   9.184  0.3621 -0.4665 -0.2903
  185MPD1    C1 2867   2.801   3.737   9.145 -0.8322  0.1155 -0.4092
  185MPD1    C2 2868   2.902   3.684   9.228  0.7742  1.1072  0.1024
  185MPD1    C3 2869   2.938   3.748   9.345 -0.0986  0.5324  0.2565
  185MPD1    C4 2870   2.869   3.868   9.377  0.2724 -0.0573  0.2683
  185MPD1    C5 2871   2.775   3.918   9.298 -0.0809 -0.1111 -0.7049
  185MPD1     H 2872   2.940   3.586   9.203 -0.5923  0.7862 -0.6916
  185MPD1    H1 2873   2.885   3.930   9.464 -2.1073  0.0835  0.6112
  185MPD1    H2 2874   2.646   3.888   9.134  0.5509  0.0208 -0.2419
  185MPD1    H3 2875   2.717   4.002   9.334  0.8263  0.2812 -0.1612
  185MPD1     N 2876   3.036   3.706   9.445 -0.7992 -0.1347  0.4463
  185MPD1    H5 2877   3.041   3.758   9.532 -1.8191  0.8878 -0.1094
  185MPD1    N1 2878   2.731   3.654   9.055  0.1018 -0.1446 -0.3324
  185MPD1    H6 2879   2.704   3.702   8.969 -0.9337 -0.1707 -0.0119
  185MPD1    H7 2880   2.792   3.584   9.014  1.9525  0.8764  0.6704
  186MPD1     C 2881   2.206   2.683  15.394 -1.0909 -0.9553 -0.3540
  186MPD1    C1 2882   2.113   2.601  15.447  0.2288 -0.2072  0.2417
  186MPD1    C2 2883   2.089   2.605  15.577 -0.0627 -0.1436  0.8270
  186MPD1    C3 2884   2.145   2.704  15.656  0.0292  0.3422 -0.5831
  186MPD1    C4 2885   2.233   2.793  15.605  0.2734 -0.3449 -1.0574
  186MPD1    C5 2886   2.255   2.787  15.465  0.2422 -0.2199 -0.4540
  186MPD1     H 2887   2.012   2.541  15.617  0.9727 -0.6440  2.0242
  186MPD1    H1 2888   2.275   2.877  15.659  0.3570 -1.4206  0.5504
  186MPD1    H2 2889   2.224   2.690  15.287  1.7536  0.4870  0.2179
  186MPD1    H3 2890   2.322   2.857  15.415  2.0049 -0.1174  2.0904
  186MPD1     N 2891   2.103   2.732  15.788  0.1093 -0.1851  0.6424
  186MPD1    H5 2892   2.145   2.817  15.823 -1.7716  0.6071  0.9857
  186MPD1    N1 2893   2.078   2.484  15.375  0.0644  0.3080 -0.6166
  186MPD1    H6 2894   2.062   2.496  15.275  0.1295 -3.1249 -1.0443
  186MPD1    H7 2895   2.000   2.431  15.413  0.2367  0.4481 -0.0748
  187MPD1     C 2896   1.856   3.847  17.237 -0.1541 -0.5948  0.4162
  187MPD1    C1 2897   1.730   3.790  17.264 -0.1734  0.1365  0.1562
  187MPD1    C2 2898   1.610   3.864  17.273  0.0796 -0.1759  0.3815
  187MPD1    C3 2899   1.624   3.998  17.238  0.6406 -0.3663  0.2527
  187MPD1    C4 2900   1.745   4.058  17.203 -0.2229 -0.0640  0.0576
  187MPD1    C5 2901   1.852   3.981  17.203  0.2729  0.2749  0.7396
  187MPD1     H 2902   1.514   3.826  17.306 -0.7831  2.9105  1.4152
  187MPD1    H1 2903   1.751   4.164  17.186  2.0976 -0.7972 -3.6573
  187MPD1    H2 2904   1.951   3.796  17.231 -0.3502 -0.9385  0.2827
  187MPD1    H3 2905   1.946   4.027  17.175 -0.0324  0.3137 -0.2096
  187MPD1     N 2906   1.517   4.085  17.251 -0.0054  0.2025 -0.3186
  187MPD1    H5 2907   1.539   4.180  17.225 -3.4134  0.8170 -0.9529
  187MPD1    N1 2908   1.712   3.651  17.271 -0.5999  0.4358 -0.2072
  187MPD1    H6 2909   1.633   3.632  17.332 -0.3279  0.0691  0.0267
  187MPD1    H7 2910   1.793   3.602  17.306 -0.5096 -0.1891 -1.3016
  188MPD1     C 2911   1.434   4.243  10.317  0.0762 -0.3054  0.7953
  188MPD1    C1 2912   1.446   4.154  10.421  0.2106  0.2482  0.3557
  188MPD1    C2 2913   1.402   4.033  10.400  0.5603 -0.9620 -0.3134
  188MPD1    C3 2914   1.373   3.984  10.277 -0.1052 -0.5529 -0.0893
  188MPD1    C4 2915   1.380   4.073  10.169  0.5459  0.1480  0.2842
  188MPD1    C5 2916   1.401   4.203  10.190 -0.0507 -0.0435  0.0077
  188MPD1     H 2917   1.414   3.973  10.489 -1.2891  0.7240  1.0625
  188MPD1    H1 2918   1.358   4.047  10.066  2.4694  1.6601 -0.5223
  188MPD1    H2 2919   1.467   4.346  10.323 -0.5319 -0.0767  0.1483
  188MPD1    H3 2920   1.409   4.276  10.110 -1.7127  0.3731  0.2121
  188MPD1     N 2921   1.343   3.850  10.245  0.0970 -0.6901  0.5212
  188MPD1    H5 2922   1.316   3.834  10.148  0.2879  0.6033  0.2559
  188MPD1    N1 2923   1.461   4.192  10.552  0.1630  0.1507  0.6780
  188MPD1    H6 2924   1.518   4.128  10.606  1.4068  1.7297  1.2698
  188MPD1    H7 2925   1.502   4.285  10.564  0.6950 -0.1814  1.4294
  189MPD1     C 2926   3.282   0.496   0.365  0.1895  0.0076 -0.1855
  189MPD1    C1 2927   3.253   0.435   0.248  0.4078  0.3946  0.0132
  189MPD1    C2 2928   3.144   0.479   0.181 -0.9315  0.3599 -0.1773
  189MPD1    C3 2929   3.069   0.589   0.222  0.3225 -0.5904  0.6873
  189MPD1    C4 2930   3.099   0.646   0.341 -0.6924  0.2604  0.3755
  189MPD1    C5 2931   3.208   0.608   0.407 -0.1027  0.5030  0.4220
  189MPD1     H 2932   3.112   0.425   0.092  0.3494 -0.0801 -0.3653
  189MPD1    H1 2933   3.036   0.721   0.390  1.3172  2.2848 -0.1428
  189MPD1    H2 2934   3.369   0.472   0.425 -0.4703 -3.4328 -0.6300
  189MPD1    H3 2935   3.239   0.648   0.503  0.7593 -1.4226  0.9493
  189MPD1     N 2936   2.952   0.622   0.161 -0.3480  0.0930  0.5992
  189MPD1    H5 2937   2.919   0.548   0.101 -1.7950  0.3880  1.0241
  189MPD1    N1 2938   3.323   0.315   0.213  0.4451 -0.0329  0.0981
  189MPD1    H6 2939   3.414   0.305   0.259 -0.8489  0.1555  2.7143
  189MPD1    H7 2940   3.337   0.297   0.114  0.0267 -0.1680  0.0621
  190MPD1     C 2941   1.769   3.674  15.265 -0.3956 -0.0167 -0.0927
  190MPD1    C1 2942   1.869   3.582  15.258  0.4808  0.2233 -0.5951
  190MPD1    C2 2943   1.970   3.602  15.351 -0.7390  0.5180  0.3816
  190MPD1    C3 2944   1.989   3.706  15.437 -0.2624  0.2549 -0.2520
  190MPD1    C4 2945   1.898   3.808  15.418 -0.2031  0.0066 -0.1683
  190MPD1    C5 2946   1.785   3.792  15.333 -0.0976 -0.2312  0.2188
  190MPD1     H 2947   2.046   3.524  15.350 -0.3916  0.8629 -0.2997
  190MPD1    H1 2948   1.894   3.891  15.488 -1.3903  0.4745 -0.7903
  190MPD1    H2 2949   1.674   3.676  15.211 -0.7099 -0.0493  0.4568
  190MPD1    H3 2950   1.707   3.867  15.335 -1.0422 -1.1930 -0.6478
  190MPD1     N 2951   2.088   3.695  15.541 -0.5089 -0.4799  0.5967
  190MPD1    H5 2952   2.155   3.619  15.538  0.1633  0.1010  1.0122
  190MPD1    N1 2953   1.848   3.455  15.194  0.1169  0.4762  0.2243
  190MPD1    H6 2954   1.785   3.453  15.114  0.2836 -1.9058  0.1437
  190MPD1    H7 2955   1.940   3.425  15.162 -1.2045 -3.9362  0.5732
  191MPD1     C 2956   0.332   0.998  13.001 -0.2864 -1.5524  0.4139
  191MPD1    C1 2957   0.310   1.117  12.934 -0.2667 -0.4129 -0.5574
  191MPD1    C2 2958   0.416   1.188  12.881 -0.3561 -0.2042  0.0971
  191MPD1    C3 2959   0.542   1.132  12.877 -0.2937 -0.0722 -0.0731
  191MPD1    C4 2960   0.561   1.011  12.932 -0.1604  0.1665 -0.3745
  191MPD1    C5 2961   0.460   0.938  12.994  0.2601 -0.0886  0.2011
  191MPD1     H 2962   0.403   1.275  12.817 -0.6616  0.1843  0.6854
  191MPD1    H1 2963   0.657   0.961  12.924  0.1323  0.2758  2.2951
  191MPD1    H2 2964   0.259   0.947  13.062 -0.9913 -0.6150  0.3529
  191MPD1    H3 2965   0.485   0.844  13.043  1.7142  0.4443  0.4749
  191MPD1     N 2966   0.646   1.197  12.811 -0.2692  0.5032 -0.0299
  191MPD1    H5 2967   0.606   1.270  12.753 -0.6200 -1.5692 -2.3609
  191MPD1    N1 2968   0.184   1.175  12.923 -0.0397  0.0325  0.0880
  191MPD1    H6 2969   0.152   1.216  12.835 -0.0798 -0.4963 -0.1434
  191MPD1    H7 2970   0.117   1.116  12.971 -0.1814 -0.0180 -0.1767
  192MPD1     C 2971   0.797   1.676  11.949  0.3641  0.3949  0.1605
  192MPD1    C1 2972   0.703   1.597  11.999  0.7151 -0.2983 -0.5760
  192MPD1    C2 2973   0.740   1.523  12.108 -0.2762 -0.2368  0.1349
  192MPD1    C3 2974   0.855   1.545  12.179 -0.5348  0.2357  0.3384
  192MPD1    C4 2975   0.939   1.643  12.130  0.4219  0.3569 -0.2393
  192MPD1    C5 2976   0.910   1.698  12.011 -0.6683  0.7159  0.2362
  192MPD1     H 2977   0.671   1.448  12.143  1.8946 -2.6902 -0.8809
  192MPD1    H1 2978   1.033   1.669  12.178  1.0324 -0.1445 -1.1298
  192MPD1    H2 2979   0.785   1.726  11.853 -2.5168 -2.8768 -1.1670
  192MPD1    H3 2980   0.981   1.760  11.958 -0.7493  1.0896  0.5709
  192MPD1     N 2981   0.880   1.484  12.300  1.0199  0.1326 -0.3457
  192MPD1    H5 2982   0.972   1.497  12.340  0.7805 -0.0858  0.2747
  192MPD1    N1 2983   0.593   1.554  11.913  0.2846  0.2406  0.4159
  192MPD1    H6 2984   0.519   1.503  11.960 -0.7664  0.3342 -1.1458
  192MPD1    H7 2985   0.555   1.631  11.859  1.3618 -0.0907 -0.8329
  193MPD1     C 2986   4.441   1.136  16.048  0.4142 -0.4200  0.2107
  193MPD1    C1 2987   4.554   1.058  16.047 -0.2641  0.8703  0.8519
  193MPD1    C2 2988   4.681   1.119  16.048 -0.2948 -0.1499 -0.5075
  193MPD1    C3 2989   4.690   1.259  16.071 -0.6727  0.2558 -0.3007
  193MPD1    C4 2990   4.571   1.330  16.088  0.0789  0.4614 -0.4552
  193MPD1    C5 2991   4.452   1.269  16.066  0.3836 -0.6335  0.3924
  193MPD1     H 2992   0.029   1.057  16.041  0.3852  0.9170 -1.3007
  193MPD1    H1 2993   4.574   1.436  16.107 -1.5486  0.5241 -0.5251
  193MPD1    H2 2994   4.341   1.095  16.039 -0.1528  1.1944 -0.7644
  193MPD1    H3 2995   4.362   1.329  16.069 -0.5401 -2.0290  0.5449
  193MPD1     N 2996   0.079   1.321  16.080  0.2955 -0.3766 -1.0756
  193MPD1    H5 2997   0.075   1.408  16.133  1.1383 -0.3666 -1.0381
  193MPD1    N1 2998   4.543   0.919  16.027  0.2114 -0.6193  0.0323
  193MPD1    H6 2999   4.484   0.890  16.105  0.2179 -0.5783  0.0524
  193MPD1    H7 3000   4.634   0.874  16.037  1.9549  2.7486 -0.5734
  194MPD1     C 3001   3.026   3.163  17.112 -0.0255 -0.2437 -0.5523
  194MPD1    C1 3002   3.164   3.175  17.111  0.3779 -0.5952 -0.0473
  194MPD1    C2 3003   3.233   3.056  17.122  0.9751  0.2338 -0.0367
  194MPD1    C3 3004   3.179   2.932  17.123 -0.2811  0.4793  0.8257
  194MPD1    C4 3005   3.043   2.918  17.097 -0.3356  0.1537 -0.0611
  194MPD1    C5 3006   2.966   3.034  17.105  0.2898  0.7423 -0.3296
  194MPD1     H 3007   3.336   3.072  17.151  1.4677  0.6364 -2.0177
  194MPD1    H1 3008   2.994   2.825  17.072  2.7561 -1.5366  0.1535
  194MPD1    H2 3009   2.962   3.247  17.131  0.2207 -0.1031 -0.3429
  194MPD1    H3 3010   2.862   3.021  17.080 -0.1614  0.6956  1.6055
  194MPD1     N 3011   3.251   2.814  17.129  0.5783 -0.3280  0.3698
  194MPD1    H5 3012   3.189   2.735  17.115 -0.6310  0.9299 -1.4139
  194MPD1    N1 3013   3.225   3.301  17.107 -0.3169 -0.6885 -0.3251
  194MPD1    H6 3014   3.320   3.301  17.072  0.1764  0.8971  1.0449
  194MPD1    H7 3015   3.162   3.376  17.078  0.7027 -0.1974 -1.2242
  195MPD1     C 3016   1.773   4.561   0.519 -0.4567  0.4143  0.1544
  195MPD1    C1 3017   1.642   4.529   0.555 -0.7676  0.0830  0.6647
  195MPD1    C2 3018   1.568   4.460   0.460 -0.0649  0.4600  0.4553
  195MPD1    C3 3019   1.622   4.395   0.355  0.9966  0.3403  0.0165
  195MPD1    C4 3020   1.759   4.389   0.340  0.0549 -0.2870 -0.8404
  195MPD1    C5 3021   1.828   4.482   0.416 -0.2007 -0.7219  0.3690
  195MPD1     H 3022   1.462   4.469   0.481 -0.2353 -0.7035  0.0800
  195MPD1    H1 3023   1.796   4.345   0.249  0.3358 -0.3589 -0.6905
  195MPD1    H2 3024   1.829   4.637   0.573 -1.8860  0.6553  1.3035
  195MPD1    H3 3025   1.930   4.499   0.384 -0.2699 -1.3715 -0.2193
  195MPD1     N 3026   1.550   4.319   0.266  0.0725 -0.1514  0.6692
  195MPD1    H5 3027   1.603   4.272   0.193  0.9398  1.4190  0.3130
  195MPD1    N1 3028   1.572   4.597   0.658 -0.0993 -0.7039 -0.0305
  195MPD1    H6 3029   1.481   4.561   0.684 -0.8397  0.5192 -0.9360
  195MPD1    H7 3030   1.622   4.621   0.744 -1.4320  0.1159  0.5203
  196MPD1     C 3031   1.003   0.078   0.044 -0.1748 -0.1072 -1.1376
  196MPD1    C1 3032   0.894   0.081  17.716 -0.4109 -0.4929  0.5950
  196MPD1    C2 3033   0.774   0.037   0.010 -0.4899 -0.0551 -0.2851
  196MPD1    C3 3034   0.768   4.729   0.135  0.3200 -0.8534  1.0589
  196MPD1    C4 3035   0.875   4.738   0.223 -0.1673 -0.2710  0.4535
  196MPD1    C5 3036   0.992   0.030   0.173 -0.4659  0.7496 -0.7815
  196MPD1     H 3037   0.683   0.034  17.709 -0.8523  0.1808  0.2720
  196MPD1    H1 3038   0.871   4.708   0.327  1.5022  2.5951  1.3411
  196MPD1    H2 3039   1.098   0.115   0.007  0.3410  0.0522  0.3484
  196MPD1    H3 3040   1.081   0.029   0.235  0.5491  1.0895 -2.2431
  196MPD1     N 3041   0.646   4.678   0.189  0.3298 -0.2621  0.0723
  196MPD1    H5 3042   0.641   4.647   0.285 -0.5003 -2.3226 -0.6339
  196MPD1    N1 3043   0.904   0.145  17.589  0.4163  0.3167 -0.0656
  196MPD1    H6 3044   0.985   0.116  17.535  1.4028  2.2043  0.4133
  196MPD1    H7 3045   0.826   0.115  17.531  0.6824 -0.6253  0.0617
  197MPD1     C 3046   3.908   1.122  17.318 -0.7080 -0.4532  0.0965
  197MPD1    C1 3047   4.035   1.173  17.289 -0.0211 -0.2343  0.6217
  197MPD1    C2 3048   4.035   1.261  17.176  0.8477  0.1188 -0.2861
  197MPD1    C3 3049   3.922   1.276  17.093  0.4084  0.1706 -0.0628
  197MPD1    C4 3050   3.799   1.209  17.122  0.3408 -0.4263  0.2945
  197MPD1    C5 3051   3.802   1.138  17.241  0.0693 -0.0984 -0.3630
  197MPD1     H 3052   4.120   1.320  17.146  1.5524 -0.5736  0.3618
  197MPD1    H1 3053   3.706   1.216  17.066  0.2148  0.3335  0.5992
  197MPD1    H2 3054   3.890   1.049  17.396 -1.8192 -0.1235  0.1596
  197MPD1    H3 3055   3.716   1.074  17.259 -0.2904  0.9775  1.6097
  197MPD1     N 3056   3.925   1.363  16.985  0.4866  0.2844 -0.0024
  197MPD1    H5 3057   3.850   1.367  16.917  0.3204  0.6323  0.2005
  197MPD1    N1 3058   4.134   1.184  17.387  0.3323  0.0906 -0.6598
  197MPD1    H6 3059   4.127   1.112  17.458 -0.3767  0.6084 -0.2068
  197MPD1    H7 3060   4.229   1.196  17.354  1.0568 -0.0237  1.3743
  198MPD1     C 3061   1.363   1.182  15.823 -0.2664  0.5963  0.6352
  198MPD1    C1 3062   1.478   1.161  15.744  0.7962 -0.2534  0.2267
  198MPD1    C2 3063   1.538   1.035  15.738 -0.1763  0.3198  0.2203
  198MPD1    C3 3064   1.472   0.928  15.795 -0.2926 -0.4416 -0.1595
  198MPD1    C4 3065   1.347   0.942  15.847  0.1758 -0.0277 -0.2978
  198MPD1    C5 3066   1.298   1.071  15.865  0.3879 -0.1408  0.4485
  198MPD1     H 3067   1.635   1.027  15.691 -0.8213 -1.0571 -0.8849
  198MPD1    H1 3068   1.295   0.858  15.891 -0.0699  0.7609  0.9013
  198MPD1    H2 3069   1.338   1.282  15.857  1.0012  1.1749 -0.1196
  198MPD1    H3 3070   1.203   1.091  15.913  0.3214 -0.3873  0.4196
  198MPD1     N 3071   1.540   0.801  15.782  0.4488 -0.1448  0.5323
  198MPD1    H5 3072   1.629   0.809  15.733 -1.0014 -0.5615 -2.2080
  198MPD1    N1 3073   1.554   1.272  15.712 -0.0328  0.2606 -0.1377
  198MPD1    H6 3074   1.506   1.360  15.727 -1.3423 -0.5196  0.2122
  198MPD1    H7 3075   1.589   1.267  15.616 -1.8598 -0.9895 -0.7235
  199MPD1     C 3076   3.203   0.597   9.846  0.0162 -0.8999  0.1486
  199MPD1    C1 3077   3.318   0.669   9.864 -0.7172  0.5832  0.0272
  199MPD1    C2 3078   3.304   0.811   9.872  0.5283 -0.4748 -0.3864
  199MPD1    C3 3079   3.177   0.871   9.884  0.3044  0.5384  0.0127
  199MPD1    C4 3080   3.070   0.789   9.887 -0.0520 -0.8957 -0.2164
  199MPD1    C5 3081   3.079   0.651   9.868  0.2376 -0.3771 -0.1149
  199MPD1     H 3082   3.392   0.875   9.871 -0.8982  1.5364  2.8670
  199MPD1    H1 3083   2.973   0.835   9.901 -0.2928 -1.2692 -0.6445
  199MPD1    H2 3084   3.212   0.491   9.825  0.5979 -0.9559  0.6630
  199MPD1    H3 3085   2.988   0.596   9.846  0.7089 -1.6135  1.0322
  199MPD1     N 3086   3.157   1.008   9.911 -0.0343 -0.3931  0.0374
  199MPD1    H5 3087   3.059   1.029   9.927  0.0857 -0.6803  1.1616
  199MPD1    N1 3088   3.442   0.604   9.856  0.0762 -0.6082 -0.1285
  199MPD1    H6 3089   3.490   0.624   9.943 -1.5032 -3.2277  1.3700
  199MPD1    H7 3090   3.439   0.502   9.852  1.6302 -0.7523  2.7454
  200MPD1     C 3091   2.957   0.677  14.491 -0.3778 -0.3218 -0.1559
  200MPD1    C1 3092   2.847   0.751  14.530  0.6322 -0.9397 -0.3985
  200MPD1    C2 3093   2.766   0.801  14.426 -0.5604  0.4947 -0.5639
  200MPD1    C3 3094   2.795   0.779  14.292  0.1928 -0.1687  0.4600
  200MPD1    C4 3095   2.908   0.719  14.259 -0.4780  0.1807  0.2075
  200MPD1    C5 3096   2.989   0.671  14.357 -0.0295  0.3435 -0.6214
  200MPD1     H 3097   2.688   0.876  14.440 -0.4351  0.5700 -0.2652
  200MPD1    H1 3098   2.946   0.702  14.159 -0.3228  1.4902  0.0397
  200MPD1    H2 3099   3.022   0.620  14.556  0.5029  0.1589 -0.6203
  200MPD1    H3 3100   3.085   0.624  14.336  0.7240  0.7508  1.9235
  200MPD1     N 3101   2.703   0.831  14.196 -0.2182  0.2347 -0.0421
  200MPD1    H5 3102   2.617   0.878  14.225 -0.7347 -0.3066 -0.6817
  200MPD1    N1 3103   2.834   0.795  14.667  0.3647 -0.0217 -0.4024
  200MPD1    H6 3104   2.866   0.714  14.719  0.8587 -0.0716 -0.7851
  200MPD1    H7 3105   2.736   0.810  14.691  0.5855  2.9319 -1.2894
  201MPD1     C 3106   3.935   4.450  13.712  0.4554 -0.0773 -0.1186
  201MPD1    C1 3107   4.014   4.348  13.762 -0.4001 -0.2327  0.0148
  201MPD1    C2 3108   4.145   4.341  13.713 -0.0479 -0.1613  0.7103
  201MPD1    C3 3109   4.202   4.435  13.624 -0.3866 -0.3957  0.5094
  201MPD1    C4 3110   4.126   4.545  13.592  0.2648 -0.0750 -0.5169
  201MPD1    C5 3111   3.996   4.546  13.632  0.5805 -0.0385  0.1575
  201MPD1     H 3112   4.208   4.260  13.748 -1.7801 -1.0696  1.6881
  201MPD1    H1 3113   4.163   4.624  13.528 -0.1780  1.7367  1.4386
  201MPD1    H2 3114   3.829   4.456  13.733  0.2759 -2.3799 -0.4211
  201MPD1    H3 3115   3.926   4.626  13.614  0.3429 -0.2703  0.0552
  201MPD1     N 3116   4.341   4.423  13.610 -0.2779  0.7062  0.4521
  201MPD1    H5 3117   4.379   4.335  13.645 -1.9503 -0.5296 -0.8039
  201MPD1    N1 3118   3.957   4.249  13.844 -0.3641 -0.1556 -0.2367
  201MPD1    H6 3119   4.024   4.206  13.909 -0.7259  0.6939  0.6901
  201MPD1    H7 3120   3.872   4.280  13.890 -0.5227  0.5696 -1.0287
  202MPD1     C 3121   4.646   3.706   9.016 -0.5364  0.2000 -0.0487
  202MPD1    C1 3122   4.527   3.742   9.072 -0.3105  0.1871  0.5425
  202MPD1    C2 3123   4.547   3.812   9.192 -0.3851 -0.2491 -0.3303
  202MPD1    C3 3124   4.658   3.884   9.225  0.2122 -0.4339  0.0230
  202MPD1    C4 3125   0.032   3.854   9.155  0.1670 -0.0356  0.6710
  202MPD1    C5 3126   0.022   3.759   9.053  0.2953 -0.4158 -0.1003
  202MPD1     H 3127   4.457   3.849   9.241  1.0893  0.9857  1.4604
  202MPD1    H1 3128   0.126   3.905   9.174 -0.1130  0.7435 -0.0271
  202MPD1    H2 3129   4.655   3.637   8.932 -0.7689 -0.9683  0.8934
  202MPD1    H3 3130   0.114   3.730   9.003  0.4153  0.8934 -0.6454
  202MPD1     N 3131   4.661   3.990   9.322 -0.4326  0.2851 -0.1682
  202MPD1    H5 3132   0.008   4.041   9.318 -0.4055  0.2857  0.5266
  202MPD1    N1 3133   4.411   3.669   9.058  0.3663 -0.0930 -0.4372
  202MPD1    H6 3134   4.400   3.649   8.959 -2.2539 -0.8852  0.0139
  202MPD1    H7 3135   4.325   3.714   9.089  0.7483 -0.1943  0.7548
  203MPD1     C 3136   2.920   4.451  12.434  0.5300  0.1858  0.2560
  203MPD1    C1 3137   3.018   4.431  12.339 -0.2539  0.4335  0.3017
  203MPD1    C2 3138   3.140   4.404  12.400 -0.2795 -0.5980  0.0930
  203MPD1    C3 3139   3.168   4.422  12.536 -0.7247 -0.7435  0.5132
  203MPD1    C4 3140   3.062   4.451  12.623 -0.3560  0.1239 -0.7523
  203MPD1    C5 3141   2.940   4.459  12.568 -0.3057 -0.2627  0.0975
  203MPD1     H 3142   3.224   4.389  12.333 -0.3166  2.2210 -0.5872
  203MPD1    H1 3143   3.073   4.455  12.731  2.7919  0.2782 -1.0612
  203MPD1    H2 3144   2.822   4.466  12.392 -0.7287 -0.1342  3.0802
  203MPD1    H3 3145   2.849   4.474  12.626 -0.1173  0.4934  0.1905
  203MPD1     N 3146   3.305   4.416  12.577  0.0128 -0.2353  0.2652
  203MPD1    H5 3147   3.375   4.380  12.513  0.9682  2.7436 -0.3506
  203MPD1    N1 3148   2.985   4.388  12.208 -0.3275 -0.5720  0.1459
  203MPD1    H6 3149   3.053   4.400  12.133  1.0599 -1.4585  1.2773
  203MPD1    H7 3150   2.907   4.444  12.172  0.1180 -0.4824 -0.7028
  204MPD1     C 3151   2.830   1.299  17.659 -0.0097  0.5813 -0.1027
  204MPD1    C1 3152   2.783   1.203  17.572 -0.2063  0.2590  0.2712
  204MPD1    C2 3153   2.849   1.083  17.566 -0.2762 -0.5638 -0.1606
  204MPD1    C3 3154   2.947   1.055  17.657  0.4538 -0.2648  0.4714
  204MPD1    C4 3155   2.959   1.138   0.012 -0.4232 -0.3451 -0.0115
  204MPD1    C5 3156   2.910   1.266   0.004 -0.1684  0.3896 -0.0930
  204MPD1     H 3157   2.825   1.022  17.480 -1.6191  0.5163 -0.5459
  204MPD1    H1 3158   3.018   1.117   0.100  0.9277  2.8337 -0.1832
  204MPD1    H2 3159   2.786   1.398  17.658 -0.1407  0.5261  0.4073
  204MPD1    H3 3160   2.934   1.340   0.079  1.4460 -1.0477  0.8058
  204MPD1     N 3161   3.040   0.950  17.629  0.5314 -0.3122 -0.0347
  204MPD1    H5 3162   3.016   0.904  17.542 -1.2425 -0.5203  0.5678
  204MPD1    N1 3163   2.706   1.246  17.463 -0.0120 -0.3806  0.0599
  204MPD1    H6 3164   2.640   1.323  17.478 -1.3540 -1.4995 -0.0794
  204MPD1    H7 3165   2.644   1.173  17.428 -2.0173 -0.0260  2.9214
  205MPD1     C 3166   4.732   0.255   0.160  0.3912 -0.4218 -0.0417
  205MPD1    C1 3167   4.670   0.263   0.280  0.6414 -0.0787  0.1665
  205MPD1    C2 3168   4.537   0.222   0.286  0.0697 -0.4725  0.9254
  205MPD1    C3 3169   4.481   0.169   0.167 -0.1902  0.4449  0.1510
  205MPD1    C4 3170   4.557   0.144   0.058  0.2812  0.1716  0.3423
  205MPD1    C5 3171   4.682   0.184   0.057 -0.2612  0.8023 -0.2519
  205MPD1     H 3172   4.486   0.230   0.381  0.9357  1.4760  1.2394
  205MPD1    H1 3173   4.522   0.088  17.729  0.1434 -0.3362  0.7262
  205MPD1    H2 3174   0.096   0.283   0.150  0.2036  0.3494  0.1701
  205MPD1    H3 3175   0.005   0.168  17.728 -0.6853  1.9079 -0.7655
  205MPD1     N 3176   4.343   0.118   0.167  0.3038  0.0160  0.8210
  205MPD1    H5 3177   4.322   0.072   0.079  1.3983 -0.8109  0.9913
  205MPD1    N1 3178   4.720   0.341   0.375  0.2771  0.0889  0.0967
  205MPD1    H6 3179   4.677   0.326   0.466  0.8834 -0.9966  0.2007
  205MPD1    H7 3180   0.080   0.326   0.375  0.1978 -0.4605  1.7762
  206MPD1     C 3181   3.799   2.894  17.164  0.0487  0.0075  0.1568
  206MPD1    C1 3182   3.789   3.033  17.162 -0.4286  0.3451 -0.5724
  206MPD1    C2 3183   3.694   3.100  17.078  0.1975 -0.2552 -0.8152
  206MPD1    C3 3184   3.619   3.029  16.990 -0.7647  0.8823 -0.3524
  206MPD1    C4 3185   3.631   2.892  17.000  0.1736 -1.4300  0.2079
  206MPD1    C5 3186   3.713   2.828  17.084 -0.4616  0.0064 -0.3892
  206MPD1     H 3187   3.679   3.207  17.093 -2.2509 -0.5533 -1.2752
  206MPD1    H1 3188   3.572   2.826  16.937 -1.8986  1.7669 -1.2197
  206MPD1    H2 3189   3.863   2.847  17.238  0.7841  0.5865 -0.1143
  206MPD1    H3 3190   3.712   2.719  17.082 -0.7162 -0.0045  0.5577
  206MPD1     N 3191   3.543   3.087  16.886  0.0392  0.2665  0.3787
  206MPD1    H5 3192   3.502   3.022  16.820 -1.7169  2.7691 -0.9944
  206MPD1    N1 3193   3.871   3.111  17.243 -0.5423  0.3060  0.1760
  206MPD1    H6 3194   3.892   3.200  17.197  2.9736 -0.8494 -0.4460
  206MPD1    H7 3195   3.962   3.071  17.263 -0.8174  0.2050  1.1982
  207MPD1     C 3196   0.799   0.053   9.186 -0.4660  1.3402 -0.0451
  207MPD1    C1 3197   0.911   0.123   9.166  0.2519 -0.4990 -0.1827
  207MPD1    C2 3198   0.977   0.173   9.279 -0.2769 -0.1338  0.8868
  207MPD1    C3 3199   0.939   0.142   9.406  0.1887  0.3520  0.2424
  207MPD1    C4 3200   0.816   0.065   9.416 -0.3502  0.7334  0.0841
  207MPD1    C5 3201   0.752   0.011   9.307 -0.8632  0.0968  0.5103
  207MPD1     H 3202   1.061   0.237   9.256 -0.8926  0.7611  1.1419
  207MPD1    H1 3203   0.779   0.036   9.514  2.0570  1.9982  1.3959
  207MPD1    H2 3204   0.745   0.016   9.100 -0.7748  0.7795  0.3902
  207MPD1    H3 3205   0.660   4.696   9.318 -0.3079 -0.9536 -0.0366
  207MPD1     N 3206   0.987   0.200   9.524  0.0117  0.2809  0.1935
  207MPD1    H5 3207   0.945   0.167   9.610 -0.2379  2.0980  0.7659
  207MPD1    N1 3208   0.938   0.177   9.039 -0.2910 -0.0231 -0.1977
  207MPD1    H6 3209   0.901   0.114   8.968  0.6287  0.7258 -1.3350
  207MPD1    H7 3210   1.038   0.193   9.030 -0.5550  2.0492  0.6188
  208MPD1     C 3211   3.574   3.342   0.884 -0.3076  0.1757 -0.1893
  208MPD1    C1 3212   3.553   3.420   0.776 -0.3555  0.5343  0.2290
  208MPD1    C2 3213   3.659   3.500   0.734 -0.2483 -0.1028  0.5222
  208MPD1    C3 3214   3.781   3.505   0.800  0.7960 -0.2339  0.1345
  208MPD1    C4 3215   3.796   3.423   0.905  0.5801  0.5578 -0.1685
  208MPD1    C5 3216   3.694   3.341   0.947 -0.1115  0.0128  0.4338
  208MPD1     H 3217   3.655   3.560   0.644 -0.9010 -1.2714 -0.2200
  208MPD1    H1 3218   3.890   3.431   0.958 -0.1459 -1.0851  1.3548
  208MPD1    H2 3219   3.494   3.280   0.923 -2.2893  0.5228 -3.7820
  208MPD1    H3 3220   3.703   3.280   1.036  2.6200 -1.2559 -0.7204
  208MPD1     N 3221   3.878   3.589   0.742  0.2520  0.2843  1.0364
  208MPD1    H5 3222   3.857   3.618   0.647  0.2030 -0.8630  0.6934
  208MPD1    N1 3223   3.437   3.410   0.702 -0.5333 -0.4163  0.5185
  208MPD1    H6 3224   3.420   3.498   0.654  2.6299 -0.1345 -0.1088
  208MPD1    H7 3225   3.359   3.391   0.764 -0.4202 -0.4320  0.6560
  209MPD1     C 3226   1.128   4.676  11.490 -0.1244 -0.4409  0.3108
  209MPD1    C1 3227   1.201   0.048  11.510 -0.0605  0.2639  0.6438
  209MPD1    C2 3228   1.267   0.109  11.403 -0.2249  0.8033  0.4152
  209MPD1    C3 3229   1.257   0.050  11.280 -0.3931  0.2441 -0.0805
  209MPD1    C4 3230   1.176   4.681  11.259  0.4173  0.1659  0.3677
  209MPD1    C5 3231   1.107   4.625  11.366  0.3585  0.4619 -0.3870
  209MPD1     H 3232   1.314   0.206  11.412 -1.2788  1.4334 -0.9447
  209MPD1    H1 3233   1.159   4.636  11.162  0.8495  1.0447 -0.1137
  209MPD1    H2 3234   1.088   4.619  11.573 -1.9441  1.3140  0.6496
  209MPD1    H3 3235   1.049   4.535  11.352 -0.1260  0.5709  0.9225
  209MPD1     N 3236   1.319   0.121  11.172  1.1251 -0.0909 -0.3014
  209MPD1    H5 3237   1.368   0.207  11.191 -0.5276  0.6397  0.6168
  209MPD1    N1 3238   1.241   0.076  11.643 -0.3099 -0.4413 -0.4551
  209MPD1    H6 3239   1.168   0.042  11.705 -0.8464 -0.0110 -0.8529
  209MPD1    H7 3240   1.249   0.175  11.663  1.8272 -1.2013  2.4508
  210MPD1     C 3241   2.067   0.659  10.848 -0.1740  0.2527  0.6288
  210MPD1    C1 3242   2.063   0.533  10.902  0.2672 -0.6403 -0.6429
  210MPD1    C2 3243   1.951   0.456  10.892 -0.0028 -0.3142  0.2778
  210MPD1    C3 3244   1.836   0.526  10.840 -0.0362 -0.3910  0.4523
  210MPD1    C4 3245   1.844   0.652  10.784 -0.0835  0.1138 -0.1080
  210MPD1    C5 3246   1.958   0.725  10.793 -0.4895 -0.1980  0.2834
  210MPD1     H 3247   1.929   0.360  10.939  0.6078 -0.2793  0.6298
  210MPD1    H1 3248   1.758   0.701  10.741  0.6657  0.4752 -1.2018
  210MPD1    H2 3249   2.162   0.710  10.845  0.7350 -1.4618  0.3099
  210MPD1    H3 3250   1.959   0.822  10.745  1.0335  0.9007  2.5114
  210MPD1     N 3251   1.713   0.461  10.829 -0.3086  0.0569 -0.3264
  210MPD1    H5 3252   1.649   0.503  10.762  1.2794  0.8663 -1.3309
  210MPD1    N1 3253   2.183   0.483  10.953  0.3708  0.3215  0.0608
  210MPD1    H6 3254   2.233   0.555  11.005  0.7354  0.4204 -0.4314
  210MPD1    H7 3255   2.157   0.409  11.018 -0.2361  0.0226 -0.5244
  211MPD1     C 3256   4.183   0.389  16.593 -0.0499 -0.0207 -0.2930
  211MPD1    C1 3257   4.134   0.394  16.472  0.4886  0.2242  0.5423
  211MPD1    C2 3258   4.017   0.328  16.444  0.6152  0.6533 -0.5421
  211MPD1    C3 3259   3.945   0.260  16.545 -0.6908 -0.2988  0.4516
  211MPD1    C4 3260   4.001   0.250  16.669  0.0150 -0.5115  0.5754
  211MPD1    C5 3261   4.120   0.316  16.690 -0.0029  0.2231 -0.1778
  211MPD1     H 3262   3.981   0.328  16.342 -0.2571  0.3656 -0.2397
  211MPD1    H1 3263   3.957   0.196  16.752 -0.3264  0.5837  1.0918
  211MPD1    H2 3264   4.275   0.437  16.628  0.3217 -0.6204 -0.4572
  211MPD1    H3 3265   4.163   0.311  16.789  1.5674 -0.8878 -0.9174
  211MPD1     N 3266   3.821   0.200  16.499  0.2253  0.2949 -0.0158
  211MPD1    H5 3267   3.793   0.190  16.402 -0.3235  1.2243  0.0507
  211MPD1    N1 3268   4.195   0.473  16.372  0.3018  0.5054 -0.1350
  211MPD1    H6 3269   4.272   0.531  16.406  1.2341 -1.4033  0.9913
  211MPD1    H7 3270   4.127   0.523  16.314  1.4532 -0.0472 -1.9654
  212MPD1     C 3271   2.994   2.827  16.594 -0.8340 -0.5556  0.3114
  212MPD1    C1 3272   2.967   2.880  16.726  0.2820 -0.3729  0.2090
  212MPD1    C2 3273   2.864   2.815  16.793  0.4857 -0.3196  0.0085
  212MPD1    C3 3274   2.804   2.693  16.741 -0.3377  0.9157 -1.1573
  212MPD1    C4 3275   2.850   2.640  16.621  0.2875 -0.1208 -0.6357
  212MPD1    C5 3276   2.945   2.707  16.548 -0.4405 -0.2858 -0.3970
  212MPD1     H 3277   2.848   2.862  16.889 -0.9030 -0.4966 -0.1440
  212MPD1    H1 3278   2.805   2.555  16.571 -1.2467 -0.4033  1.1939
  212MPD1    H2 3279   3.057   2.878  16.522 -1.3143  0.4923  0.6413
  212MPD1    H3 3280   2.969   2.675  16.447 -1.6985  3.1966 -1.8287
  212MPD1     N 3281   2.691   2.635  16.803 -0.3493 -0.0313 -0.1371
  212MPD1    H5 3282   2.642   2.558  16.759 -1.2399  0.0386  0.7318
  212MPD1    N1 3283   3.018   3.004  16.763  0.0718 -0.3892  0.3695
  212MPD1    H6 3284   3.116   3.006  16.735  0.2253 -1.4573  0.8150
  212MPD1    H7 3285   3.017   3.013  16.865 -1.9866  2.2521  0.1178
  213MPD1     C 3286   1.103   3.994  16.026 -0.0948 -0.6586 -0.3177
  213MPD1    C1 3287   1.117   3.865  15.978 -0.7131  0.2396  0.1477
  213MPD1    C2 3288   1.029   3.829  15.874  1.6063 -0.0479  0.2058
  213MPD1    C3 3289   0.982   3.926  15.789 -0.3964 -0.1771 -0.2477
  213MPD1    C4 3290   1.003   4.057  15.822 -0.3090  0.4600 -0.4317
  213MPD1    C5 3291   1.057   4.090  15.939  0.2487 -0.0392 -0.3055
  213MPD1     H 3292   1.004   3.725  15.858  1.7460  0.2285 -1.7115
  213MPD1    H1 3293   0.980   4.140  15.756  1.1154  0.4236 -0.9713
  213MPD1    H2 3294   1.155   4.033  16.113 -2.6287 -0.2217  1.0220
  213MPD1    H3 3295   1.077   4.195  15.960 -1.2475  0.2720 -0.3678
  213MPD1     N 3296   0.906   3.888  15.678  0.6783 -0.0223  0.5684
  213MPD1    H5 3297   0.910   3.788  15.661  0.3960  0.1224 -0.3275
  213MPD1    N1 3298   1.152   3.759  16.062 -0.3497  0.9511  0.4356
  213MPD1    H6 3299   1.227   3.781  16.127  1.1857 -2.1319 -0.3077
  213MPD1    H7 3300   1.174   3.672  16.015 -1.1766  0.5290  0.8251
  214MPD1     C 3301   0.371   3.172  15.229  0.0155 -0.1053 -0.0178
  214MPD1    C1 3302   0.373   3.228  15.349 -0.1553  0.5904  0.9530
  214MPD1    C2 3303   0.437   3.350  15.373  0.6081 -0.3506  0.0364
  214MPD1    C3 3304   0.499   3.415  15.268  0.3969  0.7643  0.3885
  214MPD1    C4 3305   0.492   3.356  15.146  0.1302 -0.8856 -0.6063
  214MPD1    C5 3306   0.446   3.232  15.125  1.3052 -0.4101  0.0664
  214MPD1     H 3307   0.417   3.408  15.463  1.6794  1.6227 -0.9904
  214MPD1    H1 3308   0.548   3.403  15.066  1.3806  0.0233  0.8020
  214MPD1    H2 3309   0.311   3.085  15.203  0.2020 -0.3031  0.2118
  214MPD1    H3 3310   0.456   3.179  15.031  2.8588  2.0797 -1.1553
  214MPD1     N 3311   0.566   3.538  15.279  0.1725  0.0152  0.3232
  214MPD1    H5 3312   0.597   3.574  15.189 -1.1350 -1.9799 -0.9155
  214MPD1    N1 3313   0.305   3.174  15.453 -0.6390  0.2855  0.2560
  214MPD1    H6 3314   0.353   3.171  15.543  0.9364  2.6573 -0.5218
  214MPD1    H7 3315   0.286   3.074  15.445  0.8674 -0.0799  1.0765
  215MPD1     C 3316   0.669   4.197  11.233  0.2406  0.1877 -0.3809
  215MPD1    C1 3317   0.732   4.230  11.346  0.1883 -0.0868 -0.8038
  215MPD1    C2 3318   0.749   4.363  11.389 -0.6170  0.0524  0.1061
  215MPD1    C3 3319   0.716   4.466  11.300  0.3409  0.7529 -0.8581
  215MPD1    C4 3320   0.656   4.428  11.180  0.5159 -0.1295 -0.3942
  215MPD1    C5 3321   0.634   4.295  11.147 -0.2053 -0.0867  0.0631
  215MPD1     H 3322   0.787   4.388  11.487 -1.4742  0.8832  0.2263
  215MPD1    H1 3323   0.623   4.506  11.113 -0.9336  1.0719  1.6934
  215MPD1    H2 3324   0.640   4.096  11.209  0.8568  0.0855 -0.6980
  215MPD1    H3 3325   0.582   4.268  11.056 -0.8665 -2.3841  1.1176
  215MPD1     N 3326   0.750   4.597  11.345  0.3385  0.5839  0.4200
  215MPD1    H5 3327   0.778   4.603  11.443  0.6171 -2.3831  0.5161
  215MPD1    N1 3328   0.752   4.130  11.443 -0.4102  0.0952 -0.2341
  215MPD1    H6 3329   0.762   4.037  11.403 -3.0138 -0.1851 -0.2567
  215MPD1    H7 3330   0.828   4.157  11.505 -1.3296  0.3547  0.7979
  216MPD1     C 3331   2.264   2.163   0.329  0.0429  0.5011 -0.1853
  216MPD1    C1 3332   2.237   2.190   0.196  0.6453 -0.0060 -0.0192
  216MPD1    C2 3333   2.335   2.155   0.103  0.9526 -0.0650 -0.2159
  216MPD1    C3 3334   2.465   2.124   0.149  0.4972 -0.1389  0.4146
  216MPD1    C4 3335   2.488   2.118   0.285  0.4879 -0.3316 -0.2449
  216MPD1    C5 3336   2.388   2.127   0.369  0.2515  0.6567  0.3936
  216MPD1     H 3337   2.328   2.172  17.754 -1.4545 -1.5305 -0.2866
  216MPD1    H1 3338   2.589   2.097   0.319  0.9538 -0.0724 -1.4619
  216MPD1    H2 3339   2.190   2.181   0.406  0.7131  2.6440 -0.0713
  216MPD1    H3 3340   2.403   2.111   0.475 -0.4758  1.7502  0.6553
  216MPD1     N 3341   2.563   2.105   0.049  0.4882  0.0509 -0.3275
  216MPD1    H5 3342   2.522   2.092  17.714  0.8397  1.8843 -0.7500
  216MPD1    N1 3343   2.104   2.219   0.157 -0.0199  0.5103 -0.1994
  216MPD1    H6 3344   2.096   2.287   0.082 -2.1903  1.5607  0.9592
  216MPD1    H7 3345   2.058   2.268   0.233  1.8703 -0.2642  1.4378
  217MPD1     C 3346   3.300   3.116   8.464  0.5355  0.1897  0.2845
  217MPD1    C1 3347   3.227   3.232   8.459 -0.2817 -0.2582 -0.0731
  217MPD1    C2 3348   3.241   3.325   8.556  0.2168 -0.3081 -0.0248
  217MPD1    C3 3349   3.330   3.289   8.661  0.2664  0.1944  0.1072
  217MPD1    C4 3350   3.402   3.168   8.661  0.4818  0.5552 -0.5704
  217MPD1    C5 3351   3.382   3.080   8.561  0.0223  0.1627  0.1136
  217MPD1     H 3352   3.191   3.420   8.545  1.4199  0.3432  0.1520
  217MPD1    H1 3353   3.468   3.135   8.740  0.2575  1.8706  0.1610
  217MPD1    H2 3354   3.292   3.035   8.392  0.2202  1.9143 -1.5988
  217MPD1    H3 3355   3.433   2.986   8.576  2.6043  1.7645  1.3563
  217MPD1     N 3356   3.371   3.384   8.758 -0.2864  0.5421 -0.6323
  217MPD1    H5 3357   3.449   3.356   8.817 -1.9507 -2.0609  0.3732
  217MPD1    N1 3358   3.145   3.262   8.342 -0.5417 -0.6473  0.8132
  217MPD1    H6 3359   3.077   3.336   8.354  0.6254  0.6521 -0.6867
  217MPD1    H7 3360   3.114   3.179   8.292 -0.1271 -0.3315  0.0372
  218MPD1     C 3361   1.242   1.408  12.195  0.6380 -0.0542 -0.8297
  218MPD1    C1 3362   1.185   1.352  12.081  0.4164  0.6748 -0.0707
  218MPD1    C2 3363   1.185   1.216  12.065 -0.0793  0.9460 -0.0212
  218MPD1    C3 3364   1.217   1.138  12.173 -0.4104  0.1287 -0.4095
  218MPD1    C4 3365   1.259   1.192  12.288 -0.5462  0.3178  0.4328
  218MPD1    C5 3366   1.277   1.321  12.293 -0.4139 -0.2999 -0.3236
  218MPD1     H 3367   1.159   1.178  11.967  5.3152 -1.0024 -0.6887
  218MPD1    H1 3368   1.294   1.136  12.373 -1.0800 -0.6567  0.0130
  218MPD1    H2 3369   1.251   1.516  12.199  0.7652 -0.2389  3.7374
  218MPD1    H3 3370   1.332   1.362  12.377  1.5072 -0.4590 -1.4913
  218MPD1     N 3371   1.219   0.996  12.156  0.5236 -0.1698  0.4627
  218MPD1    H5 3372   1.195   0.965  12.062  2.0321 -0.4487  0.1590
  218MPD1    N1 3373   1.162   1.433  11.967 -0.0427  0.1012 -0.6748
  218MPD1    H6 3374   1.152   1.529  12.000  2.7564 -0.1534  0.9068
  218MPD1    H7 3375   1.078   1.408  11.916 -0.1927  0.5057 -0.6259
  219MPD1     C 3376   1.668   0.766  11.486  0.1508  0.6124  0.7890
  219MPD1    C1 3377   1.644   0.638  11.533 -0.4898 -0.0263 -0.2533
  219MPD1    C2 3378   1.563   0.624  11.649 -0.1927  0.3194 -0.5997
  219MPD1    C3 3379   1.515   0.735  11.716 -0.3937  0.5077  0.2361
  219MPD1    C4 3380   1.537   0.859  11.657 -0.0149 -0.1569  0.2690
  219MPD1    C5 3381   1.616   0.873  11.548 -0.0190  0.2882  0.2821
  219MPD1     H 3382   1.547   0.524  11.687  2.4649  0.4567  0.8681
  219MPD1    H1 3383   1.507   0.949  11.711  0.8572  0.9829 -1.1428
  219MPD1    H2 3384   1.732   0.779  11.399  1.2141 -2.5901  1.0982
  219MPD1    H3 3385   1.642   0.973  11.517 -0.7105 -0.0505 -1.3809
  219MPD1     N 3386   1.457   0.734  11.839  0.8440  0.1028 -0.7345
  219MPD1    H5 3387   1.435   0.819  11.890  0.5072  0.2364 -1.1034
  219MPD1    N1 3388   1.701   0.522  11.477 -0.0406  0.3507 -0.4504
  219MPD1    H6 3389   1.704   0.529  11.376  0.2409 -0.5800 -0.5041
  219MPD1    H7 3390   1.622   0.459  11.492 -0.3344  1.0697  1.1316
  220MPD1     C 3391   0.532   1.341   9.912  0.2462  0.7123  0.0058
  220MPD1    C1 3392   0.528   1.213   9.858 -0.1385 -0.0558  0.0410
  220MPD1    C2 3393   0.545   1.103   9.941 -0.3145 -0.2209 -0.4189
  220MPD1    C3 3394   0.566   1.117  10.077  0.1324  0.2549 -0.1336
  220MPD1    C4 3395   0.574   1.244  10.130 -1.0078 -0.7698  0.0229
  220MPD1    C5 3396   0.564   1.353  10.048 -0.0997 -0.7414 -0.0666
  220MPD1     H 3397   0.550   1.007   9.892 -3.1466 -0.2261 -0.7077
  220MPD1    H1 3398   0.583   1.268  10.236 -0.5620  0.4413 -0.2916
  220MPD1    H2 3399   0.512   1.431   9.854 -2.1863  0.3229  0.2454
  220MPD1    H3 3400   0.558   1.447  10.101  0.6237 -0.8334  0.1765
  220MPD1     N 3401   0.588   0.995  10.149  0.3176 -0.3238  0.5019
  220MPD1    H5 3402   0.584   0.909  10.095  0.5436  0.0164 -0.0601
  220MPD1    N1 3403   0.501   1.205   9.722 -0.5330 -0.2794  0.0009
  220MPD1    H6 3404   0.562   1.134   9.683  0.5297 -0.0920  1.3156
  220MPD1    H7 3405   0.532   1.293   9.681  0.8556  0.3756  2.4712
  221MPD1     C 3406   4.398   3.638  16.314  0.1895  0.0726 -0.8977
  221MPD1    C1 3407   4.278   3.578  16.351  0.2268 -0.6675  0.2000
  221MPD1    C2 3408   4.179   3.659  16.398  0.0349  0.1161 -0.3179
  221MPD1    C3 3409   4.198   3.796  16.418  0.0410 -0.0733 -0.3462
  221MPD1    C4 3410   4.324   3.849  16.394 -0.0522  0.2066  0.9408
  221MPD1    C5 3411   4.420   3.774  16.332 -0.4235 -0.8177 -0.5798
  221MPD1     H 3412   4.080   3.621  16.422  0.5052 -1.6688 -1.1931
  221MPD1    H1 3413   4.345   3.954  16.414 -0.8145  0.5271  0.0742
  221MPD1    H2 3414   4.479   3.584  16.267 -0.3401 -1.7822  0.3007
  221MPD1    H3 3415   4.511   3.818  16.292 -0.9056 -1.6431 -2.5752
  221MPD1     N 3416   4.098   3.880  16.470  0.3556  0.0678 -0.1763
  221MPD1    H5 3417   4.111   3.980  16.478 -1.2119  0.3856 -1.5621
  221MPD1    N1 3418   4.260   3.447  16.316  0.4185  0.5635  0.5814
  221MPD1    H6 3419   4.201   3.407  16.389 -0.3380 -0.9937 -0.8613
  221MPD1    H7 3420   4.349   3.398  16.324 -0.8658 -1.9582 -0.3045
  222MPD1     C 3421   2.492   3.989  16.990 -0.5470  0.4816  0.3448
  222MPD1    C1 3422   2.450   3.858  16.976  0.5561  0.2972  0.5269
  222MPD1    C2 3423   2.459   3.767  17.079  0.0761  0.3287  0.8736
  222MPD1    C3 3424   2.549   3.799  17.185 -0.6896 -0.2214 -0.6674
  222MPD1    C4 3425   2.602   3.929  17.190 -0.1728  0.4932  0.2157
  222MPD1    C5 3426   2.573   4.026  17.093 -0.6643  0.8483  0.5130
  222MPD1     H 3427   2.400   3.676  17.074 -1.4359  1.5074 -2.8834
  222MPD1    H1 3428   2.650   3.954  17.284  0.4626  2.3603 -0.6138
  222MPD1    H2 3429   2.476   4.072  16.922 -0.7244 -1.9551 -2.5643
  222MPD1    H3 3430   2.620   4.123  17.105  1.1188 -0.1946  2.0133
  222MPD1     N 3431   2.563   3.715  17.305 -0.0070  0.0060 -0.2947
  222MPD1    H5 3432   2.619   3.754  17.381 -2.7556 -0.6316  2.0799
  222MPD1    N1 3433   2.369   3.827  16.866  0.4853  0.4536 -0.0887
  222MPD1    H6 3434   2.371   3.728  16.842 -1.3821  0.6214 -0.9710
  222MPD1    H7 3435   2.379   3.890  16.786  1.2756  0.3344 -0.0777
  223MPD1     C 3436   2.143   2.975   0.241  0.7106 -0.1233 -0.0863
  223MPD1    C1 3437   2.191   2.955   0.113 -0.2793 -0.5776  0.5893
  223MPD1    C2 3438   2.234   3.058   0.039  0.4539 -0.9523  0.6851
  223MPD1    C3 3439   2.243   3.183   0.096  0.0486  0.6057  0.4920
  223MPD1    C4 3440   2.190   3.204   0.221  0.1959 -0.1456 -0.5135
  223MPD1    C5 3441   2.141   3.105   0.290  0.2528 -1.0036 -0.7278
  223MPD1     H 3442   2.276   3.037  17.700  0.4857  0.9902  0.2728
  223MPD1    H1 3443   2.206   3.291   0.284  1.1975 -0.0153 -0.9546
  223MPD1    H2 3444   2.099   2.891   0.293  1.0157 -0.0831  0.2374
  223MPD1    H3 3445   2.104   3.123   0.390  1.4999 -1.4738 -0.1710
  223MPD1     N 3446   2.310   3.296   0.029 -0.4063  0.6522  0.0122
  223MPD1    H5 3447   2.317   3.386   0.074 -3.3282  0.4949  0.7336
  223MPD1    N1 3448   2.194   2.825   0.068  0.8829  0.0392 -0.0777
  223MPD1    H6 3449   2.191   2.761   0.148 -3.1581  1.0084  0.5442
  223MPD1    H7 3450   2.279   2.812   0.014  0.4352  0.7629 -0.9539
  224MPD1     C 3451   2.787   4.697   9.238 -0.7130  0.0903 -0.1422
  224MPD1    C1 3452   2.864   4.581   9.221 -0.1860  0.5315  0.2228
  224MPD1    C2 3453   2.948   4.551   9.329  0.5740  0.0090  0.3564
  224MPD1    C3 3454   2.945   4.622   9.452  0.2974 -0.4359 -0.3555
  224MPD1    C4 3455   2.847   4.715   9.466 -0.0330  0.5815 -0.0620
  224MPD1    C5 3456   2.769   0.013   9.362  0.8263  0.3969 -0.6795
  224MPD1     H 3457   3.032   4.483   9.323 -0.0937 -0.6219 -1.9215
  224MPD1    H1 3458   2.828   0.035   9.554 -0.9951  2.3468 -1.4680
  224MPD1    H2 3459   2.735   4.739   9.153  1.3272 -1.3252 -2.0914
  224MPD1    H3 3460   2.710   0.103   9.374  1.6708  0.8391  0.2122
  224MPD1     N 3461   3.029   4.600   9.566 -0.0724 -0.0881  1.0986
  224MPD1    H5 3462   2.995   4.640   9.653  1.2549 -0.2012  1.6680
  224MPD1    N1 3463   2.893   4.517   9.099  0.6589 -0.1595  0.5018
  224MPD1    H6 3464   2.923   4.422   9.119  1.0298 -0.0483  0.4729
  224MPD1    H7 3465   2.811   4.525   9.039  0.1330 -1.4250  1.0599
  225MPD1     C 3466   0.873   0.971  12.508 -0.4311 -0.1701 -0.3784
  225MPD1    C1 3467   0.825   1.022  12.394  0.7811  0.3836  0.0294
  225MPD1    C2 3468   0.688   1.035  12.370 -0.2931 -0.5082  0.2431
  225MPD1    C3 3469   0.602   1.016  12.474 -0.8354 -0.0832  0.0556
  225MPD1    C4 3470   0.654   0.968  12.594 -0.0779  0.2245 -0.2185
  225MPD1    C5 3471   0.790   0.933  12.608 -0.5335  0.4275  0.3255
  225MPD1     H 3472   0.650   1.084  12.281  0.9056 -1.1522 -0.6048
  225MPD1    H1 3473   0.589   0.940  12.676  0.2743 -0.4889 -0.1810
  225MPD1    H2 3474   0.978   0.955  12.532  0.1012  1.6341 -1.5007
  225MPD1    H3 3475   0.839   0.906  12.701 -1.6555 -0.6847  0.5788
  225MPD1     N 3476   0.466   1.040  12.469 -0.3300  0.2667  0.3416
  225MPD1    H5 3477   0.412   1.023  12.553 -2.1457 -0.4730 -0.9636
  225MPD1    N1 3478   0.920   1.032  12.297  0.3841  0.4174 -0.4318
  225MPD1    H6 3479   1.018   1.037  12.324 -0.3899 -0.4645  2.5800
  225MPD1    H7 3480   0.902   1.114  12.240  0.5282 -1.2067 -2.7979
  226MPD1     C 3481   2.905   1.374   9.728 -0.4273 -0.1076  0.1870
  226MPD1    C1 3482   2.869   1.236   9.726 -0.1174 -0.7455  0.1438
  226MPD1    C2 3483   2.961   1.143   9.675 -0.1978  0.4464  0.5566
  226MPD1    C3 3484   3.078   1.195   9.623 -0.0683  0.0566  0.6124
  226MPD1    C4 3485   3.102   1.327   9.615  0.1422 -0.2439 -0.1677
  226MPD1    C5 3486   3.014   1.423   9.655  0.0590  0.0632  0.5468
  226MPD1     H 3487   2.946   1.037   9.685 -1.6557  0.5201 -0.8976
  226MPD1    H1 3488   3.199   1.370   9.592 -0.5086  1.6671  0.6596
  226MPD1    H2 3489   2.842   1.440   9.787 -0.8094 -0.2849 -0.0253
  226MPD1    H3 3490   3.044   1.527   9.648 -0.2008  0.1166  0.2131
  226MPD1     N 3491   3.164   1.093   9.575  0.0555 -0.6569 -0.0907
  226MPD1    H5 3492   3.132   0.997   9.583  0.3390 -0.7311  0.1483
  226MPD1    N1 3493   2.754   1.201   9.798 -0.1774  0.0051 -0.2887
  226MPD1    H6 3494   2.688   1.278   9.808 -1.0153 -0.7275 -0.2440
  226MPD1    H7 3495   2.705   1.121   9.759  0.6733 -0.5963 -0.1301
  227MPD1     C 3496   4.089   0.608   9.806  0.3689 -0.0342  0.2798
  227MPD1    C1 3497   3.979   0.525   9.822 -0.8647  0.3134  0.4182
  227MPD1    C2 3498   3.854   0.568   9.773 -0.1718 -0.7875 -0.6449
  227MPD1    C3 3499   3.833   0.698   9.745 -0.8893 -0.0798 -0.2317
  227MPD1    C4 3500   3.942   0.780   9.727 -0.0294  0.7479 -0.5542
  227MPD1    C5 3501   4.064   0.733   9.765 -0.4424  0.7002  0.3989
  227MPD1     H 3502   3.768   0.501   9.771  1.1763 -2.4397 -2.2379
  227MPD1    H1 3503   3.937   0.882   9.691 -1.3559  1.5148  1.7892
  227MPD1    H2 3504   4.191   0.577   9.827  0.0678  0.4474  2.4043
  227MPD1    H3 3505   4.145   0.803   9.745 -3.0496  2.9605 -2.4076
  227MPD1     N 3506   3.699   0.736   9.711 -0.0659  0.3277 -0.3166
  227MPD1    H5 3507   3.630   0.662   9.715  1.3875 -1.0162 -0.2538
  227MPD1    N1 3508   4.002   0.390   9.852  0.2996  0.0597  0.0432
  227MPD1    H6 3509   3.923   0.341   9.893 -0.0174  0.6455  0.1234
  227MPD1    H7 3510   4.085   0.374   9.908  2.3068 -0.3084 -2.9851
  228MPD1     C 3511   2.489   3.549  13.008  0.2255 -0.8068  0.0703
  228MPD1    C1 3512   2.427   3.494  13.121  0.3784  0.0743 -0.5041
  228MPD1    C2 3513   2.288   3.490  13.118  0.3490 -0.4996  0.6750
  228MPD1    C3 3514   2.223   3.521  13.003 -0.7821  0.8828  0.5055
  228MPD1    C4 3515   2.284   3.586  12.898 -0.5901  0.2185 -0.3027
  228MPD1    C5 3516   2.424   3.597  12.904  0.1872 -1.1347  0.2946
  228MPD1     H 3517   2.230   3.445  13.199 -0.6919 -0.5121 -0.0746
  228MPD1    H1 3518   2.234   3.613  12.806 -0.3841  3.3781  0.5160
  228MPD1    H2 3519   2.595   3.571  13.009  0.0900 -0.1150 -0.5528
  228MPD1    H3 3520   2.478   3.647  12.825  0.1087 -2.4246 -0.5720
  228MPD1     N 3521   2.084   3.501  13.000 -0.1115  0.3462  0.2910
  228MPD1    H5 3522   2.046   3.468  13.088  1.9929 -1.5614  0.4769
  228MPD1    N1 3523   2.499   3.475  13.243  0.6441 -0.2515  0.3810
  228MPD1    H6 3524   2.451   3.414  13.308  0.6746  0.7548  1.3339
  228MPD1    H7 3525   2.593   3.440  13.221  0.6651  1.1490 -1.8021
  229MPD1     C 3526   0.838   2.615  15.265 -0.2961 -0.1720 -0.4020
  229MPD1    C1 3527   0.894   2.697  15.176 -0.5134  0.4173 -0.3001
  229MPD1    C2 3528   1.029   2.707  15.183 -0.4083 -0.0416 -0.0602
  229MPD1    C3 3529   1.113   2.631  15.251  0.2519  0.0089  0.0143
  229MPD1    C4 3530   1.050   2.562  15.344 -0.6675 -0.1544  0.1527
  229MPD1    C5 3531   0.916   2.558  15.356 -0.2508 -0.2967 -0.3786
  229MPD1     H 3532   1.070   2.782  15.116 -2.9334  0.5809 -0.9064
  229MPD1    H1 3533   1.106   2.523  15.428  0.9844 -0.1122 -0.9481
  229MPD1    H2 3534   0.730   2.610  15.270 -0.2755  0.9553  1.2585
  229MPD1    H3 3535   0.868   2.493  15.429  0.9674 -0.6215  0.1316
  229MPD1     N 3536   1.251   2.635  15.242 -0.1114 -0.6247  0.1315
  229MPD1    H5 3537   1.308   2.603  15.320 -0.0506 -0.6785  0.0654
  229MPD1    N1 3538   0.821   2.790  15.099  0.6067 -0.4828  0.1670
  229MPD1    H6 3539   0.733   2.755  15.062 -0.2793 -0.1896  1.9840
  229MPD1    H7 3540   0.881   2.816  15.021  0.3856 -0.3862  0.0318
  230MPD1     C 3541   1.936   2.097  15.632 -0.0334 -0.2418  0.5070
  230MPD1    C1 3542   1.914   2.052  15.505  0.1570 -0.1506 -0.1383
  230MPD1    C2 3543   1.871   2.136  15.408  0.3827 -0.6966  0.1233
  230MPD1    C3 3544   1.829   2.266  15.439  0.1514  0.0326  0.0205
  230MPD1    C4 3545   1.844   2.309  15.572  0.0699 -0.7192  0.0897
  230MPD1    C5 3546   1.899   2.228  15.667  0.2167  0.3116 -1.1088
  230MPD1     H 3547   1.870   2.096  15.307 -1.1463 -1.1569  0.3314
  230MPD1    H1 3548   1.817   2.408  15.608  1.4399 -0.2308 -0.2363
  230MPD1    H2 3549   1.961   2.027  15.712  0.5101  0.3270  0.8306
  230MPD1    H3 3550   1.920   2.266  15.766 -0.1611  0.6732 -1.1681
  230MPD1     N 3551   1.760   2.342  15.345  0.7041 -1.0162 -0.5748
  230MPD1    H5 3552   1.749   2.298  15.254  1.3479  1.6382 -1.9486
  230MPD1    N1 3553   1.953   1.928  15.468  0.2525  0.5706 -0.1235
  230MPD1    H6 3554   1.888   1.889  15.400 -0.4679  0.0536  0.8624
  230MPD1    H7 3555   1.952   1.866  15.549 -1.5157 -1.0074 -1.3738
  231MPD1     C 3556   0.088   4.079  15.457 -0.4197  0.0559 -0.0595
  231MPD1    C1 3557   0.041   4.033  15.336  0.2732 -0.3403 -0.2095
  231MPD1    C2 3558   0.120   4.060  15.226  0.6571  0.0861  0.1064
  231MPD1    C3 3559   0.237   4.136  15.237  0.5025  0.4026 -1.0054
  231MPD1    C4 3560   0.276   4.180  15.363 -0.1746  0.1774  0.4278
  231MPD1    C5 3561   0.206   4.145  15.478 -0.0963 -0.1100 -0.4709
  231MPD1     H 3562   0.088   4.015  15.133  2.0382 -0.2903 -0.1816
  231MPD1    H1 3563   0.364   4.239  15.385 -1.0015  2.3873 -2.1160
  231MPD1    H2 3564   0.027   4.072  15.546 -1.9933  1.5373 -1.0136
  231MPD1    H3 3565   0.229   4.179  15.578 -0.0797 -2.0568  0.1846
  231MPD1     N 3566   0.310   4.159  15.120 -0.3270  0.4951  0.1003
  231MPD1    H5 3567   0.267   4.124  15.035  0.5968  0.7775 -0.4921
  231MPD1    N1 3568   4.656   3.976  15.341  0.3873 -0.0549 -0.5636
  231MPD1    H6 3569   4.639   3.924  15.428  2.0587 -0.6517 -0.5814
  231MPD1    H7 3570   4.636   3.925  15.255 -1.5622 -0.8224  0.3381
  232MPD1     C 3571   1.789   2.202   0.540  0.1582 -0.7003  0.2161
  232MPD1    C1 3572   1.665   2.245   0.499 -0.2351  0.0170 -0.1008
  232MPD1    C2 3573   1.617   2.197   0.380 -0.3067 -0.0591  0.0685
  232MPD1    C3 3574   1.681   2.094   0.311  0.4816  0.1011  0.0711
  232MPD1    C4 3575   1.797   2.039   0.360 -0.0587 -0.1297 -0.2241
  232MPD1    C5 3576   1.858   2.099   0.475  0.1697 -0.0676  0.3466
  232MPD1     H 3577   1.528   2.233   0.330 -0.9292 -1.1355  0.3868
  232MPD1    H1 3578   1.856   1.963   0.310 -3.0525 -1.0390 -2.3704
  232MPD1    H2 3579   1.837   2.249   0.625  1.9711 -1.7425 -0.2134
  232MPD1    H3 3580   1.953   2.062   0.511 -0.4427 -0.4151  1.6160
  232MPD1     N 3581   1.621   2.049   0.190  0.0365 -0.5684  0.1358
  232MPD1    H5 3582   1.530   2.090   0.170  1.9596  3.2006 -0.8267
  232MPD1    N1 3583   1.617   2.359   0.561  0.2955 -0.6248  0.0806
  232MPD1    H6 3584   1.516   2.372   0.550  0.3484 -0.2209  0.0601
  232MPD1    H7 3585   1.642   2.360   0.659  0.0043 -1.2796  0.1595
  233MPD1     C 3586   3.343   4.291   2.043  0.5227  0.3374  0.0519
  233MPD1    C1 3587   3.470   4.320   2.081  0.0983 -0.3540  0.0202
  233MPD1    C2 3588   3.577   4.279   2.000  0.4413 -0.4645  0.1801
  233MPD1    C3 3589   3.551   4.191   1.894 -0.6498 -0.3381 -0.4959
  233MPD1    C4 3590   3.421   4.170   1.859  0.3300 -0.0379 -0.2367
  233MPD1    C5 3591   3.321   4.224   1.929  0.6264 -0.1815 -0.5874
  233MPD1     H 3592   3.675   4.321   2.015  0.1247 -0.4001  2.1451
  233MPD1    H1 3593   3.408   4.115   1.766 -1.1112 -0.9530  0.5076
  233MPD1    H2 3594   3.258   4.331   2.098 -1.6170 -1.2923 -2.0697
  233MPD1    H3 3595   3.219   4.199   1.899  1.0189 -2.5579  0.0826
  233MPD1     N 3596   3.653   4.143   1.804 -0.3704 -0.4810  0.6755
  233MPD1    H5 3597   3.626   4.096   1.719  1.9622 -1.6019  0.5482
  233MPD1    N1 3598   3.488   4.411   2.185 -0.3880  0.5787 -0.1485
  233MPD1    H6 3599   3.436   4.380   2.267  0.9115 -0.3199  0.3191
  233MPD1    H7 3600   3.585   4.406   2.212 -0.9018  2.1788  1.9773
  234MPD1     C 3601   0.188   3.748   9.642  0.3765  0.0950 -0.4949
  234MPD1    C1 3602   0.096   3.738   9.537  0.3964  0.2249  0.1908
  234MPD1    C2 3603   4.702   3.764   9.567  0.0192 -0.6413  0.5068
  234MPD1    C3 3604   4.653   3.802   9.689 -0.3587  0.1262  0.2894
  234MPD1    C4 3605   0.010   3.820   9.795  0.2310  0.2545 -0.4615
  234MPD1    C5 3606   0.143   3.784   9.768 -0.3529 -0.3851  0.7138
  234MPD1     H 3607   4.632   3.739   9.488  2.5416  1.5344 -2.3827
  234MPD1    H1 3608   4.721   3.843   9.897  1.5584 -0.4790  0.0808
  234MPD1    H2 3609   0.290   3.722   9.617 -0.0295 -2.0150  0.0385
  234MPD1    H3 3610   0.218   3.796   9.846 -0.9958 -0.4151  1.3381
  234MPD1     N 3611   4.517   3.818   9.711  0.5300 -0.2194 -0.4884
  234MPD1    H5 3612   4.466   3.784   9.629  1.2307  0.6123 -1.2598
  234MPD1    N1 3613   0.130   3.690   9.408  0.3096  0.2348 -0.5541
  234MPD1    H6 3614   0.060   3.704   9.336 -0.4060 -1.5537 -0.2161
  234MPD1    H7 3615   0.230   3.688   9.386  0.2140  0.7355 -1.0203
  235MPD1     C 3616   0.777   0.214  10.165  0.5081  0.5210 -0.3387
  235MPD1    C1 3617   0.718   0.301  10.073 -0.1394  1.1125  0.7536
  235MPD1    C2 3618   0.774   0.430  10.062  0.5266  0.5714 -0.0918
  235MPD1    C3 3619   0.868   0.475  10.151 -0.7652  0.1221 -0.0729
  235MPD1    C4 3620   0.915   0.389  10.250 -0.0003  0.0264  0.2525
  235MPD1    C5 3621   0.878   0.256  10.251 -0.2370 -0.0801  0.0211
  235MPD1     H 3622   0.740   0.490   9.979 -1.3844 -0.8928 -0.3512
  235MPD1    H1 3623   0.972   0.421  10.337  0.0516 -0.1735  0.2910
  235MPD1    H2 3624   0.736   0.114  10.175  1.8684 -0.2117 -2.0974
  235MPD1    H3 3625   0.911   0.189  10.330  1.3385  1.8287  0.9909
  235MPD1     N 3626   0.920   0.600  10.130 -0.8272 -0.0162 -0.7438
  235MPD1    H5 3627   0.891   0.653  10.049  3.4113  1.2217 -1.4428
  235MPD1    N1 3628   0.639   0.249   9.973 -0.1319  0.0617  0.1756
  235MPD1    H6 3629   0.566   0.314   9.945  0.5564  0.5371 -0.4990
  235MPD1    H7 3630   0.595   0.162  10.003 -0.7198 -0.0697 -1.0518
  236MPD1     C 3631   0.589   2.994  10.339  0.7708  0.6723 -0.2594
  236MPD1    C1 3632   0.567   2.861  10.368  0.7025 -0.2624  0.2843
  236MPD1    C2 3633   0.634   2.793  10.463 -0.4714 -0.1221  0.7184
  236MPD1    C3 3634   0.745   2.854  10.525 -0.0402 -0.6710  0.9534
  236MPD1    C4 3635   0.777   2.987  10.490  0.5839 -1.1392 -0.6122
  236MPD1    C5 3636   0.700   3.055  10.394  0.8301  0.2294 -0.2870
  236MPD1     H 3637   0.600   2.695  10.492 -2.8278  0.0281 -1.5231
  236MPD1    H1 3638   0.859   3.047  10.525 -0.2180  0.6334 -1.7602
  236MPD1    H2 3639   0.518   3.055  10.284  1.4616  1.1178 -0.6542
  236MPD1    H3 3640   0.712   3.162  10.384 -1.8273  0.5983  0.3456
  236MPD1     N 3641   0.834   2.800  10.621  0.1951 -0.6066 -0.2516
  236MPD1    H5 3642   0.908   2.853  10.665 -0.6244  0.1837  0.1652
  236MPD1    N1 3643   0.450   2.813  10.315 -0.3806 -0.8029  0.0726
  236MPD1    H6 3644   0.425   2.853  10.224  0.8226  1.5760  0.7845
  236MPD1    H7 3645   0.432   2.714  10.333 -1.9040 -0.3748  0.9654
  237MPD1     C 3646   0.465   0.533  14.466 -0.3018  0.9164  0.3481
  237MPD1    C1 3647   0.351   0.519  14.393  0.0552 -0.6949 -0.0299
  237MPD1    C2 3648   0.242   0.446  14.446 -0.4724 -0.0959 -0.3637
  237MPD1    C3 3649   0.250   0.395  14.572  0.3230 -0.9987 -0.1716
  237MPD1    C4 3650   0.368   0.408  14.643 -0.4105  0.6122  0.0172
  237MPD1    C5 3651   0.476   0.471  14.589 -0.5958  0.8265  0.2255
  237MPD1     H 3652   0.152   0.434  14.387 -0.9409  0.6408  0.2068
  237MPD1    H1 3653   0.379   0.348  14.733 -0.1826 -1.3582 -1.3323
  237MPD1    H2 3654   0.547   0.590  14.425 -1.7634  0.7790 -2.7464
  237MPD1    H3 3655   0.568   0.475  14.646  0.0231 -0.2551 -0.7136
  237MPD1     N 3656   0.138   0.342  14.639  1.3340 -0.2738 -0.3687
  237MPD1    H5 3657   0.153   0.321  14.737  0.5638  4.0364  0.6828
  237MPD1    N1 3658   0.349   0.551  14.257 -0.5643  0.3020 -0.5171
  237MPD1    H6 3659   0.420   0.621  14.237 -0.4786  0.8578  1.7198
  237MPD1    H7 3660   0.261   0.596  14.233 -0.4897  0.2210 -0.9382
  238MPD1     C 3661   2.078   4.644  14.962 -0.1788  0.1462 -0.2933
  238MPD1    C1 3662   2.093   4.525  15.028 -0.9818 -0.0203 -0.3135
  238MPD1    C2 3663   1.991   4.431  15.021  0.7966 -0.0510 -0.1724
  238MPD1    C3 3664   1.899   4.436  14.917  0.5269 -0.0114  0.4823
  238MPD1    C4 3665   1.896   4.551  14.841 -0.4827 -0.2538 -0.4605
  238MPD1    C5 3666   1.971   4.659  14.875 -0.0850  0.7653 -0.1274
  238MPD1     H 3667   1.996   4.337  15.075  0.7365  0.6996  1.1321
  238MPD1    H1 3668   1.817   4.559  14.767  1.4486  0.6208 -2.4357
  238MPD1    H2 3669   2.160   4.715  14.966  0.5700 -0.7332 -0.2327
  238MPD1    H3 3670   1.966   4.740  14.803  1.9497  0.6010 -0.4486
  238MPD1     N 3671   1.796   4.335  14.882 -0.1380  0.1997 -0.5183
  238MPD1    H5 3672   1.741   4.357  14.800 -1.5285  1.6501  0.8161
  238MPD1    N1 3673   2.193   4.514  15.127  0.2792  0.5105 -0.3846
  238MPD1    H6 3674   2.273   4.571  15.100 -0.0319  0.5843 -1.1449
  238MPD1    H7 3675   2.217   4.415  15.136  2.5325  1.1944  1.2053
  239MPD1     C 3676   2.484   0.091  15.199 -0.4242  0.3416 -0.2266
  239MPD1    C1 3677   2.381   0.183  15.220 -0.4682 -0.1433 -0.2650
  239MPD1    C2 3678   2.311   0.231  15.111  0.5731  0.2924  0.3222
  239MPD1    C3 3679   2.337   0.174  14.984  0.2486 -0.8656  1.1109
  239MPD1    C4 3680   2.443   0.090  14.962 -0.8028 -0.1806 -0.2133
  239MPD1    C5 3681   2.509   0.041  15.073  0.0687  0.3980 -0.4242
  239MPD1     H 3682   2.234   0.306  15.124  0.4703  0.7104 -2.8408
  239MPD1    H1 3683   2.474   0.053  14.865  1.1909  3.7019 -1.0766
  239MPD1    H2 3684   2.548   0.066  15.283  0.7077 -1.4139 -1.6126
  239MPD1    H3 3685   2.594   4.713  15.066 -2.0188 -2.5079  2.6796
  239MPD1     N 3686   2.258   0.205  14.870  0.4524 -0.0810  0.0015
  239MPD1    H5 3687   2.312   0.190  14.785 -0.5391 -1.2326 -0.4323
  239MPD1    N1 3688   2.365   0.238  15.349  0.0072 -0.1598  0.3109
  239MPD1    H6 3689   2.372   0.170  15.425  0.2260 -1.9510 -1.3114
  239MPD1    H7 3690   2.289   0.302  15.371 -0.0800  0.5078 -1.9647
  240MPD1     C 3691   1.257   0.274  13.803  0.3491 -0.0347  0.2437
  240MPD1    C1 3692   1.219   0.160  13.736  0.7588 -0.3337  0.0114
  240MPD1    C2 3693   1.218   0.040  13.804  0.2181  0.9685  0.1786
  240MPD1    C3 3694   1.277   0.029  13.921 -1.1851 -0.0767 -0.1750
  240MPD1    C4 3695   1.336   0.147  13.981  0.1272 -0.3080 -0.5162
  240MPD1    C5 3696   1.328   0.263  13.918 -0.4125  0.3479 -0.0692
  240MPD1     H 3697   1.164   4.698  13.756 -0.6702  0.8954  1.2830
  240MPD1    H1 3698   1.402   0.139  14.068 -1.6023 -0.9563  0.7454
  240MPD1    H2 3699   1.247   0.370  13.754 -0.1892  0.3093  1.0253
  240MPD1    H3 3700   1.360   0.354  13.967  1.1698  0.5891 -1.5473
  240MPD1     N 3701   1.280   4.638  13.985  0.3815  0.2966  0.0433
  240MPD1    H5 3702   1.242   4.560  13.932  2.9887 -2.1747  1.8137
  240MPD1    N1 3703   1.138   0.185  13.623  0.0027  0.2923 -0.6585
  240MPD1    H6 3704   1.160   0.274  13.579  2.0020 -0.5999 -1.4279
  240MPD1    H7 3705   1.128   0.110  13.556 -0.6274  0.4614 -0.7580
  241MPD1     C 3706   1.219   4.134  14.926 -0.4720  0.0872 -0.5437
  241MPD1    C1 3707   1.233   4.262  14.887  0.7695 -0.6152  0.1563
  241MPD1    C2 3708   1.277   4.291  14.759  0.6987 -0.5091  0.5170
  241MPD1    C3 3709   1.286   4.191  14.664 -1.1058  0.5182 -0.0406
  241MPD1    C4 3710   1.232   4.067  14.701  0.1396  0.1303 -0.3849
  241MPD1    C5 3711   1.207   4.034  14.832 -0.5118  0.3338 -0.0315
  241MPD1     H 3712   1.308   4.389  14.726 -0.9317  0.0955  0.8007
  241MPD1    H1 3713   1.225   3.990  14.625 -0.6866  0.1003 -0.2773
  241MPD1    H2 3714   1.186   4.115  15.027 -0.9209  3.6248 -0.0280
  241MPD1    H3 3715   1.188   3.928  14.849 -0.9946  0.2660 -1.0265
  241MPD1     N 3716   1.328   4.194  14.526  0.0615 -0.1782 -0.4298
  241MPD1    H5 3717   1.304   4.107  14.479  2.4640 -0.7254 -0.6105
  241MPD1    N1 3718   1.227   4.365  14.984  0.5790  0.7056  0.1940
  241MPD1    H6 3719   1.158   4.361  15.058  0.1933  0.0931 -0.1980
  241MPD1    H7 3720   1.210   4.455  14.939 -2.4275  1.2041  2.3727
  242MPD1     C 3721   1.131   2.874  15.570  0.0033  0.0471 -0.2593
  242MPD1    C1 3722   1.256   2.879  15.630  0.1098  0.0154 -0.2968
  242MPD1    C2 3723   1.361   2.925  15.549 -0.0954 -0.3934 -0.5499
  242MPD1    C3 3724   1.350   2.947  15.411 -1.6967  0.6099 -0.9710
  242MPD1    C4 3725   1.223   2.927  15.358 -0.0308 -1.1565 -0.0959
  242MPD1    C5 3726   1.117   2.890  15.433 -0.4508  0.3750 -0.5184
  242MPD1     H 3727   1.459   2.932  15.595 -0.0487 -1.0698 -0.5462
  242MPD1    H1 3728   1.222   2.941  15.250 -0.5693  0.4576  0.1294
  242MPD1    H2 3729   1.044   2.832  15.618 -0.0477  0.3436 -0.0934
  242MPD1    H3 3730   1.027   2.882  15.374  0.5671  2.0678 -2.3057
  242MPD1     N 3731   1.453   2.988  15.321 -0.2037  0.7777  0.1374
  242MPD1    H5 3732   1.432   2.990  15.222 -2.5936  0.1496  0.6297
  242MPD1    N1 3733   1.264   2.860  15.768 -0.5388  0.1542  0.2021
  242MPD1    H6 3734   1.199   2.797  15.814 -0.0524 -0.6528 -0.1937
  242MPD1    H7 3735   1.360   2.836  15.794 -0.1229  3.2103  1.4201
  243MPD1     C 3736   2.787   1.631  16.833  0.7001  0.2349  0.5280
  243MPD1    C1 3737   2.776   1.642  16.699  0.4628 -1.2977 -0.1315
  243MPD1    C2 3738   2.859   1.561  16.623 -0.3567  0.2629 -0.7755
  243MPD1    C3 3739   2.951   1.474  16.676  0.2187 -0.4053 -0.0182
  243MPD1    C4 3740   2.947   1.461  16.811  0.4842  0.7593  0.4848
  243MPD1    C5 3741   2.878   1.550  16.888  0.2539  0.0283  0.7878
  243MPD1     H 3742   2.845   1.573  16.516 -0.3231 -1.8663 -1.0158
  243MPD1    H1 3743   3.005   1.389  16.868  1.9486  0.4034 -1.4767
  243MPD1    H2 3744   2.722   1.692  16.895 -0.2717  0.7145 -0.9637
  243MPD1    H3 3745   2.884   1.523  16.993  0.3900  1.3852  1.1265
  243MPD1     N 3746   3.024   1.393  16.587  0.5914 -0.4152  0.2539
  243MPD1    H5 3747   2.992   1.414  16.493  0.7671 -0.2973  0.2202
  243MPD1    N1 3748   2.675   1.722  16.637  0.3319  0.2413 -0.1508
  243MPD1    H6 3749   2.706   1.764  16.549  0.4721 -0.6469 -0.5217
  243MPD1    H7 3750   2.642   1.795  16.701  2.4842  1.3249 -0.2467
  244MPD1     C 3751   3.689   0.525  16.434  0.5022 -0.6730  0.6697
  244MPD1    C1 3752   3.646   0.554  16.302 -0.1858  0.0186 -0.2723
  244MPD1    C2 3753   3.560   0.658  16.294 -0.0094  0.1129  0.0785
  244MPD1    C3 3754   3.503   0.718  16.402  0.0478 -0.3021 -0.5025
  244MPD1    C4 3755   3.527   0.669  16.528 -0.2959  0.7200 -0.3576
  244MPD1    C5 3756   3.631   0.578  16.544 -0.0438  0.2393 -0.7632
  244MPD1     H 3757   3.535   0.685  16.191 -1.4748  0.1186  0.4259
  244MPD1    H1 3758   3.477   0.708  16.616 -1.4345  1.5497 -1.3819
  244MPD1    H2 3759   3.777   0.462  16.446 -0.0664 -2.0141 -2.2417
  244MPD1    H3 3760   3.676   0.560  16.641 -1.9155  3.4101  0.7138
  244MPD1     N 3761   3.412   0.829  16.380 -0.5325  0.6103 -0.3226
  244MPD1    H5 3762   3.411   0.855  16.282 -0.4418  0.3296 -0.3971
  244MPD1    N1 3763   3.713   0.498  16.192  0.9645  0.1571 -0.9289
  244MPD1    H6 3764   3.734   0.400  16.211  1.0646 -0.0832 -2.2448
  244MPD1    H7 3765   3.667   0.506  16.101  1.5340 -0.9785 -1.3228
  245MPD1     C 3766   0.093   1.857  12.905 -0.3275 -0.0501  1.1992
  245MPD1    C1 3767   0.199   1.847  12.986 -0.2532 -0.8565 -0.0068
  245MPD1    C2 3768   0.214   1.946  13.073  0.2390  0.2464 -0.6042
  245MPD1    C3 3769   0.136   2.057  13.080  0.5953  0.5548 -0.0393
  245MPD1    C4 3770   0.018   2.057  13.002  0.3793 -0.3200 -0.4383
  245MPD1    C5 3771   4.736   1.959  12.909 -0.7594  0.2752 -0.1122
  245MPD1     H 3772   0.298   1.944  13.141  1.7151  4.1721 -2.3192
  245MPD1    H1 3773   4.679   2.127  13.028  0.7127  0.4560 -1.5124
  245MPD1    H2 3774   0.079   1.776  12.835 -0.9707 -0.9486  2.3740
  245MPD1    H3 3775   4.650   1.950  12.844  0.0650  2.6925 -1.5471
  245MPD1     N 3776   0.177   2.160  13.171 -0.5934  0.5603  0.7543
  245MPD1    H5 3777   0.263   2.153  13.224  0.3509  2.5168 -0.4806
  245MPD1    N1 3778   0.298   1.750  12.964 -0.4221 -1.1361  0.2716
  245MPD1    H6 3779   0.266   1.660  12.929 -0.0792 -0.7157 -1.1313
  245MPD1    H7 3780   0.369   1.731  13.033  0.2708 -2.9503 -0.9371
  246MPD1     C 3781   3.862   1.869   9.488  0.0085  0.2284 -0.1259
  246MPD1    C1 3782   3.906   1.748   9.482 -0.7056 -0.0233  0.3329
  246MPD1    C2 3783   4.043   1.723   9.497 -0.3220 -0.1955  0.0135
  246MPD1    C3 3784   4.127   1.821   9.541 -0.4221 -0.3534 -0.5893
  246MPD1    C4 3785   4.084   1.950   9.545 -0.1438 -0.0264  0.9531
  246MPD1    C5 3786   3.951   1.974   9.509  0.1120 -0.2204 -0.4782
  246MPD1     H 3787   4.075   1.619   9.498 -0.1443 -0.1603 -1.8919
  246MPD1    H1 3788   4.151   2.027   9.580  0.1683 -1.1046  2.7332
  246MPD1    H2 3789   3.757   1.895   9.474  0.0842  1.3276  1.3668
  246MPD1    H3 3790   3.903   2.069   9.529 -1.2044 -1.3955  1.9417
  246MPD1     N 3791   4.253   1.774   9.582 -0.3207  0.2394 -0.4847
  246MPD1    H5 3792   4.282   1.677   9.578 -2.2056 -0.2785 -1.6568
  246MPD1    N1 3793   3.811   1.651   9.450 -0.1993  0.4799  0.0856
  246MPD1    H6 3794   3.846   1.557   9.433 -0.4231  0.3603  0.2969
  246MPD1    H7 3795   3.720   1.650   9.496 -0.3863 -2.3778 -0.3390
  247MPD1     C 3796   4.016   2.350  16.379  0.1723  0.3895  0.0359
  247MPD1    C1 3797   4.009   2.209  16.402  0.6956 -0.4081  0.2963
  247MPD1    C2 3798   3.985   2.128  16.294  0.1239  0.1193  0.1835
  247MPD1    C3 3799   4.005   2.177  16.169  0.4273 -0.2496 -0.8734
  247MPD1    C4 3800   4.029   2.312  16.146  0.7572  0.2679  0.2996
  247MPD1    C5 3801   4.031   2.394  16.255  0.2791 -0.9775  0.3752
  247MPD1     H 3802   3.978   2.025  16.327 -2.4453 -0.7137 -2.9464
  247MPD1    H1 3803   4.023   2.371  16.056 -1.2372 -1.4709 -0.6989
  247MPD1    H2 3804   4.013   2.420  16.462 -0.3738  0.1571  0.2103
  247MPD1    H3 3805   4.028   2.499  16.229 -0.6353 -0.9408  0.6314
  247MPD1     N 3806   3.982   2.096  16.053  0.5428 -0.0143  0.7363
  247MPD1    H5 3807   3.997   2.137  15.961  2.3570 -2.2427  0.0459
  247MPD1    N1 3808   3.984   2.155  16.531 -0.2337 -0.0550 -0.1316
  247MPD1    H6 3809   4.041   2.072  16.540  0.1314  0.1664 -0.4131
  247MPD1    H7 3810   4.021   2.213  16.606 -0.2656  0.8493 -0.8163
  248MPD1     C 3811   0.371   1.366  17.490  0.0221  0.6139 -0.7460
  248MPD1    C1 3812   0.295   1.471  17.526 -0.0212 -1.0245 -0.1543
  248MPD1    C2 3813   0.252   1.471  17.656 -0.2733  0.3141 -0.1646
  248MPD1    C3 3814   0.270   1.361  17.739  0.1145  0.4923  0.5590
  248MPD1    C4 3815   0.345   1.253  17.696 -0.3429  0.0237  0.6419
  248MPD1    C5 3816   0.391   1.264  17.570 -0.0176  0.8086  0.2760
  248MPD1     H 3817   0.196   1.557  17.690 -0.7937 -0.2503  0.4138
  248MPD1    H1 3818   0.378   1.169  17.756  0.9080  1.4275  1.9324
  248MPD1    H2 3819   0.415   1.357  17.391  3.0960 -0.0931  0.6658
  248MPD1    H3 3820   0.457   1.181  17.545  0.0372 -0.0173  3.0738
  248MPD1     N 3821   0.233   1.377   0.118 -0.1916  0.5361  0.3142
  248MPD1    H5 3822   0.163   1.446   0.140 -0.5243  0.4741 -0.5599
  248MPD1    N1 3823   0.302   1.586  17.449 -0.1256 -0.4658 -0.2123
  248MPD1    H6 3824   0.225   1.651  17.463  0.2631  0.1197 -0.7842
  248MPD1    H7 3825   0.329   1.572  17.351  2.3294 -1.8765  0.6648
  249MPD1     C 3826   1.548   0.341   9.905  0.5653  0.2796  0.2285
  249MPD1    C1 3827   1.531   0.382   9.772 -0.7216 -0.3050 -0.0929
  249MPD1    C2 3828   1.565   0.510   9.742  0.2200 -0.1018  0.5085
  249MPD1    C3 3829   1.586   0.609   9.845 -0.7114  0.3200  0.2998
  249MPD1    C4 3830   1.592   0.564   9.979  0.8945 -0.0627  0.4499
  249MPD1    C5 3831   1.575   0.433  10.001  0.1281 -0.0249  0.1619
  249MPD1     H 3832   1.561   0.541   9.639 -0.8340 -3.4944 -0.4589
  249MPD1    H1 3833   1.600   0.628  10.066 -1.4305  1.8787 -0.7777
  249MPD1    H2 3834   1.534   0.238   9.936  0.4891  0.2646  0.1459
  249MPD1    H3 3835   1.577   0.405  10.106  1.8881  0.8092  0.3541
  249MPD1     N 3836   1.595   0.747   9.809 -0.1145 -0.3638  0.2872
  249MPD1    H5 3837   1.577   0.764   9.711 -0.3932  0.1903  0.4334
  249MPD1    N1 3838   1.518   0.284   9.670  0.1049 -0.6547 -0.6037
  249MPD1    H6 3839   1.459   0.209   9.705  1.3817 -0.4324  2.0652
  249MPD1    H7 3840   1.473   0.325   9.589  2.2315 -0.0249 -1.4746
  250MPD2     C 3841   3.247   0.581  13.196  0.4841  0.3732 -0.4621
  250MPD2    C1 3842   3.153   0.657  13.135 -0.2423  0.2960  0.4170
  250MPD2    C2 3843   3.032   0.598  13.116  0.1869  0.0395  0.3836
  250MPD2    C3 3844   3.010   0.463  13.149  0.2491  0.3313 -0.8486
  250MPD2    C4 3845   3.110   0.392  13.202 -0.2857  0.0492  0.6720
  250MPD2    C5 3846   3.232   0.450  13.233 -0.1694 -0.2962  0.3261
  250MPD2     H 3847   2.947   0.647  13.071 -0.9922 -2.3764 -0.0142
  250MPD2    H1 3848   3.105   0.287  13.230  1.4939 -0.5205 -1.1891
  250MPD2    H2 3849   3.343   0.624  13.222  1.8132 -1.7303 -1.8653
  250MPD2    H3 3850   3.318   0.396  13.272 -1.4606 -1.8248  1.0342
  250MPD2     N 3851   2.893   0.399  13.099  0.3276 -0.4244  0.4353
  250MPD2    H5 3852   2.893   0.298  13.109 -2.8868 -0.5404 -0.8020
  250MPD2    N1 3853   3.189   0.782  13.091 -0.4213  0.4172  0.0938
  250MPD2    H7 3854   3.284   0.808  13.115 -1.1800  1.2489  2.1544
  251TMC3    C1 3855   3.185   0.977  12.949  0.1002  0.4676 -0.1068
  251TMC3    C2 3856   3.110   1.092  12.936  0.1770 -0.5294 -1.0945
  251TMC3    C3 3857   3.172   1.216  12.950  0.6784  0.0834 -0.6626
  251TMC3    C4 3858   3.320   0.982  12.976  0.7916 -0.3697 -0.3429
  251TMC3    C5 3859   3.378   1.108  12.981 -0.2186  0.4860 -0.3157
  251TMC3    C6 3860   3.311   1.225  12.955  0.0031  0.1743 -0.2974
  251TMC3     C 3861   3.112   0.865  13.008  0.3651 -0.3285 -0.0436
  251TMC3     O 3862   2.992   0.859  12.980  0.0909  0.4560  0.9672
  251TMC3     H 3863   3.003   1.075  12.928 -0.4398  2.4881  0.4435
  251TMC3    H1 3864   3.382   0.894  12.978  0.3169 -0.7170 -1.3075
  251TMC3    H2 3865   3.364   1.319  12.959 -0.1818  0.2176  1.0566
  251TMC3    C7 3866   3.514   1.111  13.031  0.0935  0.6948  0.1566
  251TMC3    C8 3867   3.071   1.320  12.959 -0.0097  0.0930 -0.3732
  251TMC3    O1 3868   3.575   1.009  13.050 -0.1943  0.5408  0.3414
  251TMC3    O2 3869   2.955   1.286  12.961  0.3153 -0.1443  0.2023
  252TMC3    C1 3870   4.125   1.759   9.911  0.1175  0.2594 -0.0676
  252TMC3    C2 3871   4.227   1.840   9.956  0.0720  0.2762  0.6493
  252TMC3    C3 3872   4.206   1.975   9.972 -0.4540  0.2680  0.0282
  252TMC3    C4 3873   3.999   1.817   9.874  0.5193 -0.1421 -0.1683
  252TMC3    C5 3874   3.982   1.953   9.877 -0.4776 -0.2588 -0.6120
  252TMC3    C6 3875   4.085   2.033   9.930  0.4187 -0.1758 -0.6996
  252TMC3     C 3876   4.144   1.619   9.900  0.3627 -0.3256 -0.0633
  252TMC3     O 3877   4.258   1.577   9.922  0.4691 -0.1978  0.4991
  252TMC3     H 3878   4.322   1.803   9.992 -0.0565 -2.5563 -1.9590
  252TMC3    H1 3879   3.921   1.753   9.835  0.1100  0.0106  0.4001
  252TMC3    H2 3880   4.072   2.140   9.938  0.6981 -0.4532  3.8698
  252TMC3    C7 3881   3.853   2.003   9.866 -0.8396  0.4743 -0.2127
  252TMC3    C8 3882   4.322   2.055   9.996 -0.4767 -0.3010  0.3545
  252TMC3    O1 3883   3.842   2.120   9.835  0.0426  0.1569 -0.3122
  252TMC3    O2 3884   4.428   1.997   9.993  0.7084 -1.0843  0.2048
  253MPD2     C 3885   3.936   0.977  14.919  0.7017  0.4797  0.4678
  253MPD2    C1 3886   3.826   0.992  15.004  0.4064 -0.3872  0.2142
  253MPD2    C2 3887   3.835   0.941  15.134 -0.5928  0.0258 -0.1237
  253MPD2    C3 3888   3.943   0.863  15.173 -0.1800 -1.2702  0.2705
  253MPD2    C4 3889   4.049   0.851  15.089  0.3358 -0.1226  0.3589
  253MPD2    C5 3890   4.040   0.906  14.972 -1.2896 -0.2273 -0.5716
  253MPD2     H 3891   3.748   0.961  15.195 -0.0039 -1.1648  1.1148
  253MPD2    H1 3892   4.143   0.805  15.117  0.7346 -1.3013 -2.9568
  253MPD2    H2 3893   3.943   1.015  14.817  0.8167 -0.5462  0.0840
  253MPD2    H3 3894   4.124   0.881  14.908 -0.3376 -0.2017  0.6812
  253MPD2     N 3895   3.945   0.796  15.298  0.1049 -0.6269  0.7286
  253MPD2    H5 3896   4.026   0.739  15.319  1.2015 -0.4887 -3.1272
  253MPD2    N1 3897   3.714   1.073  14.968  0.1823  0.4879  0.2951
  253MPD2    H7 3898   3.639   1.090  15.033 -0.6981  1.4458 -0.9689
  254TMC3    C1 3899   3.867   0.705  15.510  0.2373 -0.0511  0.3353
  254TMC3    C2 3900   3.756   0.674  15.578  0.1168 -0.5710  0.9147
  254TMC3    C3 3901   3.778   0.600  15.691 -0.5224  0.1521  0.2795
  254TMC3    C4 3902   3.988   0.657  15.536  0.5945  0.1788 -0.2057
  254TMC3    C5 3903   4.001   0.571  15.643  0.3182  0.0076  0.1261
  254TMC3    C6 3904   3.895   0.531  15.721 -0.7035  0.0112 -0.1754
  254TMC3     C 3905   3.841   0.789  15.392 -0.4275 -0.4607  0.2686
  254TMC3     O 3906   3.729   0.841  15.385  0.0591  0.6178  0.1466
  254TMC3     H 3907   3.659   0.717  15.558  0.1206  0.0073  2.1360
  254TMC3    H1 3908   4.073   0.699  15.484  1.1613 -1.1565 -0.3507
  254TMC3    H2 3909   3.892   0.456  15.800  1.5384  1.8074  1.6250
  254TMC3    C7 3910   4.129   0.540  15.698  0.1641  1.2716  0.0303
  254TMC3    C8 3911   3.715   0.647  15.813  0.5361 -0.0278 -0.3797
  254TMC3    O1 3912   4.126   0.474  15.800  0.0050 -0.8220  0.1998
  254TMC3    O2 3913   3.786   0.634  15.912  0.5911  0.0853  0.2488
  255MPD2     C 3914   2.166   3.243   9.985  0.7214 -0.0502 -0.4788
  255MPD2    C1 3915   2.203   3.348  10.067 -0.1259 -0.0045 -0.1258
  255MPD2    C2 3916   2.317   3.343  10.144 -0.6441 -0.1093  0.1275
  255MPD2    C3 3917   2.403   3.231  10.144 -1.2173 -0.2221 -0.1804
  255MPD2    C4 3918   2.356   3.125  10.062  0.3437  0.0868  0.3210
  255MPD2    C5 3919   2.243   3.133   9.989  0.8559  0.4326 -0.3502
  255MPD2     H 3920   2.353   3.432  10.193 -0.1937  0.6197 -1.5142
  255MPD2    H1 3921   2.399   3.026  10.061  0.0393 -0.0683  3.4407
  255MPD2    H2 3922   2.075   3.252   9.926  0.7330  0.4585 -0.4199
  255MPD2    H3 3923   2.206   3.042   9.942  0.8697  0.3171 -0.1363
  255MPD2     N 3924   2.528   3.220  10.217  0.1380 -0.5669  0.0661
  255MPD2    H5 3925   2.545   3.300  10.276 -1.3671 -0.5060  0.4235
  255MPD2    N1 3926   2.117   3.458  10.069  0.4493 -0.2141 -0.3247
  255MPD2    H7 3927   2.037   3.446  10.008 -1.0652  2.5089  1.0952
  256TMC3    C1 3928   1.999   3.642  10.104  0.4530  0.2638  0.4191
  256TMC3    C2 3929   2.034   3.769  10.079 -0.0301  0.1549  0.1684
  256TMC3    C3 3930   1.984   3.831   9.968  0.4796  0.3872  0.1149
  256TMC3    C4 3931   1.922   3.574  10.015  0.2114 -0.0716 -0.1711
  256TMC3    C5 3932   1.878   3.634   9.903 -0.0975  0.6270 -0.2398
  256TMC3    C6 3933   1.904   3.768   9.877 -0.0913  0.0698  0.1605
  256TMC3     C 3934   2.115   3.570  10.145 -0.4475  0.2739  0.3850
  256TMC3     O 3935   2.195   3.599  10.232  0.4260  0.3574 -0.5233
  256TMC3     H 3936   2.094   3.821  10.154  1.4088 -0.9512 -0.2159
  256TMC3    H1 3937   1.870   3.485  10.051 -0.6183  0.9089  1.0449
  256TMC3    H2 3938   1.878   3.819   9.785 -0.7487 -1.0395 -0.2713
  256TMC3    C7 3939   1.841   3.550   9.798  0.0721 -0.5196 -1.2650
  256TMC3    C8 3940   2.073   3.934   9.911 -0.0115  0.1822  0.2937
  256TMC3    O1 3941   1.902   3.441   9.798  0.3399 -0.1739 -0.3149
  256TMC3    O2 3942   2.081   3.950   9.790 -0.3107 -0.4362 -0.0281
  257MPD2     C 3943   1.443   0.664  13.435  0.5878 -0.3078 -0.4292
  257MPD2    C1 3944   1.527   0.574  13.388  0.2521 -0.0407 -0.4614
  257MPD2    C2 3945   1.574   0.471  13.472 -0.2481 -0.4147 -0.1966
  257MPD2    C3 3946   1.542   0.467  13.608 -0.6105  0.5760 -0.2202
  257MPD2    C4 3947   1.460   0.572  13.655 -0.8467  0.4469 -0.0944
  257MPD2    C5 3948   1.402   0.659  13.570 -0.3182 -0.4007 -0.0357
  257MPD2     H 3949   1.633   0.388  13.434  1.0961 -0.7329  2.5889
  257MPD2    H1 3950   1.423   0.573  13.757 -2.2700 -2.5028 -0.5861
  257MPD2    H2 3951   1.408   0.748  13.376 -2.0521  0.0382  1.6366
  257MPD2    H3 3952   1.336   0.732  13.615  2.3844  1.7943  0.3361
  257MPD2     N 3953   1.573   0.368  13.700  0.7024  0.8087  0.1072
  257MPD2    H5 3954   1.547   0.389  13.797 -2.1083 -2.5340  0.0780
  257MPD2    N1 3955   1.560   0.578  13.250 -0.4341  0.3346 -0.3232
  257MPD2    H7 3956   1.520   0.659  13.205 -1.5651  0.9453  1.8100
  258TMC3    C1 3957   1.624   0.139  13.766  0.1845 -0.2919  0.4153
  258TMC3    C2 3958   1.669   0.020  13.726  0.6000 -0.5206 -0.0935
  258TMC3    C3 3959   1.765   4.694  13.798  0.4159  0.0630  0.0801
  258TMC3    C4 3960   1.668   0.195  13.890 -0.6908 -0.6239  0.2181
  258TMC3    C5 3961   1.758   0.116  13.965  0.0785  0.1287 -0.1681
  258TMC3    C6 3962   1.808   4.739  13.917  0.0529  0.1684  0.1705
  258TMC3     C 3963   1.608   0.238  13.664  0.3472  0.5161 -0.1910
  258TMC3     O 3964   1.609   0.192  13.551  0.5229  0.9842 -0.2270
  258TMC3     H 3965   1.613   4.716  13.644 -0.2040 -0.1247  0.2397
  258TMC3    H1 3966   1.642   0.292  13.931 -0.7558 -1.0818  1.2567
  258TMC3    H2 3967   1.871   4.670  13.972 -0.4290  1.0954  1.8839
  258TMC3    C7 3968   1.819   0.181  14.083  0.2664  0.0529  0.2309
  258TMC3    C8 3969   1.762   4.552  13.774 -0.3420  0.7721 -0.0621
  258TMC3    O1 3970   1.765   0.277  14.140  0.3818  0.4173 -0.4601
  258TMC3    O2 3971   1.734   4.481  13.870 -0.1304  0.1902  0.2710
  259MPD2     C 3972   1.157   2.220   0.893 -0.2379  0.6369  0.0975
  259MPD2    C1 3973   1.150   2.100   0.828  0.2008  0.6281 -0.3543
  259MPD2    C2 3974   1.084   2.109   0.703  0.0205  0.7165  0.5776
  259MPD2    C3 3975   1.011   2.217   0.665 -0.6843  0.6671 -0.0755
  259MPD2    C4 3976   1.023   2.335   0.738 -0.5429  0.0699  0.0974
  259MPD2    C5 3977   1.096   2.338   0.848  0.0139  0.0868 -0.3691
  259MPD2     H 3978   1.096   2.022   0.639 -0.0963  0.8332  0.3972
  259MPD2    H1 3979   0.982   2.431   0.709  0.6791  0.4087 -0.5236
  259MPD2    H2 3980   1.208   2.231   0.988  1.3368  1.0266 -0.7914
  259MPD2    H3 3981   1.106   2.432   0.901 -1.4700  0.6498 -1.0995
  259MPD2     N 3982   0.931   2.208   0.550  0.0275 -0.0019  0.2617
  259MPD2    H5 3983   0.919   2.112   0.519  0.3833 -0.0204  0.1853
  259MPD2    N1 3984   1.207   1.988   0.891  0.2861 -0.2062  0.2161
  259MPD2    H7 3985   1.239   2.002   0.986 -1.1480  0.5540  0.5869
  260TMC3    C1 3986   0.785   2.261   0.360 -0.5973 -0.3618  0.8710
  260TMC3    C2 3987   0.733   2.364   0.281  0.4957  0.0948 -0.1023
  260TMC3    C3 3988   0.710   2.341   0.151  0.3958 -0.1636 -0.0429
  260TMC3    C4 3989   0.781   2.127   0.322 -0.0191  0.2232  0.2179
  260TMC3    C5 3990   0.747   2.116   0.187  0.8368  0.0018  0.5476
  260TMC3    C6 3991   0.702   2.215   0.104  0.3759 -0.3639 -0.5643
  260TMC3     C 3992   0.869   2.315   0.475 -0.1875 -0.5801  0.0613
  260TMC3     O 3993   0.877   2.434   0.490  0.0469  0.2809  0.1970
  260TMC3     H 3994   0.729   2.469   0.308 -0.9021 -0.1839  0.7188
  260TMC3    H1 3995   0.829   2.042   0.370  0.3661 -0.4432 -1.3471
  260TMC3    H2 3996   0.679   2.200  17.757  3.5964 -3.0746 -0.8988
  260TMC3    C7 3997   0.805   2.011   0.113  0.3576 -0.1130  0.1475
  260TMC3    C8 3998   0.816   2.413   0.081  0.9485  0.3101  0.0495
  260TMC3    O1 3999   0.832   2.043  17.754 -0.1253 -0.2850 -0.4082
  260TMC3    O2 4000   0.832   2.530   0.114 -0.0048 -0.2061 -0.3976
  261MPD2     C 4001   2.332   0.424  12.483  0.0600 -1.2269  1.1595
  261MPD2    C1 4002   2.471   0.425  12.494 -0.1047 -0.8913 -0.6550
  261MPD2    C2 4003   2.545   0.479  12.386  0.1486 -0.5115 -0.3474
  261MPD2    C3 4004   2.479   0.536  12.277 -0.3364 -0.1036  0.2896
  261MPD2    C4 4005   2.340   0.530  12.273 -0.2128 -0.2975  0.6270
  261MPD2    C5 4006   2.267   0.482  12.374 -0.0671 -0.7662  0.4804
  261MPD2     H 4007   2.650   0.492  12.410 -0.2294 -0.5434  1.3577
  261MPD2    H1 4008   2.289   0.545  12.179 -1.6031 -1.4146  1.2061
  261MPD2    H2 4009   2.265   0.389  12.561 -2.7911  2.4822  0.3633
  261MPD2    H3 4010   2.160   0.491  12.360  0.4044  0.4666 -2.3094
  261MPD2     N 4011   2.565   0.577  12.174  0.7736  0.7199 -0.2651
  261MPD2    H5 4012   2.659   0.540  12.180 -0.2206 -1.6131  0.6836
  261MPD2    N1 4013   2.542   0.385  12.612  0.2801  0.5413  0.2801
  261MPD2    H7 4014   2.640   0.412  12.618  0.0211  1.7919 -1.0296
  262TMC3    C1 4015   2.608   0.666  11.960 -0.3440 -0.5161 -0.1844
  262TMC3    C2 4016   2.570   0.746  11.858  0.1061 -0.5722  0.8504
  262TMC3    C3 4017   2.655   0.749  11.751  0.2088  0.0159 -0.1996
  262TMC3    C4 4018   2.728   0.586  11.963 -0.6258  0.0663  0.5770
  262TMC3    C5 4019   2.813   0.607  11.858  0.0938  0.0290  0.2991
  262TMC3    C6 4020   2.781   0.692  11.753 -0.2447 -0.8166  0.0377
  262TMC3     C 4021   2.512   0.647  12.067  0.1637  0.4022 -0.4318
  262TMC3     O 4022   2.415   0.716  12.064 -0.3461  0.4640  0.4960
  262TMC3     H 4023   2.480   0.808  11.863  0.6855  0.4943 -1.8865
  262TMC3    H1 4024   2.752   0.520  12.045  1.3032  0.1751  0.1066
  262TMC3    H2 4025   2.844   0.706  11.666 -0.1474  1.7860  0.5190
  262TMC3    C7 4026   2.922   0.515  11.840  0.3972  0.3090  0.0231
  262TMC3    C8 4027   2.623   0.842  11.641  0.1146 -0.7546  0.4769
  262TMC3    O1 4028   2.911   0.401  11.889 -0.0531  0.0910 -0.4390
  262TMC3    O2 4029   2.575   0.952  11.672 -0.6005  0.0683 -0.0926
  263MPD2     C 4030   3.688   0.174  11.744 -0.3056  0.4155  0.8250
  263MPD2    C1 4031   3.770   0.107  11.656  0.3121  0.4844 -0.0886
  263MPD2    C2 4032   3.818   0.178  11.545  0.4946  0.6331 -0.5624
  263MPD2    C3 4033   3.780   0.312  11.532  0.9278  0.1201 -0.3631
  263MPD2    C4 4034   3.696   0.373  11.630 -0.2276  0.2549  0.1467
  263MPD2    C5 4035   3.651   0.302  11.741  0.4917  0.2733  0.9274
  263MPD2     H 4036   3.890   0.141  11.474 -0.3380 -1.8200 -0.1144
  263MPD2    H1 4037   3.659   0.472  11.611  0.6381  0.7940  1.2467
  263MPD2    H2 4038   3.642   0.122  11.827  1.0833 -0.6094  0.9523
  263MPD2    H3 4039   3.583   0.344  11.813  3.5039 -0.2740  4.0719
  263MPD2     N 4040   3.839   0.395  11.434 -0.5259  0.3125 -0.7509
  263MPD2    H5 4041   3.891   0.347  11.361 -0.9481 -0.7622 -0.3478
  263MPD2    N1 4042   3.808   4.714  11.680  0.3328 -0.3953 -0.7876
  263MPD2    H7 4043   3.775   4.666  11.763  1.0791  1.0628  0.3635
  264TMC3    C1 4044   3.917   0.590  11.328 -0.1226 -0.5530 -0.6973
  264TMC3    C2 4045   3.992   0.700  11.363  0.0603 -0.1986 -0.8987
  264TMC3    C3 4046   4.078   0.742  11.267 -0.4832 -0.1356 -0.7118
  264TMC3    C4 4047   3.937   0.522  11.212 -0.4156 -0.0865 -0.0833
  264TMC3    C5 4048   4.026   0.574  11.122 -0.0874 -0.4347  0.4860
  264TMC3    C6 4049   4.097   0.688  11.143 -0.8609  0.2642 -0.0320
  264TMC3     C 4050   3.833   0.534  11.425 -0.6209 -0.2586 -0.3977
  264TMC3     O 4051   3.798   0.611  11.514  0.0938 -0.2314 -0.4368
  264TMC3     H 4052   3.983   0.754  11.456  1.0912 -2.3464  0.4234
  264TMC3    H1 4053   3.884   0.431  11.187  2.8146 -2.2231  0.8241
  264TMC3    H2 4054   4.181   0.717  11.080  1.2496 -1.2237  2.1244
  264TMC3    C7 4055   4.012   0.535  10.985  0.4511  0.4814 -0.2008
  264TMC3    C8 4056   4.151   0.867  11.284  0.0622  0.6628 -0.0231
  264TMC3    O1 4057   4.001   0.418  10.951 -0.6079  0.2486 -0.0799
  264TMC3    O2 4058   4.180   0.914  11.175 -0.1207  0.2441  0.6654
  265MPD2     C 4059   0.532   0.264  15.453  0.4295 -0.0268  0.0072
  265MPD2    C1 4060   0.544   0.366  15.358 -0.5161 -0.0336 -0.3114
  265MPD2    C2 4061   0.623   0.336  15.253 -0.1808 -0.0531 -0.8351
  265MPD2    C3 4062   0.696   0.220  15.246 -0.2377 -0.2143  0.2167
  265MPD2    C4 4063   0.684   0.125  15.345  0.4094  0.4426  0.4949
  265MPD2    C5 4064   0.600   0.140  15.448  0.0999 -0.4560 -0.1556
  265MPD2     H 4065   0.644   0.409  15.176 -0.7877  0.7632 -0.2325
  265MPD2    H1 4066   0.746   0.036  15.338  1.3587  1.1955 -0.7546
  265MPD2    H2 4067   0.451   0.274  15.524  1.0252 -0.7692  0.7921
  265MPD2    H3 4068   0.576   0.062  15.519 -1.0526  1.2783  1.3329
  265MPD2     N 4069   0.787   0.185  15.146  0.4868  0.4006 -0.2158
  265MPD2    H5 4070   0.834   0.095  15.158 -0.0155  0.1819  0.1235
  265MPD2    N1 4071   0.478   0.488  15.379 -0.0889 -0.5403  0.7503
  265MPD2    H7 4072   0.482   0.561  15.309 -1.6937 -1.8558 -0.7325
  266TMC3    C1 4073   0.380   0.683  15.475  0.2147 -0.4301 -0.2987
  266TMC3    C2 4074   0.400   0.756  15.583 -0.5864 -0.1136 -0.0832
  266TMC3    C3 4075   0.381   0.893  15.566 -0.1433 -0.3048  0.0385
  266TMC3    C4 4076   0.352   0.729  15.348  0.9988  1.3752 -0.3289
  266TMC3    C5 4077   0.326   0.862  15.339 -0.7657  0.2370 -0.6739
  266TMC3    C6 4078   0.321   0.942  15.453  0.1273 -0.5262  0.8265
  266TMC3     C 4079   0.417   0.539  15.490  0.5887  0.0278 -0.8181
  266TMC3     O 4080   0.410   0.496  15.605 -0.1279  0.1971 -0.5159
  266TMC3     H 4081   0.451   0.716  15.670  0.8317 -0.8241 -1.2294
  266TMC3    H1 4082   0.324   0.660  15.269 -0.5976  1.1695  0.4177
  266TMC3    H2 4083   0.309   1.048  15.430  3.2882 -0.8639 -2.2240
  266TMC3    C7 4084   0.272   0.917  15.212 -0.4979  0.0568 -0.3103
  266TMC3    C8 4085   0.464   0.974  15.651 -0.2048  0.4214  0.1170
  266TMC3    O1 4086   0.202   1.016  15.214  0.2506 -0.1150 -0.4593
  266TMC3    O2 4087   0.529   0.916  15.734 -0.0476  0.1009  0.5541
  267MPD2     C 4088   3.502   1.762  17.407 -1.0484  0.9123 -0.4322
  267MPD2    C1 4089   3.435   1.748  17.529  0.0268 -0.8011  0.4039
  267MPD2    C2 4090   3.314   1.808  17.550  0.2827 -0.3076  0.3853
  267MPD2    C3 4091   3.264   1.885  17.450  0.5863 -0.3755 -0.2252
  267MPD2    C4 4092   3.318   1.880  17.322 -0.2056 -0.9377  0.1102
  267MPD2    C5 4093   3.435   1.817  17.303  0.3149 -0.0084  0.3444
  267MPD2     H 4094   3.259   1.789  17.641 -0.5307 -0.6392 -0.1759
  267MPD2    H1 4095   3.279   1.935  17.236 -1.1839 -2.5343 -0.4578
  267MPD2    H2 4096   3.604   1.728  17.390 -0.9429  1.4311 -0.8576
  267MPD2    H3 4097   3.480   1.817  17.205  1.6842 -0.8149  0.9634
  267MPD2     N 4098   3.150   1.960  17.470 -0.7450  0.0942 -0.1321
  267MPD2    H5 4099   3.115   2.015  17.392 -1.7146 -0.9970 -0.4567
  267MPD2    N1 4100   3.520   1.684  17.632 -0.5048 -0.0912  0.3285
  267MPD2    H7 4101   3.609   1.646  17.601 -1.0967  0.0061 -1.4881
  268TMC3    C1 4102   3.635   1.674   0.085  0.3215 -0.6284  0.3258
  268TMC3    C2 4103   3.736   1.757   0.029  0.1495  0.4818  0.6017
  268TMC3    C3 4104   3.808   1.834   0.116 -0.1152 -0.2857 -0.0457
  268TMC3    C4 4105   3.627   1.663   0.222 -0.1004 -0.0442 -0.1196
  268TMC3    C5 4106   3.711   1.735   0.304  0.1281 -0.1873 -0.2194
  268TMC3    C6 4107   3.800   1.824   0.254 -0.3157 -0.4417 -0.3535
  268TMC3     C 4108   3.503   1.671   0.012 -0.0392  0.2159  0.3893
  268TMC3     O 4109   3.407   1.710   0.076  0.3483  0.1348  0.2030
  268TMC3     H 4110   3.757   1.763  17.680  0.6156 -0.0585  0.6648
  268TMC3    H1 4111   3.550   1.594   0.256  1.8763 -1.8461  0.7149
  268TMC3    H2 4112   3.870   1.884   0.311 -2.1521 -0.8675  2.3547
  268TMC3    C7 4113   3.721   1.687   0.442  0.2499 -0.6181  0.5630
  268TMC3    C8 4114   3.896   1.931   0.050 -0.0527 -0.8206  0.0216
  268TMC3    O1 4115   3.723   1.566   0.472 -0.1537  0.2528  0.0488
  268TMC3    O2 4116   4.002   1.964   0.100  0.2908 -0.0817 -0.2473
  269MPD2     C 4117   3.562   1.157  15.316 -0.5561 -0.0086  0.2778
  269MPD2    C1 4118   3.438   1.189  15.357 -0.1624 -0.2312  0.1051
  269MPD2    C2 4119   3.394   1.318  15.332 -0.5159  0.0100 -0.4029
  269MPD2    C3 4120   3.470   1.413  15.271 -0.4462 -0.4862 -0.0697
  269MPD2    C4 4121   3.588   1.375  15.218 -0.3572 -0.0390 -0.3433
  269MPD2    C5 4122   3.633   1.249  15.242  0.3567 -0.4563  0.5446
  269MPD2     H 4123   3.295   1.351  15.361  0.5643  1.0130  2.1332
  269MPD2    H1 4124   3.646   1.440  15.153 -0.4556  1.9285  1.5460
  269MPD2    H2 4125   3.597   1.057  15.339 -1.7168 -0.1614  1.4091
  269MPD2    H3 4126   3.735   1.225  15.214 -0.6631 -0.9944 -2.6915
  269MPD2     N 4127   3.419   1.548  15.265 -0.2393  0.0434 -0.1315
  269MPD2    H5 4128   3.324   1.560  15.299 -0.2732 -1.2734  0.2646
  269MPD2    N1 4129   3.357   1.090  15.413 -0.3436 -0.1167 -0.0882
  269MPD2    H7 4130   3.398   0.999  15.430  0.4329 -0.0863 -1.8125
  270TMC3    C1 4131   3.181   0.979  15.525 -0.4795 -0.5386  0.0107
  270TMC3    C2 4132   3.048   0.968  15.556  0.4663  0.6033  0.6213
  270TMC3    C3 4133   3.001   0.849  15.597  0.8161 -0.1048 -0.4285
  270TMC3    C4 4134   3.263   0.865  15.528 -0.0769  0.1060 -0.0291
  270TMC3    C5 4135   3.204   0.752  15.577  0.2904 -0.4737  0.5957
  270TMC3    C6 4136   3.078   0.732  15.617  0.1117 -0.0737 -0.7329
  270TMC3     C 4137   3.239   1.103  15.487 -0.7488 -0.3444  0.1413
  270TMC3     O 4138   3.173   1.201  15.510 -0.1440  0.3218 -0.3252
  270TMC3     H 4139   2.985   1.054  15.539  1.0328  0.6422 -1.2737
  270TMC3    H1 4140   3.367   0.864  15.497 -0.1650 -0.5873 -0.2911
  270TMC3    H2 4141   3.041   0.652  15.680  0.7177  1.5124  1.6378
  270TMC3    C7 4142   3.296   0.643  15.584 -0.5086 -0.2005  0.1226
  270TMC3    C8 4143   2.863   0.851  15.627  0.1941  0.8378  1.1023
  270TMC3    O1 4144   3.412   0.677  15.599  0.0282 -0.6174 -0.4039
  270TMC3    O2 4145   2.838   0.846  15.744  0.0417  0.1214  0.8747
  271MPD2     C 4146   2.600   0.448  13.829  0.2705 -0.9677 -0.3755
  271MPD2    C1 4147   2.573   0.513  13.950 -0.3996 -0.4324  0.3484
  271MPD2    C2 4148   2.469   0.600  13.950 -0.4631 -0.3158 -1.2627
  271MPD2    C3 4149   2.385   0.609  13.841 -0.5034 -0.6017  0.9163
  271MPD2    C4 4150   2.400   0.536  13.726 -0.1612 -0.6948 -0.1980
  271MPD2    C5 4151   2.512   0.457  13.719 -0.3673  0.1986  0.6012
  271MPD2     H 4152   2.450   0.660  14.038  0.6036 -2.6213  0.5377
  271MPD2    H1 4153   2.330   0.537  13.643  1.1171 -1.7065 -1.2705
  271MPD2    H2 4154   2.687   0.384  13.817  1.0043 -0.0374 -0.0067
  271MPD2    H3 4155   2.525   0.396  13.630 -1.2917  0.6320  0.1763
  271MPD2     N 4156   2.263   0.682  13.839  0.1517 -0.1223  0.4829
  271MPD2    H5 4157   2.201   0.676  13.759  0.4383  1.9579  0.1113
  271MPD2    N1 4158   2.649   0.493  14.070 -0.1832  0.4596  0.3091
  271MPD2    H7 4159   2.625   0.543  14.155  3.1877 -0.7636  2.0139
  272TMC3    C1 4160   2.821   0.391  14.215  0.6150 -0.5693 -0.8628
  272TMC3    C2 4161   2.951   0.347  14.221  0.1113 -0.2567  0.0716
  272TMC3    C3 4162   2.987   0.296  14.344 -0.2327 -0.1975 -0.1954
  272TMC3    C4 4163   2.734   0.398  14.317 -0.3478 -0.5879 -0.3494
  272TMC3    C5 4164   2.776   0.353  14.442 -0.1873  0.4500  0.2732
  272TMC3    C6 4165   2.907   0.318  14.455  0.3298  0.0137 -0.3484
  272TMC3     C 4166   2.770   0.425  14.081  0.0299 -0.3148 -0.0593
  272TMC3     O 4167   2.837   0.372  13.988 -0.0831 -0.1651  0.1890
  272TMC3     H 4168   3.009   0.325  14.133 -0.0112  0.1456 -0.1095
  272TMC3    H1 4169   2.628   0.410  14.298 -0.1554  1.0787 -0.4434
  272TMC3    H2 4170   2.926   0.271  14.551  1.8767 -1.5550 -1.4150
  272TMC3    C7 4171   2.693   0.380  14.557  0.3876 -0.4584  0.7888
  272TMC3    C8 4172   3.089   0.198  14.353  0.0524 -0.2911 -0.0181
  272TMC3    O1 4173   2.714   0.306  14.652 -0.0621 -0.2960  0.5034
  272TMC3    O2 4174   3.145   0.167  14.248 -0.0149  0.5046  0.7088
  273MPD2     C 4175   3.836   3.467  12.047 -0.5022  0.6461  0.1648
  273MPD2    C1 4176   3.965   3.435  12.016  0.1677  0.2516 -0.6478
  273MPD2    C2 4177   4.013   3.460  11.889  0.8431  0.3330 -0.5116
  273MPD2    C3 4178   3.932   3.530  11.799  0.6585  0.0188  0.3617
  273MPD2    C4 4179   3.808   3.569  11.836  0.2030  0.7776  0.1180
  273MPD2    C5 4180   3.761   3.532  11.955  0.0217  0.4874  0.0250
  273MPD2     H 4181   4.110   3.427  11.854  0.8513  0.5045 -0.6459
  273MPD2    H1 4182   3.749   3.628  11.767  0.0346 -0.5575 -0.8754
  273MPD2    H2 4183   3.788   3.454  12.143  2.8991  1.5056  1.9663
  273MPD2    H3 4184   3.658   3.558  11.975 -0.5049 -0.4878 -1.4346
  273MPD2     N 4185   3.968   3.560  11.668 -0.7922 -0.1369  0.5667
  273MPD2    H5 4186   3.897   3.560  11.596 -1.5500 -2.0460  1.2918
  273MPD2    N1 4187   4.028   3.353  12.115  0.0956  0.4182 -0.2610
  273MPD2    H7 4188   3.978   3.346  12.203  1.5219 -1.0782  0.4295
  274TMC3    C1 4189   4.122   3.604  11.487 -0.5131 -0.0244  0.4322
  274TMC3    C2 4190   4.020   3.594  11.401  0.4466 -0.0271 -0.6813
  274TMC3    C3 4191   4.047   3.631  11.266 -0.6009  0.0047 -0.8089
  274TMC3    C4 4192   4.246   3.644  11.438  0.7534 -0.0049 -0.2611
  274TMC3    C5 4193   4.270   3.699  11.321  0.1826  0.2791  1.1639
  274TMC3    C6 4194   4.168   3.678  11.226 -0.6211  0.4497  1.0850
  274TMC3     C 4195   4.099   3.577  11.631  0.2136 -0.2656 -0.4763
  274TMC3     O 4196   4.198   3.572  11.702 -0.0308 -0.1074  0.7229
  274TMC3     H 4197   3.935   3.531  11.424  0.1799 -0.0614 -1.7396
  274TMC3    H1 4198   4.321   3.664  11.513  0.4147  0.2753  0.0052
  274TMC3    H2 4199   4.179   3.737  11.136 -0.1065  0.1467  0.9467
  274TMC3    C7 4200   4.323   3.835  11.320  0.0753 -0.3846 -0.1484
  274TMC3    C8 4201   3.935   3.635  11.180  0.1975  0.7735  0.4400
  274TMC3    O1 4202   4.247   3.921  11.286 -0.2721 -0.5161 -0.0241
  274TMC3    O2 4203   3.828   3.610  11.227  1.0634  0.1996  0.5687
  275MPD2     C 4204   4.084   1.579  14.566  0.0421  0.1013  0.6153
  275MPD2    C1 4205   3.988   1.646  14.495  0.6246 -0.2609 -0.1550
  275MPD2    C2 4206   3.885   1.564  14.449 -0.0311  0.0140 -0.1788
  275MPD2    C3 4207   3.863   1.439  14.489  0.3022 -0.5236  0.1600
  275MPD2    C4 4208   3.963   1.374  14.552 -0.1699  0.3764  0.1043
  275MPD2    C5 4209   4.071   1.451  14.596 -0.0614 -0.1067  0.4285
  275MPD2     H 4210   3.798   1.615  14.409 -0.9443 -1.5158 -0.1330
  275MPD2    H1 4211   3.955   1.271  14.586 -0.9232 -0.1192 -1.5961
  275MPD2    H2 4212   4.174   1.632  14.596  2.2453 -2.3741 -1.6715
  275MPD2    H3 4213   4.149   1.398  14.650  0.1359 -0.8522 -0.6063
  275MPD2     N 4214   3.743   1.368  14.480 -0.0967 -0.3639  0.0539
  275MPD2    H5 4215   3.759   1.269  14.493  0.6468 -0.8026 -4.0717
  275MPD2    N1 4216   3.979   1.790  14.476  0.5510  0.0546 -0.1466
  275MPD2    H7 4217   3.897   1.820  14.424  1.4288  1.5464 -0.6683
  276TMC3    C1 4218   4.040   2.013  14.492 -0.0871 -0.0414 -0.3378
  276TMC3    C2 4219   3.909   2.033  14.521 -0.6058  1.0315  0.2021
  276TMC3    C3 4220   3.870   2.151  14.575 -0.0059  0.9512  0.1580
  276TMC3    C4 4221   4.131   2.113  14.522 -0.5482  1.2215 -0.8232
  276TMC3    C5 4222   4.084   2.240  14.566  0.5012  0.2443  0.3017
  276TMC3    C6 4223   3.954   2.256  14.599 -0.8110 -0.1378 -0.1461
  276TMC3     C 4224   4.076   1.879  14.518  0.7740  0.1784 -0.4685
  276TMC3     O 4225   4.176   1.857  14.589 -0.0305 -0.8138 -0.2034
  276TMC3     H 4226   3.825   1.966  14.509  0.2014  0.1000 -0.2229
  276TMC3    H1 4227   4.237   2.092  14.517 -1.1368 -2.5178  2.1584
  276TMC3    H2 4228   3.924   2.348  14.648 -0.8466  0.9753 -2.2644
  276TMC3    C7 4229   4.181   2.311  14.642 -0.3560  0.0923  0.2045
  276TMC3    C8 4230   3.736   2.160  14.623  0.0740  0.6704 -0.2681
  276TMC3    O1 4231   4.160   2.309  14.763 -0.5167  0.0691 -0.2375
  276TMC3    O2 4232   3.665   2.250  14.583 -0.1417  0.7701 -0.0760
  277MPD2     C 4233   0.818   0.889  13.409 -0.2407 -0.9622 -0.2315
  277MPD2    C1 4234   0.684   0.902  13.402 -0.0631  0.4697  0.0262
  277MPD2    C2 4235   0.606   0.811  13.475  0.1660  0.3560  0.3738
  277MPD2    C3 4236   0.663   0.703  13.544 -0.2564  0.1254  0.2400
  277MPD2    C4 4237   0.797   0.689  13.536  0.4784 -0.3777 -0.3456
  277MPD2    C5 4238   0.873   0.790  13.478 -0.3317  0.3726 -0.8428
  277MPD2     H 4239   0.500   0.826  13.487  0.4793  2.2188  0.7556
  277MPD2    H1 4240   0.845   0.613  13.597  2.6322 -1.1286 -2.9472
  277MPD2    H2 4241   0.886   0.952  13.352  0.1725 -1.7080 -0.5619
  277MPD2    H3 4242   0.981   0.786  13.490 -0.3728  1.5800 -0.1197
  277MPD2     N 4243   0.572   0.619  13.627  0.0049  0.1170 -0.3898
  277MPD2    H5 4244   0.473   0.638  13.631  0.4546  2.5188 -0.5652
  277MPD2    N1 4245   0.634   1.017  13.340 -0.0579  0.2361  0.2122
  277MPD2    H7 4246   0.685   1.064  13.265 -1.0501 -2.0644 -1.8965
  278TMC3    C1 4247   0.511   0.449  13.782 -0.4260 -0.5679 -0.1071
  278TMC3    C2 4248   0.544   0.318  13.818 -0.4700 -0.3246  0.6204
  278TMC3    C3 4249   0.449   0.243  13.883  0.6080  0.0238 -0.0550
  278TMC3    C4 4250   0.391   0.497  13.823  0.3246  0.1512 -0.4031
  278TMC3    C5 4251   0.296   0.414  13.889 -0.0980  1.4790 -0.2779
  278TMC3    C6 4252   0.323   0.283  13.919  0.4882  0.3249  0.5163
  278TMC3     C 4253   0.614   0.517  13.705 -0.0947  0.5851 -0.0021
  278TMC3     O 4254   0.726   0.473  13.713  0.5056 -0.1268 -0.9308
  278TMC3     H 4255   0.628   0.275  13.764 -0.1061 -0.2450  1.1337
  278TMC3    H1 4256   0.369   0.603  13.821  1.6709  0.4502  0.7096
  278TMC3    H2 4257   0.259   0.216  13.976 -0.8129  2.4769  1.5782
  278TMC3    C7 4258   0.184   0.481  13.958  0.9502  0.1817 -0.6600
  278TMC3    C8 4259   0.483   0.105  13.878 -0.2304 -0.0119  0.1317
  278TMC3    O1 4260   0.198   0.604  13.972  0.3394 -0.4066  0.5194
  278TMC3    O2 4261   0.606   0.076  13.877 -0.1645  0.3616 -0.1248
  279MPD2     C 4262   0.609   0.970  17.364 -0.3822  0.5183 -0.1050
  279MPD2    C1 4263   0.478   0.982  17.332  0.3165 -0.7149 -0.3292
  279MPD2    C2 4264   0.445   1.038  17.213 -0.0197  0.5769  0.4856
  279MPD2    C3 4265   0.540   1.080  17.116 -0.0652 -0.6364 -0.9014
  279MPD2    C4 4266   0.676   1.063  17.159 -0.3195 -1.1759  0.3217
  279MPD2    C5 4267   0.704   1.013  17.282 -0.7203 -0.0745  0.9346
  279MPD2     H 4268   0.341   1.033  17.183  0.4396  2.7906 -1.5012
  279MPD2    H1 4269   0.763   1.092  17.100  0.2049  2.5587  2.9219
  279MPD2    H2 4270   0.647   0.935  17.459 -1.0037 -1.3774 -0.5476
  279MPD2    H3 4271   0.810   1.005  17.307 -0.7123 -1.5875  0.4449
  279MPD2     N 4272   0.511   1.137  16.988  0.1986 -0.3286  0.1804
  279MPD2    H5 4273   0.590   1.174  16.936 -0.6747  1.8242  0.3895
  279MPD2    N1 4274   0.388   0.939  17.429 -0.0964 -0.0827  1.1111
  279MPD2    H7 4275   0.430   0.910  17.517 -0.6148 -0.4582  1.2343
  280TMC3    C1 4276   0.181   0.953  17.556 -0.4057  0.3193 -0.1193
  280TMC3    C2 4277   0.240   0.883  17.651 -0.4904 -0.3589 -0.2258
  280TMC3    C3 4278   0.189   0.909   0.022  0.1759  0.0400  0.4851
  280TMC3    C4 4279   0.083   1.050  17.578 -0.2264  0.2663 -0.1703
  280TMC3    C5 4280   0.035   1.065  17.705  0.0269  0.2317  0.4396
  280TMC3    C6 4281   0.094   1.000   0.053  0.0641 -1.3424  0.1709
  280TMC3     C 4282   0.256   0.973  17.431  1.1913 -0.4596 -0.7297
  280TMC3     O 4283   0.190   1.022  17.343 -0.1433  0.5411  0.3558
  280TMC3     H 4284   0.300   0.796  17.631 -1.2010 -1.2432  1.4339
  280TMC3    H1 4285   0.033   1.097  17.494 -1.4160  2.6478  1.8606
  280TMC3    H2 4286   0.067   1.006   0.157  1.3876 -3.6277  0.6533
  280TMC3    C7 4287   4.702   1.184  17.747  0.1357 -0.9052  0.1790
  280TMC3    C8 4288   0.206   0.805   0.115 -0.7748 -0.3918 -0.5341
  280TMC3    O1 4289   4.679   1.208   0.113  0.1789  0.5855  0.2221
  280TMC3    O2 4290   0.123   0.793   0.207  0.5691  0.1390  0.1663
  281TMC3    C1 4291   3.704   0.807  13.370  0.4341 -0.0514 -0.0265
  281TMC3    C2 4292   3.777   0.922  13.344  0.0291 -0.5889  0.2294
  281TMC3    C3 4293   3.893   0.907  13.269 -0.0925  0.2810  0.8552
  281TMC3    C4 4294   3.744   0.681  13.333  0.2594  0.2254  0.0817
  281TMC3    C5 4295   3.866   0.673  13.275  0.1789 -0.1206  0.3703
  281TMC3    C6 4296   3.944   0.785  13.241  0.2222  0.1026  0.0963
  281TMC3     C 4297   3.556   0.815  13.388  0.2497 -0.2207  0.1920
  281TMC3     O 4298   3.495   0.709  13.386 -0.3097  0.1768  0.2410
  281TMC3     H 4299   3.746   1.020  13.380  1.4747 -0.6531  1.6633
  281TMC3    H1 4300   3.688   0.597  13.372 -2.3073  1.0216 -1.8435
  281TMC3    H2 4301   4.025   0.776  13.170 -0.5049  2.6006 -1.0457
  281TMC3    C7 4302   3.918   0.544  13.224 -0.4117  0.9754 -0.2477
  281TMC3    C8 4303   4.003   0.997  13.307 -0.1171  0.2980 -0.2160
  281TMC3    O1 4304   4.035   0.538  13.180 -0.2186 -0.8044  0.4518
  281TMC3    O2 4305   4.108   0.938  13.337  0.0813  0.2887  0.1747
  282MPD2     C 4306   0.461   2.302  14.603  0.2176 -0.4350  0.2149
  282MPD2    C1 4307   0.416   2.198  14.681  0.0131  0.7490  0.2505
  282MPD2    C2 4308   0.400   2.069  14.629 -0.1771 -0.2574 -0.4001
  282MPD2    C3 4309   0.428   2.042  14.495 -0.3087 -0.1011 -0.3388
  282MPD2    C4 4310   0.487   2.140  14.418  0.3780 -0.0164  0.3512
  282MPD2    C5 4311   0.504   2.266  14.475  0.1851 -0.2517 -0.5481
  282MPD2     H 4312   0.365   1.990  14.694 -0.0364 -0.3783 -0.4714
  282MPD2    H1 4313   0.516   2.125  14.315 -1.0785 -1.5718  0.1645
  282MPD2    H2 4314   0.483   2.403  14.638  0.3560 -0.5178  0.3698
  282MPD2    H3 4315   0.546   2.341  14.408 -0.2928 -0.0268 -0.5952
  282MPD2     N 4316   0.392   1.917  14.438  0.3699 -0.2365 -0.5193
  282MPD2    H5 4317   0.342   1.854  14.500 -0.6462  0.1960 -0.8983
  282MPD2    N1 4318   0.396   2.203  14.819 -0.5030 -0.0110 -0.0923
  282MPD2    H7 4319   0.380   2.110  14.857 -0.7267  0.7036  1.5751
  283TMC3    C1 4320   0.368   2.286  15.034  0.7167 -0.7538 -0.8734
  283TMC3    C2 4321   0.396   2.399  15.113 -0.0246 -0.1881  0.1670
  283TMC3    C3 4322   0.310   2.412  15.223 -0.5214  0.1851  0.3692
  283TMC3    C4 4323   0.270   2.192  15.056  0.4539  0.6545  0.0981
  283TMC3    C5 4324   0.195   2.215  15.168  0.1263  0.5391 -0.0990
  283TMC3    C6 4325   0.211   2.318  15.253 -0.7635  0.7236  0.0948
  283TMC3     C 4326   0.407   2.311  14.900 -0.4425  0.2087 -0.1953
  283TMC3     O 4327   0.419   2.426  14.872 -0.7037 -0.1570  0.2361
  283TMC3     H 4328   0.479   2.467  15.099  0.4323 -1.0021 -1.1336
  283TMC3    H1 4329   0.238   2.124  14.978 -0.6031 -1.0146  2.0040
  283TMC3    H2 4330   0.157   2.329  15.347  1.0838 -1.9763  1.4844
  283TMC3    C7 4331   0.106   2.114  15.213 -0.8157  0.6391 -0.4930
  283TMC3    C8 4332   0.343   2.503  15.330 -0.2865 -0.4491  0.3078
  283TMC3    O1 4333   0.035   2.151  15.307  0.3865 -0.0531 -0.4292
  283TMC3    O2 4334   0.313   2.462  15.440 -0.0150 -0.1213 -0.2653
  284MPD2     C 4335   3.376   1.285  11.392  0.5613 -0.2570  0.1430
  284MPD2    C1 4336   3.493   1.349  11.402 -0.5046  0.0099  0.3055
  284MPD2    C2 4337   3.577   1.309  11.501 -0.0105 -0.0085 -0.0250
  284MPD2    C3 4338   3.547   1.209  11.585 -0.1815  0.0437 -0.1992
  284MPD2    C4 4339   3.428   1.140  11.576 -0.5610  0.0586 -0.5302
  284MPD2    C5 4340   3.347   1.179  11.472  0.3118  0.7779 -0.0940
  284MPD2     H 4341   3.669   1.362  11.521  1.1752 -1.9636 -0.3488
  284MPD2    H1 4342   3.400   1.058  11.641  2.7804 -1.9484 -1.6458
  284MPD2    H2 4343   3.300   1.310  11.319 -0.3514 -3.8551 -0.1046
  284MPD2    H3 4344   3.248   1.135  11.469  0.2356  0.8193  1.4755
  284MPD2     N 4345   3.647   1.179  11.682  0.3441 -0.0482  0.3158
  284MPD2    H5 4346   3.732   1.236  11.676  0.6331 -0.4092  0.9891
  284MPD2    N1 4347   3.525   1.467  11.335  0.2656  0.6611 -0.5103
  284MPD2    H7 4348   3.623   1.487  11.352 -0.0759  2.6766 -0.9672
  285TMC3    C1 4349   3.518   1.659  11.226 -0.1537  0.1309  0.8008
  285TMC3    C2 4350   3.646   1.633  11.172 -0.7294  1.0715 -0.1119
  285TMC3    C3 4351   3.731   1.744  11.154  0.0653  0.4103  0.1326
  285TMC3    C4 4352   3.462   1.781  11.240  0.1655 -0.9881  0.3054
  285TMC3    C5 4353   3.542   1.880  11.206 -0.7322  0.4965 -0.8434
  285TMC3    C6 4354   3.679   1.867  11.182  0.0218 -0.3435 -0.2968
  285TMC3     C 4355   3.441   1.549  11.269  0.3518  0.2923  0.4090
  285TMC3     O 4356   3.320   1.536  11.252 -0.9380 -0.3956  0.0282
  285TMC3     H 4357   3.691   1.535  11.174 -2.3793  0.2657 -2.7285
  285TMC3    H1 4358   3.356   1.793  11.261  0.5977  1.6302  0.9370
  285TMC3    H2 4359   3.739   1.957  11.177 -0.6684 -0.0146 -2.4145
  285TMC3    C7 4360   3.508   2.010  11.272 -0.4471  0.4706  0.9398
  285TMC3    C8 4361   3.875   1.727  11.149 -0.3295 -0.4209 -0.2011
  285TMC3    O1 4362   3.599   2.085  11.313  0.1027  0.4276  0.7864
  285TMC3    O2 4363   3.920   1.627  11.100 -0.6633  0.1230 -0.2674
  286MPD2     C 4364   0.332   0.332   1.558 -0.0090 -0.4477 -0.0939
  286MPD2    C1 4365   0.244   0.304   1.449  0.4065  0.4105 -0.0739
  286MPD2    C2 4366   0.287   0.237   1.337  0.3257  0.4344 -0.6775
  286MPD2    C3 4367   0.420   0.183   1.330 -0.0610  0.2225  0.2829
  286MPD2    C4 4368   0.501   0.205   1.439 -0.0534  0.4564 -0.1228
  286MPD2    C5 4369   0.462   0.281   1.546  0.8198 -0.8791 -0.0527
  286MPD2     H 4370   0.211   0.219   1.263 -1.0180  1.6576  0.4285
  286MPD2    H1 4371   0.606   0.179   1.452 -0.1449  1.0128  1.6751
  286MPD2    H2 4372   0.309   0.398   1.641  3.2197 -0.6467  0.9772
  286MPD2    H3 4373   0.546   0.313   1.606 -0.0551  3.0867 -0.9078
  286MPD2     N 4374   0.456   0.109   1.216 -0.4725  0.2797  0.6250
  286MPD2    H5 4375   0.554   0.084   1.203  0.1346  2.2516  1.3978
  286MPD2    N1 4376   0.114   0.352   1.432 -0.0554  0.7271 -0.1873
  286MPD2    H7 4377   0.065   0.348   1.343  0.3979 -0.2303 -0.3945
  287TMC3    C1 4378   0.438   0.006   1.002  0.6923 -0.2073  0.0409
  287TMC3    C2 4379   0.351   4.720   0.898 -0.0917  0.1141  0.2107
  287TMC3    C3 4380   0.362   4.603   0.831 -0.2792 -0.0538  0.0912
  287TMC3    C4 4381   0.541   4.660   1.023  0.1629 -0.1492  0.0336
  287TMC3    C5 4382   0.549   4.540   0.952  0.2342 -1.1662  0.1923
  287TMC3    C6 4383   0.462   4.511   0.851  0.2193 -0.3853 -0.6669
  287TMC3     C 4384   0.367   0.073   1.113 -0.9214  0.3540 -0.6710
  287TMC3     O 4385   0.246   0.078   1.099 -0.0027  0.2739 -0.1439
  287TMC3     H 4386   0.271   0.052   0.884 -0.1509 -0.3331 -1.7706
  287TMC3    H1 4387   0.617   4.686   1.095  1.9068  0.4033 -1.9943
  287TMC3    H2 4388   0.462   4.422   0.790 -3.2341  0.0220 -1.3107
  287TMC3    C7 4389   0.657   4.444   0.977 -1.0751  0.1226  0.7198
  287TMC3    C8 4390   0.246   4.547   0.758  0.1479  0.0587  0.5292
  287TMC3    O1 4391   0.744   4.480   1.052  0.0213  0.6932  0.4472
  287TMC3    O2 4392   0.270   4.463   0.670 -0.0998  0.6406  0.2579
  288TMC3    C1 4393   1.431   0.105  14.446  0.9045 -0.3038 -0.4555
  288TMC3    C2 4394   1.302   0.084  14.483  0.0115 -0.0597 -0.2283
  288TMC3    C3 4395   1.215   0.192  14.455  0.6826 -0.5466  0.2324
  288TMC3    C4 4396   1.481   0.211  14.371 -0.3488 -0.3527 -0.5475
  288TMC3    C5 4397   1.388   0.305  14.340 -0.7378 -0.7406 -0.0290
  288TMC3    C6 4398   1.262   0.302  14.390 -0.1130  0.3167  0.6625
  288TMC3     C 4399   1.527   0.008  14.487  0.2039 -0.0718 -0.0644
  288TMC3     O 4400   1.536   4.710  14.604  0.0660 -0.0157  0.0731
  288TMC3     H 4401   1.266   4.737  14.536  0.4710  0.4431  0.9193
  288TMC3    H1 4402   1.587   0.228  14.364 -0.4190 -0.0651 -0.9376
  288TMC3    H2 4403   1.190   0.381  14.371  1.9304  2.4744  1.9754
  288TMC3    C7 4404   1.451   0.434  14.309 -0.2249 -0.0761 -0.4856
  288TMC3    C8 4405   1.079   0.191  14.515  0.6107 -0.1758 -0.2433
  288TMC3    O1 4406   1.576   0.446  14.308 -0.2308 -0.5856 -0.0468
  288TMC3    O2 4407   1.032   0.298  14.532  0.1983 -0.4390 -0.7323
  289MPD2     C 4408   1.024   3.847  14.096  0.5307  0.1787 -0.3566
  289MPD2    C1 4409   1.007   3.985  14.084  0.2135 -0.9078 -0.3265
  289MPD2    C2 4410   0.876   4.029  14.071 -0.4664  0.1077 -0.7224
  289MPD2    C3 4411   0.766   3.945  14.064 -0.1385 -0.4009 -0.2588
  289MPD2    C4 4412   0.795   3.804  14.057 -0.0902 -0.0273 -0.4755
  289MPD2    C5 4413   0.920   3.762  14.080 -0.3477 -0.4394 -0.1823
  289MPD2     H 4414   0.858   4.134  14.090  1.9022  0.3122  0.4157
  289MPD2    H1 4415   0.718   3.729  14.042 -1.0001  0.5667  1.2523
  289MPD2    H2 4416   1.122   3.815  14.130 -0.2739 -1.5583  0.3686
  289MPD2    H3 4417   0.930   3.655  14.096 -0.9315 -0.1801  1.8751
  289MPD2     N 4418   0.622   3.987  14.055  0.1445  0.5702  0.1983
  289MPD2    H5 4419   0.556   3.909  14.050  2.0298 -0.9936 -0.5639
  289MPD2    N1 4420   1.113   4.074  14.101 -0.1430 -0.2455  0.5866
  289MPD2    H7 4421   1.201   4.039  14.137  0.1104 -1.6805 -1.4830
  290TMC3    C1 4422   0.430   4.128  14.061  0.5046  0.0103  0.2893
  290TMC3    C2 4423   0.376   4.247  14.112  0.5848 -0.1574  0.2109
  290TMC3    C3 4424   0.242   4.257  14.113  0.0757  0.3171  0.1663
  290TMC3    C4 4425   0.349   4.026  14.022 -0.6206  0.3948 -0.0332
  290TMC3    C5 4426   0.212   4.036  14.041 -0.2563 -0.0593  0.4878
  290TMC3    C6 4427   0.154   4.151  14.094  0.5803  0.5110  0.8842
  290TMC3     C 4428   0.576   4.116  14.062  0.1017 -0.2184 -0.0205
  290TMC3     O 4429   0.644   4.217  14.092 -0.4552 -0.1916  0.7522
  290TMC3     H 4430   0.438   4.317  14.166  0.4255  0.4276 -0.3609
  290TMC3    H1 4431   0.395   3.943  13.969 -0.7808 -0.3358  0.9590
  290TMC3    H2 4432   0.047   4.158  14.110  0.1042  0.4405 -2.2990
  290TMC3    C7 4433   0.120   3.915  14.040 -0.1405 -0.3101  0.3716
  290TMC3    C8 4434   0.182   4.382  14.156 -0.1055 -0.0633  0.4389
  290TMC3    O1 4435   4.739   3.938  14.062  0.2438 -0.3741 -0.3336
  290TMC3    O2 4436   0.068   4.385  14.204  0.3096 -0.1461 -0.1856
  291MPD2     C 4437   0.592   4.098   0.024  0.1942 -0.0160  0.0021
  291MPD2    C1 4438   0.651   3.982   0.065 -0.2014 -0.2666 -0.2264
  291MPD2    C2 4439   0.781   3.991   0.092 -0.8255 -0.1339 -0.3451
  291MPD2    C3 4440   0.847   4.108   0.106  0.2295  0.0549 -0.1714
  291MPD2    C4 4441   0.773   4.224   0.094  0.6626  0.2768 -0.1582
  291MPD2    C5 4442   0.645   4.221   0.044 -0.7864  0.2958  0.0475
  291MPD2     H 4443   0.818   3.895   0.127 -0.7305  0.7955  2.1005
  291MPD2    H1 4444   0.827   4.317   0.109 -0.5536  1.0686 -0.6124
  291MPD2    H2 4445   0.488   4.095  17.751  0.2060  0.0620 -0.0453
  291MPD2    H3 4446   0.590   4.311   0.023  0.4542  0.9299 -0.4646
  291MPD2     N 4447   0.984   4.117   0.142 -0.2462 -0.0313 -0.3154
  291MPD2    H5 4448   1.022   4.209   0.159 -0.4586 -0.7181  3.8169
  291MPD2    N1 4449   0.577   3.861   0.080  0.1738 -0.2336  0.2018
  291MPD2    H7 4450   0.634   3.778   0.091 -2.5153 -2.0131  0.6329
  292TMC3    C1 4451   0.414   3.693   0.052 -0.4054 -0.2767  0.0803
  292TMC3    C2 4452   0.489   3.613   0.141  0.2600  0.5042 -0.0489
  292TMC3    C3 4453   0.455   3.484   0.159 -0.0272  0.1780  0.5550
  292TMC3    C4 4454   0.305   3.651  17.740  0.3368  0.0440 -0.9818
  292TMC3    C5 4455   0.284   3.517   0.003  0.1029  0.0579  0.1497
  292TMC3    C6 4456   0.356   3.434   0.084  0.1226  0.4223 -0.5282
  292TMC3     C 4457   0.447   3.834   0.047 -0.8999 -0.3695 -0.4968
  292TMC3     O 4458   0.351   3.907   0.020  0.4068 -0.2026  0.0852
  292TMC3     H 4459   0.540   3.666   0.221  3.8545 -0.6261 -1.6263
  292TMC3    H1 4460   0.256   3.706  17.660  1.0988  1.2531 -0.6124
  292TMC3    H2 4461   0.330   3.329   0.081  1.3713  0.0938  0.4682
  292TMC3    C7 4462   0.202   3.447  17.658 -0.1932  0.2798 -0.1856
  292TMC3    C8 4463   0.518   3.415   0.274 -0.8098 -0.3850 -0.3236
  292TMC3    O1 4464   0.241   3.335  17.622 -0.1311 -0.2750 -0.2989
  292TMC3    O2 4465   0.622   3.470   0.302 -0.1102 -0.0588 -0.5562
  293MPD2     C 4466   1.713   4.649  12.937 -0.0877 -0.4924  0.0357
  293MPD2    C1 4467   1.678   0.041  12.955  0.0742 -0.2274 -0.0650
  293MPD2    C2 4468   1.700   0.105  13.075 -0.2731 -0.4111  0.6615
  293MPD2    C3 4469   1.745   0.034  13.180  0.0477  0.0666 -0.3228
  293MPD2    C4 4470   1.769   4.637  13.164  0.1790  0.2567 -0.5465
  293MPD2    C5 4471   1.750   4.576  13.047 -0.6119 -0.5843  0.3664
  293MPD2     H 4472   1.686   0.212  13.092  1.5107  0.0130 -0.5476
  293MPD2    H1 4473   1.814   4.570  13.236  0.1828 -0.8569 -1.5769
  293MPD2    H2 4474   1.706   4.594  12.843 -1.4291 -0.4980  0.1291
  293MPD2    H3 4475   1.782   4.474  13.025  2.2487  0.0461  1.5617
  293MPD2     N 4476   1.787   0.107  13.296  0.5468  0.5415  0.0151
  293MPD2    H5 4477   1.777   0.208  13.298  0.5086  0.5266  0.5895
  293MPD2    N1 4478   1.638   0.105  12.836  0.2309 -0.1696  0.6528
  293MPD2    H7 4479   1.666   0.067  12.746  0.6349  2.0557 -0.1757
  294TMC3    C1 4480   1.652   0.293  12.703 -0.1257 -0.3227  0.6664
  294TMC3    C2 4481   1.776   0.259  12.655 -0.0070  0.2900  0.3452
  294TMC3    C3 4482   1.829   0.330  12.552  0.0937  0.0569 -0.0037
  294TMC3    C4 4483   1.578   0.394  12.645 -0.1620  0.1526 -0.2098
  294TMC3    C5 4484   1.632   0.458  12.541 -0.5434 -0.3859  0.4785
  294TMC3    C6 4485   1.755   0.433  12.494  0.7092  0.4891  0.9176
  294TMC3     C 4486   1.598   0.235  12.827 -0.6828  0.0016  0.2960
  294TMC3     O 4487   1.545   0.303  12.917 -0.3872  0.0625  0.0506
  294TMC3     H 4488   1.840   0.181  12.695 -0.7890  0.0296  1.0960
  294TMC3    H1 4489   1.477   0.420  12.676 -0.2455 -1.8040  1.1604
  294TMC3    H2 4490   1.808   0.507  12.436  1.5793 -0.3265  0.6666
  294TMC3    C7 4491   1.583   0.589  12.510 -0.0061 -0.5629  0.4245
  294TMC3    C8 4492   1.927   0.254  12.474  0.2858 -0.2825  0.7996
  294TMC3    O1 4493   1.492   0.636  12.582 -0.0736  0.0533  0.1808
  294TMC3    O2 4494   2.016   0.196  12.532  1.1645  0.3642  0.3778
  295MPD2     C 4495   2.465   4.265   0.973 -0.0441 -0.1163 -0.7671
  295MPD2    C1 4496   2.571   4.186   0.932 -0.1922  0.0271  0.3614
  295MPD2    C2 4497   2.600   4.067   1.004 -0.4673  0.5507  0.2069
  295MPD2    C3 4498   2.535   4.043   1.128 -0.4056 -0.7332  0.2356
  295MPD2    C4 4499   2.435   4.123   1.168 -0.3818  0.3395 -0.0505
  295MPD2    C5 4500   2.399   4.227   1.087 -0.7068  0.2303  0.0649
  295MPD2     H 4501   2.674   3.996   0.968  2.4137  4.2156 -1.0981
  295MPD2    H1 4502   2.382   4.115   1.262 -1.2199 -1.0295 -0.6374
  295MPD2    H2 4503   2.433   4.359   0.932  1.0392  0.8652  0.6318
  295MPD2    H3 4504   2.326   4.297   1.126 -1.5715 -0.6954  0.1199
  295MPD2     N 4505   2.565   3.939   1.215 -0.4976 -0.0200  0.0187
  295MPD2    H5 4506   2.526   3.954   1.307  1.4648  1.8352  0.5249
  295MPD2    N1 4507   2.630   4.211   0.811 -0.1742 -0.0477  0.8573
  295MPD2    H7 4508   2.712   4.155   0.790 -1.7106 -2.1885  0.4575
  296TMC3    C1 4509   2.705   3.772   1.319 -0.3322 -0.2382  0.3258
  296TMC3    C2 4510   2.731   3.844   1.428  0.2744  0.1439  0.1835
  296TMC3    C3 4511   2.805   3.781   1.528  0.3640  0.0348  0.2637
  296TMC3    C4 4512   2.767   3.643   1.302  0.2540  0.3650 -0.7148
  296TMC3    C5 4513   2.838   3.590   1.406 -0.1003 -0.2017 -0.3831
  296TMC3    C6 4514   2.857   3.656   1.522  0.6124 -0.2912  0.0439
  296TMC3     C 4515   2.649   3.837   1.191  0.2305 -0.1184 -0.7535
  296TMC3     O 4516   2.696   3.797   1.086  1.0180  0.4908 -0.0944
  296TMC3     H 4517   2.696   3.946   1.434 -1.1229 -0.2906 -0.4797
  296TMC3    H1 4518   2.754   3.587   1.210 -2.2577 -1.2325  0.5961
  296TMC3    H2 4519   2.927   3.628   1.600  0.8502  2.1078  0.6829
  296TMC3    C7 4520   2.880   3.455   1.398 -0.4156  0.3588 -0.2828
  296TMC3    C8 4521   2.814   3.852   1.653 -0.1577  0.0744  0.1277
  296TMC3    O1 4522   2.916   3.421   1.288 -0.1345  0.0573  0.3652
  296TMC3    O2 4523   2.714   3.903   1.699  0.3343 -0.0701  0.1096
  297MPD2     C 4524   4.046   1.032  15.734 -0.1910  0.2489 -0.0980
  297MPD2    C1 4525   4.041   1.169  15.714 -0.1936 -0.0553 -0.0541
  297MPD2    C2 4526   4.160   1.245  15.719  0.2671  0.4239 -0.1302
  297MPD2    C3 4527   4.286   1.192  15.738 -0.0370 -0.6600  0.3369
  297MPD2    C4 4528   4.291   1.050  15.744 -0.1524 -0.7076 -0.2033
  297MPD2    C5 4529   4.171   0.975  15.754  0.4770 -0.4241  0.1558
  297MPD2     H 4530   4.149   1.352  15.714  0.4392  0.5421  2.1092
  297MPD2    H1 4531   4.378   0.987  15.752  0.6463  0.2196 -1.5992
  297MPD2    H2 4532   3.959   0.968  15.726 -0.4758  0.5811  0.3291
  297MPD2    H3 4533   4.178   0.867  15.759  1.0550 -0.4074 -0.3700
  297MPD2     N 4534   4.399   1.270  15.744  0.7274 -0.1845  0.3948
  297MPD2    H5 4535   4.391   1.371  15.749  0.2932 -0.0587 -2.9327
  297MPD2    N1 4536   3.916   1.239  15.694  0.0183  0.2248  0.2439
  297MPD2    H7 4537   3.930   1.339  15.696  0.6830  0.1232  0.8783
  298TMC3    C1 4538   3.687   1.277  15.665 -0.2593  0.1855  0.7473
  298TMC3    C2 4539   3.698   1.376  15.574  0.1900 -0.1579  0.2179
  298TMC3    C3 4540   3.611   1.486  15.574  0.3334 -0.0003  0.9064
  298TMC3    C4 4541   3.574   1.277  15.744  0.6726  0.5631 -0.0377
  298TMC3    C5 4542   3.477   1.376  15.731  0.0223 -0.2176  0.1700
  298TMC3    C6 4543   3.508   1.489  15.655  0.1669  0.0563 -0.0531
  298TMC3     C 4544   3.793   1.184  15.707 -0.6987 -0.5086  0.0927
  298TMC3     O 4545   3.751   1.076  15.745  0.7691 -0.3219  0.1285
  298TMC3     H 4546   3.779   1.372  15.501  0.8069 -1.7973  0.9814
  298TMC3    H1 4547   3.565   1.200  15.819 -1.1312  0.1750 -0.6505
  298TMC3    H2 4548   3.437   1.570  15.647 -1.6582 -1.4409  0.8804
  298TMC3    C7 4549   3.405   1.406  15.859 -0.0629  0.3293  0.6605
  298TMC3    C8 4550   3.670   1.608  15.507 -0.2704 -0.5460 -0.3378
  298TMC3    O1 4551   3.447   1.363  15.965  0.0801 -0.1098 -0.6497
  298TMC3    O2 4552   3.759   1.583  15.427 -0.1284 -0.5468  0.1597
  299MPD2     C 4553   0.356   0.398  10.787  0.4347  0.7503  0.0435
  299MPD2    C1 4554   0.395   0.531  10.776  0.2623  0.2491  0.2217
  299MPD2    C2 4555   0.345   0.605  10.678 -0.4361 -0.0923  0.1690
  299MPD2    C3 4556   0.239   0.559  10.595 -0.5761  1.2984 -0.2940
  299MPD2    C4 4557   0.189   0.429  10.621  0.3052 -0.0206 -0.3237
  299MPD2    C5 4558   0.248   0.354  10.716 -0.5913 -0.5630 -0.3181
  299MPD2     H 4559   0.378   0.707  10.669  2.5669 -1.1080 -0.2822
  299MPD2    H1 4560   0.108   0.387  10.563 -0.2628 -1.6632  1.6405
  299MPD2    H2 4561   0.402   0.326  10.854 -0.3516  0.8140  0.6489
  299MPD2    H3 4562   0.220   0.250  10.730 -1.7865 -0.0793  0.8775
  299MPD2     N 4563   0.193   0.624  10.478  0.3921  0.0500 -0.0674
  299MPD2    H5 4564   0.126   0.575  10.419  0.4165 -0.2331  0.1426
  299MPD2    N1 4565   0.498   0.577  10.865  0.1061 -0.2440  0.3781
  299MPD2    H7 4566   0.544   0.505  10.919  0.5798 -1.4537 -1.6452
  300TMC3    C1 4567   0.176   0.764  10.295  0.4098  0.1651  0.6925
  300TMC3    C2 4568   0.228   0.861  10.209  0.0767  0.5192 -0.4632
  300TMC3    C3 4569   0.142   0.918  10.118 -0.0768 -0.5545 -0.1662
  300TMC3    C4 4570   0.045   0.737  10.294  0.5423 -0.0977 -0.5815
  300TMC3    C5 4571   4.702   0.793  10.199 -0.1461  0.0416 -0.4842
  300TMC3    C6 4572   0.009   0.887  10.107  0.7187 -0.4852  1.0700
  300TMC3     C 4573   0.245   0.735  10.417 -0.7125 -0.0695 -0.7331
  300TMC3     O 4574   0.335   0.811  10.461 -0.0523  0.3665 -0.1983
  300TMC3     H 4575   0.330   0.892  10.227  0.4141 -1.7833  1.5248
  300TMC3    H1 4576   4.737   0.656  10.348  0.5689  0.8615  0.8902
  300TMC3    H2 4577   4.684   0.963  10.066  1.5127 -0.1219  0.5020
  300TMC3    C7 4578   4.564   0.821  10.249 -0.2753  0.4869  0.1827
  300TMC3    C8 4579   0.174   1.053  10.093  0.3467 -0.3756  0.4791
  300TMC3    O1 4580   4.477   0.821  10.168  0.0566  0.0775 -0.0555
  300TMC3    O2 4581   0.147   1.084   9.979  0.1628  0.1954 -0.0421
  301MPD2     C 4582   2.687   2.322   1.375  0.6396  0.2654  0.2005
  301MPD2    C1 4583   2.581   2.298   1.287  0.9834  0.1868  0.2573
  301MPD2    C2 4584   2.594   2.181   1.213 -0.7565 -0.1764  0.6330
  301MPD2    C3 4585   2.707   2.098   1.216  0.8353  0.2922 -0.0748
  301MPD2    C4 4586   2.811   2.135   1.294 -0.5863 -0.6762 -0.4592
  301MPD2    C5 4587   2.802   2.247   1.375 -0.3296  0.9711  0.1265
  301MPD2     H 4588   2.510   2.158   1.149 -0.9920  1.6518  0.2831
  301MPD2    H1 4589   2.902   2.076   1.305 -0.4085 -0.2901  0.1556
  301MPD2    H2 4590   2.669   2.406   1.441  1.1454  0.2420  0.3700
  301MPD2    H3 4591   2.876   2.261   1.453  0.0082 -0.6137  0.0951
  301MPD2     N 4592   2.711   1.972   1.146 -0.4634  0.6417  0.1335
  301MPD2    H5 4593   2.798   1.921   1.160 -0.9596  0.0484  1.0407
  301MPD2    N1 4594   2.458   2.360   1.262  0.1862 -0.0228  0.7354
  301MPD2    H7 4595   2.403   2.310   1.193 -1.0836  0.2595  1.5413
  302TMC3    C1 4596   2.666   1.796   0.996 -0.4580  0.6818 -0.5309
  302TMC3    C2 4597   2.719   1.685   1.061  0.3318 -0.1287  0.0952
  302TMC3    C3 4598   2.762   1.581   0.989  0.0261 -0.6168  0.2528
  302TMC3    C4 4599   2.647   1.794   0.859  0.4262  0.3518 -0.5622
  302TMC3    C5 4600   2.693   1.687   0.789 -0.4627 -0.2855 -0.3524
  302TMC3    C6 4601   2.744   1.578   0.854 -0.4770 -0.1893 -0.2249
  302TMC3     C 4602   2.620   1.918   1.058 -0.1829 -0.3035 -0.5288
  302TMC3     O 4603   2.522   1.977   1.011 -0.0091  0.2866  0.2562
  302TMC3     H 4604   2.740   1.689   1.167 -0.9670  0.5113  0.3222
  302TMC3    H1 4605   2.614   1.884   0.808  1.3962  1.3326  0.5494
  302TMC3    H2 4606   2.774   1.488   0.800 -0.1434 -0.4003  0.3107
  302TMC3    C7 4607   2.625   1.659   0.663  0.3310 -0.2291  0.2458
  302TMC3    C8 4608   2.826   1.468   1.058  0.3207 -0.4178 -0.3127
  302TMC3    O1 4609   2.671   1.571   0.589 -0.1019  0.8854 -0.3144
  302TMC3    O2 4610   2.843   1.369   0.990 -0.2718 -0.5204 -0.3155
  303MPD2     C 4611   2.908   0.711  10.810  0.4126 -0.4322 -0.2597
  303MPD2    C1 4612   2.797   0.626  10.828 -0.1805 -1.1875  0.7200
  303MPD2    C2 4613   2.685   0.654  10.749 -0.1461  0.5154 -0.2808
  303MPD2    C3 4614   2.686   0.758  10.656 -0.3061  0.0401 -0.5507
  303MPD2    C4 4615   2.799   0.829  10.633  0.5877 -0.5296  0.5502
  303MPD2    C5 4616   2.909   0.813  10.718 -0.2672  0.3019 -0.1956
  303MPD2     H 4617   2.590   0.602  10.762 -0.7135  1.5742 -0.2195
  303MPD2    H1 4618   2.811   0.912  10.563 -2.0908  0.3730  1.1691
  303MPD2    H2 4619   2.996   0.705  10.873  0.3179 -2.8214 -0.3556
  303MPD2    H3 4620   3.000   0.871  10.716  0.2416 -0.4376  1.6781
  303MPD2     N 4621   2.574   0.792  10.584 -0.0036  0.2185  0.5066
  303MPD2    H5 4622   2.575   0.877  10.529  1.0990  0.6139  1.1327
  303MPD2    N1 4623   2.799   0.542  10.937 -0.0841 -0.5606 -0.3645
  303MPD2    H7 4624   2.890   0.524  10.978  0.1798 -0.5486 -0.9388
  304TMC3    C1 4625   2.713   0.368  11.069  0.4594 -0.1400  0.1293
  304TMC3    C2 4626   2.633   0.362  11.179  0.1394  1.0638  0.3724
  304TMC3    C3 4627   2.605   0.240  11.230 -0.4209  0.2263 -0.4824
  304TMC3    C4 4628   2.769   0.263  11.008  0.1913 -0.7987 -0.2292
  304TMC3    C5 4629   2.750   0.140  11.071 -0.6439 -0.4090  1.1760
  304TMC3    C6 4630   2.680   0.130  11.187 -0.0858  0.3505 -0.1890
  304TMC3     C 4631   2.690   0.486  10.989 -0.2019 -0.1079  0.1006
  304TMC3     O 4632   2.568   0.510  10.982  0.5557  0.1774 -0.6449
  304TMC3     H 4633   2.576   0.448  11.212 -3.0201 -0.7534 -0.4289
  304TMC3    H1 4634   2.837   0.277  10.925  1.4804 -1.1700  0.7605
  304TMC3    H2 4635   2.663   0.033  11.233  0.1223 -0.3016 -1.4682
  304TMC3    C7 4636   2.736   0.038  10.981  0.4573  0.3325 -0.1798
  304TMC3    C8 4637   2.466   0.198  11.229 -0.3793  0.2659 -0.0354
  304TMC3    O1 4638   2.793   0.056  10.874  0.2373 -0.5880  0.5316
  304TMC3    O2 4639   2.438   0.081  11.224 -0.2096 -0.6988  0.6115
  305MPD2     C 4640   0.742   2.850  13.867  0.2597 -0.3099 -0.1006
  305MPD2    C1 4641   0.798   2.734  13.915 -0.2297  0.3642 -0.4515
  305MPD2    C2 4642   0.772   2.614  13.846  0.2511 -0.9898  0.3301
  305MPD2    C3 4643   0.699   2.621  13.724 -0.4947  0.2034  0.2883
  305MPD2    C4 4644   0.640   2.740  13.688 -0.3227  0.4357  0.2328
  305MPD2    C5 4645   0.655   2.853  13.757  0.2374  0.2049 -0.4112
  305MPD2     H 4646   0.803   2.517  13.883 -0.1857 -1.3384 -0.2265
  305MPD2    H1 4647   0.579   2.747  13.599 -0.2386  2.2128  0.3066
  305MPD2    H2 4648   0.752   2.942  13.924  1.1156 -0.0042 -0.7526
  305MPD2    H3 4649   0.591   2.936  13.729 -1.8902 -0.8347  1.2838
  305MPD2     N 4650   0.673   2.500  13.647 -0.5064  0.3675  0.5535
  305MPD2    H5 4651   0.610   2.511  13.568  1.9781 -1.1123 -1.6189
  305MPD2    N1 4652   0.866   2.749  14.036  0.0779  0.2656  0.3986
  305MPD2    H7 4653   0.879   2.838  14.082  0.8265  0.4678 -0.2009
  306TMC3    C1 4654   0.994   2.680  14.226  0.2546 -0.0894  0.0557
  306TMC3    C2 4655   1.023   2.582  14.317 -0.2499  0.0050 -0.1292
  306TMC3    C3 4656   1.062   2.617  14.443  0.0132  0.3334 -0.2182
  306TMC3    C4 4657   1.040   2.810  14.254 -0.8408 -0.0524 -0.2268
  306TMC3    C5 4658   1.104   2.834  14.377  0.5788 -0.6690 -0.1719
  306TMC3    C6 4659   1.119   2.734  14.467 -0.6360  0.2565 -0.3266
  306TMC3     C 4660   0.917   2.641  14.108 -0.5231  0.2031  0.2911
  306TMC3     O 4661   0.927   2.525  14.072  0.1223 -0.2092  0.2759
  306TMC3     H 4662   0.980   2.484  14.304 -1.9558  0.9984 -1.9112
  306TMC3    H1 4663   1.008   2.897  14.197 -1.6042 -1.2198 -1.5616
  306TMC3    H2 4664   1.171   2.748  14.561  1.3147 -3.9190 -0.7866
  306TMC3    C7 4665   1.193   2.955  14.380 -0.3754  0.5250 -0.0153
  306TMC3    C8 4666   1.068   2.513  14.543  0.5695 -0.2657  0.6261
  306TMC3    O1 4667   1.194   3.026  14.280 -0.0774 -0.2342 -0.1205
  306TMC3    O2 4668   1.088   2.397  14.515 -0.5259 -0.1149  0.0515
  307MPD2     C 4669   3.828   0.924   0.582  0.8320  0.9587  0.4132
  307MPD2    C1 4670   3.729   0.976   0.509  1.2081  0.1543 -0.4637
  307MPD2    C2 4671   3.620   1.036   0.569  0.4397  0.1416  0.1318
  307MPD2    C3 4672   3.609   1.037   0.703  0.2109  0.0826 -0.7940
  307MPD2    C4 4673   3.712   0.976   0.776 -0.3457  0.4289  0.1218
  307MPD2    C5 4674   3.824   0.925   0.713 -0.7907  0.2475  0.0830
  307MPD2     H 4675   3.540   1.066   0.502  2.2350  0.5323 -1.8526
  307MPD2    H1 4676   3.705   0.958   0.883  0.1136  0.8515  0.2229
  307MPD2    H2 4677   3.913   0.877   0.533 -0.3644 -0.4265 -0.3555
  307MPD2    H3 4678   3.893   0.862   0.768  1.1089  1.5351 -0.8142
  307MPD2     N 4679   3.484   1.069   0.766 -0.3293 -0.4360  0.5537
  307MPD2    H5 4680   3.409   1.112   0.712 -0.5705 -0.7123  0.6697
  307MPD2    N1 4681   3.733   0.980   0.371 -0.0222 -0.0400 -0.0147
  307MPD2    H7 4682   3.648   1.025   0.336 -1.4039 -1.2832  1.7669
  308TMC3    C1 4683   3.120   1.062   0.852 -0.3101  0.2201 -0.3419
  308TMC3    C2 4684   3.085   1.191   0.874  0.3934  0.0899  0.8502
  308TMC3    C3 4685   3.184   1.266   0.938  0.2376  0.6072  0.3009
  308TMC3    C4 4686   3.257   1.024   0.873  0.2045  0.0042 -0.1176
  308TMC3    C5 4687   3.342   1.102   0.941  0.7121 -0.5324  0.5973
  308TMC3    C6 4688   3.311   1.230   0.973  0.1209  0.2502  0.6262
  308TMC3     C 4689   3.055   0.968   0.752  0.9803  0.2706 -0.3542
  308TMC3     O 4690   3.103   0.854   0.750  0.9134 -0.1621  0.2568
  308TMC3     H 4691   2.983   1.221   0.851 -0.0659 -1.6296  0.6497
  308TMC3    H1 4692   3.291   0.927   0.841 -0.7563 -0.3192 -0.1695
  308TMC3    H2 4693   3.387   1.293   1.019  2.4112 -2.3934  0.4818
  308TMC3    C7 4694   3.474   1.071   0.902  0.3595  0.5190 -0.0548
  308TMC3    C8 4695   3.169   1.409   0.934  0.3289 -0.1128 -0.2870
  308TMC3    O1 4696   3.558   1.086   0.990  0.3653 -0.1089  0.2416
  308TMC3    O2 4697   3.227   1.482   1.012 -0.4283 -0.1634  0.1014
  309MPD2     C 4698   2.660   1.170  16.934  0.4572  0.1775 -0.1051
  309MPD2    C1 4699   2.568   1.147  16.838 -0.0288  0.8190  0.1237
  309MPD2    C2 4700   2.432   1.140  16.871 -0.0731  1.0206 -1.2788
  309MPD2    C3 4701   2.394   1.162  17.002  0.6573  0.7254  1.1009
  309MPD2    C4 4702   2.486   1.188  17.099 -0.4664 -0.9988 -0.5277
  309MPD2    C5 4703   2.620   1.186  17.058 -0.1777  0.7722  0.5126
  309MPD2     H 4704   2.351   1.135  16.799  0.3459  0.0128 -1.6890
  309MPD2    H1 4705   2.463   1.205  17.203 -1.2550  0.9109 -1.0309
  309MPD2    H2 4706   2.765   1.183  16.912  0.7796 -1.4491  0.4233
  309MPD2    H3 4707   2.703   1.206  17.125  0.4597  1.1813 -0.3984
  309MPD2     N 4708   2.260   1.153  17.041 -0.1797  0.0592  0.1276
  309MPD2    H5 4709   2.243   1.158  17.141  1.9126  2.8418  0.3494
  309MPD2    N1 4710   2.595   1.126  16.698  0.3477 -0.4492 -0.4987
  309MPD2    H7 4711   2.518   1.107  16.635  0.0356  0.1921 -0.3075
  310TMC3    C1 4712   2.726   1.064  16.511 -0.4066  0.2146  0.5550
  310TMC3    C2 4713   2.643   1.108  16.415 -0.0517  0.1380 -0.3733
  310TMC3    C3 4714   2.647   1.036  16.293  0.2628  0.3339 -0.2826
  310TMC3    C4 4715   2.829   0.983  16.490 -0.5728 -0.3560  0.1508
  310TMC3    C5 4716   2.843   0.930  16.369 -0.7959 -0.2315 -0.3646
  310TMC3    C6 4717   2.752   0.949  16.270  0.7780 -0.4663  0.2876
  310TMC3     C 4718   2.724   1.115  16.643 -0.3523 -0.1079 -0.4178
  310TMC3     O 4719   2.830   1.130  16.702  0.0033 -0.2494 -0.8143
  310TMC3     H 4720   2.563   1.180  16.430 -0.1984 -0.5897  2.2451
  310TMC3    H1 4721   2.890   0.949  16.573 -0.7258  2.1914  1.2955
  310TMC3    H2 4722   2.755   0.875  16.190 -3.7536 -1.0802  0.6791
  310TMC3    C7 4723   2.934   0.812  16.364  0.0632  0.0833 -0.3371
  310TMC3    C8 4724   2.571   1.084  16.175  0.1006  0.1741  0.8112
  310TMC3    O1 4725   2.955   0.761  16.471  0.2559 -0.5173  0.2095
  310TMC3    O2 4726   2.533   1.199  16.167 -0.4298  0.5202 -0.4648
  311MPD2     C 4727   4.578   2.028  12.591 -0.2322  0.7277  0.1326
  311MPD2    C1 4728   4.569   2.145  12.667 -1.0682 -0.9182  0.4476
  311MPD2    C2 4729   4.444   2.170  12.717 -0.4846  0.2233 -0.2886
  311MPD2    C3 4730   4.336   2.091  12.700 -0.7438 -0.7082 -0.2746
  311MPD2    C4 4731   4.347   1.967  12.644  0.2178 -0.8475 -0.3146
  311MPD2    C5 4732   4.468   1.945  12.576  0.2325  0.5895 -0.0983
  311MPD2     H 4733   4.424   2.255  12.782  3.3834 -0.7539  2.1488
  311MPD2    H1 4734   4.274   1.888  12.649 -1.1382  0.4631  0.6960
  311MPD2    H2 4735   4.668   1.987  12.547  1.3761  3.0564  1.2539
  311MPD2    H3 4736   4.485   1.859  12.512  0.3859 -0.2923  1.1232
  311MPD2     N 4737   4.221   2.140  12.759 -0.3929  0.1838  0.6611
  311MPD2    H5 4738   4.220   2.233  12.800  3.6730 -1.0269  3.5015
  311MPD2    N1 4739   4.679   2.232  12.689 -0.3589 -0.3940  0.3558
  311MPD2    H7 4740   4.660   2.311  12.750 -2.1949 -1.3732  1.0556
  312TMC3    C1 4741   3.989   2.147  12.809 -0.2421  0.2874  0.7204
  312TMC3    C2 4742   3.863   2.091  12.805  0.4423  0.0334  0.5773
  312TMC3    C3 4743   3.758   2.163  12.853 -0.1546  1.1461  0.1548
  312TMC3    C4 4744   4.003   2.279  12.855 -0.1009  0.8752 -0.4189
  312TMC3    C5 4745   3.893   2.347  12.900 -0.9990 -0.8704  0.2045
  312TMC3    C6 4746   3.768   2.293  12.902  0.2481  0.0997 -0.2317
  312TMC3     C 4747   4.094   2.076  12.744  0.1824  0.2988  0.1094
  312TMC3     O 4748   4.054   1.975  12.687 -0.7277 -0.0365  0.5623
  312TMC3     H 4749   3.847   1.985  12.787  0.8690 -0.1149  1.0593
  312TMC3    H1 4750   4.100   2.325  12.862  0.3033  0.2814 -1.9769
  312TMC3    H2 4751   3.693   2.348  12.957  0.6525 -0.1249  0.5443
  312TMC3    C7 4752   3.923   2.453  12.985 -0.4607 -1.0291  0.0786
  312TMC3    C8 4753   3.621   2.108  12.847  1.2328 -0.2753 -0.3773
  312TMC3    O1 4754   3.884   2.571  12.968 -0.3328  0.2363  0.1475
  312TMC3    O2 4755   3.613   1.986  12.825  0.2144  0.1144  0.0961
  313MPD2     C 4756   4.579   1.375  10.394 -0.5666  0.0945 -0.8807
  313MPD2    C1 4757   4.463   1.439  10.415 -0.5979 -0.5365 -0.3399
  313MPD2    C2 4758   4.344   1.390  10.364 -0.5448 -0.1037  0.0578
  313MPD2    C3 4759   4.341   1.293  10.265 -0.0080 -0.5279 -0.0202
  313MPD2    C4 4760   4.462   1.236  10.233 -0.0493  0.4054  0.6782
  313MPD2    C5 4761   4.574   1.275  10.303 -0.9789 -0.0874 -0.2194
  313MPD2     H 4762   4.251   1.440  10.387  0.0183  0.5923  0.8287
  313MPD2    H1 4763   4.476   1.162  10.155 -0.1413 -1.6144  2.5766
  313MPD2    H2 4764   4.672   1.411  10.436 -0.8987 -0.9994  0.8137
  313MPD2    H3 4765   4.670   1.229  10.278 -0.0025  1.2658  1.0601
  313MPD2     N 4766   4.221   1.254  10.201  0.0701 -0.2786  0.4073
  313MPD2    H5 4767   4.137   1.309  10.215 -0.4181 -0.7251 -0.8057
  313MPD2    N1 4768   4.450   1.560  10.492  0.3205 -0.0170 -0.4769
  313MPD2    H7 4769   4.354   1.587  10.512  1.5036  0.4765  4.4805
  314TMC3    C1 4770   4.478   1.719  10.644  0.1131  0.3306  0.0168
  314TMC3    C2 4771   4.558   1.789  10.735  0.0805  0.7017 -0.3827
  314TMC3    C3 4772   4.494   1.876  10.814 -0.1254 -0.7425  0.4552
  314TMC3    C4 4773   4.338   1.734  10.640 -0.0796  0.1959  0.3425
  314TMC3    C5 4774   4.284   1.826  10.724 -0.3490  0.1518  0.0589
  314TMC3    C6 4775   4.359   1.900  10.812  0.7814 -0.3976  0.7666
  314TMC3     C 4776   4.547   1.629  10.558  0.2967 -0.1088 -0.0433
  314TMC3     O 4777   4.666   1.607  10.565  0.0115  0.0267 -0.5499
  314TMC3     H 4778   4.664   1.776  10.751  0.0806 -0.6724 -1.4749
  314TMC3    H1 4779   4.265   1.682  10.578 -0.7457  1.2726  0.2263
  314TMC3    H2 4780   4.312   1.980  10.869 -0.2435 -0.3435 -0.1632
  314TMC3    C7 4781   4.167   1.892  10.670 -0.9146  0.0235  0.2362
  314TMC3    C8 4782   4.559   1.992  10.868  0.0719  0.2267  0.1113
  314TMC3    O1 4783   4.068   1.825  10.639  0.0712  0.7634  0.0849
  314TMC3    O2 4784   4.498   2.097  10.856 -0.2011  0.0601  0.1924
  315MPD2     C 4785   3.925   1.297   0.187  0.2949 -0.1643 -0.5209
  315MPD2    C1 4786   4.008   1.221   0.103 -0.3674  0.6824 -0.5738
  315MPD2    C2 4787   4.001   1.243  17.725 -0.0901 -0.3214  0.4660
  315MPD2    C3 4788   3.921   1.340  17.671 -0.0979  0.5740 -0.2070
  315MPD2    C4 4789   3.841   1.408   0.006 -0.5633  0.2935  0.6193
  315MPD2    C5 4790   3.838   1.387   0.136 -0.0318 -0.0699  0.0122
  315MPD2     H 4791   4.071   1.195  17.658  1.4297 -0.7895  2.3561
  315MPD2    H1 4792   3.774   1.486  17.731 -0.2201  0.4406  0.2655
  315MPD2    H2 4793   3.923   1.282   0.294  1.1616  0.5033 -0.4146
  315MPD2    H3 4794   3.765   1.447   0.189  1.2786 -0.3079  2.0615
  315MPD2     N 4795   3.938   1.374  17.537  0.4128  0.2092 -0.1483
  315MPD2    H5 4796   4.009   1.324  17.485  0.7020  0.6506 -0.1812
  315MPD2    N1 4797   4.100   1.120   0.147 -0.5851 -0.0369 -0.0468
  315MPD2    H7 4798   4.154   1.074   0.074 -1.2478 -0.7477 -0.0978
  316TMC3    C1 4799   3.951   1.545  17.372  0.0337  0.6418 -0.6459
  316TMC3    C2 4800   4.088   1.538  17.390  0.4373 -0.8071 -0.3005
  316TMC3    C3 4801   4.169   1.626  17.326  0.2309  0.1310  0.0206
  316TMC3    C4 4802   3.892   1.648  17.309 -0.3837 -0.6319  0.6258
  316TMC3    C5 4803   3.971   1.735  17.242 -0.2367  0.4547  0.1845
  316TMC3    C6 4804   4.104   1.720  17.254 -0.3618  0.5465  0.5938
  316TMC3     C 4805   3.874   1.485  17.478 -0.0792 -0.4972  0.1279
  316TMC3     O 4806   3.771   1.541  17.515 -0.3618 -0.0986  0.0499
  316TMC3     H 4807   4.129   1.470  17.463 -0.4198 -1.7237 -0.6756
  316TMC3    H1 4808   3.785   1.668  17.308 -0.7190 -2.4162  0.0724
  316TMC3    H2 4809   4.171   1.798  17.218 -0.0995  0.8127  1.6760
  316TMC3    C7 4810   3.921   1.823  17.140  0.0377 -0.4643  0.2949
  316TMC3    C8 4811   4.297   1.649  17.370 -0.2473 -0.5100  0.7276
  316TMC3    O1 4812   4.002   1.899  17.085  0.0416 -0.5440  0.0646
  316TMC3    O2 4813   4.338   1.768  17.373  0.0025 -0.4440 -0.1934
  317MPD2     C 4814   1.101   4.321  12.892 -0.1075  0.7428 -0.0784
  317MPD2    C1 4815   1.118   4.195  12.848 -0.5359  0.0062  0.0236
  317MPD2    C2 4816   1.166   4.101  12.932  0.0854  0.1646  0.2160
  317MPD2    C3 4817   1.178   4.118  13.065 -0.1720  0.1575  0.0907
  317MPD2    C4 4818   1.153   4.248  13.115  0.2232 -0.0913  0.4962
  317MPD2    C5 4819   1.110   4.342  13.030  0.2565 -0.7813 -0.0560
  317MPD2     H 4820   1.184   4.005  12.884 -0.8408 -0.5205  1.2465
  317MPD2    H1 4821   1.163   4.274  13.220  1.7124 -1.7719  0.7630
  317MPD2    H2 4822   1.056   4.400  12.833 -0.2955 -0.0663 -1.0230
  317MPD2    H3 4823   1.101   4.445  13.065  2.3795 -0.4469 -0.4865
  317MPD2     N 4824   1.203   4.009  13.146 -0.4425 -0.3777 -0.5170
  317MPD2    H5 4825   1.219   3.921  13.099 -1.0820 -0.6925 -0.1332
  317MPD2    N1 4826   1.103   4.151  12.715  0.1116  0.0320  0.0163
  317MPD2    H7 4827   1.137   4.058  12.690  0.9228  0.9212 -2.2502
  318TMC3    C1 4828   1.266   3.874  13.335 -0.9735 -0.7030 -0.2955
  318TMC3    C2 4829   1.223   3.764  13.274  0.6967  0.6253 -0.6629
  318TMC3    C3 4830   1.283   3.646  13.306 -0.0141 -0.3174 -0.1453
  318TMC3    C4 4831   1.368   3.876  13.426 -0.4110  0.1756 -0.7912
  318TMC3    C5 4832   1.429   3.752  13.452  0.1254 -0.2036 -0.0770
  318TMC3    C6 4833   1.388   3.635  13.394 -0.5467  0.0149  0.5073
  318TMC3     C 4834   1.234   4.004  13.280  0.4473 -0.2833  0.9351
  318TMC3     O 4835   1.276   4.097  13.346  0.2842  0.0877 -0.5547
  318TMC3     H 4836   1.133   3.779  13.215 -0.2781  1.9094  1.1675
  318TMC3    H1 4837   1.412   3.966  13.469  2.1033 -0.1774 -2.6449
  318TMC3    H2 4838   1.434   3.541  13.422 -1.0607 -0.0725  1.0681
  318TMC3    C7 4839   1.504   3.745  13.579  0.1976  0.0051  0.7508
  318TMC3    C8 4840   1.214   3.523  13.282  0.0432 -0.3447  0.0948
  318TMC3    O1 4841   1.473   3.832  13.654  0.5272 -0.4934  0.2561
  318TMC3    O2 4842   1.237   3.436  13.363  0.2721  0.0703  0.0543
  319MPD2     C 4843   1.923   0.742  16.294 -0.3594 -1.0716  0.1514
  319MPD2    C1 4844   1.850   0.731  16.410 -0.1412  0.0951  0.5043
  319MPD2    C2 4845   1.710   0.720  16.408  0.2576  0.1750 -0.2490
  319MPD2    C3 4846   1.650   0.726  16.289  0.5884 -0.3565 -0.4134
  319MPD2    C4 4847   1.725   0.754  16.177  0.1003 -0.9206  0.1182
  319MPD2    C5 4848   1.860   0.760  16.173  0.6913 -0.5671  0.5744
  319MPD2     H 4849   1.651   0.722  16.499  1.8427  1.7176  0.7522
  319MPD2    H1 4850   1.682   0.769  16.079 -0.6830 -0.0993  0.5854
  319MPD2    H2 4851   2.030   0.758  16.288 -0.1668 -2.1339  0.7668
  319MPD2    H3 4852   1.918   0.782  16.084 -1.5110  1.3706 -0.3839
  319MPD2     N 4853   1.515   0.706  16.272  0.0225  0.6897 -0.4475
  319MPD2    H5 4854   1.473   0.706  16.180  0.3635  0.0483 -0.6037
  319MPD2    N1 4855   1.916   0.745  16.539 -0.3601 -0.4038  0.6458
  319MPD2    H7 4856   1.854   0.747  16.620 -1.2010 -0.8129  0.0088
  320TMC3    C1 4857   1.312   0.592  16.305 -0.3954  0.2344 -0.0583
  320TMC3    C2 4858   1.273   0.636  16.183  0.3002 -0.1027  0.7658
  320TMC3    C3 4859   1.207   0.543  16.108  0.3475  0.6320  0.0145
  320TMC3    C4 4860   1.292   0.459  16.349 -0.2376 -0.8943  0.3662
  320TMC3    C5 4861   1.255   0.371  16.256 -0.3678 -0.4000  0.3190
  320TMC3    C6 4862   1.205   0.408  16.133 -0.6488  0.7268 -0.7961
  320TMC3     C 4863   1.431   0.651  16.361 -0.0094 -0.9749 -0.6362
  320TMC3     O 4864   1.454   0.614  16.476 -0.3417 -0.2700  0.1662
  320TMC3     H 4865   1.288   0.736  16.143  0.3430  0.3158  1.8261
  320TMC3    H1 4866   1.349   0.431  16.437  1.4513 -0.2270 -0.5167
  320TMC3    H2 4867   1.164   0.334  16.065  0.0512  0.3609 -0.8171
  320TMC3    C7 4868   1.304   0.230  16.273 -0.5043  0.2703 -0.2514
  320TMC3    C8 4869   1.117   0.597  16.004  0.4613  0.4027  0.1974
  320TMC3    O1 4870   1.288   0.151  16.182  0.0709  0.3757 -0.2299
  320TMC3    O2 4871   1.099   0.717  15.984  0.2636 -0.1940  0.3312
  321TMC3    C1 4872   2.075   0.747  16.705 -0.0799  0.0103  0.1539
  321TMC3    C2 4873   1.978   0.688  16.787 -0.1486 -0.1211 -0.0166
  321TMC3    C3 4874   2.009   0.683  16.928 -0.3220  0.5384 -0.3126
  321TMC3    C4 4875   2.195   0.800  16.755 -0.9014  0.1460  0.3206
  321TMC3    C5 4876   2.205   0.801  16.894  0.7880 -0.1633 -0.2549
  321TMC3    C6 4877   2.107   0.761  16.985  0.4553  0.6022  0.2694
  321TMC3     C 4878   2.049   0.767  16.564  1.0330  0.1390  0.0332
  321TMC3     O 4879   2.140   0.790  16.488 -0.5358  0.0026  0.1707
  321TMC3     H 4880   1.912   0.609  16.752 -0.9079  0.2251  0.6365
  321TMC3    H1 4881   2.268   0.857  16.698 -1.4528  1.3023  0.7634
  321TMC3    H2 4882   2.110   0.783  17.092  0.4845 -0.5281  0.5018
  321TMC3    C7 4883   2.329   0.772  16.960 -0.3440  0.9419  0.5665
  321TMC3    C8 4884   1.999   0.558  16.993  0.6488  0.0091  0.6577
  321TMC3    O1 4885   2.329   0.718  17.068 -0.1526 -0.0654  0.2441
  321TMC3    O2 4886   1.904   0.489  16.957 -0.0196 -0.0584 -0.0074
  322MPD2     C 4887   0.655   1.858  13.611 -0.3057  0.2457 -0.1127
  322MPD2    C1 4888   0.695   1.802  13.731 -0.0930 -0.2911  0.0635
  322MPD2    C2 4889   0.743   1.673  13.718 -0.4165  0.2043  0.5137
  322MPD2    C3 4890   0.747   1.597  13.602  0.0499  0.1363 -0.1687
  322MPD2    C4 4891   0.694   1.651  13.486  0.3498 -0.3190 -0.0431
  322MPD2    C5 4892   0.653   1.775  13.500  0.2945 -0.0887  0.0759
  322MPD2     H 4893   0.766   1.624  13.812  1.6820  0.0438 -0.0959
  322MPD2    H1 4894   0.686   1.590  13.397  2.8883  0.7752 -1.0310
  322MPD2    H2 4895   0.633   1.963  13.595  1.0124  0.6399  0.6255
  322MPD2    H3 4896   0.613   1.823  13.411 -0.4428 -1.1745 -0.1772
  322MPD2     N 4897   0.810   1.470  13.612  0.2163 -0.0469  0.7568
  322MPD2    H5 4898   0.846   1.443  13.703  0.5984  2.3713  1.3186
  322MPD2    N1 4899   0.705   1.865  13.855  0.6979  0.1631  0.4285
  322MPD2    H7 4900   0.734   1.814  13.938 -2.4429 -1.3425  0.6028
  323TMC3    C1 4901   0.721   2.045  14.003  0.0642  0.5378  0.2479
  323TMC3    C2 4902   0.808   2.152  13.980  0.0287  0.2160  0.6182
  323TMC3    C3 4903   0.880   2.194  14.091 -0.4654  0.0449 -0.4126
  323TMC3    C4 4904   0.712   1.978  14.117 -0.3510  0.0600 -0.3126
  323TMC3    C5 4905   0.779   2.033  14.228 -0.2713  0.5760 -0.1565
  323TMC3    C6 4906   0.863   2.144  14.214  0.0506  0.0270 -0.2582
  323TMC3     C 4907   0.670   1.993  13.874 -0.6924 -0.9362  0.1131
  323TMC3     O 4908   0.627   2.068  13.787  0.2550 -0.5718 -0.0656
  323TMC3     H 4909   0.815   2.203  13.885  0.0635 -1.3316 -0.1985
  323TMC3    H1 4910   0.648   1.890  14.125 -1.2102  0.7761  0.6794
  323TMC3    H2 4911   0.922   2.182  14.297  1.5367 -1.6904 -0.5247
  323TMC3    C7 4912   0.800   1.940  14.337  0.4946 -1.1001  0.2099
  323TMC3    C8 4913   1.020   2.216  14.069  0.0040  1.0234 -0.4233
  323TMC3    O1 4914   0.782   1.818  14.324  0.1201  0.3310 -0.3967
  323TMC3    O2 4915   1.106   2.189  14.154  0.4255  0.0958  0.0044
  324MPD2     C 4916   3.025   3.061  14.398 -0.5566 -0.4301 -0.3900
  324MPD2    C1 4917   2.974   3.174  14.458  0.2771  0.0539 -0.2432
  324MPD2    C2 4918   2.847   3.202  14.440 -0.4705 -0.4604 -0.5772
  324MPD2    C3 4919   2.768   3.116  14.375 -0.1220 -0.0788  0.4332
  324MPD2    C4 4920   2.812   2.998  14.319 -0.3112 -0.0884  0.1723
  324MPD2    C5 4921   2.942   2.969  14.336  0.6585 -0.2081 -0.1559
  324MPD2     H 4922   2.810   3.286  14.496  0.6864 -0.6590  0.4735
  324MPD2    H1 4923   2.745   2.931  14.266  1.1278  0.9987 -3.0172
  324MPD2    H2 4924   3.131   3.040  14.400 -0.5541 -0.6538 -2.4465
  324MPD2    H3 4925   2.989   2.879  14.299  1.5157 -0.1902  0.9122
  324MPD2     N 4926   2.630   3.131  14.361 -0.0868 -0.3876 -0.4616
  324MPD2    H5 4927   2.590   3.052  14.311  1.0433  0.4378 -2.6748
  324MPD2    N1 4928   3.051   3.261  14.534  0.2008 -0.3818 -0.0496
  324MPD2    H7 4929   3.000   3.314  14.605  0.1306 -1.2472  0.5487
  325TMC3    C1 4930   2.417   3.243  14.351  0.0395  0.5556 -0.3183
  325TMC3    C2 4931   2.348   3.126  14.345  0.0772 -0.2806  0.9593
  325TMC3    C3 4932   2.209   3.132  14.350 -0.0943 -0.5179 -0.0979
  325TMC3    C4 4933   2.360   3.363  14.336  0.2613  0.4619  0.6240
  325TMC3    C5 4934   2.222   3.358  14.336  0.3772 -0.2176  0.0425
  325TMC3    C6 4935   2.142   3.247  14.347 -0.1363 -1.2163 -0.4267
  325TMC3     C 4936   2.557   3.239  14.396  0.2004  0.2985 -0.6769
  325TMC3     O 4937   2.590   3.344  14.447 -0.1017 -0.2207 -0.0771
  325TMC3     H 4938   2.404   3.034  14.353  1.0934  0.4349  2.1366
  325TMC3    H1 4939   2.424   3.451  14.338  1.2106 -0.2257  0.7891
  325TMC3    H2 4940   2.036   3.245  14.323  0.0125 -0.7623 -1.1196
  325TMC3    C7 4941   2.160   3.489  14.339  0.5114  0.3492 -0.2277
  325TMC3    C8 4942   2.126   3.013  14.349  0.0599 -0.0945  0.0139
  325TMC3    O1 4943   2.215   3.577  14.273 -0.0993 -0.2271  0.4181
  325TMC3    O2 4944   2.160   2.925  14.272  0.5828  0.2110  0.1440
  326MPD2     C 4945   3.696   3.935  11.382  0.1932  0.8203  0.7470
  326MPD2    C1 4946   3.675   3.987  11.256  0.2006  0.8024 -0.0065
  326MPD2    C2 4947   3.784   4.018  11.179 -0.2227 -0.0338 -0.3544
  326MPD2    C3 4948   3.914   3.987  11.218  0.1859 -0.5995 -0.0805
  326MPD2    C4 4949   3.939   3.946  11.346  0.3116  0.6365  0.1764
  326MPD2    C5 4950   3.829   3.905  11.422 -0.6234  0.1865  0.5250
  326MPD2     H 4951   3.761   4.064  11.084 -0.7145 -1.2743 -0.8394
  326MPD2    H1 4952   4.037   3.921  11.386  1.3028  3.3883 -0.5832
  326MPD2    H2 4953   3.614   3.926  11.451 -0.8884  1.7459 -0.4255
  326MPD2    H3 4954   3.851   3.870  11.522 -0.3242  0.8978  0.7075
  326MPD2     N 4955   4.019   4.011  11.130  0.6598  0.1474 -0.1684
  326MPD2    H5 4956   4.108   3.972  11.160 -0.5874 -0.3814  2.7597
  326MPD2    N1 4957   3.549   4.018  11.198 -0.3276 -0.6220  0.3733
  326MPD2    H7 4958   3.554   4.047  11.101  2.1623  2.2065  1.3350
  327TMC3    C1 4959   3.318   4.023  11.159  0.2722 -0.5358 -0.0225
  327TMC3    C2 4960   3.272   4.139  11.117  0.2175  0.9498 -0.0549
  327TMC3    C3 4961   3.226   4.145  10.984 -0.2209 -0.3973  0.4824
  327TMC3    C4 4962   3.328   3.915  11.080  0.2426 -0.2085  0.4898
  327TMC3    C5 4963   3.299   3.919  10.945 -0.5458  0.2359  0.2272
  327TMC3    C6 4964   3.238   4.037  10.899 -0.3504  0.0448  0.2255
  327TMC3     C 4965   3.427   4.020  11.255 -0.7417  0.1697  0.9435
  327TMC3     O 4966   3.397   3.985  11.368 -0.1440 -0.4210 -0.6546
  327TMC3     H 4967   3.296   4.232  11.168  1.1033  0.6926 -0.0116
  327TMC3    H1 4968   3.353   3.825  11.135  0.7866 -0.9779 -1.0473
  327TMC3    H2 4969   3.206   4.043  10.795 -3.2414 -1.5213  1.0374
  327TMC3    C7 4970   3.400   3.872  10.858  0.1748 -0.2336 -0.6036
  327TMC3    C8 4971   3.174   4.270  10.928 -0.2773  0.0020 -0.1450
  327TMC3    O1 4972   3.393   3.904  10.737  0.0988 -0.5288  0.2303
  327TMC3    O2 4973   3.153   4.276  10.807  0.0862  0.1678  0.1070
  328MPD2     C 4974   1.443   3.887  16.943 -0.3666 -0.3414  0.8302
  328MPD2    C1 4975   1.355   3.789  16.914 -0.2556  0.1515 -0.2211
  328MPD2    C2 4976   1.228   3.831  16.867 -0.2527  1.1481 -0.0272
  328MPD2    C3 4977   1.201   3.960  16.851 -0.3954 -0.1195  0.8190
  328MPD2    C4 4978   1.299   4.058  16.857  0.0064 -0.4010  0.2754
  328MPD2    C5 4979   1.419   4.020  16.909  0.1736 -0.3632 -0.5413
  328MPD2     H 4980   1.149   3.757  16.865 -1.2607  2.1436  2.9440
  328MPD2    H1 4981   1.278   4.163  16.844 -2.2152 -0.7821  0.8306
  328MPD2    H2 4982   1.541   3.873  16.985  1.0815  1.0402 -2.1019
  328MPD2    H3 4983   1.488   4.104  16.921  0.4033 -0.7925  1.1202
  328MPD2     N 4984   1.071   3.997  16.813 -0.7015 -0.4016  0.1546
  328MPD2    H5 4985   1.046   4.089  16.777  0.3254  0.7557  2.4289
  328MPD2    N1 4986   1.395   3.657  16.942  0.1247  0.1418  0.1118
  328MPD2    H7 4987   1.490   3.643  16.975  0.9048  1.0008 -1.8015
  329TMC3    C1 4988   1.364   3.429  16.992 -0.6902 -0.2214  0.2846
  329TMC3    C2 4989   1.431   3.456  17.105 -0.5580  0.5341 -0.2523
  329TMC3    C3 4990   1.444   3.347  17.190 -0.1918  0.4185 -0.5221
  329TMC3    C4 4991   1.309   3.306  16.964  0.2226 -0.0437  0.0402
  329TMC3    C5 4992   1.329   3.201  17.048  0.5802  0.4686 -0.0564
  329TMC3    C6 4993   1.399   3.220  17.161  0.0277 -0.1155  0.2257
  329TMC3     C 4994   1.315   3.549  16.917 -0.0319 -0.1954 -1.1512
  329TMC3     O 4995   1.199   3.534  16.872 -0.1159 -0.9574 -0.1926
  329TMC3     H 4996   1.475   3.553  17.127 -1.4588  0.7779  0.4686
  329TMC3    H1 4997   1.241   3.310  16.879  1.5914  0.9719 -1.0038
  329TMC3    H2 4998   1.403   3.138  17.231  0.9711  0.5669  0.9669
  329TMC3    C7 4999   1.303   3.063  17.001 -0.4719  1.0546  0.3913
  329TMC3    C8 5000   1.499   3.361  17.323 -0.0387  0.1479  0.8651
  329TMC3    O1 5001   1.280   2.976  17.087 -0.7228 -0.2555 -0.2990
  329TMC3    O2 5002   1.555   3.258  17.362  0.6477 -0.2991 -0.6301
  330TMC3    C1 5003   4.512   3.406  10.022  0.3046 -0.3686  0.6749
  330TMC3    C2 5004   4.444   3.353  10.129  0.0049  0.2616 -0.2123
  330TMC3    C3 5005   4.515   3.338  10.244  0.8444  0.0028 -0.3447
  330TMC3    C4 5006   4.639   3.463  10.041 -0.2905 -0.2070 -0.7695
  330TMC3    C5 5007   4.697   3.449  10.162  0.3316  0.3366  0.0069
  330TMC3    C6 5008   4.639   3.386  10.264 -0.5607 -0.0953 -0.3291
  330TMC3     C 5009   4.431   3.457   9.904  0.4814  0.3924  0.6787
  330TMC3     O 5010   4.486   3.463   9.796 -0.6317  0.0709 -0.1542
  330TMC3     H 5011   4.340   3.322  10.118  0.2758 -0.6367 -0.1992
  330TMC3    H1 5012   4.682   3.506   9.951 -1.3810  1.6607 -0.4112
  330TMC3    H2 5013   4.686   3.378  10.361  0.8002 -1.8518 -1.1422
  330TMC3    C7 5014   0.082   3.532  10.185  0.0029 -0.1628  0.1978
  330TMC3    C8 5015   4.442   3.281  10.357 -0.2186 -0.4295 -0.0469
  330TMC3    O1 5016   0.111   3.612  10.097 -0.3575 -0.0587 -0.8661
  330TMC3    O2 5017   4.498   3.288  10.466 -0.6327 -0.3719  0.2977
  331MPD2     C 5018   1.938   1.964  13.043 -0.1026  0.4405 -0.6173
  331MPD2    C1 5019   2.031   1.968  12.942 -0.2556  0.2466 -0.1430
  331MPD2    C2 5020   2.018   1.877  12.838 -0.5366  0.2302 -0.4720
  331MPD2    C3 5021   1.926   1.772  12.840  0.0569 -0.0500 -0.5492
  331MPD2    C4 5022   1.831   1.769  12.943 -0.3767  0.3516  0.3529
  331MPD2    C5 5023   1.846   1.864  13.043 -0.1205 -0.4961  0.2665
  331MPD2     H 5024   2.082   1.897  12.753  1.7492  4.0889  2.1355
  331MPD2    H1 5025   1.754   1.693  12.950  1.0627 -1.1439 -0.0861
  331MPD2    H2 5026   1.930   2.043  13.116 -1.7955  1.4828 -1.9364
  331MPD2    H3 5027   1.774   1.860  13.123 -1.9641 -0.1965 -1.3789
  331MPD2     N 5028   1.930   1.676  12.735  0.3497 -0.5488  0.2026
  331MPD2    H5 5029   1.986   1.705  12.655  1.5834  2.0440  2.0013
  331MPD2    N1 5030   2.137   2.067  12.951  0.0325 -0.4008 -0.1601
  331MPD2    H7 5031   2.115   2.143  13.015 -2.4591 -1.8270  0.6563
  332TMC3    C1 5032   1.903   1.482  12.619  0.7669 -0.1586  0.9922
  332TMC3    C2 5033   1.928   1.546  12.501  0.9242  0.2454 -0.5409
  332TMC3    C3 5034   2.015   1.487  12.410  0.3857  0.4038  0.0880
  332TMC3    C4 5035   1.983   1.372  12.655 -0.4250 -0.2065 -0.8446
  332TMC3    C5 5036   2.068   1.318  12.562 -0.2897  0.5829 -0.3266
  332TMC3    C6 5037   2.088   1.372  12.440 -0.0421  0.0693  0.5387
  332TMC3     C 5038   1.863   1.558  12.730 -0.1127 -0.0538 -0.2137
  332TMC3     O 5039   1.811   1.493  12.815 -0.7896  0.5678  0.3237
  332TMC3     H 5040   1.866   1.628  12.469  2.8042  2.1700  0.7849
  332TMC3    H1 5041   1.968   1.339  12.757 -1.6287 -3.4572 -2.0757
  332TMC3    H2 5042   2.151   1.315  12.372 -2.4841 -1.6464 -0.3028
  332TMC3    C7 5043   2.171   1.231  12.612  0.2078 -0.1585  0.2069
  332TMC3    C8 5044   2.040   1.562  12.290  0.2083  1.0405  0.4717
  332TMC3    O1 5045   2.132   1.142  12.688  0.1875 -0.1325  0.2942
  332TMC3    O2 5046   2.025   1.681  12.302 -0.1509  0.3796 -0.0885
  333MPD2     C 5047   2.361   2.331  11.286  0.4302 -0.4611 -0.3980
  333MPD2    C1 5048   2.384   2.216  11.205 -0.1250 -0.4261 -0.2396
  333MPD2    C2 5049   2.316   2.093  11.228 -0.3014  0.1874 -0.5717
  333MPD2    C3 5050   2.228   2.081  11.339 -0.0277  0.5660  0.1336
  333MPD2    C4 5051   2.225   2.187  11.431  0.0025  0.5284 -0.3353
  333MPD2    C5 5052   2.288   2.308  11.404  0.5645  0.2086 -0.0877
  333MPD2     H 5053   2.318   2.006  11.164 -0.4204  0.9026 -1.5482
  333MPD2    H1 5054   2.164   2.189  11.521  0.4745  0.0982 -0.0060
  333MPD2    H2 5055   2.421   2.421  11.276  1.3259 -1.2223 -1.8670
  333MPD2    H3 5056   2.295   2.388  11.477  0.1351 -0.4636  0.6942
  333MPD2     N 5057   2.164   1.958  11.364 -0.3387 -0.1940  0.4626
  333MPD2    H5 5058   2.200   1.874  11.319  1.5328 -0.0697  1.7076
  333MPD2    N1 5059   2.468   2.233  11.086  0.5673  0.2119  0.1201
  333MPD2    H7 5060   2.508   2.326  11.088  1.6136 -0.2391  0.8058
  334TMC3    C1 5061   2.553   2.197  10.875 -0.2083  0.2600 -0.1428
  334TMC3    C2 5062   2.638   2.121  10.796 -0.0601  0.2693  0.5909
  334TMC3    C3 5063   2.714   2.186  10.699  0.4942 -0.3289  0.0256
  334TMC3    C4 5064   2.558   2.337  10.856  0.0004 -0.2908 -0.6914
  334TMC3    C5 5065   2.635   2.395  10.759 -0.3440 -0.5465 -0.2788
  334TMC3    C6 5066   2.718   2.325  10.680  0.6802  0.2876  0.1624
  334TMC3     C 5067   2.500   2.140  10.993  0.2661  0.5615 -0.2539
  334TMC3     O 5068   2.492   2.016  10.991  0.2860  0.1656  0.3399
  334TMC3     H 5069   2.644   2.014  10.811 -1.0402  0.1694  0.3205
  334TMC3    H1 5070   2.474   2.392  10.897  0.2005 -1.1656  0.8937
  334TMC3    H2 5071   2.780   2.373  10.605  0.1983 -0.6149 -0.8146
  334TMC3    C7 5072   2.616   2.532  10.740 -0.2155  0.3158  0.2503
  334TMC3    C8 5073   2.838   2.118  10.669 -0.0998 -0.2625  0.0686
  334TMC3    O1 5074   2.565   2.588  10.840  0.5423  0.2670  0.6198
  334TMC3    O2 5075   2.822   1.999  10.643 -0.1009  0.7341 -0.6148
  335TMC3    C1 5076   2.216   3.725  17.745 -0.5942 -0.4290 -0.8331
  335TMC3    C2 5077   2.162   3.679  17.628 -0.3304  0.1543  0.3683
  335TMC3    C3 5078   2.215   3.726  17.508 -0.6921 -0.3780 -0.6634
  335TMC3    C4 5079   2.310   3.825  17.752  0.4890  0.1775 -1.0413
  335TMC3    C5 5080   2.352   3.874  17.632 -0.4324 -0.8420 -0.5741
  335TMC3    C6 5081   2.318   3.818  17.512  0.4172  0.1004 -0.6604
  335TMC3     C 5082   2.146   3.679   0.107 -0.3428 -0.3924 -0.1618
  335TMC3     O 5083   2.092   3.572   0.113 -0.0842  0.3714  0.3078
  335TMC3     H 5084   2.067   3.627  17.626  1.1290 -2.4955 -1.1735
  335TMC3    H1 5085   2.362   3.853   0.085  2.4039 -0.0255 -2.0777
  335TMC3    H2 5086   2.355   3.863  17.420 -0.1435  2.3938  0.2340
  335TMC3    C7 5087   2.456   3.979  17.638 -0.8182  0.4629 -0.0206
  335TMC3    C8 5088   2.171   3.677  17.379  0.1815 -0.3118  0.5792
  335TMC3    O1 5089   2.493   4.002  17.521 -0.2378 -0.6439 -0.3953
  335TMC3    O2 5090   2.186   3.756  17.287  0.1634  0.4658 -0.1531
  336MPD2     C 5091   1.665   2.050  15.838 -0.0399  0.1782 -0.5058
  336MPD2    C1 5092   1.556   1.984  15.795  0.2750 -0.3121 -0.5782
  336MPD2    C2 5093   1.531   1.860  15.841 -0.2074 -0.2406  1.0208
  336MPD2    C3 5094   1.620   1.788  15.924 -0.3563 -0.2491 -0.1811
  336MPD2    C4 5095   1.741   1.847  15.945 -0.5706  0.2409  0.3063
  336MPD2    C5 5096   1.758   1.981  15.911 -0.6242  0.7322  0.5653
  336MPD2     H 5097   1.439   1.816  15.804  1.0049 -3.3386  1.6803
  336MPD2    H1 5098   1.818   1.795  16.000 -1.8812 -1.4489  0.5710
  336MPD2    H2 5099   1.679   2.151  15.800  0.1810  1.4305  2.8647
  336MPD2    H3 5100   1.853   2.025  15.940 -0.2306  0.7660 -0.7436
  336MPD2     N 5101   1.589   1.663  15.977  0.0838  0.4413  0.4752
  336MPD2    H5 5102   1.660   1.626  16.039 -0.7101 -0.2339  0.9947
  336MPD2    N1 5103   1.479   2.059  15.705  0.2792  0.1453  0.0706
  336MPD2    H7 5104   1.524   2.144  15.673 -1.0612 -0.5939 -3.8284
  337TMC3    C1 5105   1.296   2.126  15.566 -1.2802 -0.0331 -0.2174
  337TMC3    C2 5106   1.158   2.151  15.570 -0.3028 -0.4406 -0.2536
  337TMC3    C3 5107   1.107   2.206  15.457 -0.2211 -0.4114  0.4089
  337TMC3    C4 5108   1.377   2.151  15.459  0.3133  0.2465 -0.0342
  337TMC3    C5 5109   1.323   2.212  15.352 -0.4855  0.2585  0.2097
  337TMC3    C6 5110   1.189   2.239  15.346 -0.1974  0.5511  0.1355
  337TMC3     C 5111   1.350   2.033  15.664  0.3685  0.4592  0.1748
  337TMC3     O 5112   1.267   1.954  15.713 -0.3175 -0.1063 -0.1107
  337TMC3     H 5113   1.097   2.106  15.647 -0.0777  1.4672  1.0175
  337TMC3    H1 5114   1.475   2.105  15.457 -0.7815 -2.0928  1.9026
  337TMC3    H2 5115   1.139   2.278  15.258  1.0238 -1.3276 -1.3958
  337TMC3    C7 5116   1.416   2.224  15.240  0.5887  0.0671  0.0753
  337TMC3    C8 5117   0.958   2.191  15.444 -0.5237 -0.6492 -0.5673
  337TMC3    O1 5118   1.526   2.168  15.249 -0.0611  0.0211 -0.4971
  337TMC3    O2 5119   0.894   2.212  15.542 -0.4416  0.3170  0.3716
  338MPD2     C 5120   2.017   1.494   0.832 -0.4266 -0.3663 -0.1495
  338MPD2    C1 5121   1.961   1.438   0.717  0.6135  0.1567  0.6495
  338MPD2    C2 5122   1.828   1.416   0.718  0.1491  0.8637 -0.8875
  338MPD2    C3 5123   1.746   1.447   0.829 -0.7758  0.1961 -0.3159
  338MPD2    C4 5124   1.804   1.502   0.941  0.2837 -0.2302 -0.2245
  338MPD2    C5 5125   1.937   1.531   0.935 -0.4639  0.7648 -0.2145
  338MPD2     H 5126   1.785   1.370   0.629  0.6786 -0.9287 -0.2160
  338MPD2    H1 5127   1.748   1.533   1.028 -0.8419  0.5980 -1.2574
  338MPD2    H2 5128   2.123   1.512   0.841 -0.6234  0.8332 -0.2501
  338MPD2    H3 5129   1.987   1.588   1.012 -1.2019  2.3845 -0.9268
  338MPD2     N 5130   1.612   1.415   0.816 -0.3727  0.5373 -0.4033
  338MPD2    H5 5131   1.583   1.388   0.722 -0.0384 -1.3506  0.0239
  338MPD2    N1 5132   2.035   1.389   0.609 -0.2994 -0.2901 -0.1915
  338MPD2    H7 5133   1.977   1.355   0.533  0.0943  0.1563 -0.6931
  339TMC3    C1 5134   1.396   1.374   0.851 -0.1473  0.7983 -0.3319
  339TMC3    C2 5135   1.355   1.248   0.878 -0.3018  0.2935 -0.3480
  339TMC3    C3 5136   1.262   1.183   0.799  0.0444 -0.3629  0.6825
  339TMC3    C4 5137   1.352   1.436   0.736 -0.3309 -0.5331  0.4184
  339TMC3    C5 5138   1.268   1.370   0.645 -0.9274  0.2385 -1.3754
  339TMC3    C6 5139   1.227   1.246   0.681 -0.4121 -0.3378  0.1713
  339TMC3     C 5140   1.518   1.416   0.913 -0.0443 -0.1594 -0.1879
  339TMC3     O 5141   1.536   1.412   1.034 -0.3166  0.1615  0.1718
  339TMC3     H 5142   1.414   1.189   0.948 -0.5591  2.0729  1.3820
  339TMC3    H1 5143   1.396   1.533   0.717  0.7338 -1.2077 -0.5803
  339TMC3    H2 5144   1.160   1.201   0.609 -0.8190  0.6315 -0.0522
  339TMC3    C7 5145   1.268   1.420   0.509  0.8318  0.0822  0.2592
  339TMC3    C8 5146   1.271   1.036   0.779 -0.4427 -0.0536 -0.1440
  339TMC3    O1 5147   1.320   1.525   0.488  0.5572  0.1342 -0.5400
  339TMC3    O2 5148   1.269   0.990   0.664  0.4311  0.0428 -0.2774
  340MPD2     C 5149   1.584   3.363   9.403  0.4216 -0.4969  0.4387
  340MPD2    C1 5150   1.634   3.299   9.518 -0.9952 -0.5067 -0.8072
  340MPD2    C2 5151   1.694   3.383   9.610  0.1944 -0.0513 -0.0370
  340MPD2    C3 5152   1.704   3.519   9.595  0.6426  0.3511 -0.3200
  340MPD2    C4 5153   1.648   3.583   9.484 -0.0595 -0.7691 -0.4699
  340MPD2    C5 5154   1.587   3.502   9.392  1.1353  0.6764 -0.6631
  340MPD2     H 5155   1.728   3.336   9.701  0.4643 -0.2488 -0.2389
  340MPD2    H1 5156   1.654   3.688   9.461  2.7602 -0.7973  0.1432
  340MPD2    H2 5157   1.548   3.303   9.320  0.6177  0.5563 -0.4159
  340MPD2    H3 5158   1.551   3.555   9.304 -1.8158 -1.3750 -0.6853
  340MPD2     N 5159   1.762   3.601   9.698  0.1753  0.2147  0.1480
  340MPD2    H5 5160   1.746   3.701   9.703 -2.3291 -0.2929  2.2206
  340MPD2    N1 5161   1.633   3.159   9.532  0.2248 -0.0083  0.2695
  340MPD2    H7 5162   1.571   3.106   9.473  1.2486 -0.5556 -0.3118
  341TMC3    C1 5163   1.670   2.941   9.643  0.0415  0.4270 -0.1386
  341TMC3    C2 5164   1.544   2.902   9.614 -0.4845 -0.7265 -0.3089
  341TMC3    C3 5165   1.504   2.781   9.660  0.3833 -0.1938  0.2299
  341TMC3    C4 5166   1.763   2.865   9.705  0.2200  0.0347 -0.2942
  341TMC3    C5 5167   1.723   2.743   9.750 -0.1705  0.0013 -0.4108
  341TMC3    C6 5168   1.591   2.696   9.730 -0.7605  0.5465  0.4329
  341TMC3     C 5169   1.707   3.082   9.620  0.1945 -0.0776  0.1788
  341TMC3     O 5170   1.787   3.120   9.701  0.2594 -0.2923 -0.2242
  341TMC3     H 5171   1.482   2.973   9.560 -0.0541 -1.1682 -1.3769
  341TMC3    H1 5172   1.865   2.893   9.727  1.0617 -2.3248 -1.2593
  341TMC3    H2 5173   1.566   2.592   9.743 -1.5447  0.6539 -0.1976
  341TMC3    C7 5174   1.824   2.649   9.803  0.3181  0.1077  0.5440
  341TMC3    C8 5175   1.378   2.730   9.598 -0.0590  0.3587 -0.3963
  341TMC3    O1 5176   1.940   2.669   9.769  0.2643 -0.1340  0.4212
  341TMC3    O2 5177   1.314   2.805   9.526 -0.6415  0.6987 -0.0145
  342MPD2     C 5178   4.310   2.294  17.218  0.0127  0.3042  0.3821
  342MPD2    C1 5179   4.398   2.307  17.113  0.4992  0.2043 -0.4378
  342MPD2    C2 5180   4.443   2.434  17.083  0.3373  0.1174  0.3888
  342MPD2    C3 5181   4.402   2.543  17.152  0.1682  0.0980  0.0327
  342MPD2    C4 5182   4.311   2.529  17.256 -0.2768 -0.0471  0.2128
  342MPD2    C5 5183   4.273   2.400  17.292 -0.5359  1.3856 -0.5541
  342MPD2     H 5184   4.500   2.440  16.991 -0.7232 -1.6038 -0.3843
  342MPD2    H1 5185   4.262   2.604  17.318 -1.0445 -0.3878  0.0177
  342MPD2    H2 5186   4.276   2.195  17.247  3.1273 -0.0994  2.6056
  342MPD2    H3 5187   4.208   2.383  17.377  1.7448  0.2900  0.9693
  342MPD2     N 5188   4.447   2.670  17.127  0.2180 -0.1269 -0.3717
  342MPD2    H5 5189   4.437   2.743  17.197  0.9645 -1.3001  0.9538
  342MPD2    N1 5190   4.441   2.200  17.032  0.1458  0.7718  0.8815
  342MPD2    H7 5191   4.514   2.220  16.964 -1.8283  1.9215 -0.9104
  343TMC3    C1 5192   4.492   1.990  16.955 -0.1838 -0.0204  0.0851
  343TMC3    C2 5193   4.559   2.052  16.854  0.4557  0.2619  0.3497
  343TMC3    C3 5194   4.649   1.974  16.783  0.6681  0.3212 -0.0815
  343TMC3    C4 5195   4.508   1.860  16.989 -0.4852  0.0831  0.1760
  343TMC3    C5 5196   4.609   1.793  16.922  0.3531 -0.6953  0.9113
  343TMC3    C6 5197   4.683   1.851  16.827  0.1030 -0.2706  0.6806
  343TMC3     C 5198   4.417   2.066  17.045 -0.0358 -0.1999  0.2370
  343TMC3     O 5199   4.336   2.015  17.121 -0.4232 -0.3081 -0.2282
  343TMC3     H 5200   4.537   2.153  16.820 -0.6076 -0.3702 -0.8723
  343TMC3    H1 5201   4.452   1.810  17.067  3.3267 -4.0582  0.2444
  343TMC3    H2 5202   0.015   1.790  16.774 -0.3934  1.2247 -1.6879
  343TMC3    C7 5203   4.638   1.660  16.969 -0.3759  0.5068  0.1936
  343TMC3    C8 5204   4.710   2.029  16.664  0.0802  1.0765  0.8015
  343TMC3    O1 5205   4.548   1.578  17.000  0.2818 -0.1536 -0.0732
  343TMC3    O2 5206   4.722   2.149  16.660  0.1177  0.0093  0.3444
  344MPD2     C 5207   1.125   1.134  11.149  0.4223  0.2277 -0.1616
  344MPD2    C1 5208   1.036   1.146  11.048  0.7188 -0.5738 -0.3073
  344MPD2    C2 5209   1.026   1.260  10.967  0.2652  0.3307  0.0360
  344MPD2    C3 5210   1.101   1.365  11.007  1.0962  0.4856  0.5933
  344MPD2    C4 5211   1.191   1.352  11.112 -0.3195  0.0002  1.1741
  344MPD2    C5 5212   1.210   1.238  11.180  0.4855  0.4148 -0.1026
  344MPD2     H 5213   0.952   1.267  10.888 -0.5322  0.0669  0.7637
  344MPD2    H1 5214   1.254   1.433  11.147 -0.4030  0.5855 -0.0409
  344MPD2    H2 5215   1.148   1.034  11.185 -1.5916 -0.3940 -0.5924
  344MPD2    H3 5216   1.288   1.224  11.254  0.0595  4.2209  1.0959
  344MPD2     N 5217   1.108   1.493  10.938 -0.0846 -0.7300  0.1607
  344MPD2    H5 5218   1.167   1.558  10.988 -0.4832 -0.9691  0.9351
  344MPD2    N1 5219   0.951   1.041  11.014  0.0982  0.3303  0.3712
  344MPD2    H7 5220   0.919   1.035  10.918  2.8486  0.3348 -0.5421
  345TMC3    C1 5221   1.068   1.670  10.787  0.0008 -0.5683 -0.0165
  345TMC3    C2 5222   1.178   1.739  10.823 -0.4804  0.2309 -0.0604
  345TMC3    C3 5223   1.214   1.856  10.761  0.4266 -0.3221 -0.6134
  345TMC3    C4 5224   0.988   1.723  10.688  0.2179 -0.5447 -0.4445
  345TMC3    C5 5225   1.021   1.845  10.639  0.4113 -0.7408  0.0340
  345TMC3    C6 5226   1.134   1.915  10.669  0.4893 -0.3457 -0.2036
  345TMC3     C 5227   1.041   1.534  10.822 -0.5473  0.2793  0.1266
  345TMC3     O 5228   0.958   1.470  10.758  0.3993 -0.7145  0.0927
  345TMC3     H 5229   1.248   1.697  10.894 -1.6691 -0.1198  0.9071
  345TMC3    H1 5230   0.900   1.672  10.651 -1.0668  1.1210  0.2611
  345TMC3    H2 5231   1.167   2.003  10.615 -0.2393  0.2495  0.3240
  345TMC3    C7 5232   0.928   1.926  10.566 -0.2448  0.3331  0.0122
  345TMC3    C8 5233   1.311   1.935  10.830  0.5175  0.5719  0.0217
  345TMC3    O1 5234   0.954   2.044  10.578 -0.6723  0.3465 -0.6501
  345TMC3    O2 5235   1.334   1.906  10.945  0.3916 -0.0866  0.0805
  346MPD2     C 5236   0.799   3.385  14.113  0.0774  0.8682  0.0050
  346MPD2    C1 5237   0.931   3.343  14.099 -0.6014  0.1725  0.6316
  346MPD2    C2 5238   1.029   3.399  14.182  0.4857  0.0801  0.1259
  346MPD2    C3 5239   0.994   3.484  14.287 -0.3193 -0.1348  0.4066
  346MPD2    C4 5240   0.860   3.510  14.304 -0.2303  0.2010 -0.2408
  346MPD2    C5 5241   0.763   3.472  14.211 -0.2976  1.0191 -0.1036
  346MPD2     H 5242   1.129   3.361  14.161  0.2489  0.4565 -1.7020
  346MPD2    H1 5243   0.824   3.577  14.381  0.2065  0.4451 -0.2479
  346MPD2    H2 5244   0.720   3.347  14.049 -1.3684  0.4524  2.0189
  346MPD2    H3 5245   0.656   3.488  14.219 -0.0671  2.1850  0.5162
  346MPD2     N 5246   1.100   3.520  14.378 -0.9152  0.7449  0.0409
  346MPD2    H5 5247   1.187   3.473  14.357 -1.2214  0.7641 -1.2372
  346MPD2    N1 5248   0.967   3.252  13.997 -0.1801 -0.2972 -0.2493
  346MPD2    H7 5249   1.065   3.240  13.976 -0.1953  1.6412 -1.4028
  347TMC3    C1 5250   1.194   3.583  14.580  0.4277  0.2400 -0.2600
  347TMC3    C2 5251   1.319   3.574  14.526 -0.2097 -0.1060 -0.2113
  347TMC3    C3 5252   1.416   3.535  14.615 -0.4098 -0.6127  0.2234
  347TMC3    C4 5253   1.167   3.556  14.707  0.1001  0.0012 -0.6059
  347TMC3    C5 5254   1.264   3.522  14.794  0.1385 -0.2440 -0.1812
  347TMC3    C6 5255   1.389   3.512  14.745  0.6406  0.1561  0.0411
  347TMC3     C 5256   1.076   3.590  14.490 -0.3123 -0.0937  1.0158
  347TMC3     O 5257   0.971   3.635  14.538  0.4116  0.1402  0.8868
  347TMC3     H 5258   1.336   3.604  14.423 -1.6794  0.8491 -0.1673
  347TMC3    H1 5259   1.063   3.563  14.737  1.1378  1.2176  2.7996
  347TMC3    H2 5260   1.475   3.501  14.810  3.0615 -0.0364 -3.1675
  347TMC3    C7 5261   1.229   3.472  14.921 -0.0077  0.4781  0.3225
  347TMC3    C8 5262   1.559   3.550  14.580  0.4979  0.5322  0.1312
  347TMC3    O1 5263   1.117   3.429  14.938 -0.3668 -0.1583 -0.0740
  347TMC3    O2 5264   1.645   3.496  14.647  0.5227  0.3745  0.1943
  348MPD2     C 5265   4.097   2.699  12.079 -0.2775 -0.1104  0.2818
  348MPD2    C1 5266   4.204   2.725  12.000  0.5894  0.1893  0.0423
  348MPD2    C2 5267   4.192   2.828  11.913  0.2050  0.1792 -0.4845
  348MPD2    C3 5268   4.073   2.902  11.900 -0.0630  0.1334 -0.7603
  348MPD2    C4 5269   3.965   2.867  11.975 -0.6769 -0.0147  0.6085
  348MPD2    C5 5270   3.984   2.770  12.070  0.3815 -0.2256 -0.3138
  348MPD2     H 5271   4.273   2.855  11.846  0.8580  0.6534  0.5038
  348MPD2    H1 5272   3.868   2.914  11.957 -0.2141  0.1943 -1.3740
  348MPD2    H2 5273   4.093   2.616  12.149  0.2508 -1.9242 -1.8342
  348MPD2    H3 5274   3.910   2.745  12.145 -0.7174  1.5570 -0.7922
  348MPD2     N 5275   4.074   3.011  11.810  0.2345 -0.4356  0.1088
  348MPD2    H5 5276   4.159   3.037  11.760  1.1487 -1.2239  1.2277
  348MPD2    N1 5277   4.322   2.649  11.989  0.0551  0.6011  0.5914
  348MPD2    H7 5278   4.391   2.674  11.919  0.6225 -1.7429  0.2998
  349TMC3    C1 5279   4.455   2.458  11.998  0.1854 -0.1511 -0.1459
  349TMC3    C2 5280   4.423   2.324  12.028 -0.0897 -0.8315  0.2296
  349TMC3    C3 5281   4.411   2.238  11.926 -0.3303  0.2580  0.3544
  349TMC3    C4 5282   4.474   2.491  11.867  0.1019 -0.1975 -0.0532
  349TMC3    C5 5283   4.444   2.403  11.768 -0.1018  0.3376  0.1263
  349TMC3    C6 5284   4.411   2.272  11.794 -0.8211  0.3714  0.0778
  349TMC3     C 5285   4.360   2.547  12.069 -0.3277 -0.3590  0.4743
  349TMC3     O 5286   4.286   2.496  12.154  0.2632 -0.0390  0.3399
  349TMC3     H 5287   4.408   2.290  12.130 -0.9706  1.6391  0.9134
  349TMC3    H1 5288   4.525   2.583  11.840 -0.8541  1.1033  2.5189
  349TMC3    H2 5289   4.390   2.204  11.712  2.1457 -0.8452  0.3344
  349TMC3    C7 5290   4.350   2.463  11.676  0.1986 -0.0684 -0.1023
  349TMC3    C8 5291   4.421   2.095  11.960  0.1050 -0.0788 -0.1835
  349TMC3    O1 5292   4.258   2.391  11.641 -0.2534 -0.5473 -0.3736
  349TMC3    O2 5293   4.366   2.014  11.883  0.3311  0.2570 -0.0967
  350MPD2     C 5294   3.295   1.257  10.288  0.1622  0.0701 -0.2784
  350MPD2    C1 5295   3.324   1.129  10.239 -0.2132 -0.0883 -0.0831
  350MPD2    C2 5296   3.444   1.118  10.161  0.1203 -0.6364 -0.3046
  350MPD2    C3 5297   3.530   1.224  10.146  1.2271 -0.4070  0.8251
  350MPD2    C4 5298   3.501   1.342  10.205 -0.0161 -0.3418  1.3795
  350MPD2    C5 5299   3.389   1.362  10.278  0.3104  0.1137 -0.1153
  350MPD2     H 5300   3.462   1.023  10.114 -0.5721 -0.3313 -1.1719
  350MPD2    H1 5301   3.575   1.421  10.203 -0.2617 -0.1028  1.7190
  350MPD2    H2 5302   3.203   1.277  10.342  0.4691 -0.1774  0.3423
  350MPD2    H3 5303   3.376   1.459  10.325  1.8373  0.0477  0.4251
  350MPD2     N 5304   3.649   1.196  10.074 -0.1400 -0.7997  0.0273
  350MPD2    H5 5305   3.656   1.101  10.038 -0.0086 -1.0457  0.6932
  350MPD2    N1 5306   3.232   1.020  10.240  0.2375  0.5049  0.3191
  350MPD2    H7 5307   3.261   0.939  10.186  2.5377  0.3914  1.7484
  351TMC3    C1 5308   3.035   0.895  10.267  0.1795  0.4398  0.5491
  351TMC3    C2 5309   3.102   0.783  10.236 -0.0578 -0.1383  0.1202
  351TMC3    C3 5310   3.035   0.668  10.205 -0.0184 -0.1850  0.2469
  351TMC3    C4 5311   2.900   0.893  10.295  0.8981 -0.6987 -0.4307
  351TMC3    C5 5312   2.827   0.778  10.261 -0.0295 -0.0676 -0.7768
  351TMC3    C6 5313   2.897   0.668  10.210  0.0822 -0.2457  0.2690
  351TMC3     C 5314   3.104   1.020  10.289  0.3771 -0.5276  0.3338
  351TMC3     O 5315   3.041   1.109  10.345 -0.2634  0.2167 -0.1301
  351TMC3     H 5316   3.209   0.784  10.216 -0.0908  0.0245 -0.0462
  351TMC3    H1 5317   2.852   0.982  10.335 -0.7915 -0.9620 -1.8734
  351TMC3    H2 5318   2.839   0.585  10.170  0.3684 -0.5814  0.5404
  351TMC3    C7 5319   2.685   0.788  10.230 -0.4091 -0.4565 -1.0452
  351TMC3    C8 5320   3.101   0.536  10.173  0.0574  0.9175 -0.0476
  351TMC3    O1 5321   2.638   0.899  10.238  0.2360 -0.1142  0.4996
  351TMC3    O2 5322   3.037   0.449  10.114 -0.1367 -0.7440  0.2585
  352MPD2     C 5323   1.898   3.208   1.525 -0.6234  0.3439  0.3078
  352MPD2    C1 5324   1.873   3.175   1.393 -0.1893  0.0191  0.0859
  352MPD2    C2 5325   1.934   3.061   1.342 -0.3133 -0.0402  0.1860
  352MPD2    C3 5326   2.024   2.987   1.415  0.1334 -0.5669 -0.3121
  352MPD2    C4 5327   2.055   3.031   1.545  0.0240  0.2088 -0.8734
  352MPD2    C5 5328   1.975   3.126   1.608 -0.3389 -0.3596 -0.5702
  352MPD2     H 5329   1.907   3.028   1.243 -0.1438  0.3441  0.0096
  352MPD2    H1 5330   2.117   2.976   1.615  1.3799  0.3009 -1.9861
  352MPD2    H2 5331   1.843   3.290   1.570  1.5764  1.3170  1.2093
  352MPD2    H3 5332   1.994   3.158   1.709  0.1302  1.1692 -1.1512
  352MPD2     N 5333   2.090   2.865   1.371  0.6252  0.3047 -0.7472
  352MPD2    H5 5334   2.166   2.826   1.424  1.2218  0.2071 -1.6745
  352MPD2    N1 5335   1.789   3.258   1.316 -0.7027 -0.0052  0.0113
  352MPD2    H7 5336   1.727   3.320   1.368  0.4727  0.4972  0.8122
  353TMC3    C1 5337   2.108   2.655   1.247  0.1284  0.7120 -0.2554
  353TMC3    C2 5338   2.224   2.622   1.309 -0.7024 -0.1047 -0.5305
  353TMC3    C3 5339   2.270   2.487   1.294 -0.2254 -0.1318  0.1966
  353TMC3    C4 5340   2.043   2.562   1.175 -0.6560  0.5622 -0.2597
  353TMC3    C5 5341   2.095   2.437   1.149  0.1541  0.9790  0.8481
  353TMC3    C6 5342   2.203   2.393   1.213 -0.3696 -0.4194  0.3233
  353TMC3     C 5343   2.045   2.792   1.262 -0.6838  0.5289  0.5602
  353TMC3     O 5344   1.941   2.803   1.197 -0.1354 -0.4425  0.6572
  353TMC3     H 5345   2.287   2.693   1.362 -1.5319  1.1571 -1.2639
  353TMC3    H1 5346   1.959   2.602   1.119 -0.4894 -1.1170 -1.7205
  353TMC3    H2 5347   2.218   2.286   1.211  2.0509 -0.0797 -0.3194
  353TMC3    C7 5348   2.030   2.338   1.062  0.0628  0.0708 -0.2361
  353TMC3    C8 5349   2.409   2.466   1.330 -0.1309 -0.3682  0.0272
  353TMC3    O1 5350   2.072   2.225   1.037  0.3585 -0.4512 -0.3767
  353TMC3    O2 5351   2.459   2.540   1.422  0.1624 -0.6498  0.0273
  354TMC3    C1 5352   3.883   3.911  13.595  0.1844 -0.1727  0.1346
  354TMC3    C2 5353   3.905   4.047  13.586  0.5879 -0.0928  1.1224
  354TMC3    C3 5354   3.988   4.096  13.488  0.2398  0.0693  0.4056
  354TMC3    C4 5355   3.951   3.820  13.516  0.0314  0.5223 -0.5154
  354TMC3    C5 5356   4.035   3.873  13.418  0.0561  0.1555  0.0744
  354TMC3    C6 5357   4.043   4.007  13.399 -0.1454  0.0863  0.7128
  354TMC3     C 5358   3.818   3.858  13.716 -0.0233  0.1362 -0.0406
  354TMC3     O 5359   3.785   3.740  13.721  0.3460 -0.7581 -0.0695
  354TMC3     H 5360   3.838   4.114  13.639  0.0293  0.7021 -0.6085
  354TMC3    H1 5361   3.967   3.717  13.548 -1.7944  0.6556  0.8189
  354TMC3    H2 5362   4.110   4.043  13.322 -2.4408 -0.1807 -1.3674
  354TMC3    C7 5363   4.066   3.778  13.314 -0.2540 -0.3800 -0.2272
  354TMC3    C8 5364   3.958   4.228  13.427 -0.5783 -0.2694 -1.0299
  354TMC3    O1 5365   4.028   3.660  13.338  0.2954  0.5293 -0.0776
  354TMC3    O2 5366   3.845   4.274  13.429 -0.2008  0.4943 -0.2761
  355MPD2     C 5367   3.914   0.022  12.062  0.3068 -0.1356 -0.3793
  355MPD2    C1 5368   4.030   0.006  11.994  0.0452  0.9237 -0.3940
  355MPD2    C2 5369   4.134   4.684  12.055 -0.2231  0.4162 -0.4885
  355MPD2    C3 5370   4.131   4.627  12.177 -0.4330  0.7013 -0.0942
  355MPD2    C4 5371   4.012   4.643  12.248 -0.5944  0.2107  0.0104
  355MPD2    C5 5372   3.907   4.706  12.190 -0.2285 -0.4310 -0.0004
  355MPD2     H 5373   4.228   4.676  12.002 -0.7994 -0.3337 -1.4044
  355MPD2    H1 5374   3.998   4.613  12.351  0.5611 -1.8777 -0.4296
  355MPD2    H2 5375   3.831   0.068  12.009  0.4515 -1.2052 -1.5137
  355MPD2    H3 5376   3.818   4.707  12.252 -0.0102  1.3017  0.2927
  355MPD2     N 5377   4.247   4.585  12.245 -0.2274  0.7257  0.3090
  355MPD2    H5 5378   4.241   4.586  12.347  0.8892 -3.9001  0.4526
  355MPD2    N1 5379   4.042   0.067  11.867 -0.6258  0.3916  0.0587
  355MPD2    H7 5380   3.975   0.142  11.853 -3.1725 -1.6605  1.1934
  356TMC3    C1 5381   4.481   4.612  12.239  0.2716  0.2503  0.1191
  356TMC3    C2 5382   4.558   4.649  12.134  0.3131 -0.1648  0.2356
  356TMC3    C3 5383   4.624   0.032  12.156 -0.1801 -0.0781  0.3294
  356TMC3    C4 5384   4.454   4.697  12.349 -0.1652  0.4300  0.0111
  356TMC3    C5 5385   4.518   0.082  12.353  0.4496 -0.2965 -0.3494
  356TMC3    C6 5386   4.603   0.114  12.256  0.1644 -0.5574  0.1847
  356TMC3     C 5387   4.362   4.536  12.190 -0.2427 -1.0229  0.1108
  356TMC3     O 5388   4.372   4.490  12.076  0.7392 -0.1556  0.2042
  356TMC3     H 5389   4.565   4.590  12.043  0.0200 -1.5080  1.0949
  356TMC3    H1 5390   4.411   4.653  12.438  0.1760 -3.3388 -1.6582
  356TMC3    H2 5391   4.675   0.193  12.269 -0.6757  0.1451  0.5706
  356TMC3    C7 5392   4.503   0.162  12.477  0.2490  0.4361 -0.5499
  356TMC3    C8 5393   4.711   0.075  12.040 -0.3486  0.2820 -0.1360
  356TMC3    O1 5394   4.442   0.115  12.568  0.0582 -0.5326 -0.1795
  356TMC3    O2 5395   4.728   4.735  11.952  0.1397  0.1875  0.5722
  357MPD2     C 5396   4.389   4.635   1.383 -0.0335  0.4560 -0.6200
  357MPD2    C1 5397   4.427   4.509   1.363  0.1553  0.1641  0.7047
  357MPD2    C2 5398   4.347   4.400   1.409 -0.0302  0.1000 -0.0435
  357MPD2    C3 5399   4.223   4.421   1.466 -0.2826 -0.5725 -0.2151
  357MPD2    C4 5400   4.187   4.553   1.477 -0.4972 -0.1973  0.4843
  357MPD2    C5 5401   4.265   4.651   1.437  0.9687  0.0044 -0.1531
  357MPD2     H 5402   4.388   4.300   1.400  1.8193  0.9678 -1.0366
  357MPD2    H1 5403   4.098   4.598   1.519 -0.8464  0.0954 -0.5640
  357MPD2    H2 5404   4.445   4.721   1.349  1.4184 -0.3419 -0.2420
  357MPD2    H3 5405   4.239   0.014   1.458  0.1853 -0.1486 -0.3605
  357MPD2     N 5406   4.129   4.319   1.508  0.0521 -0.6481 -0.2026
  357MPD2    H5 5407   4.053   4.364   1.558  1.9775  1.0259  1.2382
  357MPD2    N1 5408   4.555   4.486   1.306 -0.1841  1.1069 -0.6212
  357MPD2    H7 5409   4.566   4.385   1.305  2.8368  1.4430 -1.8750
  358TMC3    C1 5410   0.005   4.516   1.174  0.3884  0.7093  0.2924
  358TMC3    C2 5411   4.697   4.425   1.085  0.9808  0.3338  0.0339
  358TMC3    C3 5412   0.045   4.336   1.034 -0.4841 -0.2853 -0.6663
  358TMC3    C4 5413   0.130   4.515   1.218  0.4139  0.0988 -0.7526
  358TMC3    C5 5414   0.211   4.404   1.183 -0.0381  0.2733 -0.1608
  358TMC3    C6 5415   0.175   4.328   1.076 -0.5234 -0.1774  0.3605
  358TMC3     C 5416   4.653   4.578   1.267 -0.2737  0.9231  0.7353
  358TMC3     O 5417   4.661   4.698   1.293  0.2439 -0.3768 -0.5354
  358TMC3     H 5418   4.595   4.433   1.050  0.1687 -2.0808  1.8428
  358TMC3    H1 5419   0.166   4.589   1.288  0.9189 -1.3166  0.4950
  358TMC3    H2 5420   0.238   4.246   1.044 -0.2786 -0.3719  1.3427
  358TMC3    C7 5421   0.342   4.387   1.248 -0.0845 -0.1773 -0.0870
  358TMC3    C8 5422   4.708   4.222   0.994 -0.3349 -0.6152  0.8706
  358TMC3    O1 5423   0.435   4.314   1.203  0.8199  0.2673  0.0437
  358TMC3    O2 5424   4.590   4.234   0.952  0.0157 -0.6976 -0.4329
  359MPD2     C 5425   3.756   2.765  12.395  0.1394  0.4596 -0.0954
  359MPD2    C1 5426   3.765   2.897  12.354 -0.0771 -0.1966 -0.5582
  359MPD2    C2 5427   3.653   2.972  12.342  0.5601  0.2682  0.0118
  359MPD2    C3 5428   3.530   2.917  12.365  0.1236 -0.2832 -0.2702
  359MPD2    C4 5429   3.515   2.789  12.404 -0.0655  0.7935 -0.0059
  359MPD2    C5 5430   3.630   2.713  12.413  0.4494 -0.8114  0.4358
  359MPD2     H 5431   3.669   3.079  12.334  0.6371  0.3366  1.0719
  359MPD2    H1 5432   3.417   2.747  12.425  0.2518 -0.1736 -0.4619
  359MPD2    H2 5433   3.845   2.703  12.398  0.3525  0.6904 -1.4641
  359MPD2    H3 5434   3.615   2.608  12.436  0.2056 -0.4043  2.1353
  359MPD2     N 5435   3.419   2.998  12.375 -0.0387  0.4933 -0.6040
  359MPD2    H5 5436   3.336   2.955  12.414 -0.7173  0.2856 -2.3237
  359MPD2    N1 5437   3.887   2.965  12.329 -0.3743 -0.8368  1.1971
  359MPD2    H7 5438   3.880   3.054  12.282  0.2854  0.1172  2.9212
  360TMC3    C1 5439   4.114   3.009  12.329 -0.9389 -0.0942 -0.5904
  360TMC3    C2 5440   4.240   2.956  12.324  0.1494  0.0483  0.4822
  360TMC3    C3 5441   4.319   2.998  12.227  0.4387 -0.2079 -0.0441
  360TMC3    C4 5442   4.079   3.122  12.258 -0.7877 -0.2011  0.5383
  360TMC3    C5 5443   4.177   3.176  12.176  0.0648 -0.0588  0.2386
  360TMC3    C6 5444   4.292   3.112  12.156 -0.1973  0.1916  0.5004
  360TMC3     C 5445   4.006   2.923  12.375 -0.2592  0.5211 -0.1663
  360TMC3     O 5446   4.031   2.835  12.457  0.8033 -0.4983  0.2160
  360TMC3     H 5447   4.247   2.856  12.365  2.3618  0.2773  0.6916
  360TMC3    H1 5448   3.988   3.176  12.283  1.0811  2.5229  1.3591
  360TMC3    H2 5449   4.361   3.154  12.084  0.9473 -3.1370 -0.3202
  360TMC3    C7 5450   4.149   3.294  12.089  0.0409  0.1162 -0.3514
  360TMC3    C8 5451   4.428   2.909  12.183  0.1355  1.5610  0.1088
  360TMC3    O1 5452   4.225   3.309  11.994 -0.4292  0.1657  0.2549
  360TMC3    O2 5453   4.464   2.828  12.270  0.0398  0.1848 -0.2734
  361MPD2     C 5454   0.760   2.170  16.782 -0.8726  0.0429  1.0125
  361MPD2    C1 5455   0.806   2.295  16.812 -0.3354  0.8200 -1.1982
  361MPD2    C2 5456   0.926   2.301  16.876 -0.0814  0.4483 -0.2676
  361MPD2    C3 5457   1.008   2.190  16.899  0.7344 -0.4027  0.3489
  361MPD2    C4 5458   0.965   2.065  16.861  0.6504 -0.0499 -0.4758
  361MPD2    C5 5459   0.840   2.058  16.803 -0.6256 -0.0550  0.3681
  361MPD2     H 5460   0.959   2.401  16.899 -2.3950  0.9982  0.5555
  361MPD2    H1 5461   1.036   1.983  16.858 -0.7629 -1.2625 -0.7051
  361MPD2    H2 5462   0.656   2.156  16.755  0.4863 -1.3895 -3.4471
  361MPD2    H3 5463   0.801   1.963  16.771 -1.0050  0.4635 -0.7021
  361MPD2     N 5464   1.140   2.198  16.939 -0.1185  0.3872 -0.0665
  361MPD2    H5 5465   1.186   2.107  16.941 -1.7793 -0.4489 -0.3272
  361MPD2    N1 5466   0.734   2.410  16.785  0.0662  0.8083 -0.4197
  361MPD2    H7 5467   0.780   2.496  16.812  0.8117 -0.1143  1.2381
  362TMC3    C1 5468   0.548   2.548  16.727 -0.2538  0.4485  0.3181
  362TMC3    C2 5469   0.596   2.640  16.816 -0.2632 -0.6355  0.1206
  362TMC3    C3 5470   0.551   2.767  16.805  0.2486  0.5803 -0.0518
  362TMC3    C4 5471   0.461   2.582  16.631 -0.2360 -0.4842 -0.1935
  362TMC3    C5 5472   0.409   2.711  16.631 -0.7947  0.5113  0.3240
  362TMC3    C6 5473   0.449   2.806  16.725 -0.5865 -0.0944 -0.8634
  362TMC3     C 5474   0.612   2.415  16.723 -0.2022 -0.8577  0.6442
  362TMC3     O 5475   0.547   2.324  16.667 -0.2674 -0.0305  0.0708
  362TMC3     H 5476   0.662   2.618  16.900 -0.4005  1.3665  0.7330
  362TMC3    H1 5477   0.437   2.506  16.559 -1.0512  1.8536 -2.3781
  362TMC3    H2 5478   0.402   2.903  16.716 -0.5200  0.1037  0.9151
  362TMC3    C7 5479   0.366   2.769  16.506 -0.8546 -0.4000 -0.1128
  362TMC3    C8 5480   0.616   2.861  16.900  0.3872 -0.1878  0.1157
  362TMC3    O1 5481   0.362   2.892  16.498 -0.4110 -0.2230  0.0269
  362TMC3    O2 5482   0.708   2.828  16.968  0.0122 -0.1940 -0.5583
  363TMC3    C1 5483   3.599   4.437   9.476  0.0999 -0.5550 -0.5344
  363TMC3    C2 5484   3.701   4.420   9.568 -0.3762 -0.0913 -0.0105
  363TMC3    C3 5485   3.701   4.519   9.665 -0.1620 -0.4938  0.3931
  363TMC3    C4 5486   3.510   4.543   9.482  0.2158  0.5429 -0.0007
  363TMC3    C5 5487   3.521   4.644   9.575 -0.6652 -0.5353 -0.0023
  363TMC3    C6 5488   3.621   4.625   9.669  0.4435 -0.3351  0.0207
  363TMC3     C 5489   3.605   4.351   9.355 -0.1181 -0.0589 -0.5573
  363TMC3     O 5490   3.682   4.255   9.362  0.4063  0.5771  0.5301
  363TMC3     H 5491   3.749   4.323   9.581 -0.5221 -0.2240 -0.4668
  363TMC3    H1 5492   3.422   4.532   9.420 -0.7138 -1.6826  1.7145
  363TMC3    H2 5493   3.636   4.701   9.746 -1.4142 -0.6486  0.7093
  363TMC3    C7 5494   3.462   0.032   9.566  0.5596  1.1481 -0.1040
  363TMC3    C8 5495   3.784   4.505   9.778 -0.1944  0.6505 -0.3465
  363TMC3    O1 5496   3.501   0.118   9.645  0.2146 -0.2078 -0.9145
  363TMC3    O2 5497   3.757   4.571   9.880  0.2831 -0.2477  0.2155
  364MPD2     C 5498   3.094   0.041  10.962  0.8089  0.2952 -0.3871
  364MPD2    C1 5499   3.084   4.697  10.854 -0.5652 -0.4384  0.1834
  364MPD2    C2 5500   3.094   4.564  10.875  0.0927 -0.5359 -0.0790
  364MPD2    C3 5501   3.113   4.506  11.000 -0.2683 -0.2032  0.0984
  364MPD2    C4 5502   3.116   4.591  11.111  0.7592  0.0747  0.3324
  364MPD2    C5 5503   3.101   4.727  11.093 -0.6846 -0.3995 -0.3374
  364MPD2     H 5504   3.095   4.495  10.791  0.5842 -0.2599 -0.3029
  364MPD2    H1 5505   3.153   4.554  11.206  1.5716 -1.1532 -0.4723
  364MPD2    H2 5506   3.088   0.149  10.959 -0.1949  0.1907 -2.0332
  364MPD2    H3 5507   3.117   0.055  11.176  0.1452  0.1874 -0.9784
  364MPD2     N 5508   3.151   4.369  11.025  0.0639  0.2639 -0.2211
  364MPD2    H5 5509   3.162   4.345  11.123 -2.4001  3.1015  0.7394
  364MPD2    N1 5510   3.103   0.010  10.726 -0.7012 -0.2195 -0.0598
  364MPD2    H7 5511   3.137   0.105  10.732 -1.1106 -0.0080 -0.9987
  365TMC3    C1 5512   3.200   4.718  10.524  0.0023  0.7313  0.1231
  365TMC3    C2 5513   3.173   4.674  10.398  0.0296 -0.4076 -0.3154
  365TMC3    C3 5514   3.278   4.611  10.327  0.1554  0.5801  0.2092
  365TMC3    C4 5515   3.326   4.706  10.583  0.0792  1.0736 -0.1603
  365TMC3    C5 5516   3.426   4.646  10.507 -0.3030  0.1917  0.6140
  365TMC3    C6 5517   3.406   4.599  10.379  0.1348  0.1946 -0.7693
  365TMC3     C 5518   3.096   4.681  10.614 -0.3068  0.3072  0.2280
  365TMC3     O 5519   3.048   4.572  10.584  0.0611  0.1150 -0.2833
  365TMC3     H 5520   3.073   4.692  10.359 -0.1982 -2.8428 -0.8669
  365TMC3    H1 5521   3.333   4.733  10.688 -2.4811 -0.8353  0.5145
  365TMC3    H2 5522   3.489   4.559  10.320  0.7126  1.2237 -0.6508
  365TMC3    C7 5523   3.532   4.576  10.578 -0.9972 -0.2523 -0.1502
  365TMC3    C8 5524   3.247   4.508  10.236 -0.1957  0.4703  0.0753
  365TMC3    O1 5525   3.626   4.541  10.507 -0.1704 -0.7759 -0.3728
  365TMC3    O2 5526   3.342   4.449  10.178  0.0106  0.2522 -0.1796
  366MPD2     C 5527   1.723   0.754  14.923  0.2160  0.2683 -0.4972
  366MPD2    C1 5528   1.715   0.808  15.055 -0.0344  0.2210 -0.3355
  366MPD2    C2 5529   1.825   0.839  15.122 -0.2067  0.3131 -0.0216
  366MPD2    C3 5530   1.950   0.823  15.069 -0.1636 -0.0850  0.3491
  366MPD2    C4 5531   1.963   0.765  14.945 -0.1821  0.2825 -0.2484
  366MPD2    C5 5532   1.850   0.727  14.878  0.1500 -0.2197  0.5408
  366MPD2     H 5533   1.820   0.870  15.226  2.1897 -0.6086  0.3725
  366MPD2    H1 5534   2.061   0.748  14.901 -0.0761  1.4288 -0.4562
  366MPD2    H2 5535   1.638   0.739  14.857  1.9660 -1.8936 -2.2710
  366MPD2    H3 5536   1.860   0.683  14.780  2.6241  3.7735 -1.0041
  366MPD2     N 5537   2.056   0.884  15.136  0.0522 -0.0008 -0.1251
  366MPD2    H5 5538   2.028   0.931  15.221  0.7564  1.7575 -0.8724
  366MPD2    N1 5539   1.598   0.854  15.122 -0.5776 -0.2758 -0.1721
  366MPD2    H7 5540   1.616   0.885  15.217 -0.9597  0.3944 -0.3174
  367TMC3    C1 5541   1.417   1.001  15.109  0.0768 -0.2462  0.1875
  367TMC3    C2 5542   1.495   1.085  15.190  0.0225 -0.9636  0.6937
  367TMC3    C3 5543   1.443   1.200  15.236 -0.2648 -0.1026  0.5053
  367TMC3    C4 5544   1.302   1.043  15.050 -0.3164  0.5574  0.3646
  367TMC3    C5 5545   1.263   1.168  15.090 -0.6060 -0.3078 -0.8732
  367TMC3    C6 5546   1.328   1.249  15.178  0.1661  0.0307 -0.8563
  367TMC3     C 5547   1.477   0.884  15.057 -0.4137  0.2702  0.2173
  367TMC3     O 5548   1.433   0.835  14.955  0.2022 -0.0015  0.1280
  367TMC3     H 5549   1.599   1.070  15.213  0.2835 -0.9768 -0.4912
  367TMC3    H1 5550   1.266   0.994  14.960  1.3666  0.6451 -0.3463
  367TMC3    H2 5551   1.277   1.330  15.227  0.7637 -0.6582  0.8932
  367TMC3    C7 5552   1.126   1.201  15.065 -0.1264  0.1461 -0.1109
  367TMC3    C8 5553   1.510   1.263  15.349 -0.3257  0.2943 -0.1800
  367TMC3    O1 5554   1.088   1.312  15.091 -0.6308  0.0832 -0.0929
  367TMC3    O2 5555   1.587   1.201  15.420  0.4011  0.6106  0.1409
  368MPD2     C 5556   2.803   2.389  13.634 -0.0531 -0.2803 -0.3719
  368MPD2    C1 5557   2.807   2.490  13.537  0.7068  0.3173 -0.1428
  368MPD2    C2 5558   2.929   2.560  13.522 -0.5167  0.4052  0.2132
  368MPD2    C3 5559   3.041   2.511  13.582 -0.2077  0.5079 -0.6143
  368MPD2    C4 5560   3.036   2.397  13.667  0.3993  0.4000 -0.0226
  368MPD2    C5 5561   2.912   2.346  13.703 -1.0228  1.2824  1.1678
  368MPD2     H 5562   2.942   2.632  13.442 -2.2775  1.4949  0.9129
  368MPD2    H1 5563   3.123   2.354  13.714  0.5554  0.2235 -0.4793
  368MPD2    H2 5564   2.711   2.337  13.656  0.1891  0.4804  2.4322
  368MPD2    H3 5565   2.905   2.275  13.784  1.6798 -0.1226  0.1535
  368MPD2     N 5566   3.167   2.566  13.552 -0.1501  0.1164 -0.0308
  368MPD2    H5 5567   3.243   2.500  13.549 -0.0330  0.2492 -0.0010
  368MPD2    N1 5568   2.693   2.508  13.452 -0.0780 -0.4917  0.4334
  368MPD2    H7 5569   2.613   2.451  13.476  0.4064 -1.9476 -1.4356
  369TMC3    C1 5570   2.562   2.618  13.289 -0.5709  0.0424 -0.3746
  369TMC3    C2 5571   2.555   2.724  13.201 -0.9461 -0.4552 -0.2909
  369TMC3    C3 5572   2.439   2.759  13.142 -1.1811  0.5105 -0.6106
  369TMC3    C4 5573   2.446   2.540  13.310 -0.5004  0.1267 -0.9681
  369TMC3    C5 5574   2.328   2.574  13.244  0.0067  0.3938  0.6476
  369TMC3    C6 5575   2.319   2.679  13.157  0.1795  0.4384 -0.8779
  369TMC3     C 5576   2.691   2.583  13.337  0.2392 -0.4832  0.4139
  369TMC3     O 5577   2.788   2.633  13.279 -0.4212  0.1615 -0.2809
  369TMC3     H 5578   2.643   2.787  13.189 -1.5911  0.1715 -1.6383
  369TMC3    H1 5579   2.446   2.446  13.365 -0.1439  0.1965 -0.8522
  369TMC3    H2 5580   2.222   2.708  13.118 -0.9236  0.6362  2.0332
  369TMC3    C7 5581   2.208   2.545  13.323  0.0677 -0.9598 -0.0666
  369TMC3    C8 5582   2.421   2.889  13.079  0.7385 -0.0551 -0.3806
  369TMC3    O1 5583   2.223   2.506  13.437  0.3957  0.2619  0.2383
  369TMC3    O2 5584   2.328   2.885  12.995 -0.7228 -0.7119 -0.4248
  370TMC3    C1 5585   2.445   3.409  16.416  0.7277  0.5580 -0.3226
  370TMC3    C2 5586   2.359   3.329  16.490 -0.2869  0.3330  0.0093
  370TMC3    C3 5587   2.267   3.248  16.424  1.1337 -0.4989 -0.1084
  370TMC3    C4 5588   2.455   3.396  16.275 -0.5071 -0.6731 -0.0735
  370TMC3    C5 5589   2.359   3.319  16.214  0.3070 -0.3706 -0.7300
  370TMC3    C6 5590   2.273   3.240  16.286  0.6939  0.0872 -0.3626
  370TMC3     C 5591   2.496   3.529  16.483 -0.0235  0.3806 -0.4414
  370TMC3     O 5592   2.521   3.523  16.605 -0.3430  0.0206 -0.5250
  370TMC3     H 5593   2.364   3.333  16.598  1.5884  1.9531 -0.1288
  370TMC3    H1 5594   2.511   3.463  16.210 -1.6811  0.5769  0.1979
  370TMC3    H2 5595   2.197   3.178  16.241 -0.5794  2.0526 -0.9336
  370TMC3    C7 5596   2.386   3.282  16.076 -0.7443 -0.6212 -0.4485
  370TMC3    C8 5597   2.199   3.137  16.495 -1.1078  0.1237 -0.1406
  370TMC3    O1 5598   2.434   3.371  16.005  0.7305  0.0680  0.1626
  370TMC3    O2 5599   2.164   3.038  16.434  0.2231  0.2377 -0.2311
  371TMC3    C1 5600   3.426   1.785  15.288  0.4058 -0.3934 -0.0540
  371TMC3    C2 5601   3.373   1.777  15.413 -0.1093  0.0173 -0.0730
  371TMC3    C3 5602   3.358   1.899  15.473  0.3396 -0.6802 -0.0803
  371TMC3    C4 5603   3.456   1.906  15.227 -0.8390  0.3408 -0.5163
  371TMC3    C5 5604   3.443   2.024  15.292  0.1613  0.0311 -0.2531
  371TMC3    C6 5605   3.388   2.019  15.418  0.2004 -0.2216 -0.2069
  371TMC3     C 5606   3.485   1.667  15.231 -0.6544 -0.3389  0.0512
  371TMC3     O 5607   3.589   1.680  15.168  0.1095 -0.5580  0.2558
  371TMC3     H 5608   3.369   1.682  15.465  0.1543 -0.2834 -0.6101
  371TMC3    H1 5609   3.495   1.899  15.126 -0.0730 -1.2024 -0.0989
  371TMC3    H2 5610   3.415   2.105  15.479 -1.2797  1.2195 -1.5760
  371TMC3    C7 5611   3.507   2.153  15.252  0.1081 -0.4924  0.1046
  371TMC3    C8 5612   3.337   1.900  15.620 -0.5299 -0.4942 -0.7012
  371TMC3    O1 5613   3.501   2.248  15.332  0.1577 -0.2455 -0.8717
  371TMC3    O2 5614   3.367   1.805  15.686 -0.3820 -0.4429  0.1168
  372MPD2     C 5615   2.496   2.881  13.525 -0.2250  0.7682 -0.0618
  372MPD2    C1 5616   2.617   2.871  13.589  0.7860  0.6149 -0.2370
  372MPD2    C2 5617   2.637   2.769  13.681  0.3959  0.6112 -0.2727
  372MPD2    C3 5618   2.544   2.668  13.699 -0.2536 -0.2043 -0.2173
  372MPD2    C4 5619   2.422   2.690  13.638  0.0823  0.5401  1.0827
  372MPD2    C5 5620   2.387   2.796  13.559 -0.0608  0.6413  0.5219
  372MPD2     H 5621   2.726   2.776  13.743  0.2660 -0.7028  0.0583
  372MPD2    H1 5622   2.341   2.619  13.638  0.8737 -0.3707 -0.3671
  372MPD2    H2 5623   2.475   2.964  13.459  0.5927  2.3900  1.7054
  372MPD2    H3 5624   2.287   2.803  13.518 -0.4716 -0.2988  1.3514
  372MPD2     N 5625   2.572   2.557  13.780 -0.5271  0.7280 -0.3627
  372MPD2    H5 5626   2.662   2.569  13.825 -0.0970  0.3840 -1.1304
  372MPD2    N1 5627   2.724   2.960  13.558  0.1842 -0.4910  0.5501
  372MPD2    H7 5628   2.802   2.955  13.624 -0.3867  1.2083  1.3586
  373TMC3    C1 5629   2.551   2.342  13.866  0.2087 -0.2051 -0.5723
  373TMC3    C2 5630   2.630   2.380  13.973  0.9377 -0.4290 -0.4503
  373TMC3    C3 5631   2.700   2.280  14.028  0.2636  0.1945 -0.1400
  373TMC3    C4 5632   2.544   2.214  13.818 -0.1218 -0.6059 -0.1921
  373TMC3    C5 5633   2.623   2.116  13.876 -0.8723  0.0887  0.0248
  373TMC3    C6 5634   2.695   2.149  13.983 -0.5839  0.4248 -0.1633
  373TMC3     C 5635   2.489   2.445  13.779 -0.3207  0.2982  0.2328
  373TMC3     O 5636   2.390   2.411  13.716  0.5954 -0.4014  0.0552
  373TMC3     H 5637   2.635   2.479  14.017  1.4403 -0.9481  0.6541
  373TMC3    H1 5638   2.507   2.206  13.716 -1.2042  1.5142  0.0187
  373TMC3    H2 5639   2.767   2.075  14.016  0.4799  0.6833 -1.9137
  373TMC3    C7 5640   2.687   2.016  13.791 -0.2121 -0.4742  0.1689
  373TMC3    C8 5641   2.825   2.313  14.093 -0.3432  0.1753  0.6555
  373TMC3    O1 5642   2.805   1.996  13.798  0.8302  0.2097 -0.6449
  373TMC3    O2 5643   2.885   2.417  14.068 -0.8194  0.6307  0.1765
  374TMC3    C1 5644   3.445   3.508   9.583  0.1757  0.7924  0.3210
  374TMC3    C2 5645   3.417   3.517   9.714 -0.1893 -0.7831 -0.6180
  374TMC3    C3 5646   3.292   3.565   9.746 -0.9107  0.4230 -0.6822
  374TMC3    C4 5647   3.354   3.527   9.480 -0.1436  0.9499 -0.1179
  374TMC3    C5 5648   3.230   3.580   9.519  0.1847  0.5755  0.3661
  374TMC3    C6 5649   3.197   3.587   9.651 -0.3317 -0.9161  0.4058
  374TMC3     C 5650   3.577   3.449   9.538 -0.0285 -0.8563  0.7958
  374TMC3     O 5651   3.599   3.447   9.414  0.1340  0.0169 -0.6525
  374TMC3     H 5652   3.492   3.489   9.787  0.0251 -0.0439 -0.5518
  374TMC3    H1 5653   3.375   3.522   9.374 -0.6282  1.3397 -0.2330
  374TMC3    H2 5654   3.101   3.627   9.682 -0.2222 -0.4871  0.1797
  374TMC3    C7 5655   3.121   3.599   9.420 -0.3191 -0.7478  0.0812
  374TMC3    C8 5656   3.250   3.588   9.888 -0.3754  0.0179  1.2940
  374TMC3    O1 5657   3.124   3.527   9.319  0.5157 -0.3543  0.0106
  374TMC3    O2 5658   3.131   3.606   9.911 -0.1544  0.2249  0.5974
  375MPD2     C 5659   3.711   4.146  17.423 -0.0562 -0.5668  0.4612
  375MPD2    C1 5660   3.609   4.076  17.360  0.0524  0.4777  0.7521
  375MPD2    C2 5661   3.630   3.964  17.288 -0.2085 -0.0126 -0.4360
  375MPD2    C3 5662   3.765   3.924  17.268  0.2008  0.2635 -0.1970
  375MPD2    C4 5663   3.863   3.987  17.343 -0.6740  0.6656 -0.2792
  375MPD2    C5 5664   3.834   4.103  17.405  0.0105 -0.3477  0.1516
  375MPD2     H 5665   3.548   3.917  17.234 -0.2076 -0.3256 -0.1662
  375MPD2    H1 5666   3.967   3.958  17.335 -0.7898  0.7414 -1.9867
  375MPD2    H2 5667   3.707   4.241  17.475  2.7477 -0.8524  1.1722
  375MPD2    H3 5668   3.921   4.158  17.440  0.0666 -0.4483  0.1700
  375MPD2     N 5669   3.809   3.813  17.189  0.0635 -0.0333 -0.3018
  375MPD2    H5 5670   3.908   3.794  17.175  0.3512  1.6865 -0.5536
  375MPD2    N1 5671   3.473   4.129  17.376 -0.1854 -0.7166 -0.0392
  375MPD2    H7 5672   3.399   4.077  17.330 -0.2893  1.5398 -2.4102
  376TMC3    C1 5673   3.790   3.657  17.018 -0.5886  0.8829  0.4356
  376TMC3    C2 5674   3.917   3.685  16.976  0.4624 -0.2160  0.2351
  376TMC3    C3 5675   3.950   3.629  16.849  0.4122 -0.5287  0.0993
  376TMC3    C4 5676   3.707   3.584  16.946  0.5339  0.9854  0.4883
  376TMC3    C5 5677   3.743   3.535  16.826  0.0537  0.6176 -0.4934
  376TMC3    C6 5678   3.865   3.552  16.773 -0.1664 -0.7966  0.7243
  376TMC3     C 5679   3.723   3.739  17.115 -0.6715 -0.1147 -0.1041
  376TMC3     O 5680   3.608   3.708  17.150  0.4951 -0.2288  0.5049
  376TMC3     H 5681   3.983   3.754  17.027  0.4888  0.6585 -0.9776
  376TMC3    H1 5682   3.608   3.560  16.982  0.9222  0.5730  1.2728
  376TMC3    H2 5683   3.887   3.533  16.669 -1.3898  2.1395 -0.0543
  376TMC3    C7 5684   3.634   3.562  16.728 -0.0496  0.0575 -0.4300
  376TMC3    C8 5685   4.087   3.657  16.806  0.1946  0.4130  0.2468
  376TMC3    O1 5686   3.546   3.648  16.755 -0.3629  0.3588  0.2609
  376TMC3    O2 5687   4.149   3.754  16.855 -0.2836 -0.8690 -0.3729
  377MPD2     C 5688   2.145   3.111  13.121  0.2775  0.2910 -0.3099
  377MPD2    C1 5689   2.025   3.090  13.059 -0.4934  0.0500  0.0299
  377MPD2    C2 5690   1.922   3.031  13.126  0.3781 -0.0182  0.2157
  377MPD2    C3 5691   1.936   3.004  13.262 -0.4836  0.6141  0.1240
  377MPD2    C4 5692   2.050   3.048  13.329 -0.9462  0.6997  0.2331
  377MPD2    C5 5693   2.154   3.103  13.257 -0.0201 -0.5248 -0.1834
  377MPD2     H 5694   1.826   3.019  13.079  0.6974 -3.4000  0.4288
  377MPD2    H1 5695   2.065   3.030  13.435 -0.3308 -0.0535  0.0107
  377MPD2    H2 5696   2.232   3.142  13.064  0.5548  0.6980  0.3436
  377MPD2    H3 5697   2.243   3.109  13.318 -0.0464 -3.8818  0.1660
  377MPD2     N 5698   1.837   2.949  13.345 -0.0049  0.2888 -0.1239
  377MPD2    H5 5699   1.861   2.926  13.441 -0.1275  0.4330 -0.0593
  377MPD2    N1 5700   2.014   3.111  12.917 -0.3150  0.1678  0.2333
  377MPD2    H7 5701   2.096   3.136  12.862  0.3501 -1.1192  0.6203
  378TMC3    C1 5702   1.871   3.136  12.490  0.0844  0.2387 -0.0160
  378TMC3    C2 5703   1.831   3.152  12.628 -0.4276  0.1617 -0.2709
  378TMC3    C3 5704   1.926   3.099  12.713  0.2923 -0.1138  0.4221
  378TMC3    C4 5705   1.985   3.067  12.453 -0.1365 -0.5565 -0.0183
  378TMC3    C5 5706   2.053   2.994  12.548  0.5160  0.3652 -0.3857
  378TMC3    C6 5707   2.033   3.014  12.681 -0.2126 -0.2751 -0.8189
  378TMC3     C 5708   1.773   3.178  12.391 -0.2625  0.4840 -0.1731
  378TMC3     O 5709   1.655   3.188  12.430 -0.0691  0.2491 -0.4551
  378TMC3     H 5710   1.742   3.207  12.654 -1.3227 -0.9129 -1.0423
  378TMC3    H1 5711   2.011   3.050  12.349  1.8182  0.1696  0.3472
  378TMC3    H2 5712   2.095   2.966  12.755 -0.2608 -1.2128 -1.3835
  378TMC3    C7 5713   2.186   2.937  12.515 -0.1305 -0.0505 -0.2430
  378TMC3    C8 5714   1.897   3.107  12.857  0.2592  0.4727 -0.0347
  378TMC3    O1 5715   2.226   2.846  12.587 -0.5211  0.5976  1.2457
  378TMC3    O2 5716   1.786   3.137  12.899  0.3397 -0.3062  0.2210
  379MPD2     C 5717   2.484   1.017  15.673 -0.1483 -1.0707 -0.1673
  379MPD2    C1 5718   2.442   1.126  15.754 -0.1834 -0.3833  0.9199
  379MPD2    C2 5719   2.467   1.122  15.892 -0.0526  0.2306  0.0206
  379MPD2    C3 5720   2.541   1.017  15.941 -0.4420  0.1663  0.2236
  379MPD2    C4 5721   2.574   0.916  15.854  0.0350  0.0004 -0.3332
  379MPD2    C5 5722   2.545   0.913  15.723  0.3961  0.4598 -0.7435
  379MPD2     H 5723   2.442   1.199  15.964 -2.3531 -0.1513 -0.3946
  379MPD2    H1 5724   2.622   0.824  15.885 -2.3100 -0.8951  0.6519
  379MPD2    H2 5725   2.475   1.019  15.565  0.8762  1.8453 -0.2138
  379MPD2    H3 5726   2.577   0.829  15.663  0.8144 -0.1958  0.4057
  379MPD2     N 5727   2.576   0.993  16.073  0.4702 -1.0677  0.4803
  379MPD2    H5 5728   2.629   0.908  16.081  3.7171  0.7064 -2.2880
  379MPD2    N1 5729   2.366   1.227  15.687  0.2024  0.8939  0.6199
  379MPD2    H7 5730   2.372   1.225  15.586  1.3569  1.8375  0.6704
  380TMC3    C1 5731   2.229   1.413  15.673 -0.0021  0.0465  0.1079
  380TMC3    C2 5732   2.325   1.478  15.599 -0.1803 -0.1808  0.2723
  380TMC3    C3 5733   2.297   1.601  15.552 -0.6017 -0.5628  0.1942
  380TMC3    C4 5734   2.113   1.466  15.705 -0.0192  0.3717 -0.2375
  380TMC3    C5 5735   2.085   1.585  15.647 -0.1794  0.2326  0.4086
  380TMC3    C6 5736   2.175   1.658  15.572 -0.4560 -0.0434  0.5797
  380TMC3     C 5737   2.278   1.307  15.758  0.0822  0.8781  0.5163
  380TMC3     O 5738   2.229   1.281  15.868 -0.4349 -0.4352 -0.1713
  380TMC3     H 5739   2.423   1.432  15.595  0.5944  1.6748 -1.7781
  380TMC3    H1 5740   2.044   1.415  15.772  0.7147  0.2675  0.4460
  380TMC3    H2 5741   2.158   1.757  15.532 -1.6906 -0.8576 -0.9073
  380TMC3    C7 5742   1.948   1.635  15.656  0.1588 -0.4413 -0.1551
  380TMC3    C8 5743   2.371   1.658  15.439 -0.1664  0.2539  0.3614
  380TMC3    O1 5744   1.937   1.757  15.670 -0.3402 -0.6274  0.0849
  380TMC3    O2 5745   2.324   1.752  15.370 -0.1886  0.4331 -0.2413
  381TMC3    C1 5746   2.013   2.707  16.005 -0.4037  0.0364 -0.4989
  381TMC3    C2 5747   2.123   2.774  16.054 -0.8588  0.5734  0.0555
  381TMC3    C3 5748   2.137   2.782  16.191 -0.2211 -0.7964 -0.3951
  381TMC3    C4 5749   1.910   2.665  16.091 -0.0343  0.2668  0.4091
  381TMC3    C5 5750   1.922   2.697  16.220  0.4565  0.2871 -0.6386
  381TMC3    C6 5751   2.037   2.741  16.279 -0.2749 -0.0883 -0.0233
  381TMC3     C 5752   2.012   2.665  15.867  0.2764 -0.0671  0.1419
  381TMC3     O 5753   1.932   2.582  15.832  0.1182  0.0984  0.1462
  381TMC3     H 5754   2.215   2.792  15.999 -0.5878 -3.1016 -0.7098
  381TMC3    H1 5755   1.835   2.597  16.050 -0.5149  2.2335 -2.0321
  381TMC3    H2 5756   2.026   2.778  16.380 -0.2045 -0.8556  0.2686
  381TMC3    C7 5757   1.826   2.632  16.301  0.4506 -0.7786 -1.1189
  381TMC3    C8 5758   2.276   2.747  16.237 -0.2990 -0.2978 -0.1330
  381TMC3    O1 5759   1.787   2.524  16.253  0.2288  0.2216  0.3284
  381TMC3    O2 5760   2.346   2.691  16.156  0.3945 -0.1741 -0.0973
  382MPD2     C 5761   1.738   0.126  17.301 -0.2573  0.6060 -0.4770
  382MPD2    C1 5762   1.611   0.148  17.246 -0.1468 -0.7874 -0.0581
  382MPD2    C2 5763   1.521   0.048  17.226 -0.4061 -0.6346 -0.2583
  382MPD2    C3 5764   1.548   4.661  17.291 -0.2096 -0.5718  0.1299
  382MPD2    C4 5765   1.669   4.636  17.346 -0.1817  0.4543  0.6198
  382MPD2    C5 5766   1.761   4.738  17.353 -0.4683 -0.1053  0.2638
  382MPD2     H 5767   1.419   0.069  17.197 -0.1703  0.6983 -0.1081
  382MPD2    H1 5768   1.690   4.534  17.377 -1.6109  0.2053  0.7418
  382MPD2    H2 5769   1.810   0.206  17.308  1.4282 -0.9142 -0.4816
  382MPD2    H3 5770   1.859   4.727  17.399 -0.1717  1.6100  0.0214
  382MPD2     N 5771   1.465   4.546  17.291 -0.3074  0.8472  0.0526
  382MPD2    H5 5772   1.479   4.479  17.366 -1.5312  0.3595 -0.1481
  382MPD2    N1 5773   1.567   0.272  17.201 -0.2811  0.3419  0.5367
  382MPD2    H7 5774   1.474   0.269  17.161 -0.5418  3.4156  0.8912
  383TMC3    C1 5775   1.303   4.392  17.200 -0.2365 -0.2944 -0.0875
  383TMC3    C2 5776   1.201   4.388  17.111  0.0332 -0.0496  0.1444
  383TMC3    C3 5777   1.146   4.263  17.091  0.3540 -0.0978  0.7297
  383TMC3    C4 5778   1.362   4.289  17.271 -0.0933  0.2785  0.0089
  383TMC3    C5 5779   1.302   4.172  17.244  0.1581  0.2175  0.0817
  383TMC3    C6 5780   1.189   4.151  17.163 -0.1896  0.7919 -0.0677
  383TMC3     C 5781   1.362   4.529  17.198 -0.2527 -0.3479  0.5328
  383TMC3     O 5782   1.339   4.600  17.099  0.6495 -0.1733 -0.2252
  383TMC3     H 5783   1.155   4.474  17.065  1.2240 -0.0189 -1.0111
  383TMC3    H1 5784   1.451   4.306  17.330  1.0525  1.5890 -2.1108
  383TMC3    H2 5785   1.169   4.050  17.131  1.9928 -0.1880  1.7466
  383TMC3    C7 5786   1.381   4.055  17.266  0.3284 -0.1580  0.4008
  383TMC3    C8 5787   1.000   4.277  17.068 -0.0652  0.0565  0.0663
  383TMC3    O1 5788   1.326   3.947  17.270 -0.1938 -0.4320 -0.0265
  383TMC3    O2 5789   0.956   4.388  17.060 -0.3654  0.5855  0.6632
  384MPD2     C 5790   2.866   1.008  12.057  0.9990 -0.1151 -0.1077
  384MPD2    C1 5791   2.882   0.919  12.160  0.3671  0.2683 -0.7605
  384MPD2    C2 5792   2.979   0.831  12.150 -0.7275 -0.0768  0.1153
  384MPD2    C3 5793   3.083   0.837  12.054  0.1906  0.2217 -0.1205
  384MPD2    C4 5794   3.062   0.932  11.951 -0.4722  0.0639  0.0657
  384MPD2    C5 5795   2.947   1.011  11.945  0.4218 -0.0577 -0.8449
  384MPD2     H 5796   2.993   0.753  12.225  1.5432 -1.6678 -1.9557
  384MPD2    H1 5797   3.132   0.956  11.872  0.5718 -1.3456  0.5644
  384MPD2    H2 5798   2.797   1.091  12.068 -0.7857 -1.4944 -0.9403
  384MPD2    H3 5799   2.927   1.071  11.858 -0.8754  3.7259  2.0608
  384MPD2     N 5800   3.196   0.755  12.055  0.1966 -0.0762  0.1039
  384MPD2    H5 5801   3.260   0.763  11.976  0.0606  0.4576  0.0460
  384MPD2    N1 5802   2.796   0.929  12.270  0.1169 -0.7679  0.3568
  384MPD2    H7 5803   2.738   1.009  12.294 -1.9054 -1.5579 -1.9153
  385TMC3    C1 5804   3.357   0.605  12.155  0.2489 -0.0565  0.2457
  385TMC3    C2 5805   3.341   0.491  12.074 -0.4871  1.4707 -0.2430
  385TMC3    C3 5806   3.433   0.393  12.100  0.6682  0.2382 -0.7652
  385TMC3    C4 5807   3.443   0.601  12.262 -0.1264  0.3632  0.0812
  385TMC3    C5 5808   3.511   0.487  12.295  0.3493 -0.2950 -0.5010
  385TMC3    C6 5809   3.521   0.390  12.206  0.2619  0.6044 -0.5853
  385TMC3     C 5810   3.236   0.680  12.165 -0.6550  0.1280  0.7890
  385TMC3     O 5811   3.198   0.668  12.281 -0.6232  0.1332 -0.2602
  385TMC3     H 5812   3.278   0.494  11.986 -3.6974  3.0101  2.1185
  385TMC3    H1 5813   3.467   0.696  12.309  0.7896  0.6235 -0.9099
  385TMC3    H2 5814   3.575   0.299  12.230  0.3263  0.8875  0.3493
  385TMC3    C7 5815   3.475   0.444  12.430 -0.5985 -0.0947  0.8023
  385TMC3    C8 5816   3.430   0.270  12.033 -0.2846 -0.1474 -0.3586
  385TMC3    O1 5817   3.524   0.343  12.480  0.1635 -0.1056  0.0432
  385TMC3    O2 5818   3.537   0.207  12.021  0.1478 -0.1210 -0.0251
  386TMC3    C1 5819   3.076   3.057  11.746 -0.0202 -0.2856 -0.5728
  386TMC3    C2 5820   3.064   3.078  11.609 -0.8701  0.4422 -0.0758
  386TMC3    C3 5821   3.003   3.196  11.575 -0.1773 -0.3663 -0.0907
  386TMC3    C4 5822   3.033   3.151  11.835  0.6860  0.0384 -0.4300
  386TMC3    C5 5823   2.971   3.264  11.789  0.5445 -0.4218 -0.5920
  386TMC3    C6 5824   2.947   3.286  11.656 -0.4911 -0.0406 -0.1732
  386TMC3     C 5825   3.155   2.942  11.789  0.6351  0.8330  0.5797
  386TMC3     O 5826   3.238   2.973  11.871  0.0285  0.1515  0.2109
  386TMC3     H 5827   3.087   3.002  11.535 -1.6571 -1.0282  1.2171
  386TMC3    H1 5828   3.049   3.139  11.942 -0.0580 -2.8327 -0.6412
  386TMC3    H2 5829   2.901   3.380  11.628 -0.8813 -0.4944 -1.0477
  386TMC3    C7 5830   2.874   3.331  11.883 -0.0677  1.3269 -0.1818
  386TMC3    C8 5831   2.963   3.214  11.436  0.2943 -0.0843  0.4215
  386TMC3    O1 5832   2.871   3.277  11.991 -0.2964  0.5292  0.8202
  386TMC3    O2 5833   2.860   3.275  11.416  0.7074  0.5252 -0.0662
  387MPD2     C 5834   0.886   3.293   9.881  0.7342  0.0355 -0.0098
  387MPD2    C1 5835   0.929   3.271  10.008 -0.1513  0.9178  0.4296
  387MPD2    C2 5836   0.891   3.151  10.067 -0.5056 -0.4101  0.2539
  387MPD2    C3 5837   0.820   3.050  10.004 -1.1627  0.3814 -0.2451
  387MPD2    C4 5838   0.784   3.072   9.867 -0.2877 -0.0663 -0.5972
  387MPD2    C5 5839   0.815   3.199   9.810  0.4157  0.4529 -0.2398
  387MPD2     H 5840   0.890   3.141  10.175 -1.5924  0.5996  0.3311
  387MPD2    H1 5841   0.717   3.007   9.812  0.5788 -1.6986  0.2543
  387MPD2    H2 5842   0.904   3.392   9.840  0.5719  0.1769  0.2622
  387MPD2    H3 5843   0.773   3.220   9.712  0.3370 -1.5211 -0.6315
  387MPD2     N 5844   0.787   2.936  10.081 -0.3772 -0.2987 -0.0037
  387MPD2    H5 5845   0.817   2.929  10.178 -2.1170 -0.0441  0.5553
  387MPD2    N1 5846   1.002   3.365  10.084 -0.4524 -0.0201 -0.0062
  387MPD2    H7 5847   1.033   3.328  10.173  2.6493  0.0542 -1.0575
  388TMC3    C1 5848   1.183   3.496  10.095 -1.1968 -0.1181 -0.4035
  388TMC3    C2 5849   1.218   3.621  10.145  1.0023  0.9014 -0.1647
  388TMC3    C3 5850   1.313   3.624  10.243 -0.6130  0.1720  0.2703
  388TMC3    C4 5851   1.250   3.387  10.134 -1.2759 -0.0098 -0.1946
  388TMC3    C5 5852   1.350   3.397  10.229  0.4617 -0.1474  1.1761
  388TMC3    C6 5853   1.385   3.516  10.277  0.4954  0.5659 -0.0656
  388TMC3     C 5854   1.058   3.481  10.039 -0.0337  0.6109  0.7981
  388TMC3     O 5855   1.014   3.555   9.956  0.5237 -0.2488  0.1739
  388TMC3     H 5856   1.154   3.705  10.120 -0.3472 -0.0582  0.0711
  388TMC3    H1 5857   1.221   3.292  10.090 -0.0119 -0.5772  0.1876
  388TMC3    H2 5858   1.468   3.530  10.346  0.7854  1.1279 -0.5264
  388TMC3    C7 5859   1.397   3.285  10.304  0.3370 -0.3966  0.2197
  388TMC3    C8 5860   1.335   3.738  10.326 -0.5711  0.1138 -0.4564
  388TMC3    O1 5861   1.450   3.300  10.415 -0.0449 -0.1776  0.5836
  388TMC3    O2 5862   1.379   3.728  10.439  0.9496  0.0209  0.3384
  389MPD2     C 5863   0.275   1.120  10.878  0.5513 -0.1457  0.1071
  389MPD2    C1 5864   0.285   1.239  10.945  0.0859 -0.0700  0.2631
  389MPD2    C2 5865   0.255   1.237  11.082  0.1296  0.3681  0.5352
  389MPD2    C3 5866   0.196   1.127  11.137  1.0225  0.1356 -0.1971
  389MPD2    C4 5867   0.178   1.011  11.063  0.2641  0.2634 -0.7787
  389MPD2    C5 5868   0.221   1.015  10.938  1.0104 -0.2523 -0.3293
  389MPD2     H 5869   0.254   1.330  11.137 -1.9014  0.9346 -0.4828
  389MPD2    H1 5870   0.139   0.916  11.099  1.8373 -0.1177 -0.0704
  389MPD2    H2 5871   0.291   1.117  10.770  1.2784 -0.2195  0.2177
  389MPD2    H3 5872   0.206   0.928  10.875  1.1001 -0.2942 -0.2933
  389MPD2     N 5873   0.160   1.118  11.277  0.6026  0.2093 -0.3946
  389MPD2    H5 5874   0.127   1.028  11.308  0.0205  0.0915 -1.3658
  389MPD2    N1 5875   0.338   1.347  10.862 -0.3190  0.1446  0.1456
  389MPD2    H7 5876   0.344   1.328  10.762  0.3583  3.0230 -0.3567
  390TMC3    C1 5877   0.104   1.176  11.495 -0.1649 -0.8221  0.8629
  390TMC3    C2 5878   0.058   1.051  11.520 -0.5216  0.2266 -0.1596
  390TMC3    C3 5879   4.737   1.033  11.637 -0.9558  0.0647 -0.1542
  390TMC3    C4 5880   0.093   1.277  11.581  0.6885  0.2607  0.5197
  390TMC3    C5 5881   0.019   1.255  11.695  0.3976  0.3777  0.7277
  390TMC3    C6 5882   4.714   1.130  11.726  0.4856 -0.5596 -0.4039
  390TMC3     C 5883   0.167   1.212  11.368 -0.1147 -0.0697 -0.3560
  390TMC3     O 5884   0.215   1.325  11.365  0.3757 -0.3265  0.1504
  390TMC3     H 5885   0.053   0.975  11.443 -1.4182 -0.0027  0.1239
  390TMC3    H1 5886   0.136   1.376  11.569  0.3970  0.1626 -1.3283
  390TMC3    H2 5887   4.676   1.109  11.825  0.6016 -1.4139 -0.5426
  390TMC3    C7 5888   4.688   1.370  11.744  0.7623  0.2146  0.6120
  390TMC3    C8 5889   4.644   0.917  11.645  0.0641  0.7123 -0.0087
  390TMC3    O1 5890   4.709   1.476  11.697 -0.5629 -0.2014 -0.0367
  390TMC3    O2 5891   4.658   0.823  11.569 -0.1607 -0.1630 -0.3720
  391MPD2     C 5892   3.598   3.235  11.235 -0.9372 -0.0732  0.4268
  391MPD2    C1 5893   3.725   3.273  11.212 -0.4853  0.3682 -0.1748
  391MPD2    C2 5894   3.762   3.318  11.089  0.7628 -0.2831  0.3742
  391MPD2    C3 5895   3.674   3.344  10.988  0.0840 -0.4825  0.0462
  391MPD2    C4 5896   3.543   3.312  11.012 -0.6180 -0.6189 -0.1698
  391MPD2    C5 5897   3.504   3.269  11.137  0.3200 -0.3385  0.4299
  391MPD2     H 5898   3.861   3.362  11.082  1.1761 -1.2715 -0.0189
  391MPD2    H1 5899   3.458   3.323  10.945 -1.4207 -2.2746  0.5799
  391MPD2    H2 5900   3.565   3.210  11.335 -0.3881 -1.1500  0.3400
  391MPD2    H3 5901   3.398   3.259  11.153  0.1063  0.3538 -0.5443
  391MPD2     N 5902   3.706   3.384  10.860  0.7398  0.0307 -0.4801
  391MPD2    H5 5903   3.635   3.429  10.803  0.5321  0.2461 -0.0417
  391MPD2    N1 5904   3.814   3.233  11.311 -0.1290 -0.5090 -0.1726
  391MPD2    H7 5905   3.778   3.207  11.403 -0.2197  1.0548  0.2275
  392TMC3    C1 5906   3.860   3.437  10.680  0.5165  0.3621 -0.0237
  392TMC3    C2 5907   3.752   3.462  10.590 -0.2915  0.2865 -0.4614
  392TMC3    C3 5908   3.788   3.498  10.463 -0.1366  0.2395 -0.6131
  392TMC3    C4 5909   3.992   3.446  10.652 -0.5786 -0.2658 -0.3481
  392TMC3    C5 5910   4.020   3.476  10.519 -0.4020  0.6106  0.1199
  392TMC3    C6 5911   3.921   3.505  10.425  0.1180 -0.2771 -0.6645
  392TMC3     C 5912   3.836   3.383  10.810 -0.2941 -0.3261 -0.4911
  392TMC3     O 5913   3.933   3.328  10.861 -0.6892 -0.1105  0.4590
  392TMC3     H 5914   3.657   3.426  10.626 -0.5778  0.9329 -0.5716
  392TMC3    H1 5915   4.078   3.421  10.713 -0.1140  0.3517 -0.7503
  392TMC3    H2 5916   3.948   3.545  10.328 -0.5388  2.4508  0.2897
  392TMC3    C7 5917   4.141   3.550  10.518  0.0474 -0.7345 -0.1543
  392TMC3    C8 5918   3.696   3.517  10.355  0.2696 -0.0293  0.5006
  392TMC3    O1 5919   4.170   3.601  10.624  0.3956 -0.2575  0.0073
  392TMC3    O2 5920   3.743   3.487  10.245 -0.5027 -0.0612 -0.0615
  393TMC3    C1 5921   3.562   0.960  10.771 -0.0352 -0.2603  0.1543
  393TMC3    C2 5922   3.456   0.920  10.854  0.4567 -0.1893 -0.3718
  393TMC3    C3 5923   3.433   0.785  10.869  0.0475  0.4381  0.4900
  393TMC3    C4 5924   3.632   0.872  10.695 -0.1477 -0.0325 -0.3025
  393TMC3    C5 5925   3.603   0.743  10.715  0.0210  0.0066 -0.3447
  393TMC3    C6 5926   3.511   0.694  10.808  0.5684  0.4564 -0.0531
  393TMC3     C 5927   3.575   1.099  10.734 -0.1309  0.4958  0.0166
  393TMC3     O 5928   3.678   1.127  10.678 -0.5339 -0.1280 -0.1602
  393TMC3     H 5929   3.394   0.986  10.915  0.8715 -0.1363 -0.0084
  393TMC3    H1 5930   3.713   0.908  10.632  1.1293 -1.5899  0.4659
  393TMC3    H2 5931   3.501   0.587  10.820 -1.3568  0.4739 -1.4859
  393TMC3    C7 5932   3.652   0.641  10.616  0.4728 -0.2884  0.4251
  393TMC3    C8 5933   3.327   0.737  10.960 -1.0156 -0.4250  0.2116
  393TMC3    O1 5934   3.658   0.523  10.653  0.1712 -0.0440  0.0845
  393TMC3    O2 5935   3.297   0.622  10.952 -0.1566 -0.1277  0.0014
  394TMC3    C1 5936   0.447   1.558  10.822  0.1648 -0.6935 -0.1961
  394TMC3    C2 5937   0.393   1.553  10.698  0.2793 -0.4330 -0.5763
  394TMC3    C3 5938   0.422   1.648  10.614 -0.8301 -0.3607 -0.0966
  394TMC3    C4 5939   0.526   1.663  10.874 -0.2358 -0.0822  0.2129
  394TMC3    C5 5940   0.545   1.766  10.776  0.1103 -0.3680  0.1441
  394TMC3    C6 5941   0.498   1.756  10.647  0.0281 -0.5213  0.4441
  394TMC3     C 5942   0.390   1.463  10.914  0.2253  0.4098  0.0392
  394TMC3     O 5943   0.395   1.503  11.025  0.0009  0.3916 -0.3848
  394TMC3     H 5944   0.322   1.477  10.670 -0.9467  0.6794 -0.4730
  394TMC3    H1 5945   0.553   1.658  10.979  1.6557  1.1537 -0.2091
  394TMC3    H2 5946   0.525   1.830  10.572 -0.9243 -0.9042 -0.2747
  394TMC3    C7 5947   0.635   1.882  10.792  0.5303  0.3042  0.3641
  394TMC3    C8 5948   0.396   1.630  10.472  0.5966  0.0853  0.8670
  394TMC3    O1 5949   0.625   1.973  10.712  0.2567 -0.1503 -0.3051
  394TMC3    O2 5950   0.394   1.736  10.408  0.4500  0.0043  0.7094
  395TMC3    C1 5951   0.032   3.149  14.956 -0.1508 -0.3822  0.3743
  395TMC3    C2 5952   0.055   3.051  14.864  0.5902  0.0811 -1.2202
  395TMC3    C3 5953   0.150   3.081  14.771 -0.4336 -0.2605  0.4558
  395TMC3    C4 5954   0.098   3.269  14.955  0.5846  0.1427 -0.7763
  395TMC3    C5 5955   0.184   3.296  14.855  0.6947 -0.6208  0.7082
  395TMC3    C6 5956   0.208   3.203  14.759 -0.2436  0.4722 -0.6970
  395TMC3     C 5957   4.674   3.126  15.060  0.3963 -0.1416 -0.1897
  395TMC3     O 5958   4.666   3.205  15.149  0.7253 -0.0093 -0.4682
  395TMC3     H 5959   0.004   2.956  14.864 -1.8184  1.4092  2.5683
  395TMC3    H1 5960   0.075   3.348  15.025 -1.3536 -0.3877 -0.8112
  395TMC3    H2 5961   0.264   3.223  14.668 -1.2047 -1.5412 -1.7311
  395TMC3    C7 5962   0.241   3.428  14.844 -0.1121  0.1563  0.2128
  395TMC3    C8 5963   0.158   3.006  14.648 -0.3334 -0.2880 -0.6653
  395TMC3    O1 5964   0.188   3.523  14.897  0.5188 -0.0583  0.5245
  395TMC3    O2 5965   0.252   3.026  14.574  0.5249 -0.7526 -0.2802
  396MPD2     C 5966   4.358   0.064  16.922 -0.2096  0.5067  0.1412
  396MPD2    C1 5967   4.451   0.162  16.960 -0.1065  0.0308  0.3505
  396MPD2    C2 5968   4.509   0.227  16.852 -0.1218 -0.6331  0.2388
  396MPD2    C3 5969   4.470   0.200  16.723  0.2153 -0.5739  0.2282
  396MPD2    C4 5970   4.368   0.114  16.689 -0.3925 -0.6976  0.5970
  396MPD2    C5 5971   4.312   0.047  16.793 -0.0049 -0.5613  0.8042
  396MPD2     H 5972   4.584   0.304  16.863 -1.9177  1.3140 -0.9011
  396MPD2    H1 5973   4.343   0.100  16.585  0.3889  1.0148  0.1880
  396MPD2    H2 5974   4.310   0.001  16.996 -1.1930 -1.7564 -2.4110
  396MPD2    H3 5975   4.220   4.731  16.778 -0.9620  1.1913  0.1882
  396MPD2     N 5976   4.545   0.262  16.627 -0.4584 -0.2466  0.0675
  396MPD2    H5 5977   4.614   0.328  16.663 -0.5149  0.2688 -0.7689
  396MPD2    N1 5978   4.477   0.172  17.096  0.4827  0.2947  0.0803
  396MPD2    H7 5979   4.416   0.126  17.164 -2.0259  0.1223 -2.2931
  397TMC3    C1 5980   4.567   0.263  17.302  0.6263  0.0917  0.1754
  397TMC3    C2 5981   4.677   0.315  17.354 -0.4727 -0.9311 -0.1607
  397TMC3    C3 5982   0.026   0.235  17.421  0.1153  0.0073 -0.0825
  397TMC3    C4 5983   4.529   0.136  17.346 -0.5539 -0.8294 -0.9844
  397TMC3    C5 5984   4.619   0.062  17.423  0.6357  0.1588 -0.0434
  397TMC3    C6 5985   4.735   0.114  17.462  0.1392  0.2154  0.3216
  397TMC3     C 5986   4.565   0.261  17.153 -0.3064 -0.2630  0.1592
  397TMC3     O 5987   4.635   0.344  17.101  0.7917 -0.0402  0.5145
  397TMC3     H 5988   4.709   0.412  17.319 -1.5488 -0.4292  0.2170
  397TMC3    H1 5989   4.430   0.099  17.321 -0.9902 -0.8130  0.7519
  397TMC3    H2 5990   0.072   0.060  17.517 -0.5406 -0.2835  0.7788
  397TMC3    C7 5991   4.577   4.682  17.491  0.0303 -0.1137 -0.1989
  397TMC3    C8 5992   0.156   0.226  17.358  0.1774  0.5059 -0.2135
  397TMC3    O1 5993   4.654   4.638  17.579  0.1227  0.0921 -0.3463
  397TMC3    O2 5994   0.254   0.186  17.421  0.5346 -0.1959 -0.0272
  398MPD2     C 5995   2.404   1.250  17.730 -0.5387  0.1512 -0.0824
  398MPD2    C1 5996   2.518   1.219   0.043  0.1804  0.0356 -0.6211
  398MPD2    C2 5997   2.586   1.324   0.096 -0.2850 -0.2050  0.7386
  398MPD2    C3 5998   2.551   1.456   0.073  0.0867  0.6453 -0.5108
  398MPD2    C4 5999   2.437   1.485   0.000 -0.0574  0.2097 -0.2618
  398MPD2    C5 6000   2.357   1.381  17.718 -0.3079 -0.4494  0.1849
  398MPD2     H 6001   2.678   1.298   0.148  0.3287  0.8983  0.2115
  398MPD2    H1 6002   2.407   1.587  17.735  2.2412  0.4502 -2.1713
  398MPD2    H2 6003   2.339   1.177  17.682  1.1042  0.5476 -2.9525
  398MPD2    H3 6004   2.269   1.408  17.660 -0.4345  2.9157  1.9553
  398MPD2     N 6005   2.643   1.554   0.114  0.3096  0.2852 -0.3572
  398MPD2    H5 6006   2.720   1.523   0.173  0.8057 -0.0234 -1.1722
  398MPD2    N1 6007   2.571   1.089   0.055  0.0050  0.2783  0.2155
  398MPD2    H7 6008   2.659   1.085   0.105  0.9174 -1.3665 -1.5266
  399TMC3    C1 6009   2.582   0.851   0.027 -0.7261  0.1330  0.4146
  399TMC3    C2 6010   2.693   0.853   0.104  0.2731  0.1440 -0.1910
  399TMC3    C3 6011   2.756   0.733   0.113  0.6488 -0.2959 -0.7730
  399TMC3    C4 6012   2.527   0.740  17.725 -0.2901  0.0031 -0.6275
  399TMC3    C5 6013   2.584   0.617  17.756  0.9015 -0.2179  0.6539
  399TMC3    C6 6014   2.706   0.612   0.064 -0.3029 -0.4998  0.0331
  399TMC3     C 6015   2.505   0.972   0.018 -1.1049  0.0302 -0.5160
  399TMC3     O 6016   2.387   0.954  17.744 -0.2159  0.4468 -0.4855
  399TMC3     H 6017   2.733   0.933   0.164 -0.6220 -0.6444  1.4717
  399TMC3    H1 6018   2.434   0.745  17.669 -0.6553  3.3725  0.2553
  399TMC3    H2 6019   2.741   0.513   0.092 -2.2116 -1.4094 -0.7657
  399TMC3    C7 6020   2.511   0.495  17.733  0.0478  0.1546  0.2340
  399TMC3    C8 6021   2.885   0.733   0.174 -0.3604 -0.2065  0.7124
  399TMC3    O1 6022   2.579   0.395  17.747  0.2435  0.0731 -0.2156
  399TMC3    O2 6023   2.918   0.834   0.235 -0.0409  0.4022 -0.1812
  400TMC3    C1 6024   0.844   3.960  16.725  0.0466 -0.0238 -0.4773
  400TMC3    C2 6025   0.740   3.866  16.710  0.3414 -0.2326 -0.5198
  400TMC3    C3 6026   0.624   3.911  16.650 -0.2390  0.1531  0.1411
  400TMC3    C4 6027   0.833   4.083  16.676  0.0430  0.1476 -0.9876
  400TMC3    C5 6028   0.717   4.119  16.613 -0.6014  0.2632  0.6585
  400TMC3    C6 6029   0.610   4.037  16.600 -1.1149  0.3048  0.6137
  400TMC3     C 6030   0.957   3.913  16.802 -0.1918 -0.2720  0.3536
  400TMC3     O 6031   0.933   3.815  16.872  0.0753 -0.8406  0.4938
  400TMC3     H 6032   0.750   3.761  16.737  0.9320  0.5521  2.3409
  400TMC3    H1 6033   0.921   4.143  16.657 -0.9419  1.2362 -2.2184
  400TMC3    H2 6034   0.524   4.070  16.543 -1.5537 -1.1625  0.4292
  400TMC3    C7 6035   0.694   4.249  16.554  0.3150  0.0800  0.3496
  400TMC3    C8 6036   0.522   3.821  16.598 -0.4763 -0.1097  0.5996
  400TMC3    O1 6037   0.603   4.268  16.473  0.2841  0.0739  0.7568
  400TMC3    O2 6038   0.454   3.862  16.506  0.1185 -0.4813 -0.4640
  401MPD2     C 6039   4.261   2.646   0.629 -0.1394 -0.2320  0.2144
  401MPD2    C1 6040   4.344   2.565   0.704  0.5942  0.4782  0.7883
  401MPD2    C2 6041   4.292   2.450   0.754  0.2441  0.1308 -0.7317
  401MPD2    C3 6042   4.169   2.404   0.722  0.1942  0.2913  0.6238
  401MPD2    C4 6043   4.082   2.484   0.656 -0.4602 -0.4217 -0.1258
  401MPD2    C5 6044   4.128   2.605   0.607  0.0093 -0.3147  0.3641
  401MPD2     H 6045   4.360   2.390   0.813 -1.7607  1.0919  2.5126
  401MPD2    H1 6046   3.984   2.452   0.624 -0.9967  0.6324  0.4748
  401MPD2    H2 6047   4.288   2.741   0.583  0.7402 -0.5564  0.0593
  401MPD2    H3 6048   4.068   2.670   0.543  0.7148 -0.5533 -0.5445
  401MPD2     N 6049   4.145   2.269   0.758  0.2649 -0.4086  0.1730
  401MPD2    H5 6050   4.227   2.223   0.796  2.7412  2.1223 -2.1330
  401MPD2    N1 6051   4.486   2.595   0.729 -0.0703 -0.0056  0.9642
  401MPD2    H7 6052   4.538   2.534   0.792 -2.3995 -2.1307  0.8041
  402TMC3    C1 6053   4.071   2.052   0.758  0.4039 -0.3669 -0.4154
  402TMC3    C2 6054   4.145   2.034   0.868 -0.2360 -0.4227  0.0663
  402TMC3    C3 6055   4.198   1.907   0.889 -0.2259 -0.2858  0.9214
  402TMC3    C4 6056   4.050   1.954   0.666 -0.7667  0.2757  0.2103
  402TMC3    C5 6057   4.101   1.833   0.692  0.5214 -0.4518 -0.1455
  402TMC3    C6 6058   4.172   1.807   0.806 -0.5832 -0.3952  0.1405
  402TMC3     C 6059   4.045   2.188   0.713  0.7505  0.4621 -0.2046
  402TMC3     O 6060   3.962   2.213   0.627  1.1064 -0.2587  0.4839
  402TMC3     H 6061   4.170   2.115   0.935 -0.4054 -1.1172  0.9816
  402TMC3    H1 6062   4.004   1.969   0.568 -2.0905  1.5072  1.0134
  402TMC3    H2 6063   4.189   1.707   0.844  1.7396 -0.1546 -0.2115
  402TMC3    C7 6064   4.104   1.731   0.586 -0.1914 -0.2123  0.0108
  402TMC3    C8 6065   4.296   1.883   0.993 -0.3441 -1.0730  0.7269
  402TMC3    O1 6066   4.036   1.753   0.484 -0.2302  0.4751  0.3259
  402TMC3    O2 6067   4.356   1.776   0.991 -0.5542 -0.4582 -0.1754
  403MPD2     C 6068   1.878   0.773  13.203  0.0982 -0.2070 -0.3564
  403MPD2    C1 6069   1.979   0.693  13.250 -0.3870  0.3919  0.9643
  403MPD2    C2 6070   2.112   0.731  13.229  0.1627  0.0213  0.2402
  403MPD2    C3 6071   2.137   0.852  13.166  0.0809 -0.7926  0.0801
  403MPD2    C4 6072   2.032   0.929  13.118  0.5330 -0.2440  0.5447
  403MPD2    C5 6073   1.897   0.887  13.137  0.2418  0.0795  0.1666
  403MPD2     H 6074   2.196   0.669  13.259 -0.1683 -0.4295  0.2531
  403MPD2    H1 6075   2.042   1.013  13.050  0.9121 -1.6609 -1.1496
  403MPD2    H2 6076   1.774   0.746  13.217 -0.2782  0.9451 -0.9270
  403MPD2    H3 6077   1.817   0.949  13.099  1.3920  0.5980 -1.4023
  403MPD2     N 6078   2.273   0.884  13.154 -0.7909  0.1591  0.7593
  403MPD2    H5 6079   2.334   0.833  13.217  1.0264 -0.8493 -1.8320
  403MPD2    N1 6080   1.948   0.574  13.321  0.0638 -0.9728 -0.4706
  403MPD2    H7 6081   1.850   0.545  13.326  0.0873 -0.3807  2.9284
  404TMC3    C1 6082   1.963   0.408  13.486  0.5645  0.1570 -0.1802
  404TMC3    C2 6083   1.993   0.397  13.620 -0.0010  0.9784 -0.1222
  404TMC3    C3 6084   1.991   0.269  13.669 -0.1880 -0.1115 -0.2921
  404TMC3    C4 6085   1.920   0.303  13.408  0.1772 -0.5557 -0.7884
  404TMC3    C5 6086   1.910   0.180  13.468  0.2829  0.3339 -0.0351
  404TMC3    C6 6087   1.948   0.161  13.594  0.1865 -0.6777  0.0306
  404TMC3     C 6088   2.020   0.523  13.424 -0.1533 -0.6077 -0.5201
  404TMC3     O 6089   2.131   0.553  13.466 -0.2638 -0.1329 -0.2013
  404TMC3     H 6090   2.030   0.483  13.676  0.8183  0.7242 -0.2754
  404TMC3    H1 6091   1.919   0.302  13.300 -1.3728 -0.5110 -0.7740
  404TMC3    H2 6092   1.959   0.064  13.641  1.6684  0.5659  2.2385
  404TMC3    C7 6093   1.864   0.066  13.399 -1.1919 -0.3138 -0.3157
  404TMC3    C8 6094   2.092   0.238  13.763  0.2601 -0.0737  0.5988
  404TMC3    O1 6095   1.894   4.692  13.437 -0.5627  0.0092 -0.2843
  404TMC3    O2 6096   2.137   0.122  13.761 -0.6863  0.3878 -0.3403
  405MPD2     C 6097   2.542   1.465  14.285  0.2038 -0.7252 -0.3864
  405MPD2    C1 6098   2.484   1.384  14.192 -0.1895  0.2910  0.1293
  405MPD2    C2 6099   2.346   1.395  14.169 -0.1268 -0.4851 -0.0934
  405MPD2    C3 6100   2.271   1.503  14.220  0.0563 -0.3895  0.0449
  405MPD2    C4 6101   2.340   1.593  14.298 -0.1693  0.2699 -0.1117
  405MPD2    C5 6102   2.474   1.575  14.334 -0.0213 -0.5635  0.7380
  405MPD2     H 6103   2.300   1.336  14.090 -1.6840 -1.1617  1.3177
  405MPD2    H1 6104   2.297   1.682  14.341 -0.3291  0.2530 -0.2337
  405MPD2    H2 6105   2.647   1.449  14.305 -0.0353 -2.2751 -0.3489
  405MPD2    H3 6106   2.519   1.646  14.401  0.0535 -0.2642  0.3726
  405MPD2     N 6107   2.136   1.507  14.175  0.2393  0.2672  0.0457
  405MPD2    H5 6108   2.107   1.424  14.124 -1.7435  0.5920  0.6088
  405MPD2    N1 6109   2.570   1.286  14.133  0.2050  0.4398 -0.0130
  405MPD2    H7 6110   2.660   1.269  14.176 -0.0639  1.0318  0.7859
  406TMC3    C1 6111   1.713   1.609  14.048  0.4518 -0.4616 -0.5749
  406TMC3    C2 6112   1.725   1.515  13.947  0.5364 -0.3855  0.3610
  406TMC3    C3 6113   1.847   1.467  13.918  0.2859 -0.0518  0.3486
  406TMC3    C4 6114   1.824   1.655  14.123  0.0653  0.0901 -0.0545
  406TMC3    C5 6115   1.943   1.598  14.093 -0.5083 -0.7010 -0.3070
  406TMC3    C6 6116   1.961   1.508  13.986 -0.4198 -0.0656  0.0190
  406TMC3     C 6117   1.587   1.671  14.075  0.0199  0.3492 -0.2522
  406TMC3     O 6118   1.506   1.660  13.985  0.3956  0.3137  0.5203
  406TMC3     H 6119   1.638   1.483  13.892 -0.7956  0.8295  1.7659
  406TMC3    H1 6120   1.813   1.727  14.202 -2.1795  0.7024 -0.9256
  406TMC3    H2 6121   2.059   1.487  13.947  0.2227  0.2226  1.4871
  406TMC3    C7 6122   2.050   1.617  14.186  0.5386 -0.5468  0.3640
  406TMC3    C8 6123   1.849   1.357  13.818 -0.8326  1.0587 -0.1827
  406TMC3    O1 6124   2.070   1.725  14.238 -0.1090 -0.5524  0.5781
  406TMC3    O2 6125   1.762   1.345  13.732  1.0972 -0.2663 -0.5247
  407MPD2     C 6126   0.260   2.963   9.710  0.5308  0.0349 -0.0606
  407MPD2    C1 6127   0.375   2.945   9.775 -0.0233 -0.2025 -0.1499
  407MPD2    C2 6128   0.430   3.054   9.850  0.7114  1.0116  0.3832
  407MPD2    C3 6129   0.372   3.178   9.847 -0.3889 -1.0288  0.0785
  407MPD2    C4 6130   0.272   3.198   9.749 -0.4036 -0.3491 -0.2245
  407MPD2    C5 6131   0.217   3.090   9.685  0.6266  0.1464  0.1077
  407MPD2     H 6132   0.505   3.026   9.924  1.2544 -0.3126 -0.6713
  407MPD2    H1 6133   0.227   3.297   9.747  1.2675  0.4079  0.4041
  407MPD2    H2 6134   0.215   2.881   9.655  0.3383  0.2615 -0.2362
  407MPD2    H3 6135   0.136   3.103   9.615 -0.5227 -0.5515  1.3142
  407MPD2     N 6136   0.405   3.293   9.929  0.5641 -0.6948 -0.0941
  407MPD2    H5 6137   0.355   3.379   9.909 -0.2086 -0.5806  2.2603
  407MPD2    N1 6138   0.445   2.822   9.771 -0.6625 -0.1953  0.0638
  407MPD2    H7 6139   0.533   2.807   9.820 -0.4442 -3.1493 -1.1998
  408TMC3    C1 6140   0.509   2.600   9.700 -0.5998 -0.0191  0.0680
  408TMC3    C2 6141   0.645   2.621   9.710  0.4468  0.3509  0.3242
  408TMC3    C3 6142   0.716   2.503   9.727 -0.9452  0.5377 -0.1438
  408TMC3    C4 6143   0.452   2.474   9.693 -0.2502  0.4829  0.0198
  408TMC3    C5 6144   0.527   2.367   9.722 -0.1573  0.6048  0.3999
  408TMC3    C6 6145   0.663   2.379   9.740 -0.3519  0.5354 -0.6289
  408TMC3     C 6146   0.419   2.711   9.688 -0.4341 -0.1263 -0.1144
  408TMC3     O 6147   0.332   2.691   9.609 -0.1390  0.0078 -0.5173
  408TMC3     H 6148   0.672   2.726   9.705 -1.1016  0.8106  1.4635
  408TMC3    H1 6149   0.344   2.473   9.697 -0.2666 -2.8062 -1.0220
  408TMC3    H2 6150   0.724   2.293   9.763  1.0349  1.5080 -0.6443
  408TMC3    C7 6151   0.450   2.248   9.769  0.4482 -0.4433 -0.4338
  408TMC3    C8 6152   0.847   2.524   9.789 -1.1412 -0.3567  0.3436
  408TMC3    O1 6153   0.327   2.248   9.752  0.2911  0.7486  0.3729
  408TMC3    O2 6154   0.888   2.438   9.863 -0.1573  1.0176  0.0036
  409MPD2     C 6155   4.548   3.876  16.907  0.1921 -0.3016 -0.7061
  409MPD2    C1 6156   4.679   3.890  16.945  0.4586  0.1287 -0.2970
  409MPD2    C2 6157   0.011   4.004  16.905 -0.5202 -0.7391  0.5971
  409MPD2    C3 6158   4.678   4.108  16.844 -0.3313  0.4240  0.4888
  409MPD2    C4 6159   4.549   4.099  16.809  0.5556 -0.3127 -0.7501
  409MPD2    C5 6160   4.483   3.979  16.842 -0.5192 -0.5543 -0.3683
  409MPD2     H 6161   0.116   3.996  16.934 -0.3021 -1.5237 -0.3866
  409MPD2    H1 6162   4.496   4.178  16.756 -0.7158 -1.0358 -0.5820
  409MPD2    H2 6163   4.483   3.804  16.956 -0.7834 -0.6259 -2.4607
  409MPD2    H3 6164   4.376   3.989  16.824 -0.9806 -1.0777  2.0687
  409MPD2     N 6165   0.008   4.225  16.817 -0.4185  0.0272  0.2899
  409MPD2    H5 6166   4.696   4.302  16.776  2.1427  1.4954 -0.2011
  409MPD2    N1 6167   0.005   3.794  17.024 -0.6677 -0.5006 -0.1544
  409MPD2    H7 6168   0.099   3.818  17.052 -2.2001  1.4932  3.1715
  410TMC3    C1 6169   0.178   4.386  16.794  0.2839  0.6759  0.2344
  410TMC3    C2 6170   0.273   4.440  16.876 -0.1407  0.0598 -0.6363
  410TMC3    C3 6171   0.381   4.490  16.811  0.2539  0.3336 -0.9877
  410TMC3    C4 6172   0.170   4.406  16.662  0.9568 -0.4491  0.0045
  410TMC3    C5 6173   0.269   4.470  16.603  0.6646 -0.8247 -0.2634
  410TMC3    C6 6174   0.373   4.506  16.676 -0.4749  0.5923  0.1292
  410TMC3     C 6175   0.135   4.264  16.851  0.1198  0.7015 -0.3663
  410TMC3     O 6176   0.217   4.204  16.919  0.3688 -0.0913 -0.0776
  410TMC3     H 6177   0.279   4.428  16.984  1.5177 -1.6912 -0.9202
  410TMC3    H1 6178   0.088   4.367  16.603 -0.1933  0.2873  1.1020
  410TMC3    H2 6179   0.467   4.534  16.629 -0.6564 -0.3483 -0.7789
  410TMC3    C7 6180   0.283   4.457  16.461  0.3161 -0.3708 -0.2745
  410TMC3    C8 6181   0.505   4.429  16.853 -0.6204 -0.2782  0.1879
  410TMC3    O1 6182   0.207   4.369  16.419 -0.0437  0.5897  0.2318
  410TMC3    O2 6183   0.609   4.478  16.810  0.2007 -0.1875  0.0908
  411MPD2     C 6184   0.356   4.085  14.425  0.0028 -0.7039 -0.1796
  411MPD2    C1 6185   0.277   4.118  14.532  1.4135 -0.4829  0.6209
  411MPD2    C2 6186   0.205   4.027  14.608 -0.0410 -0.3092  0.0904
  411MPD2    C3 6187   0.206   3.898  14.559 -0.5520 -0.5584 -0.3503
  411MPD2    C4 6188   0.295   3.867  14.447  0.2620  0.3847  0.2725
  411MPD2    C5 6189   0.371   3.958  14.376 -0.1710 -0.0048  0.1829
  411MPD2     H 6190   0.130   4.044  14.685  0.6891 -0.2225  0.7884
  411MPD2    H1 6191   0.288   3.765  14.410  0.4929 -0.3686  2.2818
  411MPD2    H2 6192   0.422   4.165  14.393  0.4035 -0.0535  2.2724
  411MPD2    H3 6193   0.435   3.934  14.291 -0.5957  0.3487 -0.2401
  411MPD2     N 6194   0.114   3.796  14.602  0.0167 -0.1429  0.4517
  411MPD2    H5 6195   0.119   3.706  14.555  1.4936  0.0181  0.2933
  411MPD2    N1 6196   0.256   4.253  14.568 -0.0483 -1.2278 -0.5135
  411MPD2    H7 6197   0.289   4.321  14.500 -0.6016  1.6952  2.1325
  412TMC3    C1 6198   4.652   3.716  14.701  1.0158  0.4927  0.6614
  412TMC3    C2 6199   4.520   3.757  14.722 -0.1200 -0.5621  0.4267
  412TMC3    C3 6200   4.419   3.673  14.699 -0.0362  0.0473 -0.4582
  412TMC3    C4 6201   4.683   3.584  14.660 -0.1848  0.3840 -0.1080
  412TMC3    C5 6202   4.577   3.510  14.641 -0.2597 -1.3699  0.1101
  412TMC3    C6 6203   4.446   3.540  14.676  0.1891  0.3669 -0.5931
  412TMC3     C 6204   0.015   3.817  14.693  0.8487  0.2088 -0.6566
  412TMC3     O 6205   4.725   3.914  14.761 -0.5602  0.2463 -0.0942
  412TMC3     H 6206   4.503   3.860  14.752 -2.0042 -0.9571  0.7173
  412TMC3    H1 6207   0.043   3.557  14.628  0.3780  0.1466  1.8446
  412TMC3    H2 6208   4.370   3.470  14.644 -1.4235  1.6767  0.4246
  412TMC3    C7 6209   4.587   3.414  14.528 -0.6854  0.5784  0.4996
  412TMC3    C8 6210   4.317   3.715  14.605  0.0663  0.0063  0.3616
  412TMC3    O1 6211   4.688   3.352  14.504 -0.1282  0.1786  0.7636
  412TMC3    O2 6212   4.286   3.637  14.511 -0.0479 -0.1403  0.5025
  413MPD2     C 6213   2.235   3.158  15.330  0.3188  0.0028 -0.3981
  413MPD2    C1 6214   2.188   3.107  15.212 -0.1134  0.8701 -0.2046
  413MPD2    C2 6215   2.277   3.062  15.117  0.2218  0.2195  0.5126
  413MPD2    C3 6216   2.411   3.076  15.132 -0.0624 -0.3114  0.0634
  413MPD2    C4 6217   2.456   3.117  15.255  0.6439  0.1965  0.0137
  413MPD2    C5 6218   2.373   3.163  15.348  0.2309 -0.0252  0.4311
  413MPD2     H 6219   2.236   3.031  15.021 -0.0681 -1.2497  1.1067
  413MPD2    H1 6220   2.561   3.145  15.262  1.2968 -1.6885 -2.3138
  413MPD2    H2 6221   2.171   3.199  15.407  1.3041 -0.8357  0.8810
  413MPD2    H3 6222   2.410   3.221  15.432  1.0166 -0.8386  0.6441
  413MPD2     N 6223   2.505   3.037  15.036 -0.9388  0.2142 -0.1857
  413MPD2    H5 6224   2.601   3.022  15.067 -0.7605  0.8455 -0.4236
  413MPD2    N1 6225   2.044   3.101  15.201  0.2425  0.3467 -0.4000
  413MPD2    H7 6226   1.992   3.127  15.284  2.1930  0.9822  0.6202
  414TMC3    C1 6227   2.613   2.973  14.841  0.4846 -0.4611  0.1812
  414TMC3    C2 6228   2.612   2.871  14.753  0.1340 -0.2929 -0.2917
  414TMC3    C3 6229   2.730   2.829  14.692 -0.3623 -0.2585 -0.0780
  414TMC3    C4 6230   2.738   3.020  14.881  0.3780  0.2270  0.3968
  414TMC3    C5 6231   2.854   2.992  14.810  0.4954 -0.8078 -0.7434
  414TMC3    C6 6232   2.853   2.888  14.722  0.3442 -0.5886  0.9831
  414TMC3     C 6233   2.483   3.002  14.905 -0.3754 -0.1948 -0.2544
  414TMC3     O 6234   2.381   3.000  14.840 -0.2009 -0.0507 -0.8935
  414TMC3     H 6235   2.519   2.825  14.724 -0.0430  0.3264 -0.6859
  414TMC3    H1 6236   2.742   3.087  14.966  2.7412 -0.5669  0.9153
  414TMC3    H2 6237   2.939   2.861  14.661  0.3525 -0.5444  0.9754
  414TMC3    C7 6238   2.978   3.032  14.859 -0.6985 -0.6197 -0.6895
  414TMC3    C8 6239   2.721   2.697  14.638 -0.6318 -0.1536  0.1064
  414TMC3    O1 6240   3.074   2.995  14.792 -0.4649  0.4288  0.1297
  414TMC3    O2 6241   2.613   2.666  14.590 -0.3155 -0.1063 -0.1374
  415TMC3    C1 6242   2.344   0.807  10.520  0.4829 -0.8413 -0.6128
  415TMC3    C2 6243   2.374   0.905  10.432 -0.3019 -0.0881 -0.2967
  415TMC3    C3 6244   2.281   0.952  10.346  0.2595 -0.2574  0.3309
  415TMC3    C4 6245   2.219   0.751  10.523 -0.0049  0.1651 -0.8791
  415TMC3    C5 6246   2.130   0.801  10.435 -0.5401  0.3193 -0.5621
  415TMC3    C6 6247   2.151   0.903  10.347  0.2613  0.4171 -0.6745
  415TMC3     C 6248   2.442   0.752  10.618  0.4989 -0.2353  0.4211
  415TMC3     O 6249   2.405   0.674  10.701 -0.0360 -0.6388  0.1398
  415TMC3     H 6250   2.473   0.948  10.439  0.6278 -2.4049  0.5678
  415TMC3    H1 6251   2.203   0.679  10.602 -1.1723  0.9235 -0.4332
  415TMC3    H2 6252   2.078   0.941  10.277 -1.9244 -0.5546  1.0973
  415TMC3    C7 6253   2.025   0.710  10.406  0.2359  0.0717 -0.5213
  415TMC3    C8 6254   2.311   1.056  10.252 -0.7091  0.1045 -0.2221
  415TMC3    O1 6255   1.941   0.758  10.335  0.1490 -0.2148  0.5962
  415TMC3    O2 6256   2.217   1.124  10.220  0.3470  0.0399  0.0547
  416MPD2     C 6257   4.535   4.115  11.703  0.4499  0.0633  0.3128
  416MPD2    C1 6258   4.424   4.143  11.624  0.3482 -0.7650  0.0169
  416MPD2    C2 6259   4.398   4.053  11.521 -0.6259 -0.8712  0.3899
  416MPD2    C3 6260   4.479   3.948  11.493  0.1824  0.1763  0.1140
  416MPD2    C4 6261   4.592   3.921  11.573  0.0012 -0.0506 -0.6614
  416MPD2    C5 6262   4.622   4.016  11.672  0.2864 -0.4263 -0.1746
  416MPD2     H 6263   4.309   4.076  11.463 -1.4531 -1.1811  1.5152
  416MPD2    H1 6264   4.667   3.844  11.558 -0.3894 -0.6982  0.6510
  416MPD2    H2 6265   4.560   4.186  11.781 -2.3318  0.2525  1.0162
  416MPD2    H3 6266   4.715   4.016  11.726 -1.1697 -1.6017  2.3499
  416MPD2     N 6267   4.432   3.843  11.407 -0.3111 -0.8171  0.2886
  416MPD2    H5 6268   4.479   3.756  11.429 -0.5100 -1.0198 -0.0771
  416MPD2    N1 6269   4.332   4.236  11.672  0.4095 -0.0122  0.0096
  416MPD2    H7 6270   4.343   4.269  11.768 -1.5494  1.0966 -0.1411
  417TMC3    C1 6271   4.132   4.353  11.675 -0.0786  0.6429 -0.4533
  417TMC3    C2 6272   4.105   4.324  11.801  0.0949 -0.0973  0.2772
  417TMC3    C3 6273   4.007   4.393  11.862  0.5274 -0.3825  0.0952
  417TMC3    C4 6274   4.063   4.453  11.604  0.1147  0.0203  0.2373
  417TMC3    C5 6275   3.961   4.517  11.668  0.3426 -0.0133  0.1170
  417TMC3    C6 6276   3.929   4.486  11.799 -0.0904 -0.4557  0.3797
  417TMC3     C 6277   4.222   4.275  11.596  0.5509  0.4000 -0.2209
  417TMC3     O 6278   4.205   4.278  11.475  0.0349 -0.0140 -0.0333
  417TMC3     H 6279   4.158   4.244  11.851  0.3205  0.3729  0.7877
  417TMC3    H1 6280   4.090   4.465  11.500  0.0394 -0.3087  0.1820
  417TMC3    H2 6281   3.853   4.542  11.852  1.4124  0.8681  1.1442
  417TMC3    C7 6282   3.900   4.634  11.604  0.0397 -0.5909 -0.0078
  417TMC3    C8 6283   3.962   4.373  11.995 -0.5659  0.0910  0.5913
  417TMC3    O1 6284   3.954   4.665  11.502 -0.0149  0.0476 -0.2351
  417TMC3    O2 6285   3.849   4.404  12.030 -0.0777  0.5549  0.0871
  418TMC3    C1 6286   2.995   1.651  17.738  0.0019  0.0610  1.1142
  418TMC3    C2 6287   2.870   1.698  17.712 -0.0372  0.0357 -0.2039
  418TMC3    C3 6288   2.790   1.729   0.062 -1.0696 -0.5688 -0.2829
  418TMC3    C4 6289   3.045   1.646   0.111 -0.3472 -0.0739  0.3516
  418TMC3    C5 6290   2.967   1.687   0.213  0.6886 -0.1731 -0.0225
  418TMC3    C6 6291   2.835   1.714   0.194 -0.0392 -0.0159 -0.2653
  418TMC3     C 6292   3.062   1.585  17.627 -0.2700 -0.0626  0.6244
  418TMC3     O 6293   3.011   1.607  17.516 -0.0247  0.3157 -0.0875
  418TMC3     H 6294   2.829   1.672  17.615  0.6012  1.1775 -0.7787
  418TMC3    H1 6295   3.144   1.606   0.127  0.1373  0.7828 -0.5126
  418TMC3    H2 6296   2.768   1.738   0.275  4.3163 -0.0864  3.3306
  418TMC3    C7 6297   3.005   1.635   0.343  0.4823 -0.5116 -0.3400
  418TMC3    C8 6298   2.660   1.675   0.044 -0.5428  0.1826 -0.2591
  418TMC3    O1 6299   3.095   1.548   0.341  0.7080  0.7960  0.4557
  418TMC3    O2 6300   2.601   1.702  17.698  0.5026 -0.1212 -0.0671
  419MPD2     C 6301   1.653   4.121  12.130 -0.0682 -0.0116  0.1770
  419MPD2    C1 6302   1.614   4.247  12.124 -0.2249  0.1914 -1.0711
  419MPD2    C2 6303   1.557   4.310  12.231  0.2041  0.0679 -0.5208
  419MPD2    C3 6304   1.531   4.235  12.345 -0.1045 -0.1608 -0.4753
  419MPD2    C4 6305   1.549   4.102  12.356 -0.1522  0.0575  0.4769
  419MPD2    C5 6306   1.622   4.052  12.249 -0.6719 -0.5648 -0.5038
  419MPD2     H 6307   1.518   4.410  12.222 -1.7163 -0.5491  0.7622
  419MPD2    H1 6308   1.531   4.046  12.447 -1.2737  1.0362  0.8585
  419MPD2    H2 6309   1.718   4.065  12.064  1.0310  0.5597  0.7739
  419MPD2    H3 6310   1.649   3.947  12.252  2.3754  0.2574 -0.0158
  419MPD2     N 6311   1.485   4.307  12.457 -0.0618 -0.0313  0.6297
  419MPD2    H5 6312   1.474   4.407  12.447  0.1229  0.1227  1.9807
  419MPD2    N1 6313   1.640   4.325  12.011  0.2940 -0.3319 -0.3795
  419MPD2    H7 6314   1.632   4.425  12.024  1.7347 -0.2664 -0.0484
  420TMC3    C1 6315   1.396   4.378  12.667  0.6502  0.0110  0.1198
  420TMC3    C2 6316   1.364   4.496  12.608  0.0594 -0.4456  0.1987
  420TMC3    C3 6317   1.352   4.599  12.699  0.0162 -0.0017 -0.1686
  420TMC3    C4 6318   1.418   4.360  12.802  0.2996  0.9414 -0.4542
  420TMC3    C5 6319   1.412   4.468  12.884 -0.3086 -0.3736 -1.1440
  420TMC3    C6 6320   1.377   4.589  12.830 -0.4728 -0.5988  0.7911
  420TMC3     C 6321   1.440   4.267  12.582  0.1551  0.0015 -0.3111
  420TMC3     O 6322   1.454   4.158  12.630  0.0570  0.0928  0.1517
  420TMC3     H 6323   1.323   4.497  12.508  0.1318 -0.2787  0.1698
  420TMC3    H1 6324   1.442   4.264  12.847  0.4074  0.2429 -1.9925
  420TMC3    H2 6325   1.369   4.677  12.893 -0.9639  0.0274 -0.1382
  420TMC3    C7 6326   1.422   4.448  13.023  0.6687 -0.2543  0.4369
  420TMC3    C8 6327   1.320   4.724  12.633  0.3875  0.1425  0.2929
  420TMC3    O1 6328   1.455   4.339  13.055  0.0105 -0.6990  0.1950
  420TMC3    O2 6329   1.356   4.735  12.517 -0.5010 -0.1775 -0.4814
  421TMC3    C1 6330   2.445   1.026  13.180 -0.5663 -0.0660  0.0820
  421TMC3    C2 6331   2.432   1.139  13.262  0.2212 -0.0166  0.8168
  421TMC3    C3 6332   2.510   1.137  13.373 -0.3614 -0.5617  0.7568
  421TMC3    C4 6333   2.507   0.913  13.232  0.4602  0.2841  0.3543
  421TMC3    C5 6334   2.590   0.925  13.337  0.7059  0.6459 -0.2861
  421TMC3    C6 6335   2.590   1.036  13.411  0.0407  0.3060 -0.9536
  421TMC3     C 6336   2.318   1.005  13.113 -0.1542  0.4689 -0.0611
  421TMC3     O 6337   2.251   1.090  13.065  0.2137 -0.5889 -0.1947
  421TMC3     H 6338   2.361   1.216  13.235 -1.3580 -1.8593 -0.2835
  421TMC3    H1 6339   2.516   0.829  13.164 -2.3216  0.3628 -0.1083
  421TMC3    H2 6340   2.621   1.038  13.515 -0.5666 -0.9181 -0.7546
  421TMC3    C7 6341   2.693   0.830  13.372 -0.8065  0.1084  0.2535
  421TMC3    C8 6342   2.490   1.254  13.461 -0.7603  0.5220 -0.0997
  421TMC3    O1 6343   2.789   0.877  13.431 -0.1115  0.3058  0.4762
  421TMC3    O2 6344   2.587   1.298  13.517  0.0375  0.3915  0.0155
  422TMC3    C1 6345   0.345   2.453  12.595 -0.1534  0.2057 -0.5386
  422TMC3    C2 6346   0.324   2.532  12.706  0.7945  0.2093  0.2224
  422TMC3    C3 6347   0.216   2.515  12.786  0.4411  0.3387 -0.3405
  422TMC3    C4 6348   0.259   2.349  12.575  0.6981 -0.3999  0.0086
  422TMC3    C5 6349   0.147   2.332  12.657  0.4704 -0.3173  0.3334
  422TMC3    C6 6350   0.127   2.416  12.765  0.0994  0.1187 -0.3411
  422TMC3     C 6351   0.462   2.478  12.510 -0.0809 -0.3948  0.0450
  422TMC3     O 6352   0.544   2.550  12.565 -0.3360 -0.5560 -0.4139
  422TMC3     H 6353   0.375   2.625  12.728  4.2486 -1.5235 -0.4674
  422TMC3    H1 6354   0.277   2.280  12.493 -0.0437  1.4520 -1.7210
  422TMC3    H2 6355   0.052   2.404  12.842 -0.6639  0.1136 -1.0874
  422TMC3    C7 6356   0.066   2.218  12.632 -0.4883  0.0223 -0.1391
  422TMC3    C8 6357   0.189   2.616  12.886  0.5001 -0.4684 -0.0268
  422TMC3    O1 6358   0.111   2.140  12.553 -0.0440  0.1768 -0.5190
  422TMC3    O2 6359   0.282   2.660  12.952 -0.1559 -0.2531 -0.3425
  423MPD2     C 6360   1.564   3.502   0.525 -0.0220  0.3002  0.7367
  423MPD2    C1 6361   1.621   3.388   0.579  0.1886  0.3547 -0.7020
  423MPD2    C2 6362   1.671   3.281   0.504 -0.2233 -0.8398 -0.0700
  423MPD2    C3 6363   1.647   3.289   0.370 -0.2088 -0.7804 -0.4681
  423MPD2    C4 6364   1.600   3.411   0.312  0.4039 -0.6250 -0.6441
  423MPD2    C5 6365   1.562   3.520   0.389  1.3008  0.5603  0.2140
  423MPD2     H 6366   1.710   3.195   0.556  0.4222 -1.2805 -1.2797
  423MPD2    H1 6367   1.585   3.426   0.205 -1.1441 -2.1376 -0.6242
  423MPD2    H2 6368   1.525   3.591   0.574 -0.5307  1.3907 -1.6406
  423MPD2    H3 6369   1.525   3.606   0.335  1.8626  0.0031 -1.0807
  423MPD2     N 6370   1.689   3.188   0.284 -0.1963 -0.6598  0.2498
  423MPD2    H5 6371   1.688   3.223   0.189 -0.7873  0.2296  0.5798
  423MPD2    N1 6372   1.608   3.367   0.720 -0.3910  0.5675  0.0896
  423MPD2    H7 6373   1.653   3.288   0.764 -2.0148 -0.7749 -0.6982
  424TMC3    C1 6374   1.542   3.408   0.949  0.3478 -0.2844 -0.6956
  424TMC3    C2 6375   1.653   3.345   0.992 -0.2019  0.0630  0.3631
  424TMC3    C3 6376   1.655   3.317   1.128  0.4482 -0.6087  0.3055
  424TMC3    C4 6377   1.437   3.419   1.032  0.3423  0.2553  0.2064
  424TMC3    C5 6378   1.440   3.384   1.161 -0.0013  0.0030  0.3524
  424TMC3    C6 6379   1.555   3.342   1.221 -0.5606  0.3021 -0.0466
  424TMC3     C 6380   1.527   3.443   0.807  0.0762  0.5316 -0.0170
  424TMC3     O 6381   1.441   3.522   0.781  0.7829  0.3100  0.6801
  424TMC3     H 6382   1.745   3.339   0.935 -0.3965 -1.6197  0.2470
  424TMC3    H1 6383   1.350   3.470   0.990  0.0476  0.2282  0.7797
  424TMC3    H2 6384   1.553   3.306   1.323 -0.9060  2.8443  0.8474
  424TMC3    C7 6385   1.324   3.418   1.240 -0.2377 -0.4292  0.1550
  424TMC3    C8 6386   1.776   3.251   1.178  0.0405  0.3091  0.0819
  424TMC3    O1 6387   1.343   3.433   1.360 -0.0150 -0.2588 -0.1618
  424TMC3    O2 6388   1.853   3.191   1.099  0.2922  0.0208 -0.5438
  425MPD2     C 6389   0.521   2.454  17.146 -0.1189  0.4597 -0.1320
  425MPD2    C1 6390   0.435   2.418  17.046  0.6855  0.9649 -0.6198
  425MPD2    C2 6391   0.345   2.515  17.004 -0.5453 -0.5944 -0.1530
  425MPD2    C3 6392   0.346   2.643  17.060 -0.1973 -0.1001  0.7487
  425MPD2    C4 6393   0.442   2.674  17.155 -0.0539  0.1289  0.6632
  425MPD2    C5 6394   0.534   2.582  17.186  0.1392 -0.3795 -0.5377
  425MPD2     H 6395   0.264   2.493  16.936 -0.2280 -1.3040 -0.2945
  425MPD2    H1 6396   0.463   2.770  17.202  0.7396  0.8808 -1.2371
  425MPD2    H2 6397   0.603   2.385  17.163  0.8835  2.2202  2.2199
  425MPD2    H3 6398   0.610   2.598  17.262 -3.2714  1.7248  2.4207
  425MPD2     N 6399   0.230   2.725  17.020 -0.1169  0.0968  0.1070
  425MPD2    H5 6400   0.168   2.678  16.954  1.8183 -0.8415 -1.0393
  425MPD2    N1 6401   0.430   2.276  17.008  0.0159  0.1936 -0.0784
  425MPD2    H7 6402   0.507   2.221  17.044  0.5654  0.7177 -0.4396
  426TMC3    C1 6403   0.388   2.104  16.861  0.2803 -0.3963 -0.4962
  426TMC3    C2 6404   0.387   2.092  16.723  0.0890 -0.1832  0.3039
  426TMC3    C3 6405   0.404   1.964  16.667 -0.4536  0.1195 -0.3795
  426TMC3    C4 6406   0.421   1.995  16.943  0.1050  0.0729 -0.3738
  426TMC3    C5 6407   0.447   1.874  16.878  0.2383 -0.8991  0.2479
  426TMC3    C6 6408   0.425   1.857  16.743  0.3061  0.1055  0.5073
  426TMC3     C 6409   0.339   2.225  16.915  0.4078 -0.1497 -0.2936
  426TMC3     O 6410   0.256   2.285  16.849 -0.0712  1.0520  0.1158
  426TMC3     H 6411   0.354   2.178  16.667 -1.3248 -0.9944 -0.1222
  426TMC3    H1 6412   0.430   2.006  17.050  0.8066 -2.9947 -0.1400
  426TMC3    H2 6413   0.453   1.765  16.693 -0.2932  2.1538 -3.6764
  426TMC3    C7 6414   0.498   1.758  16.946  0.3978 -0.6756  0.6670
  426TMC3    C8 6415   0.455   1.972  16.528  0.0700 -0.3138  1.3659
  426TMC3    O1 6416   0.500   1.655  16.876  0.0981 -0.0672 -0.4163
  426TMC3    O2 6417   0.478   1.866  16.469  0.2056 -0.0944 -0.6923
  427MPD2     C 6418   4.114   4.220  14.889 -0.0543 -0.4559 -0.1309
  427MPD2    C1 6419   4.082   4.248  15.014  0.7107  0.8013 -0.7720
  427MPD2    C2 6420   3.946   4.281  15.043  0.0187 -0.1955 -0.4135
  427MPD2    C3 6421   3.851   4.296  14.949  0.0317 -0.4849  0.1373
  427MPD2    C4 6422   3.881   4.265  14.818 -0.2889 -0.0882  0.0509
  427MPD2    C5 6423   4.010   4.229  14.794  0.1828  0.0963 -0.4398
  427MPD2     H 6424   3.921   4.285  15.148 -1.4128  0.3390 -0.7822
  427MPD2    H1 6425   3.810   4.263  14.735  0.2278  3.4238 -0.4671
  427MPD2    H2 6426   4.215   4.187  14.868  0.4238  0.3031  0.9745
  427MPD2    H3 6427   4.042   4.197  14.695 -0.6186  0.2506 -0.7448
  427MPD2     N 6428   3.724   4.347  14.971 -0.1457  0.2311 -0.0238
  427MPD2    H5 6429   3.670   4.372  14.888 -1.1132  0.8257  0.7762
  427MPD2    N1 6430   4.177   4.267  15.118 -0.0228  0.1886 -0.2329
  427MPD2    H7 6431   4.135   4.280  15.209  0.5964 -0.3574  0.1343
  428TMC3    C1 6432   4.383   4.263  15.224 -0.5713 -0.4434 -0.2089
  428TMC3    C2 6433   4.341   4.161  15.313 -0.0378  0.1909  0.1874
  428TMC3    C3 6434   4.405   4.148  15.437 -0.0867 -0.0140 -0.9674
  428TMC3    C4 6435   4.500   4.324  15.239  0.1154 -0.5433 -0.0353
  428TMC3    C5 6436   4.561   4.304  15.359 -0.0109 -0.5247  0.0307
  428TMC3    C6 6437   4.518   4.219  15.458 -0.2023  0.0924 -0.2311
  428TMC3     C 6438   4.316   4.275  15.100 -0.7411 -0.0550 -0.5651
  428TMC3     O 6439   4.382   4.288  15.000  0.3388  0.4109 -0.4402
  428TMC3     H 6440   4.253   4.100  15.298 -0.4217  0.7233  0.3276
  428TMC3    H1 6441   4.534   4.400  15.170  1.3668  0.6891  1.9448
  428TMC3    H2 6442   4.574   4.218  15.550 -2.1039 -1.2429  0.9056
  428TMC3    C7 6443   4.667   4.386  15.397  0.3615 -0.2254  1.0112
  428TMC3    C8 6444   4.386   4.021  15.499 -0.1191 -0.7948  0.0523
  428TMC3    O1 6445   4.675   4.421  15.515 -0.3286  0.2360 -0.1358
  428TMC3    O2 6446   4.326   3.933  15.438 -0.9439 -0.1614 -0.0298
  429MPD2     C 6447   1.189   4.689  17.578 -0.7166 -0.4705 -0.4821
  429MPD2    C1 6448   1.115   4.616  17.493 -0.4353  0.5483 -0.3337
  429MPD2    C2 6449   1.092   4.671  17.368  0.0812  0.3468 -0.0581
  429MPD2    C3 6450   1.130   0.061  17.327 -0.1431 -0.0926  0.5081
  429MPD2    C4 6451   1.214   0.125  17.417  0.7914  0.8862 -0.0126
  429MPD2    C5 6452   1.247   0.062  17.541  0.3061 -0.5555  0.3260
  429MPD2     H 6453   1.044   4.612  17.289  1.3423 -1.3188  0.4260
  429MPD2    H1 6454   1.257   0.221  17.391  2.6749 -0.3947 -1.5910
  429MPD2    H2 6455   1.212   4.657  17.679  0.0698  1.9599  0.0960
  429MPD2    H3 6456   1.310   0.109  17.615 -0.7706  0.1547  0.7904
  429MPD2     N 6457   1.106   0.116  17.196  0.2105  0.1438 -0.6243
  429MPD2    H5 6458   1.056   0.051  17.137  0.3927  0.6504 -1.3379
  429MPD2    N1 6459   1.064   4.488  17.519 -0.2516 -0.2270 -0.3518
  429MPD2    H7 6460   0.998   4.454  17.449 -0.1069  1.9239 -1.5225
  430TMC3    C1 6461   1.154   0.203  16.986 -0.4502 -0.5925  0.5328
  430TMC3    C2 6462   1.170   0.304  16.901 -0.3126  0.1684  0.3680
  430TMC3    C3 6463   1.209   0.290  16.772 -0.7227 -0.4935  0.1803
  430TMC3    C4 6464   1.161   0.076  16.938  0.0522 -0.4998  0.3530
  430TMC3    C5 6465   1.189   0.056  16.808 -0.2440  0.7160 -0.5363
  430TMC3    C6 6466   1.218   0.159  16.724  0.4116  0.6428 -0.8424
  430TMC3     C 6467   1.161   0.223  17.133  0.2308 -0.0582  0.8122
  430TMC3     O 6468   1.237   0.307  17.172 -0.3177  0.4000 -0.3340
  430TMC3     H 6469   1.138   0.402  16.935  0.5285  0.3776  0.5587
  430TMC3    H1 6470   1.166   4.729  17.002 -1.8861  0.0766  1.3194
  430TMC3    H2 6471   1.253   0.139  16.623 -0.9290 -2.5800 -0.6474
  430TMC3    C7 6472   1.112   4.689  16.750 -0.4585 -0.3175 -0.0913
  430TMC3    C8 6473   1.129   0.359  16.670  0.2552  0.3972  0.2443
  430TMC3    O1 6474   1.127   4.584  16.805  0.6077  0.2410  0.0506
  430TMC3    O2 6475   1.113   0.294  16.567 -0.3901  0.3686  0.6295
  431MPD2     C 6476   2.103   0.191  12.250  1.0259  0.2296 -1.0385
  431MPD2    C1 6477   1.966   0.199  12.236 -0.1466  0.7923  0.8272
  431MPD2    C2 6478   1.904   0.162  12.116 -0.3028  0.6585 -0.4588
  431MPD2    C3 6479   1.976   0.108  12.015  0.0349  0.2515 -0.0787
  431MPD2    C4 6480   2.112   0.113  12.027  0.7708 -0.4786 -0.0492
  431MPD2    C5 6481   2.172   0.156  12.140 -0.1333  0.2341 -0.1377
  431MPD2     H 6482   1.796   0.166  12.107 -0.4171 -1.4385 -0.0358
  431MPD2    H1 6483   2.176   0.067  11.953 -0.5544 -0.1160 -1.4318
  431MPD2    H2 6484   2.161   0.210  12.340 -0.3942 -0.6359  0.0473
  431MPD2    H3 6485   2.280   0.161  12.146 -0.4123  1.9568  3.4084
  431MPD2     N 6486   1.916   0.036  11.906 -0.5011 -0.0860  0.1115
  431MPD2    H5 6487   1.977   0.021  11.827  1.4982 -0.7609  1.7688
  431MPD2    N1 6488   1.886   0.248  12.339 -0.4839  0.3060 -0.3240
  431MPD2    H7 6489   1.790   0.276  12.320 -0.6117 -0.3351 -0.6213
  432TMC3    C1 6490   1.773   4.619  11.799  1.1388  0.1512  0.1684
  432TMC3    C2 6491   1.888   4.589  11.732 -0.3428  0.3974 -0.4478
  432TMC3    C3 6492   1.919   4.455  11.710  0.3123 -0.3791  0.2669
  432TMC3    C4 6493   1.694   4.517  11.836  0.2509  0.3358 -0.2259
  432TMC3    C5 6494   1.726   4.388  11.809  0.9043  0.0613  0.1415
  432TMC3    C6 6495   1.837   4.356  11.741 -0.5314 -0.2483  0.2842
  432TMC3     C 6496   1.792   4.720  11.902  0.1004 -0.2366  0.1431
  432TMC3     O 6497   1.707   4.727  11.986  0.7408  0.2960  0.0327
  432TMC3     H 6498   1.948   4.670  11.692  0.6786  0.6363  1.5725
  432TMC3    H1 6499   1.601   4.547  11.883 -0.5886 -0.7358 -1.2261
  432TMC3    H2 6500   1.858   4.253  11.716  2.4634  0.1381  1.1954
  432TMC3    C7 6501   1.681   4.279  11.893  0.1288  0.3816 -0.0255
  432TMC3    C8 6502   2.053   4.423  11.668  0.5326  0.2095  0.1223
  432TMC3    O1 6503   1.702   4.164  11.856  0.5988 -0.3321  0.5275
  432TMC3    O2 6504   2.113   4.521  11.616 -0.1041  0.1716 -0.1624
  433MPD2     C 6505   0.018   3.278  10.686 -0.4467 -0.5379  0.3689
  433MPD2    C1 6506   0.150   3.253  10.733  0.5656 -0.1969  0.2442
  433MPD2    C2 6507   0.189   3.257  10.868  0.2207 -0.5014  0.0447
  433MPD2    C3 6508   0.086   3.275  10.954  0.7681 -0.7898  0.4138
  433MPD2    C4 6509   4.694   3.293  10.918  0.0833 -0.5564  0.4138
  433MPD2    C5 6510   4.664   3.310  10.788 -0.0779 -0.2517  0.1261
  433MPD2     H 6511   0.286   3.229  10.906  0.0846  0.4169  1.0723
  433MPD2    H1 6512   4.617   3.308  10.993 -1.3732  1.2886 -1.4307
  433MPD2    H2 6513   4.718   3.265  10.586  1.2240  0.3331 -0.4159
  433MPD2    H3 6514   4.564   3.338  10.757 -1.8921 -6.0863  0.6227
  433MPD2     N 6515   0.120   3.258  11.092  0.0445  0.2414 -0.0705
  433MPD2    H5 6516   0.219   3.247  11.115  0.0424 -1.0000 -0.6946
  433MPD2    N1 6517   0.241   3.201  10.638 -0.2598  0.5720  0.0601
  433MPD2    H7 6518   0.206   3.153  10.556  3.3433  0.2703 -1.3103
  434TMC3    C1 6519   0.418   3.047  10.625 -0.3960  0.5501  0.4486
  434TMC3    C2 6520   0.510   2.996  10.719  0.1663  0.1541  0.2014
  434TMC3    C3 6521   0.489   2.876  10.784 -0.1761 -0.0395 -0.8083
  434TMC3    C4 6522   0.312   2.959  10.590 -0.2713 -0.0267 -0.0261
  434TMC3    C5 6523   0.301   2.835  10.649 -0.0670 -0.2584 -0.7831
  434TMC3    C6 6524   0.385   2.790  10.750 -0.1078  0.6560  0.4908
  434TMC3     C 6525   0.374   3.176  10.669  0.3822 -0.7204 -0.2127
  434TMC3     O 6526   0.452   3.234  10.739  0.1065 -0.3016  0.4408
  434TMC3     H 6527   0.596   3.055  10.747  0.0828  0.3901 -0.0303
  434TMC3    H1 6528   0.249   2.981  10.504  2.1799 -0.1200 -1.8308
  434TMC3    H2 6529   0.360   2.706  10.813 -2.6353 -0.2496 -1.6986
  434TMC3    C7 6530   0.190   2.753  10.599  0.5841  0.2922  0.2265
  434TMC3    C8 6531   0.598   2.819  10.871  0.0167  0.1076 -0.0112
  434TMC3    O1 6532   0.112   2.815  10.527 -0.0166 -0.4043 -0.1984
  434TMC3    O2 6533   0.657   2.906  10.932 -0.5028  0.0216  0.3017
  435MPD2     C 6534   2.820   3.506  15.708 -0.2322  0.0134  0.2287
  435MPD2    C1 6535   2.724   3.455  15.800 -0.3686  0.5286 -0.4894
  435MPD2    C2 6536   2.760   3.342  15.872  0.4515 -0.5860  0.6180
  435MPD2    C3 6537   2.890   3.284  15.856  0.3248  0.4201  0.4130
  435MPD2    C4 6538   2.982   3.340  15.768 -0.4401 -0.2106 -0.7517
  435MPD2    C5 6539   2.944   3.450  15.695  0.0303  0.4721  0.8073
  435MPD2     H 6540   2.682   3.300  15.935 -2.6583  1.2623 -2.0076
  435MPD2    H1 6541   3.081   3.297  15.759 -0.0975  0.0227  2.0226
  435MPD2    H2 6542   2.799   3.590  15.643 -0.2066  1.0429  1.5499
  435MPD2    H3 6543   3.018   3.497  15.631  0.4369  1.1260  1.7673
  435MPD2     N 6544   2.914   3.160  15.924 -0.1991 -0.1568 -0.7362
  435MPD2    H5 6545   2.831   3.126  15.972  0.4608  1.2922  1.4428
  435MPD2    N1 6546   2.594   3.504  15.817  0.0243  0.3238 -0.3555
  435MPD2    H7 6547   2.545   3.450  15.887 -0.7066 -1.5565 -2.3528
  436TMC3    C1 6548   2.266   3.713  15.962  0.1126  0.8617  0.3729
  436TMC3    C2 6549   2.377   3.652  15.918  0.5731 -0.1491  0.5298
  436TMC3    C3 6550   2.399   3.623  15.786  0.2128 -0.4347  0.4395
  436TMC3    C4 6551   2.168   3.745  15.872 -0.1641 -0.5013 -0.0503
  436TMC3    C5 6552   2.193   3.734  15.738 -0.0999  0.0128  0.1963
  436TMC3    C6 6553   2.310   3.686  15.697 -0.4834  0.5232  0.5277
  436TMC3     C 6554   2.236   3.700  16.103 -0.3916  0.1517 -0.7778
  436TMC3     O 6555   2.325   3.653  16.169  0.0422 -0.0492  0.4513
  436TMC3     H 6556   2.460   3.626  15.984 -0.1545 -1.0505  1.1028
  436TMC3    H1 6557   2.081   3.798  15.910 -0.8565 -1.0558 -0.8514
  436TMC3    H2 6558   2.347   3.685  15.595 -1.1057 -0.6269  0.3116
  436TMC3    C7 6559   2.094   3.781  15.645 -0.3376  0.5569  0.1672
  436TMC3    C8 6560   2.540   3.613  15.754  0.1746 -0.1170  0.1554
  436TMC3    O1 6561   2.025   3.878  15.677  0.0529 -0.1435  0.2364
  436TMC3    O2 6562   2.590   3.682  15.660  0.9156 -0.1614 -0.5370
  437TMC3    C1 6563   0.850   1.251  12.702  0.2406 -0.1689 -0.0027
  437TMC3    C2 6564   0.788   1.312  12.590  0.2312 -0.3528 -0.0251
  437TMC3    C3 6565   0.865   1.351  12.487 -0.4005  0.7157  0.0644
  437TMC3    C4 6566   0.988   1.252  12.717  0.1693 -0.1931 -0.2102
  437TMC3    C5 6567   1.060   1.304  12.612  0.6817 -0.2595 -0.1674
  437TMC3    C6 6568   1.005   1.356  12.500  0.2784 -0.7689 -0.4674
  437TMC3     C 6569   0.778   1.170  12.807 -0.3672 -0.0695 -0.1830
  437TMC3     O 6570   0.840   1.103  12.890  0.1412  0.8844 -0.1989
  437TMC3     H 6571   0.681   1.325  12.583  0.1818  0.3280  2.1199
  437TMC3    H1 6572   1.036   1.217  12.808  0.5707  1.1757  0.1063
  437TMC3    H2 6573   1.071   1.406  12.430  0.3545 -0.6227 -0.2915
  437TMC3    C7 6574   1.202   1.324  12.630 -0.3618  0.1888  0.9293
  437TMC3    C8 6575   0.797   1.411  12.380  0.1151 -0.3470  0.6503
  437TMC3    O1 6576   1.248   1.430  12.597 -0.0694 -0.1371  0.4826
  437TMC3    O2 6577   0.676   1.407  12.375  0.4055  0.5447 -0.7628
  438MPD2     C 6578   3.409   1.171  16.911 -0.2806 -0.2775  0.5911
  438MPD2    C1 6579   3.505   1.073  16.943 -0.1240  0.2777 -0.3429
  438MPD2    C2 6580   3.494   1.018  17.074 -0.8335  0.0909 -0.2445
  438MPD2    C3 6581   3.395   1.055  17.170 -0.2153 -0.0884  0.5001
  438MPD2    C4 6582   3.309   1.155  17.124 -0.1333 -0.2779  0.4746
  438MPD2    C5 6583   3.322   1.216  17.003 -0.0604  0.0212  0.5077
  438MPD2     H 6584   3.559   0.933  17.090  0.9929  1.5943  0.4903
  438MPD2    H1 6585   3.236   1.205  17.188 -0.9662 -1.7866  0.6923
  438MPD2    H2 6586   3.387   1.207  16.811  1.7644 -1.5297 -0.3001
  438MPD2    H3 6587   3.254   1.291  16.964  0.0108 -0.2989 -0.2181
  438MPD2     N 6588   3.370   0.989  17.288  0.4533  0.1860 -0.0882
  438MPD2    H5 6589   3.294   1.030  17.342  1.2444  1.6595 -0.0855
  438MPD2    N1 6590   3.607   1.032  16.858  0.4798  0.4804  0.4514
  438MPD2    H7 6591   3.669   0.959  16.890  0.4929 -0.6556 -2.1733
  439TMC3    C1 6592   3.712   0.991  16.648  0.3128 -0.0860  0.7023
  439TMC3    C2 6593   3.689   0.996  16.513  0.5196 -1.0202 -0.1615
  439TMC3    C3 6594   3.785   0.934  16.432  0.1789  0.5786  0.2626
  439TMC3    C4 6595   3.816   0.922  16.709 -0.1472  0.0937 -0.0635
  439TMC3    C5 6596   3.909   0.875  16.622 -0.2923 -0.6163  0.6061
  439TMC3    C6 6597   3.894   0.869  16.484 -0.0626  0.6321  0.0152
  439TMC3     C 6598   3.618   1.069  16.727  0.3539 -0.0934  0.0471
  439TMC3     O 6599   3.566   1.170  16.675  0.3168  0.6382  0.0680
  439TMC3     H 6600   3.607   1.043  16.460 -0.3791 -1.0319  1.2321
  439TMC3    H1 6601   3.837   0.924  16.815 -0.1408 -1.0162 -0.0477
  439TMC3    H2 6602   3.978   0.836  16.423 -0.1132 -0.9499  0.7916
  439TMC3    C7 6603   4.029   0.820  16.674 -0.5079  0.2456 -0.7754
  439TMC3    C8 6604   3.758   0.914  16.285  0.3727 -0.4259 -0.4518
  439TMC3    O1 6605   4.133   0.825  16.613 -0.2243 -0.1977  0.5866
  439TMC3    O2 6606   3.820   0.817  16.248 -0.0331 -0.5862 -0.1420
  440MPD2     C 6607   1.887   2.550  14.642 -0.4862 -0.1682 -0.3045
  440MPD2    C1 6608   1.882   2.459  14.747 -0.2931  0.4070  0.6301
  440MPD2    C2 6609   1.968   2.356  14.748 -0.8560 -1.1198  0.7260
  440MPD2    C3 6610   2.060   2.342  14.650 -0.3673 -0.2671 -0.1637
  440MPD2    C4 6611   2.052   2.422  14.541 -0.1633  0.5714  0.8214
  440MPD2    C5 6612   1.970   2.529  14.540  0.0933 -0.0182  0.7107
  440MPD2     H 6613   1.962   2.276  14.821 -0.6203 -2.9074 -1.2160
  440MPD2    H1 6614   2.120   2.417  14.456 -0.4474  0.0926  0.6264
  440MPD2    H2 6615   1.834   2.644  14.642  1.5546  0.9735 -3.3414
  440MPD2    H3 6616   1.966   2.603  14.461 -0.8975  0.6765  1.4085
  440MPD2     N 6617   2.159   2.236  14.644 -0.1655  0.1241  0.0416
  440MPD2    H5 6618   2.205   2.223  14.554 -0.5941 -1.4485  0.0543
  440MPD2    N1 6619   1.801   2.475  14.861 -0.1967  0.0086  0.0118
  440MPD2    H7 6620   1.802   2.408  14.938 -0.6555 -1.2446 -1.0631
  441TMC3    C1 6621   2.298   2.065  14.731  0.3997  0.0714  0.0432
  441TMC3    C2 6622   2.402   2.090  14.637 -0.7485 -0.5095 -0.0065
  441TMC3    C3 6623   2.500   1.997  14.633  0.8793 -0.7860  0.1055
  441TMC3    C4 6624   2.300   1.953  14.815 -0.5760 -0.6303 -0.1768
  441TMC3    C5 6625   2.396   1.858  14.797  0.2825 -0.0577 -0.1505
  441TMC3    C6 6626   2.497   1.881  14.706  0.2016 -0.0216  0.5777
  441TMC3     C 6627   2.176   2.140  14.745  0.4070  0.5595 -0.3334
  441TMC3     O 6628   2.110   2.114  14.846 -0.3650  0.0719  0.4474
  441TMC3     H 6629   2.402   2.174  14.568 -0.2554 -0.4726  0.0413
  441TMC3    H1 6630   2.227   1.922  14.890 -0.9355  1.5596  0.3630
  441TMC3    H2 6631   2.578   1.810  14.694  2.5231  2.1979  2.9415
  441TMC3    C7 6632   2.411   1.757  14.903  0.2606  0.0155 -0.5600
  441TMC3    C8 6633   2.634   2.036  14.619 -0.3625  0.4430  0.0642
  441TMC3    O1 6634   2.311   1.698  14.941 -0.5175 -0.3175  0.4720
  441TMC3    O2 6635   2.724   1.952  14.630 -0.2341 -0.1473  0.3744
  442MPD2     C 6636   0.136   2.132  15.960  0.2371 -0.1663  0.3957
  442MPD2    C1 6637   0.021   2.061  16.012  0.5249  0.6234 -0.4286
  442MPD2    C2 6638   4.737   1.929  15.975 -0.3800 -0.0734  0.4812
  442MPD2    C3 6639   0.094   1.865  15.910  0.4971 -0.2973  0.1212
  442MPD2    C4 6640   0.206   1.925  15.866  0.6768 -0.4715 -0.5745
  442MPD2    C5 6641   0.226   2.059  15.889 -0.5025  0.2493  0.3755
  442MPD2     H 6642   4.647   1.884  16.014 -0.5517 -0.2463 -0.1226
  442MPD2    H1 6643   0.282   1.858  15.825  1.3243  0.2431 -0.5475
  442MPD2    H2 6644   0.160   2.230  15.999  0.0026 -0.1335  0.4568
  442MPD2    H3 6645   0.325   2.094  15.864 -0.6243  1.3544  1.4609
  442MPD2     N 6646   0.085   1.730  15.872  0.1753 -0.1512 -0.0708
  442MPD2    H5 6647   0.159   1.715  15.803 -0.8283  1.4753 -1.4884
  442MPD2    N1 6648   4.672   2.129  16.101  0.0956  0.4470  0.1419
  442MPD2    H7 6649   4.616   2.075  16.166  0.5289  1.4066  1.3136
  443TMC3    C1 6650   4.574   2.320  16.210 -0.2286 -0.4640 -0.4676
  443TMC3    C2 6651   4.511   2.437  16.188 -1.0639  0.1532 -0.3684
  443TMC3    C3 6652   4.406   2.476  16.266  0.1166  0.2947  0.5575
  443TMC3    C4 6653   4.539   2.234  16.308  0.2244  0.5366  0.3802
  443TMC3    C5 6654   4.437   2.286  16.388  0.5324  0.7770 -0.1836
  443TMC3    C6 6655   4.368   2.405  16.373  0.0323  0.5353  0.0663
  443TMC3     C 6656   4.669   2.268  16.115 -0.6241  0.9396  0.5365
  443TMC3     O 6657   4.709   2.358  16.040 -0.2998 -0.2708 -0.2810
  443TMC3     H 6658   4.549   2.501  16.109  0.7927 -0.9787 -0.3763
  443TMC3    H1 6659   4.587   2.140  16.334  0.3037  0.3147 -0.6043
  443TMC3    H2 6660   4.282   2.433  16.433  0.8598  0.7742  1.1489
  443TMC3    C7 6661   4.402   2.203  16.495  0.9804  0.3389 -0.5020
  443TMC3    C8 6662   4.329   2.592  16.231 -0.3782 -0.3534 -0.0088
  443TMC3    O1 6663   4.424   2.079  16.481 -0.0662  0.1150  0.8376
  443TMC3    O2 6664   4.292   2.650  16.332 -0.4586 -0.0447 -0.0222
  444MPD2     C 6665   0.138   2.076  16.416  0.0674  0.1854  0.7082
  444MPD2    C1 6666   0.080   1.950  16.456  0.1450  0.0213 -0.3161
  444MPD2    C2 6667   0.124   1.840  16.383 -0.3320  0.0988  0.0338
  444MPD2    C3 6668   0.209   1.848  16.275 -0.3464  1.0522  0.2371
  444MPD2    C4 6669   0.259   1.974  16.234 -0.3402 -0.1037  0.0093
  444MPD2    C5 6670   0.215   2.080  16.295 -0.0807  0.0727 -0.4770
  444MPD2     H 6671   0.101   1.739  16.417  0.6138 -0.4588 -0.9673
  444MPD2    H1 6672   0.312   1.988  16.140  0.0918 -0.2867  0.2281
  444MPD2    H2 6673   0.103   2.167  16.462 -0.6367  0.4378 -0.3214
  444MPD2    H3 6674   0.262   2.171  16.260  2.2356 -1.4793 -1.4046
  444MPD2     N 6675   0.251   1.730  16.207  0.6726 -0.0350  0.0856
  444MPD2    H5 6676   0.213   1.642  16.241 -3.1504  1.6040  0.0917
  444MPD2    N1 6677   0.002   1.928  16.570  1.2924  0.0131 -0.0271
  444MPD2    H7 6678   4.717   1.831  16.586  0.9173 -0.1556 -1.6106
  445TMC3    C1 6679   0.380   1.592  16.061  0.4651 -0.5926  0.7051
  445TMC3    C2 6680   0.274   1.504  16.066 -0.7076 -1.0123 -0.5835
  445TMC3    C3 6681   0.311   1.370  16.051  0.0551 -0.1229 -0.3683
  445TMC3    C4 6682   0.509   1.546  16.062 -0.1023 -0.2603  0.5914
  445TMC3    C5 6683   0.535   1.419  16.040  1.0096  0.9208  0.6515
  445TMC3    C6 6684   0.433   1.325  16.025 -0.5674  0.3194 -0.0684
  445TMC3     C 6685   0.358   1.725  16.115  0.0870 -0.7870  0.0024
  445TMC3     O 6686   0.434   1.813  16.086  0.3614  0.7173 -0.7509
  445TMC3     H 6687   0.170   1.532  16.079  0.0428  1.2734  0.2956
  445TMC3    H1 6688   0.584   1.620  16.088  0.1082 -0.6917  1.2092
  445TMC3    H2 6689   0.447   1.219  16.004 -0.9790 -0.2006  2.2690
  445TMC3    C7 6690   0.672   1.378  16.057 -0.0231 -0.0623 -0.8800
  445TMC3    C8 6691   0.201   1.276  16.032 -0.2830  0.0123  0.2961
  445TMC3    O1 6692   0.750   1.469  16.071 -0.1264 -0.4960 -0.3422
  445TMC3    O2 6693   0.227   1.166  15.987  0.0715 -0.3601 -0.4388
  446MPD2     C 6694   0.323   2.751  11.427 -0.4874  0.0168  0.0910
  446MPD2    C1 6695   0.278   2.826  11.317 -0.3902  0.2193 -0.3818
  446MPD2    C2 6696   0.376   2.896  11.243 -0.1466  0.4443  0.4678
  446MPD2    C3 6697   0.508   2.912  11.291  0.5992  0.2279 -0.2403
  446MPD2    C4 6698   0.540   2.834  11.400 -0.4183  0.2444  0.8108
  446MPD2    C5 6699   0.452   2.757  11.467  0.3151  0.0646 -0.5687
  446MPD2     H 6700   0.342   2.959  11.161  0.8259  1.2533  0.6976
  446MPD2    H1 6701   0.632   2.853  11.455 -0.0860  2.5647 -0.5260
  446MPD2    H2 6702   0.258   2.673  11.466  0.2288 -0.7273 -0.1912
  446MPD2    H3 6703   0.506   2.694  11.537  0.7552  0.6512 -0.3873
  446MPD2     N 6704   0.603   2.993  11.227  0.1583  0.1706 -0.4196
  446MPD2    H5 6705   0.576   3.053  11.150  1.9537 -0.3429 -1.4398
  446MPD2    N1 6706   0.145   2.825  11.275  0.0947  0.2417 -0.0204
  446MPD2    H7 6707   0.125   2.848  11.178  0.5609 -2.3008 -0.7369
  447TMC3    C1 6708   0.811   3.102  11.186  0.2770  0.1664  0.2276
  447TMC3    C2 6709   0.788   3.143  11.061  0.6520  0.4121 -0.0747
  447TMC3    C3 6710   0.880   3.238  11.013  0.3604 -0.5884 -0.1317
  447TMC3    C4 6711   0.910   3.156  11.269 -0.4226  0.0860  0.3186
  447TMC3    C5 6712   0.999   3.240  11.212 -0.0128 -0.4077 -0.9862
  447TMC3    C6 6713   0.985   3.290  11.086 -0.0087 -0.0977 -0.5502
  447TMC3     C 6714   0.739   2.996  11.258 -0.3104  0.1933 -0.0564
  447TMC3     O 6715   0.803   2.921  11.332 -0.1575  0.0821  0.0139
  447TMC3     H 6716   0.709   3.103  10.998 -0.3903  2.5626 -0.1304
  447TMC3    H1 6717   0.913   3.129  11.374  0.8677 -1.4569 -0.1058
  447TMC3    H2 6718   1.075   3.329  11.040 -0.6481 -0.7983 -2.3744
  447TMC3    C7 6719   1.127   3.259  11.274  0.7413  0.5409  0.0316
  447TMC3    C8 6720   0.871   3.271  10.872 -0.2141 -0.9702  0.2382
  447TMC3    O1 6721   1.221   3.257  11.191 -0.0109  0.0670  0.1168
  447TMC3    O2 6722   0.818   3.186  10.800 -0.0792 -0.2579 -0.0684
  448TMC3    C1 6723   3.418   2.656  17.169 -0.2507  0.1986  0.5034
  448TMC3    C2 6724   3.360   2.565  17.091 -0.1210 -0.5249  0.0074
  448TMC3    C3 6725   3.391   2.436  17.121 -0.3454 -0.2476 -0.0785
  448TMC3    C4 6726   3.511   2.627  17.264  0.5680  0.7438  0.2344
  448TMC3    C5 6727   3.540   2.495  17.297  1.0619  0.5122 -0.1117
  448TMC3    C6 6728   3.476   2.400  17.220  0.5647  0.2063  0.1443
  448TMC3     C 6729   3.373   2.794  17.181  0.2361  0.9590  0.7799
  448TMC3     O 6730   3.442   2.877  17.237 -0.9406  0.1319  0.7074
  448TMC3     H 6731   3.285   2.593  17.018 -1.0503 -1.6357  0.5320
  448TMC3    H1 6732   3.573   2.709  17.300 -1.1643  2.2508 -0.1906
  448TMC3    H2 6733   3.476   2.295  17.247  1.7164  0.7334  2.1452
  448TMC3    C7 6734   3.664   2.467  17.365 -0.8443 -0.0311  0.5420
  448TMC3    C8 6735   3.302   2.332  17.075 -0.9780 -0.3109  0.8852
  448TMC3    O1 6736   3.753   2.551  17.360  0.4022 -0.0620  0.6532
  448TMC3    O2 6737   3.324   2.216  17.097  0.0155  0.4812 -0.0490
  449MPD2     C 6738   4.387   1.246  13.979 -0.0083 -0.9982 -0.5118
  449MPD2    C1 6739   4.272   1.275  13.911  0.4452 -0.1095  0.3425
  449MPD2    C2 6740   4.181   1.170  13.893  0.1961 -0.0295 -0.5588
  449MPD2    C3 6741   4.208   1.042  13.943  0.1014  0.7027 -0.2248
  449MPD2    C4 6742   4.326   1.014  14.003 -0.4370  0.0054 -0.2827
  449MPD2    C5 6743   4.408   1.123  14.023 -0.3915  0.5294 -0.6402
  449MPD2     H 6744   4.088   1.185  13.839 -0.1987  1.0255  0.4098
  449MPD2    H1 6745   4.350   0.921  14.054 -1.2218 -0.3621 -0.5901
  449MPD2    H2 6746   4.460   1.325  13.992 -2.4202  1.0877  0.3594
  449MPD2    H3 6747   4.506   1.113  14.071 -1.0600 -1.0044  0.4118
  449MPD2     N 6748   4.105   0.948  13.934  0.1464 -0.0504 -0.0064
  449MPD2    H5 6749   4.032   0.978  13.870  0.1313  3.1576  1.5729
  449MPD2    N1 6750   4.246   1.396  13.854  0.1006  1.1829  0.3894
  449MPD2    H7 6751   4.154   1.398  13.811  0.4377 -3.1245 -0.5595
  450TMC3    C1 6752   4.264   1.601  13.752 -0.1501 -0.1796 -0.2703
  450TMC3    C2 6753   4.316   1.582  13.631  0.4801 -0.0766  0.3994
  450TMC3    C3 6754   4.230   1.591  13.527  0.6808  0.0089  0.1253
  450TMC3    C4 6755   4.134   1.623  13.777 -1.2105 -0.2319  0.4841
  450TMC3    C5 6756   4.041   1.619  13.677  0.2106  0.4348  0.1201
  450TMC3    C6 6757   4.098   1.623  13.551  0.1811 -0.0675 -0.5857
  450TMC3     C 6758   4.323   1.508  13.845 -0.3837  0.2827 -0.5472
  450TMC3     O 6759   4.443   1.513  13.883 -0.0279  0.2653 -0.3792
  450TMC3     H 6760   4.422   1.562  13.631  0.2305 -1.4306  1.6909
  450TMC3    H1 6761   4.109   1.611  13.881 -1.9843 -0.1199  0.3142
  450TMC3    H2 6762   4.038   1.609  13.462 -0.2261  0.5109 -0.4005
  450TMC3    C7 6763   3.953   1.502  13.702  0.7457  0.3167  0.0381
  450TMC3    C8 6764   4.289   1.592  13.400  0.1410 -0.2161  0.1898
  450TMC3    O1 6765   3.986   1.420  13.792 -0.3499 -0.1762  0.4135
  450TMC3    O2 6766   4.217   1.611  13.303  0.2112  0.1192 -1.2467
  451MPD2     C 6767   2.043   4.674   0.938 -0.0127 -0.3403  0.5627
  451MPD2    C1 6768   1.915   4.633   0.914 -0.8565  0.6295  0.9090
  451MPD2    C2 6769   1.892   4.510   0.855  0.4813 -0.3997 -0.1210
  451MPD2    C3 6770   2.001   4.420   0.828  0.5794  0.2584 -0.7776
  451MPD2    C4 6771   2.126   4.474   0.842 -0.6117 -0.3638  0.4549
  451MPD2    C5 6772   2.143   4.596   0.900 -0.4234  0.7928  0.7844
  451MPD2     H 6773   1.795   4.474   0.825  0.1144 -0.2934  0.9346
  451MPD2    H1 6774   2.211   4.414   0.812 -1.6440 -2.2869  1.3713
  451MPD2    H2 6775   2.054   0.034   0.980 -2.1100  0.2472 -0.2795
  451MPD2    H3 6776   2.244   4.637   0.905 -0.4280  0.8860  0.1854
  451MPD2     N 6777   1.985   4.301   0.755  0.2286 -0.1059 -0.8480
  451MPD2    H5 6778   2.065   4.269   0.702  0.1801 -0.8935 -0.4402
  451MPD2    N1 6779   1.804   4.723   0.929  0.5291 -0.5766 -0.1756
  451MPD2    H7 6780   1.828   0.081   0.940 -0.4556 -0.2703 -0.7472
  452TMC3    C1 6781   1.874   4.112   0.666  0.5314  0.0469 -0.1052
  452TMC3    C2 6782   1.765   4.037   0.698 -0.3582  0.2358 -0.9991
  452TMC3    C3 6783   1.699   3.980   0.587  0.0507  0.2686  0.4940
  452TMC3    C4 6784   1.926   4.117   0.540 -0.1685  0.4526 -0.3255
  452TMC3    C5 6785   1.867   4.044   0.442  0.0731  0.1462  0.1477
  452TMC3    C6 6786   1.751   3.984   0.457  0.6431 -0.1488  0.4408
  452TMC3     C 6787   1.867   4.237   0.741  0.0543 -0.3114 -0.4173
  452TMC3     O 6788   1.761   4.260   0.801  0.1784 -0.0160 -0.2042
  452TMC3     H 6789   1.727   4.030   0.799  1.8322 -1.9100 -0.3376
  452TMC3    H1 6790   2.003   4.190   0.519  1.5890 -1.5213 -0.6486
  452TMC3    H2 6791   1.697   3.934   0.377  0.7741  0.2547  0.1019
  452TMC3    C7 6792   1.922   4.067   0.311 -0.2268  0.1638 -0.0299
  452TMC3    C8 6793   1.565   4.004   0.593  0.4798  0.2551  0.6439
  452TMC3    O1 6794   2.023   4.136   0.305 -0.4700 -0.4746 -0.4618
  452TMC3    O2 6795   1.495   3.937   0.518  0.7227 -0.0960 -0.2859
  453TMC3    C1 6796   2.556   1.625  11.269  0.3659  0.0941  0.1193
  453TMC3    C2 6797   2.617   1.505  11.285  0.1724 -0.3041  0.3192
  453TMC3    C3 6798   2.722   1.469  11.200  0.1254  0.1751  0.5263
  453TMC3    C4 6799   2.602   1.711  11.171  0.3945  0.4826 -0.6637
  453TMC3    C5 6800   2.712   1.682  11.098 -0.1474  0.4628 -0.3987
  453TMC3    C6 6801   2.769   1.555  11.101  0.2898  0.1677  0.0410
  453TMC3     C 6802   2.456   1.679  11.360 -0.0711 -0.0674  0.3407
  453TMC3     O 6803   2.374   1.764  11.321  0.2439 -0.2758 -0.1920
  453TMC3     H 6804   2.575   1.433  11.354 -0.3020  0.5780  0.9391
  453TMC3    H1 6805   2.550   1.806  11.172 -0.8111 -0.2105  2.9179
  453TMC3    H2 6806   2.859   1.534  11.045  0.5072 -1.4409  0.9892
  453TMC3    C7 6807   2.795   1.788  11.055  0.6707 -0.5182 -0.4597
  453TMC3    C8 6808   2.755   1.332  11.182 -0.3099  0.0830 -0.5005
  453TMC3    O1 6809   2.899   1.756  10.996  0.6438  0.4150  0.9103
  453TMC3    O2 6810   2.823   1.300  11.085  0.3654 -0.1498  0.4433
  454MPD2     C 6811   1.173   1.405  15.604 -0.0473  0.2972 -0.4939
  454MPD2    C1 6812   1.060   1.412  15.527  0.1918  1.4649 -0.5669
  454MPD2    C2 6813   0.992   1.531  15.521  0.2985 -0.0896  0.0543
  454MPD2    C3 6814   1.028   1.641  15.599  0.0436  1.1686  0.2252
  454MPD2    C4 6815   1.138   1.627  15.684 -0.4663  0.1102 -0.1504
  454MPD2    C5 6816   1.215   1.513  15.679  0.5932 -0.7975  0.3769
  454MPD2     H 6817   0.911   1.519  15.449 -0.2639  0.2099  0.6333
  454MPD2    H1 6818   1.163   1.702  15.757  0.7496 -0.3140 -0.1330
  454MPD2    H2 6819   1.228   1.314  15.626  0.6408  0.2691 -2.3212
  454MPD2    H3 6820   1.307   1.517  15.737 -0.5690  1.3817  2.0487
  454MPD2     N 6821   0.954   1.760  15.605  0.0491  0.3504  0.0956
  454MPD2    H5 6822   0.967   1.816  15.688 -0.0843 -0.2332  0.5168
  454MPD2    N1 6823   1.012   1.308  15.448  0.6647  0.1556 -0.0282
  454MPD2    H7 6824   0.929   1.321  15.390 -1.0029 -0.5800  2.1755
  455TMC3    C1 6825   0.749   1.860  15.590 -1.5072 -0.2518 -0.1454
  455TMC3    C2 6826   0.783   1.935  15.700  0.9845 -0.0691  0.2941
  455TMC3    C3 6827   0.702   1.909  15.812  0.3707  0.6634  0.5493
  455TMC3    C4 6828   0.650   1.764  15.590  0.1595 -0.3088  0.1801
  455TMC3    C5 6829   0.572   1.748  15.700 -0.0350  0.4726 -0.2308
  455TMC3    C6 6830   0.602   1.813  15.810 -0.2242  0.7538 -0.2154
  455TMC3     C 6831   0.857   1.796  15.519 -0.1876  0.2883 -0.2774
  455TMC3     O 6832   0.829   1.749  15.410 -0.3498 -0.5090 -0.3449
  455TMC3     H 6833   0.873   1.995  15.708  1.2540 -0.1955 -1.7157
  455TMC3    H1 6834   0.622   1.694  15.512 -0.1823  0.4169 -0.3577
  455TMC3    H2 6835   0.551   1.789  15.903 -1.9074  0.9851 -1.0920
  455TMC3    C7 6836   0.546   1.609  15.719 -0.0817 -0.5265  0.5990
  455TMC3    C8 6837   0.750   1.977  15.938 -0.2484 -0.0972 -0.7675
  455TMC3    O1 6838   0.434   1.578  15.746  0.1228  0.1257  0.9355
  455TMC3    O2 6839   0.857   2.030  15.933  0.4018 -0.2937  0.2941
  456MPD2     C 6840   3.104   1.625  15.859 -0.1167 -0.6598 -0.1003
  456MPD2    C1 6841   3.209   1.557  15.918 -0.3418 -0.1431 -0.3923
  456MPD2    C2 6842   3.237   1.590  16.045  0.9748 -0.0316 -0.8194
  456MPD2    C3 6843   3.150   1.665  16.125 -0.0206  0.0089  0.2039
  456MPD2    C4 6844   3.049   1.734  16.063 -0.2285  0.2250  0.3835
  456MPD2    C5 6845   3.030   1.717  15.926  0.2457 -0.3707 -0.4426
  456MPD2     H 6846   3.320   1.540  16.093  0.0272  0.5216  1.4024
  456MPD2    H1 6847   2.986   1.811  16.106 -0.7075  0.3287 -0.5076
  456MPD2    H2 6848   3.081   1.620  15.753  0.9467 -0.4363 -0.3380
  456MPD2    H3 6849   2.952   1.771  15.874  0.1776  1.5555  1.6649
  456MPD2     N 6850   3.189   1.686  16.260 -0.0017  0.0929 -0.2271
  456MPD2    H5 6851   3.274   1.639  16.289  0.6958  1.7502  0.4196
  456MPD2    N1 6852   3.291   1.482  15.829  0.1257 -0.0437  0.5733
  456MPD2    H7 6853   3.270   1.494  15.730 -0.9928  1.9243  1.0468
  457TMC3    C1 6854   3.165   1.745  16.494 -0.0120  0.1960  0.2637
  457TMC3    C2 6855   3.094   1.814  16.592 -0.2567 -0.9206 -0.5307
  457TMC3    C3 6856   3.127   1.804  16.723 -0.8038 -0.7105  0.5317
  457TMC3    C4 6857   3.280   1.668  16.529 -0.1295  0.2063 -0.0158
  457TMC3    C5 6858   3.305   1.658  16.663  0.0410  0.4620  0.2893
  457TMC3    C6 6859   3.231   1.726  16.755 -0.8551 -0.4225 -0.7722
  457TMC3     C 6860   3.114   1.751  16.356 -0.1637  0.4834 -0.7616
  457TMC3     O 6861   3.003   1.804  16.338  0.2132 -0.2933 -0.0248
  457TMC3     H 6862   3.020   1.884  16.556  0.6449  0.6132  0.5771
  457TMC3    H1 6863   3.343   1.615  16.458  1.7470  0.7456  1.2259
  457TMC3    H2 6864   3.270   1.713  16.856 -0.2380  1.1136 -0.8078
  457TMC3    C7 6865   3.446   1.642  16.710 -0.4461  0.2823 -0.3104
  457TMC3    C8 6866   3.101   1.913  16.812 -0.5804  0.6730  0.3358
  457TMC3    O1 6867   3.464   1.550  16.786  0.4031 -0.6442 -0.4537
  457TMC3    O2 6868   3.173   1.912  16.907  0.0045 -0.2991 -0.2795
  458MPD2     C 6869   1.669   1.137  12.667  0.1717 -0.0846 -0.1543
  458MPD2    C1 6870   1.584   1.040  12.711  0.2869 -0.0732 -0.4416
  458MPD2    C2 6871   1.448   1.072  12.712  0.0442  0.3106  0.0213
  458MPD2    C3 6872   1.404   1.191  12.666  0.0750 -0.2382  0.9344
  458MPD2    C4 6873   1.494   1.289  12.621  0.3142  0.1401 -0.1344
  458MPD2    C5 6874   1.627   1.258  12.621 -0.5542 -0.0261 -0.6527
  458MPD2     H 6875   1.380   0.994  12.744  2.0066 -1.1785  0.5547
  458MPD2    H1 6876   1.458   1.384  12.582 -1.7261 -0.6907 -0.2626
  458MPD2    H2 6877   1.776   1.121  12.668 -0.2824 -3.2752  0.1185
  458MPD2    H3 6878   1.700   1.333  12.590 -0.6914 -0.4825 -2.0771
  458MPD2     N 6879   1.265   1.215  12.680  0.3942 -0.6173 -0.4717
  458MPD2    H5 6880   1.217   1.128  12.700  0.1166 -0.4793 -0.5336
  458MPD2    N1 6881   1.643   0.920  12.748 -0.0639 -0.1716  0.8105
  458MPD2    H7 6882   1.745   0.921  12.740 -0.1172 -5.0501 -0.8512
  459TMC3    C1 6883   1.661   0.717  12.879  0.0907 -0.8317 -0.4525
  459TMC3    C2 6884   1.779   0.677  12.825 -0.5172 -0.2115  0.4377
  459TMC3    C3 6885   1.844   0.568  12.879  0.0704 -0.1912  0.1086
  459TMC3    C4 6886   1.618   0.661  13.000 -0.1764 -1.3107 -0.0688
  459TMC3    C5 6887   1.683   0.549  13.050  0.2995 -0.6835  0.9450
  459TMC3    C6 6888   1.793   0.501  12.985 -0.1501 -0.6896  0.0509
  459TMC3     C 6889   1.579   0.817  12.819 -0.0625 -0.7399  0.7549
  459TMC3     O 6890   1.459   0.819  12.847  0.0450  0.2949  0.4306
  459TMC3     H 6891   1.823   0.727  12.740 -1.7436  1.1095  0.5795
  459TMC3    H1 6892   1.536   0.706  13.053 -0.0013 -2.2787  1.0325
  459TMC3    H2 6893   1.838   0.406  13.014 -0.2477 -0.6370  0.3773
  459TMC3    C7 6894   1.654   0.490  13.183 -0.2492  0.0466 -0.0661
  459TMC3    C8 6895   1.988   0.578  12.856 -0.7590  0.5580  0.6280
  459TMC3    O1 6896   1.719   0.398  13.222 -0.3804  0.6738 -0.7187
  459TMC3    O2 6897   2.025   0.656  12.770 -0.0671 -0.1539  0.3412
  460MPD2     C 6898   1.098   3.474  10.681 -0.4420  0.6367 -0.0732
  460MPD2    C1 6899   0.983   3.406  10.703 -0.4131 -0.1123  0.4861
  460MPD2    C2 6900   0.892   3.388  10.601 -0.1302 -0.8454  0.5656
  460MPD2    C3 6901   0.911   3.452  10.482 -0.5022 -0.6325  0.3189
  460MPD2    C4 6902   1.037   3.502  10.450  0.6393 -0.6673 -0.0631
  460MPD2    C5 6903   1.127   3.514  10.553 -0.1178  0.7611 -0.2352
  460MPD2     H 6904   0.795   3.342  10.615 -0.5658  0.1248  0.7691
  460MPD2    H1 6905   1.068   3.542  10.355  0.6413 -1.1409 -0.2596
  460MPD2    H2 6906   1.172   3.505  10.753  2.0133  1.7778 -3.0974
  460MPD2    H3 6907   1.215   3.575  10.538 -0.7376  1.3247 -1.5295
  460MPD2     N 6908   0.806   3.456  10.393  0.0951  0.2934  0.4113
  460MPD2    H5 6909   0.723   3.399  10.408  0.3690 -0.3238 -0.3755
  460MPD2    N1 6910   0.956   3.365  10.835 -0.0975  0.4439 -0.3421
  460MPD2    H7 6911   1.016   3.408  10.904  0.0527 -0.5619  0.1521
  461TMC3    C1 6912   0.685   3.555  10.208 -0.2750  0.3450 -0.7416
  461TMC3    C2 6913   0.618   3.434  10.183 -0.2639  0.0381 -0.1443
  461TMC3    C3 6914   0.555   3.417  10.062  0.6818  0.2227 -0.3307
  461TMC3    C4 6915   0.673   3.658  10.120  0.0369 -0.2420 -0.4303
  461TMC3    C5 6916   0.607   3.639  10.003 -0.4413  0.4571 -0.4370
  461TMC3    C6 6917   0.556   3.520   9.974  0.0053 -0.1205  0.2475
  461TMC3     C 6918   0.802   3.555  10.294  1.0348  0.5821 -0.0659
  461TMC3     O 6919   0.887   3.633  10.252 -0.1246 -0.4576 -0.5528
  461TMC3     H 6920   0.645   3.346  10.240  0.3312  2.1245  2.7787
  461TMC3    H1 6921   0.733   3.747  10.135 -0.8600  0.0588  1.4232
  461TMC3    H2 6922   0.536   3.500   9.869 -3.1391  0.3068  0.7826
  461TMC3    C7 6923   0.534   3.759   9.957  0.3262 -0.2145  0.8249
  461TMC3    C8 6924   0.494   3.292  10.033 -0.3519  0.2725 -0.4802
  461TMC3    O1 6925   0.485   3.757   9.846 -0.3782 -0.2496  0.4844
  461TMC3    O2 6926   0.543   3.199  10.095 -0.4170 -0.0704  0.2166
  462TMC3    C1 6927   1.372   4.186   0.200 -0.4352 -0.1427  0.6524
  462TMC3    C2 6928   1.464   4.088   0.174  0.9484 -0.7567  0.2528
  462TMC3    C3 6929   1.419   3.964   0.139  0.4848  0.5125 -0.1848
  462TMC3    C4 6930   1.235   4.173   0.186 -0.6853  0.0002  0.0209
  462TMC3    C5 6931   1.207   4.046   0.148  0.3012  0.3391  0.3899
  462TMC3    C6 6932   1.289   3.948   0.117 -0.9613 -0.4449  0.3758
  462TMC3     C 6933   1.417   4.301   0.276  0.0745 -0.6036  0.5055
  462TMC3     O 6934   1.337   4.383   0.318  0.2971 -0.0709  0.0204
  462TMC3     H 6935   1.570   4.107   0.191  0.9866  0.1511 -1.0255
  462TMC3    H1 6936   1.163   4.248   0.216 -0.4452 -0.4307  1.6708
  462TMC3    H2 6937   1.258   3.844   0.105  1.7997 -1.2822  0.3950
  462TMC3    C7 6938   1.064   4.008   0.150  0.5370  0.1849 -0.3026
  462TMC3    C8 6939   1.516   3.864   0.100  0.1993  0.3929  0.1880
  462TMC3    O1 6940   1.042   3.891   0.123  0.0540  0.2626  0.7275
  462TMC3    O2 6941   1.615   3.838   0.171  0.0649 -0.4595  0.2579
  463MPD2     C 6942   2.784   2.121   1.696 -0.1887 -0.7467  0.1965
  463MPD2    C1 6943   2.668   2.190   1.733 -0.4688  0.1308  0.1712
  463MPD2    C2 6944   2.680   2.295   1.821 -0.5403 -0.3867 -0.4282
  463MPD2    C3 6945   2.804   2.328   1.881  0.2001 -0.1490 -0.3475
  463MPD2    C4 6946   2.922   2.256   1.843 -0.0580 -0.2135  0.4069
  463MPD2    C5 6947   2.908   2.155   1.747 -0.3178 -0.1782 -0.5613
  463MPD2     H 6948   2.595   2.354   1.853  1.1453  0.9204  1.7301
  463MPD2    H1 6949   3.022   2.282   1.876  0.0923 -0.2154 -0.0379
  463MPD2    H2 6950   2.783   2.047   1.617  0.9301 -1.1935  0.6031
  463MPD2    H3 6951   2.987   2.096   1.703 -0.9706 -0.9293 -0.7320
  463MPD2     N 6952   2.823   2.440   1.961 -0.2089 -0.2014  0.2469
  463MPD2    H5 6953   2.917   2.461   1.992 -0.3476  0.7527  0.0301
  463MPD2    N1 6954   2.535   2.162   1.680 -0.4982 -0.4003 -1.1266
  463MPD2    H7 6955   2.458   2.225   1.698 -1.1004 -0.5265 -3.3517
  464TMC3    C1 6956   2.374   2.061   1.539  0.3297 -0.3168 -1.1255
  464TMC3    C2 6957   2.297   2.175   1.546 -0.1444 -0.2667  0.3985
  464TMC3    C3 6958   2.161   2.161   1.541  0.4319 -0.3973 -0.3862
  464TMC3    C4 6959   2.319   1.937   1.501  0.0966  0.0127  0.8242
  464TMC3    C5 6960   2.183   1.930   1.490  0.6934 -0.3856  0.4718
  464TMC3    C6 6961   2.099   2.039   1.512 -0.0863  0.2690  0.0015
  464TMC3     C 6962   2.509   2.061   1.594  0.2212 -0.4896  0.1492
  464TMC3     O 6963   2.578   1.961   1.574 -0.1243  0.2721 -0.6337
  464TMC3     H 6964   2.334   2.277   1.549  0.6247 -0.5924  2.3246
  464TMC3    H1 6965   2.376   1.845   1.499 -0.0553 -0.0469 -0.8116
  464TMC3    H2 6966   1.991   2.036   1.505 -0.1731  0.2969  1.2614
  464TMC3    C7 6967   2.134   1.800   1.465  0.2221 -0.5968  0.7778
  464TMC3    C8 6968   2.075   2.275   1.530 -0.5447  0.4145  0.0239
  464TMC3    O1 6969   2.203   1.706   1.489  0.4577  0.3015 -0.5709
  464TMC3    O2 6970   1.964   2.272   1.482 -0.2142  0.0560 -0.1794
  465MPD2     C 6971   2.954   1.276  15.907 -0.6388 -1.1480 -0.5097
  465MPD2    C1 6972   2.894   1.286  16.029 -0.2784 -0.3426 -0.5188
  465MPD2    C2 6973   2.783   1.367  16.041  0.2455  0.1400  0.0724
  465MPD2    C3 6974   2.720   1.423  15.934 -0.1279 -1.0078  0.5447
  465MPD2    C4 6975   2.783   1.422  15.813  0.0354  0.2161  0.8712
  465MPD2    C5 6976   2.902   1.354  15.805 -0.2563 -0.0174 -0.2927
  465MPD2     H 6977   2.726   1.383  16.132  0.2980 -0.2428  0.1733
  465MPD2    H1 6978   2.735   1.463  15.725  2.0029  0.7560  0.0467
  465MPD2    H2 6979   3.049   1.225  15.896 -1.2662 -2.0247 -1.8122
  465MPD2    H3 6980   2.955   1.348  15.711 -2.5920 -1.1762 -1.5420
  465MPD2     N 6981   2.594   1.486  15.954 -0.0566 -0.0722 -0.0804
  465MPD2    H5 6982   2.543   1.455  16.036  0.2028  0.4063  0.2617
  465MPD2    N1 6983   2.950   1.223  16.146  0.3983 -0.5896  0.4512
  465MPD2    H7 6984   2.911   1.264  16.230 -1.6242  1.7960 -1.6661
  466TMC3    C1 6985   2.222   1.560  16.032 -1.0606 -0.3960  0.5147
  466TMC3    C2 6986   2.165   1.682  16.003 -0.4248  0.5253 -0.6860
  466TMC3    C3 6987   2.232   1.765  15.925  0.3081 -0.2174  0.0173
  466TMC3    C4 6988   2.342   1.521  15.987  0.5178 -0.4934 -0.2280
  466TMC3    C5 6989   2.407   1.619  15.929  0.2406  0.1214 -0.0407
  466TMC3    C6 6990   2.361   1.739  15.894 -0.0696  0.0385 -0.0987
  466TMC3     C 6991   2.184   1.507  16.155 -0.5625  0.1209 -0.0978
  466TMC3     O 6992   2.132   1.577  16.241 -0.0179 -0.4917  0.3817
  466TMC3     H 6993   2.064   1.706  16.032 -0.6920  1.3507 -2.3047
  466TMC3    H1 6994   2.374   1.420  16.008  0.9953 -0.2036  0.4092
  466TMC3    H2 6995   2.417   1.811  15.837  1.0108 -0.4551  0.3519
  466TMC3    C7 6996   2.531   1.575  15.865  0.2556 -0.2873  0.2559
  466TMC3    C8 6997   2.188   1.902  15.898  0.3283 -0.4127 -1.6028
  466TMC3    O1 6998   2.569   1.632  15.764  0.0979 -0.0467  0.1669
  466TMC3    O2 6999   2.226   1.949  15.792  0.5858 -0.5213 -0.0655
  467TMC3    C1 7000   3.458   4.666  13.690 -0.2748  0.4674  0.3088
  467TMC3    C2 7001   3.513   4.675  13.562  0.3998 -0.4089  0.2240
  467TMC3    C3 7002   3.437   4.715  13.460  0.2375  0.4324  0.3907
  467TMC3    C4 7003   3.326   4.698  13.714 -0.4366 -0.0917  0.3843
  467TMC3    C5 7004   3.251   4.721  13.601  0.2674 -0.2705 -0.0617
  467TMC3    C6 7005   3.303   4.738  13.482  0.1138  0.2252  0.6232
  467TMC3     C 7006   3.554   4.677  13.796 -0.3678  0.2263  0.0335
  467TMC3     O 7007   3.671   4.705  13.773 -0.3982  0.3414  0.5963
  467TMC3     H 7008   3.619   4.653  13.562  1.1149  2.9726 -2.9394
  467TMC3    H1 7009   3.279   4.685  13.811 -2.3670 -3.0459 -0.9570
  467TMC3    H2 7010   3.245   0.053  13.410 -1.2329  0.3670  1.8276
  467TMC3    C7 7011   3.106   0.005  13.604  1.0418 -1.5998  0.0335
  467TMC3    C8 7012   3.499   0.057  13.361  0.0211 -0.1777  0.6003
  467TMC3    O1 7013   3.044   4.730  13.497  1.0236 -0.4530 -0.6296
  467TMC3    O2 7014   3.442   0.149  13.299  0.1758 -0.8650 -0.1677
  468MPD2     C 7015   2.487   2.925  10.433 -0.2013  0.0426  0.1362
  468MPD2    C1 7016   2.530   2.929  10.561  0.1192 -0.0659  0.0426
  468MPD2    C2 7017   2.573   2.813  10.622 -0.3726  0.2321  0.4115
  468MPD2    C3 7018   2.586   2.692  10.553  0.0631 -0.2276 -0.0974
  468MPD2    C4 7019   2.544   2.689  10.422 -0.1277  0.1545 -0.1819
  468MPD2    C5 7020   2.492   2.804  10.366 -0.1913  0.0915  0.6597
  468MPD2     H 7021   2.591   2.814  10.728  0.6389 -0.9467  0.2455
  468MPD2    H1 7022   2.564   2.599  10.365 -0.3590  2.2145 -3.5275
  468MPD2    H2 7023   2.447   3.008  10.376 -0.8311  0.0270  0.5600
  468MPD2    H3 7024   2.469   2.806  10.260  1.6930  1.3575  0.2744
  468MPD2     N 7025   2.629   2.571  10.608  0.1053  0.9535  0.2746
  468MPD2    H5 7026   2.635   2.490  10.548 -0.1390  0.5486  0.7994
  468MPD2    N1 7027   2.531   3.051  10.638  0.7113  0.0402 -0.2689
  468MPD2    H7 7028   2.562   3.038  10.733  0.1153 -3.2418 -0.5263
  469TMC3    C1 7029   2.503   3.274  10.710  0.3828 -0.2145 -0.9253
  469TMC3    C2 7030   2.615   3.266  10.787  0.0203  0.0512  0.2856
  469TMC3    C3 7031   2.656   3.379  10.862 -0.4049  0.6515  0.0177
  469TMC3    C4 7032   2.452   3.406  10.693  0.1737 -0.1951 -1.0026
  469TMC3    C5 7033   2.491   3.511  10.777 -0.0289  0.0425  0.0541
  469TMC3    C6 7034   2.597   3.502  10.867 -0.4680 -0.8286 -0.3039
  469TMC3     C 7035   2.482   3.175  10.606  0.5192 -0.4393  0.3625
  469TMC3     O 7036   2.416   3.214  10.509 -0.2331 -0.0427  0.2915
  469TMC3     H 7037   2.677   3.178  10.792  0.0131  0.0243 -0.1107
  469TMC3    H1 7038   2.362   3.414  10.634 -0.8504 -2.8962  0.2130
  469TMC3    H2 7039   2.635   3.591  10.917 -1.3349 -0.4409 -0.3358
  469TMC3    C7 7040   2.448   3.636  10.737 -0.1620  0.6083  0.3242
  469TMC3    C8 7041   2.752   3.358  10.965  0.3689  0.5846  0.6413
  469TMC3    O1 7042   2.390   3.633  10.632 -0.0297 -0.0248 -0.3915
  469TMC3    O2 7043   2.738   3.422  11.069 -0.4542  0.4277  0.7751
  470TMC3    C1 7044   0.418   4.621   0.213 -0.2008  0.6942 -0.7802
  470TMC3    C2 7045   0.421   4.702   0.324 -0.1498  0.3289 -0.4099
  470TMC3    C3 7046   0.326   4.689   0.415  1.0560 -0.0837 -0.1257
  470TMC3    C4 7047   0.320   4.529   0.193  0.0993  0.2733 -0.6148
  470TMC3    C5 7048   0.218   4.514   0.291  0.7615  0.1713 -0.4774
  470TMC3    C6 7049   0.221   4.597   0.397 -0.1895  1.0666  0.5510
  470TMC3     C 7050   0.528   4.639   0.123  0.1808  0.7674 -0.6125
  470TMC3     O 7051   0.511   4.623   0.001  0.2959  0.0105 -0.2152
  470TMC3     H 7052   0.493   0.041   0.345  0.9889 -0.4989 -1.1980
  470TMC3    H1 7053   0.330   4.470   0.103  0.8966  1.3750 -1.2445
  470TMC3    H2 7054   0.141   4.587   0.470 -1.6607 -0.7753 -1.3232
  470TMC3    C7 7055   0.186   4.375   0.316 -0.1354  0.7622 -0.4811
  470TMC3    C8 7056   0.300   0.070   0.498 -0.6604 -0.3441  0.0234
  470TMC3    O1 7057   0.177   4.300   0.223 -0.0018  0.5883 -0.5086
  470TMC3    O2 7058   0.389   0.152   0.515  0.5983  0.6614  0.3853
  471MPD2     C 7059   0.918   0.744  16.411 -0.7144  0.1093 -0.1738
  471MPD2    C1 7060   0.913   0.611  16.403 -0.0510  0.3550  0.2289
  471MPD2    C2 7061   0.974   0.523  16.492 -0.0687  0.1264  0.7493
  471MPD2    C3 7062   1.046   0.574  16.595 -0.4123  0.5977  0.5318
  471MPD2    C4 7063   1.052   0.709  16.602 -0.3835  0.4583 -0.8127
  471MPD2    C5 7064   0.981   0.798  16.519 -0.0336  0.3682  0.1669
  471MPD2     H 7065   0.961   0.418  16.469  0.4589  0.3063 -0.3697
  471MPD2    H1 7066   1.104   0.745  16.690 -2.1396 -0.9813  0.8257
  471MPD2    H2 7067   0.866   0.807  16.340 -0.3310 -2.4974 -2.7629
  471MPD2    H3 7068   1.016   0.900  16.517  2.2895 -0.3870  1.0758
  471MPD2     N 7069   1.100   0.489  16.692  0.0288 -0.6982  0.5245
  471MPD2    H5 7070   1.149   0.530  16.771  1.7738  0.2373 -1.0570
  471MPD2    N1 7071   0.840   0.540  16.308  0.2693  0.0751  0.1910
  471MPD2    H7 7072   0.824   0.441  16.322  0.7116 -0.0782 -0.4058
  472TMC3    C1 7073   0.694   0.503  16.119 -0.7274  0.5856 -0.0055
  472TMC3    C2 7074   0.591   0.549  16.042  0.5544  0.2530 -0.4353
  472TMC3    C3 7075   0.522   0.461  15.973  0.9128 -0.0798  0.2758
  472TMC3    C4 7076   0.733   0.379  16.113 -0.7960 -0.4487  0.1760
  472TMC3    C5 7077   0.661   0.285  16.043 -0.4227 -0.4327  0.1323
  472TMC3    C6 7078   0.559   0.330  15.961  0.2160 -0.7225 -0.1815
  472TMC3     C 7079   0.756   0.599  16.210 -0.3273 -0.2922 -0.6350
  472TMC3     O 7080   0.721   0.714  16.188 -0.2588  0.5105 -0.3892
  472TMC3     H 7081   0.540   0.644  16.052 -1.4686 -1.0807  1.7073
  472TMC3    H1 7082   0.824   0.340  16.159 -1.0402  0.3837  1.3650
  472TMC3    H2 7083   0.487   0.260  15.923  1.3457 -2.7348  1.3623
  472TMC3    C7 7084   0.629   0.170  16.128  0.0133 -0.0498  0.0099
  472TMC3    C8 7085   0.379   0.472  15.998  0.2414  0.0039 -0.3662
  472TMC3    O1 7086   0.624   0.182  16.250 -0.3542  0.7354  0.1903
  472TMC3    O2 7087   0.336   0.498  16.110  0.2231  0.1619  0.0824
  473MPD2     C 7088   0.428   2.337  13.875 -0.5403 -0.5412  0.3844
  473MPD2    C1 7089   0.352   2.442  13.832  0.5547 -0.0315 -0.4340
  473MPD2    C2 7090   0.343   2.562  13.902  0.3893 -0.0673 -0.2306
  473MPD2    C3 7091   0.418   2.588  14.013  0.0501 -0.0084 -0.2864
  473MPD2    C4 7092   0.498   2.483  14.053 -0.4242  1.0733  0.1336
  473MPD2    C5 7093   0.505   2.362  13.987 -0.2368 -0.4230  0.0943
  473MPD2     H 7094   0.284   2.640  13.856  2.5985  0.7732 -1.6207
  473MPD2    H1 7095   0.553   2.490  14.146  0.5873 -1.6832 -0.2502
  473MPD2    H2 7096   0.426   2.237  13.833 -0.2187 -0.9258  1.2749
  473MPD2    H3 7097   0.565   2.277  14.018  0.8445 -0.0266 -0.8913
  473MPD2     N 7098   0.430   2.716  14.078 -0.3052 -0.1127  0.0956
  473MPD2    H5 7099   0.492   2.713  14.159 -1.2027 -0.8226  0.7420
  473MPD2    N1 7100   0.266   2.437  13.719 -0.1454  0.3489  0.0908
  473MPD2    H7 7101   0.216   2.521  13.691  0.3749 -0.1491 -2.2495
  474TMC3    C1 7102   0.422   2.950  14.117 -0.5297  0.1745  0.0096
  474TMC3    C2 7103   0.364   3.071  14.089  0.6599  0.2830  0.1416
  474TMC3    C3 7104   0.420   3.189  14.132  0.0339 -0.4615  0.7131
  474TMC3    C4 7105   0.547   2.947  14.178  0.1894  0.9213  0.3872
  474TMC3    C5 7106   0.592   3.064  14.227 -0.4556 -1.0823  0.1464
  474TMC3    C6 7107   0.530   3.185  14.214 -0.9494  0.3941 -0.4556
  474TMC3     C 7108   0.380   2.837  14.034  0.5675 -0.1363 -0.0453
  474TMC3     O 7109   0.320   2.862  13.931  0.4280  0.0865 -0.5072
  474TMC3     H 7110   0.279   3.068  14.021  0.2578  3.3187  0.5170
  474TMC3    H1 7111   0.622   2.868  14.174 -0.2246  0.5356  0.3082
  474TMC3    H2 7112   0.567   3.278  14.257  0.6068  0.2709 -1.5198
  474TMC3    C7 7113   0.717   3.059  14.294  0.7525 -0.0745  0.5771
  474TMC3    C8 7114   0.370   3.316  14.088 -0.1047  0.1714 -0.0931
  474TMC3    O1 7115   0.805   2.989  14.247  1.0540 -0.0583  0.1701
  474TMC3    O2 7116   0.442   3.411  14.114 -0.0693 -0.2406 -0.0290
  475MPD2     C 7117   3.916   0.545  10.184 -0.2239 -0.7783 -0.0912
  475MPD2    C1 7118   3.860   0.670  10.184 -0.5187  0.4845  0.2842
  475MPD2    C2 7119   3.788   0.724  10.288  0.1765 -1.1055 -0.5159
  475MPD2    C3 7120   3.765   0.646  10.396  0.0299  0.4999 -0.0856
  475MPD2    C4 7121   3.809   0.511  10.399  0.5870  0.1199 -0.1087
  475MPD2    C5 7122   3.897   0.470  10.301 -0.0067  0.0363  0.3924
  475MPD2     H 7123   3.754   0.827  10.297  0.9805 -0.6897 -2.1021
  475MPD2    H1 7124   3.794   0.451  10.487 -0.5194  0.9418  0.2581
  475MPD2    H2 7125   3.979   0.502  10.107 -1.5806  1.0461 -2.2253
  475MPD2    H3 7126   3.941   0.371  10.312  1.1519  0.5122  0.0034
  475MPD2     N 7127   3.691   0.705  10.502 -0.4017  0.6454 -0.4325
  475MPD2    H5 7128   3.671   0.804  10.492 -0.3480  0.5379 -1.6465
  475MPD2    N1 7129   3.908   0.755  10.081  0.0912  0.0151 -0.2803
  475MPD2    H7 7130   3.975   0.712  10.020  2.1629  1.9589  0.6246
  476TMC3    C1 7131   3.923   0.970   9.986 -0.3387  0.1331  0.2561
  476TMC3    C2 7132   3.843   1.073   9.958  0.1826 -0.2671  0.2796
  476TMC3    C3 7133   3.868   1.204  10.004  0.0956  0.1483 -0.2213
  476TMC3    C4 7134   4.035   0.985  10.061 -0.0657  0.1245  0.5342
  476TMC3    C5 7135   4.065   1.115  10.097  0.3073 -0.1946 -0.2411
  476TMC3    C6 7136   3.995   1.224  10.059  0.0153  0.6824 -0.2094
  476TMC3     C 7137   3.842   0.876  10.045 -0.5676  0.5074 -0.0821
  476TMC3     O 7138   3.725   0.911  10.075 -0.0237 -0.0875 -0.0377
  476TMC3     H 7139   3.759   1.047   9.896 -0.0622  2.1106 -0.3869
  476TMC3    H1 7140   4.107   0.904  10.069  1.2696  1.1872 -0.8362
  476TMC3    H2 7141   4.021   1.327  10.083  1.7248  0.3918 -0.8420
  476TMC3    C7 7142   4.200   1.138  10.135  0.0657 -0.4637  0.0064
  476TMC3    C8 7143   3.755   1.284  10.057 -0.6711 -0.4329 -0.2879
  476TMC3    O1 7144   4.282   1.049  10.112  0.6566  0.7639  0.3727
  476TMC3    O2 7145   3.776   1.393  10.105 -0.4659 -0.2437 -0.0675
  477MPD2     C 7146   1.560   2.624  11.936  0.1402 -0.1243  0.9057
  477MPD2    C1 7147   1.443   2.561  11.894 -0.1012  0.0062  0.2235
  477MPD2    C2 7148   1.398   2.447  11.964  0.4121 -0.1293  0.0718
  477MPD2    C3 7149   1.457   2.410  12.086  0.2706 -0.3924  0.0266
  477MPD2    C4 7150   1.564   2.490  12.128  0.2578 -0.0797 -0.2378
  477MPD2    C5 7151   1.623   2.590  12.049 -0.3794 -1.1701 -0.1807
  477MPD2     H 7152   1.315   2.383  11.936 -0.2045  0.2112  1.1233
  477MPD2    H1 7153   1.620   2.466  12.218 -3.2056  0.0282  1.9507
  477MPD2    H2 7154   1.594   2.713  11.885 -2.0866 -0.4243 -1.1036
  477MPD2    H3 7155   1.711   2.644  12.083 -2.2241  0.4126  2.1219
  477MPD2     N 7156   1.418   2.298  12.156 -0.1552 -0.0390 -0.5364
  477MPD2    H5 7157   1.349   2.236  12.115  2.4458 -0.9381 -3.5730
  477MPD2    N1 7158   1.363   2.611  11.789  0.1775  0.3242 -0.2859
  477MPD2    H7 7159   1.390   2.706  11.764  0.5355  0.0120 -1.0815
  478TMC3    C1 7160   1.219   2.641  11.615  0.0355  0.4811 -0.9986
  478TMC3    C2 7161   1.173   2.760  11.666  0.8924 -0.2611  0.5903
  478TMC3    C3 7162   1.059   2.812  11.611  0.0724  0.1021 -0.3758
  478TMC3    C4 7163   1.161   2.589  11.504 -0.6842  0.2786  0.5373
  478TMC3    C5 7164   1.060   2.652  11.433  1.1896  0.0600 -0.2015
  478TMC3    C6 7165   1.002   2.760  11.497  0.5507  0.6471 -0.1950
  478TMC3     C 7166   1.268   2.549  11.716  0.1426  0.4596 -0.4026
  478TMC3     O 7167   1.245   2.431  11.699  0.2644 -0.2667  0.3383
  478TMC3     H 7168   1.220   2.814  11.748  0.3755 -0.5161  1.0554
  478TMC3    H1 7169   1.197   2.488  11.488 -1.1936  0.2061 -0.1286
  478TMC3    H2 7170   0.906   2.795  11.463 -0.2386 -0.4370  0.8977
  478TMC3    C7 7171   0.985   2.574  11.340  0.0953 -0.2703 -0.2767
  478TMC3    C8 7172   0.993   2.925  11.679 -0.1758 -0.6843  0.4996
  478TMC3    O1 7173   1.042   2.465  11.330  0.0294 -0.4054 -0.4268
  478TMC3    O2 7174   1.056   2.958  11.777 -0.2937 -0.3822  0.0131
  479MPD2     C 7175   0.181   4.506  15.160 -0.7036 -0.6857  0.3239
  479MPD2    C1 7176   0.120   4.489  15.282  0.3764 -0.2575 -0.2272
  479MPD2    C2 7177   0.170   4.550  15.399  0.5552 -0.4081 -0.1840
  479MPD2    C3 7178   0.273   4.654  15.385  0.3042 -0.7488  0.5374
  479MPD2    C4 7179   0.332   4.662  15.261 -0.2790  0.3033  0.2485
  479MPD2    C5 7180   0.284   4.596  15.143  0.1619 -0.2726 -0.4087
  479MPD2     H 7181   0.128   4.529  15.496  0.5307  0.3117 -0.0354
  479MPD2    H1 7182   0.427   4.711  15.243 -0.3018  0.2561 -0.0072
  479MPD2    H2 7183   0.152   4.443  15.078 -1.4479  2.4418 -1.8122
  479MPD2    H3 7184   0.332   4.611  15.047  0.9029 -0.0638 -0.0053
  479MPD2     N 7185   0.326   0.004  15.481 -0.6872 -0.5634 -0.1093
  479MPD2    H5 7186   0.419   0.037  15.456 -1.7425  2.6623  0.2497
  479MPD2    N1 7187   0.009   4.403  15.288  0.3001 -0.1561  0.2009
  479MPD2    H7 7188   4.727   4.342  15.210 -0.7108 -0.9283  1.0840
  480TMC3    C1 7189   4.731   4.662  15.798 -0.1193  0.4208 -0.1208
  480TMC3    C2 7190   4.631   4.677  15.715  0.5412  0.1439  0.2618
  480TMC3    C3 7191   4.654   4.734  15.596  0.3655  0.5233 -1.6259
  480TMC3    C4 7192   0.118   4.705  15.765 -0.6670  0.7446 -0.4695
  480TMC3    C5 7193   0.141   0.001  15.637 -0.2460 -0.4718 -0.2341
  480TMC3    C6 7194   0.042   0.028  15.551  0.0455  0.0780  0.6066
  480TMC3     C 7195   4.723   4.575  15.916 -0.7373 -0.5226 -0.2657
  480TMC3     O 7196   0.077   4.557  15.992 -0.9080  0.0931  0.0147
  480TMC3     H 7197   4.529   4.656  15.743  0.6124 -0.9215 -0.2505
  480TMC3    H1 7198   0.200   4.673  15.829 -0.3797  0.3356 -1.0445
  480TMC3    H2 7199   0.062   0.089  15.463 -0.5531  0.9655  1.0886
  480TMC3    C7 7200   0.276   0.038  15.601 -0.2388  0.4157  0.3896
  480TMC3    C8 7201   4.553   4.703  15.495 -0.2115 -0.0093 -0.1163
  480TMC3    O1 7202   0.342   0.100  15.682  0.0712  0.1001  0.6235
  480TMC3    O2 7203   4.450   4.663  15.539  0.4472 -0.6550 -0.1646
  481MPD2     C 7204   1.776   4.144  14.092 -0.2131 -0.3597 -0.2915
  481MPD2    C1 7205   1.654   4.096  14.119  0.3872 -0.2041 -0.5110
  481MPD2    C2 7206   1.620   4.064  14.253  1.4227 -0.2508 -0.0869
  481MPD2    C3 7207   1.715   4.096  14.356  0.2143  0.1296 -0.5343
  481MPD2    C4 7208   1.843   4.140  14.318  0.7097  0.1288 -0.0179
  481MPD2    C5 7209   1.869   4.177  14.187 -0.1289 -0.2550  0.2317
  481MPD2     H 7210   1.522   4.027  14.283  0.6745  0.7558 -1.2793
  481MPD2    H1 7211   1.926   4.159  14.386  1.5651  0.9291 -1.2880
  481MPD2    H2 7212   1.806   4.177  13.993 -0.8240  0.5757 -0.1650
  481MPD2    H3 7213   1.967   4.218  14.166 -0.5945  0.5289 -0.4092
  481MPD2     N 7214   1.685   4.086  14.494 -0.0255  0.3716 -0.3510
  481MPD2    H5 7215   1.752   4.130  14.557  1.8410 -0.3595 -1.8176
  481MPD2    N1 7216   1.568   4.079  14.009  0.2167 -0.0622 -0.3618
  481MPD2    H7 7217   1.604   4.104  13.918  0.6060  0.7760  0.0179
  482TMC3    C1 7218   1.383   4.042  13.885  0.0961  0.0707 -0.6909
  482TMC3    C2 7219   1.279   3.953  13.854  0.6943  0.7518  1.1902
  482TMC3    C3 7220   1.208   3.980  13.743  0.5712 -0.0473 -0.1670
  482TMC3    C4 7221   1.413   4.149  13.813 -0.0775  0.1066 -0.3855
  482TMC3    C5 7222   1.344   4.170  13.697 -0.2152  0.1735 -0.0737
  482TMC3    C6 7223   1.239   4.092  13.665 -0.2784  0.0626 -0.5102
  482TMC3     C 7224   1.444   4.031  14.017 -0.5586  0.0637  0.5332
  482TMC3     O 7225   1.380   3.982  14.111 -0.3437  0.4544 -0.4127
  482TMC3     H 7226   1.260   3.863  13.912 -1.0267  1.8635  2.3501
  482TMC3    H1 7227   1.491   4.221  13.836 -0.8433  1.2988 -1.5754
  482TMC3    H2 7228   1.180   4.131  13.582  1.9011 -2.1208 -3.0516
  482TMC3    C7 7229   1.335   4.307  13.659 -0.1720  0.1193 -0.1403
  482TMC3    C8 7230   1.130   3.869  13.688 -1.0274  0.1926 -0.1450
  482TMC3    O1 7231   1.316   4.389  13.746 -0.0574 -1.1614  0.5017
  482TMC3    O2 7232   1.154   3.760  13.739  0.7058 -0.1941 -0.0392
  483TMC3    C1 7233   4.694   2.704   0.721  0.3165  0.1035 -0.2716
  483TMC3    C2 7234   0.032   2.784   0.642 -0.8779  0.0872 -0.2554
  483TMC3    C3 7235   0.167   2.797   0.666 -0.7087  0.4072  0.1188
  483TMC3    C4 7236   0.002   2.613   0.812 -0.1848  0.4587 -0.1914
  483TMC3    C5 7237   0.139   2.613   0.827 -0.0131 -0.4118 -0.7926
  483TMC3    C6 7238   0.222   2.710   0.765  0.1165  0.0274 -0.6791
  483TMC3     C 7239   4.552   2.703   0.685  0.1491  0.0487 -0.9365
  483TMC3     O 7240   4.506   2.782   0.601  0.0234 -0.2247 -0.0305
  483TMC3     H 7241   4.724   2.845   0.566  0.0680 -0.8172 -1.5947
  483TMC3    H1 7242   4.672   2.571   0.884 -0.2626  0.3461 -0.3343
  483TMC3    H2 7243   0.331   2.707   0.766  0.1460  0.6835 -2.2166
  483TMC3    C7 7244   0.203   2.510   0.917 -0.2532 -0.3223  0.2985
  483TMC3    C8 7245   0.218   2.923   0.624 -0.5386  0.1509 -0.7109
  483TMC3    O1 7246   0.325   2.503   0.915  0.4178 -0.1291  0.0266
  483TMC3    O2 7247   0.144   2.995   0.560 -0.4213  0.4837  0.1074
  484MPD2     C 7248   2.251   0.473  13.093 -0.2209  0.4888  0.4981
  484MPD2    C1 7249   2.203   0.520  12.973  0.4257 -0.2520 -0.5596
  484MPD2    C2 7250   2.290   0.589  12.891  0.0355  0.5452 -0.4353
  484MPD2    C3 7251   2.422   0.608  12.932  0.3043  0.0923 -0.8477
  484MPD2    C4 7252   2.469   0.566  13.058  0.3843 -0.1191  0.6274
  484MPD2    C5 7253   2.380   0.495  13.135 -0.1921 -0.2610  0.1146
  484MPD2     H 7254   2.258   0.627  12.795 -0.8945 -1.3257 -0.8607
  484MPD2    H1 7255   2.572   0.573  13.090  0.7406 -0.0652 -0.5434
  484MPD2    H2 7256   2.178   0.427  13.159  0.4902 -1.5810 -0.1570
  484MPD2    H3 7257   2.407   0.471  13.237 -0.8169  3.0925  1.0673
  484MPD2     N 7258   2.525   0.665  12.853  0.2964 -0.9704 -0.0044
  484MPD2    H5 7259   2.618   0.664  12.894 -0.8016 -0.4667  2.5424
  484MPD2    N1 7260   2.066   0.502  12.944  0.9388 -0.4462  0.1025
  484MPD2    H7 7261   2.017   0.438  13.006 -2.5968  0.5625 -1.6369
  485TMC3    C1 7262   2.639   0.748  12.658 -0.1080 -0.6308  0.5961
  485TMC3    C2 7263   2.759   0.752  12.726 -0.4981 -0.1862  0.6486
  485TMC3    C3 7264   2.853   0.836  12.674  0.5764 -0.0561  0.3237
  485TMC3    C4 7265   2.625   0.808  12.536  0.6943  0.7346 -0.0299
  485TMC3    C5 7266   2.725   0.880  12.485  0.2802  0.8528 -0.0465
  485TMC3    C6 7267   2.834   0.910  12.555 -0.1407 -0.6912 -0.1842
  485TMC3     C 7268   2.515   0.703  12.723 -0.2148 -0.8236 -0.5927
  485TMC3     O 7269   2.406   0.728  12.668 -0.1437 -0.1048  0.2019
  485TMC3     H 7270   2.775   0.709  12.825  0.5864  1.8834  1.3680
  485TMC3    H1 7271   2.531   0.791  12.484  1.1538 -0.6058 -0.4210
  485TMC3    H2 7272   2.916   0.966  12.511 -1.8304  2.4622  0.7059
  485TMC3    C7 7273   2.768   0.832  12.358  0.3401 -0.4526 -0.3334
  485TMC3    C8 7274   2.993   0.789  12.683 -0.6105  0.0624 -0.2049
  485TMC3    O1 7275   2.800   0.716  12.353 -0.1209  0.6713 -0.1717
  485TMC3    O2 7276   3.076   0.854  12.624  0.0240 -0.4548  0.1898
  486MPD2     C 7277   4.563   4.613  13.040 -0.0798 -0.1873  0.2963
  486MPD2    C1 7278   4.475   4.567  12.943 -0.1544 -0.1651  0.0700
  486MPD2    C2 7279   4.394   4.654  12.873  0.3190  0.2301  0.1628
  486MPD2    C3 7280   4.389   0.050  12.903  0.2850  0.7602 -0.2716
  486MPD2    C4 7281   4.467   0.089  13.012  0.0444  0.1188 -0.6433
  486MPD2    C5 7282   4.556   0.002  13.072  0.7566  0.0673 -0.2717
  486MPD2     H 7283   4.338   4.620  12.786  0.2207 -2.7873  1.3881
  486MPD2    H1 7284   4.466   0.187  13.059  0.8861  0.4826 -1.3827
  486MPD2    H2 7285   4.629   4.553  13.102 -1.1598 -1.4624  0.2287
  486MPD2    H3 7286   4.624   0.051  13.141 -0.6434 -0.4559  1.4851
  486MPD2     N 7287   4.299   0.133  12.832 -0.0442 -0.1887 -0.6733
  486MPD2    H5 7288   4.261   0.089  12.749 -2.7121  1.8980 -0.5748
  486MPD2    N1 7289   4.470   4.425  12.933  0.6591 -0.6852 -0.0620
  486MPD2    H7 7290   4.509   4.375  13.012  1.5415  0.3312  0.1375
  487TMC3    C1 7291   4.403   4.219  12.851  0.0448  0.3844  0.6179
  487TMC3    C2 7292   4.396   4.140  12.744  0.4498 -0.3825 -0.5057
  487TMC3    C3 7293   4.416   4.008  12.758  0.1871 -0.0558  0.4419
  487TMC3    C4 7294   4.429   4.155  12.977 -0.0648 -0.5763  0.8088
  487TMC3    C5 7295   4.456   4.026  12.990  0.1705  0.1937  0.1309
  487TMC3    C6 7296   4.471   3.959  12.873  0.2794  0.1176  0.8424
  487TMC3     C 7297   4.405   4.364  12.834 -0.0621  0.3191 -0.2352
  487TMC3     O 7298   4.354   4.398  12.728  0.0970 -0.0603 -0.0984
  487TMC3     H 7299   4.354   4.181  12.653  2.6851  0.4567 -1.1485
  487TMC3    H1 7300   4.400   4.215  13.062  1.2163  0.3030  0.6288
  487TMC3    H2 7301   4.475   3.852  12.888  2.0937  0.0632 -0.0036
  487TMC3    C7 7302   4.432   3.956  13.114 -0.3653  0.3007  1.1146
  487TMC3    C8 7303   4.288   3.950  12.734  0.6189  0.1382 -0.2282
  487TMC3    O1 7304   4.376   4.017  13.207 -0.5096 -0.4471  0.0391
  487TMC3    O2 7305   4.194   4.032  12.739 -0.1984 -0.1295 -0.0576
  488MPD2     C 7306   4.123   1.430  16.033  0.2027  0.0419  0.0130
  488MPD2    C1 7307   4.176   1.543  16.095 -0.5762  0.2273  0.3484
  488MPD2    C2 7308   4.139   1.570  16.226  0.2681 -0.2834 -0.2164
  488MPD2    C3 7309   4.049   1.494  16.298 -0.0861 -0.6514 -0.3569
  488MPD2    C4 7310   3.989   1.390  16.229 -0.6393 -0.5278  0.7050
  488MPD2    C5 7311   4.024   1.358  16.099 -0.2643  0.1099 -0.5382
  488MPD2     H 7312   4.190   1.652  16.274  0.9574 -0.5188 -0.5440
  488MPD2    H1 7313   3.917   1.321  16.271 -1.5604 -0.5955 -0.9719
  488MPD2    H2 7314   4.148   1.404  15.931  1.1884 -1.2856  0.5936
  488MPD2    H3 7315   3.958   1.286  16.051 -1.1792  0.9166 -0.4826
  488MPD2     N 7316   4.011   1.529  16.429 -0.5187 -0.2887 -0.4586
  488MPD2    H5 7317   4.059   1.604  16.477 -2.8533  1.1818 -0.4440
  488MPD2    N1 7318   4.265   1.638  16.034  0.6963  0.2490  0.3881
  488MPD2    H7 7319   4.277   1.728  16.077  1.1520  1.3609 -2.0355
  489TMC3    C1 7320   3.908   1.547  16.635  0.6321 -0.0415 -0.2797
  489TMC3    C2 7321   3.956   1.673  16.630 -0.4964 -0.5021  0.3052
  489TMC3    C3 7322   4.009   1.736  16.740  0.1352  0.2102 -0.1051
  489TMC3    C4 7323   3.923   1.474  16.747  0.5529 -0.2848 -0.0184
  489TMC3    C5 7324   3.982   1.534  16.850  0.4875  1.1312 -0.1617
  489TMC3    C6 7325   4.017   1.663  16.856  0.3393  0.3215  0.1356
  489TMC3     C 7326   3.918   1.471  16.510  0.3003  0.2795 -0.7158
  489TMC3     O 7327   3.855   1.371  16.487 -0.0395 -0.1613  0.1762
  489TMC3     H 7328   3.930   1.739  16.548 -0.0463  0.5734  1.0338
  489TMC3    H1 7329   3.908   1.367  16.734  0.8710 -0.4049  0.5971
  489TMC3    H2 7330   4.055   1.717  16.943 -0.2930  0.6936  0.1765
  489TMC3    C7 7331   4.031   1.456  16.958  0.0715  0.1557 -0.7160
  489TMC3    C8 7332   4.093   1.844  16.721  0.3363 -0.6408 -0.1289
  489TMC3    O1 7333   4.108   1.504  17.039 -0.1579 -0.1658 -0.1275
  489TMC3    O2 7334   4.128   1.865  16.601 -0.2050  0.2970 -0.5894
  490MPD2     C 7335   0.871   1.510  16.541  0.0426  0.1887  0.3593
  490MPD2    C1 7336   0.794   1.535  16.652  0.2611  0.4235  0.2025
  490MPD2    C2 7337   0.857   1.603  16.754 -0.4155 -0.2848  0.2306
  490MPD2    C3 7338   0.992   1.646  16.751  0.2439 -0.4200 -0.2067
  490MPD2    C4 7339   1.065   1.627  16.631  0.4052  0.1475  0.0531
  490MPD2    C5 7340   0.999   1.564  16.530  0.5313 -0.1998  0.1312
  490MPD2     H 7341   0.800   1.600  16.846  1.5859  2.7453  1.5580
  490MPD2    H1 7342   1.170   1.645  16.613  0.8182 -1.5215  0.8156
  490MPD2    H2 7343   0.831   1.468  16.450  2.0924 -1.2532  0.1312
  490MPD2    H3 7344   1.056   1.550  16.439 -0.3079 -2.3015 -0.0834
  490MPD2     N 7345   1.053   1.692  16.869  0.1734  0.0477  0.3635
  490MPD2    H5 7346   1.154   1.697  16.881 -0.0191  1.1144  1.5839
  490MPD2    N1 7347   0.658   1.493  16.671 -0.6986  0.0051 -0.2962
  490MPD2    H7 7348   0.614   1.512  16.761  0.0503 -2.1409  0.5330
  491TMC3    C1 7349   0.455   1.388  16.659 -0.8716  0.1157  0.7184
  491TMC3    C2 7350   0.473   1.294  16.759 -0.5207 -0.1644 -0.0101
  491TMC3    C3 7351   0.363   1.231  16.819  0.4803 -0.1461  0.1962
  491TMC3    C4 7352   0.330   1.412  16.608 -0.0456  0.3337 -0.1729
  491TMC3    C5 7353   0.227   1.342  16.674 -0.1237  0.6148  0.9854
  491TMC3    C6 7354   0.234   1.259  16.782 -0.7951 -0.4613  0.4415
  491TMC3     C 7355   0.568   1.444  16.585 -0.1327  0.3495 -0.1346
  491TMC3     O 7356   0.559   1.468  16.465 -0.3306 -0.2311 -0.4084
  491TMC3     H 7357   0.574   1.260  16.777 -0.2735  0.6831  0.2027
  491TMC3    H1 7358   0.314   1.468  16.517 -1.9762  2.5500  1.5358
  491TMC3    H2 7359   0.151   1.216  16.837 -1.8953  0.1490 -0.7374
  491TMC3    C7 7360   0.100   1.343  16.601 -0.1849 -0.3101  0.0932
  491TMC3    C8 7361   0.377   1.142  16.940 -0.3845  0.4735 -0.1951
  491TMC3    O1 7362   0.065   1.451  16.551  0.0709  0.3194 -0.0216
  491TMC3    O2 7363   0.284   1.070  16.969  0.2495 -0.7117  0.2363
  492MPD2     C 7364   0.853   0.867  11.567 -0.6968 -0.4619  0.0628
  492MPD2    C1 7365   0.789   0.758  11.519 -0.1265 -0.2583 -0.9972
  492MPD2    C2 7366   0.727   0.669  11.607  0.1767  0.3814  0.6662
  492MPD2    C3 7367   0.707   0.710  11.739  0.3690  0.2463 -0.0986
  492MPD2    C4 7368   0.770   0.829  11.786 -0.0996  0.6863 -0.5886
  492MPD2    C5 7369   0.849   0.904  11.697  0.2350 -0.7617 -0.9470
  492MPD2     H 7370   0.682   0.580  11.563 -1.0665  1.5917 -0.4890
  492MPD2    H1 7371   0.757   0.865  11.888  2.3699 -0.1054  0.0048
  492MPD2    H2 7372   0.892   0.939  11.495  2.1993 -0.7555  1.3447
  492MPD2    H3 7373   0.896   0.999  11.721 -1.1057  0.4326 -3.0570
  492MPD2     N 7374   0.644   0.637  11.840  0.6061 -0.5903 -0.8761
  492MPD2    H5 7375   0.643   0.668  11.937 -0.3351 -0.2420 -0.9982
  492MPD2    N1 7376   0.789   0.739  11.375  0.1934  0.2698  0.1761
  492MPD2    H7 7377   0.829   0.821  11.329 -0.7304 -0.3396 -1.7044
  493TMC3    C1 7378   0.750   0.651  11.162  0.2877  0.4356 -0.1446
  493TMC3    C2 7379   0.861   0.719  11.132 -0.0973 -0.3872  0.5433
  493TMC3    C3 7380   0.858   0.813  11.035 -0.1926  0.8528  0.9015
  493TMC3    C4 7381   0.647   0.640  11.084 -0.0090 -0.3418  0.1154
  493TMC3    C5 7382   0.657   0.715  10.968 -0.0198  0.4160 -0.5721
  493TMC3    C6 7383   0.753   0.811  10.946  0.0343  1.1377  0.3029
  493TMC3     C 7384   0.730   0.638  11.303 -0.2401 -0.3215  1.2722
  493TMC3     O 7385   0.700   0.526  11.347 -0.1637  0.3552 -0.4939
  493TMC3     H 7386   0.950   0.708  11.193  1.0593 -0.1316 -1.1202
  493TMC3    H1 7387   0.557   0.583  11.105  0.3569 -1.4948 -1.4634
  493TMC3    H2 7388   0.746   0.878  10.861 -1.6008  0.2252 -0.2771
  493TMC3    C7 7389   0.554   0.700  10.866 -0.2356 -0.6033  0.1946
  493TMC3    C8 7390   0.925   0.931  11.095 -0.0582  0.1740 -0.0945
  493TMC3    O1 7391   0.548   0.794  10.790  0.2828  0.4299 -0.1534
  493TMC3    O2 7392   0.949   0.918  11.214 -0.7668 -0.1466  0.3306
  494TMC3    C1 7393   1.328   2.695   0.529 -0.6045  0.0001  0.2408
  494TMC3    C2 7394   1.261   2.577   0.531 -0.0809 -0.0526  0.7662
  494TMC3    C3 7395   1.225   2.507   0.421  0.3426  0.3540  0.0994
  494TMC3    C4 7396   1.365   2.750   0.408  0.4595  0.0701  0.8290
  494TMC3    C5 7397   1.334   2.672   0.295  0.3584  0.2318 -0.9850
  494TMC3    C6 7398   1.258   2.557   0.296  0.1459 -0.6618 -0.5001
  494TMC3     C 7399   1.403   2.714   0.648 -1.3715  0.6392 -0.3798
  494TMC3     O 7400   1.337   2.739   0.747 -0.5449 -0.3158  0.1776
  494TMC3     H 7401   1.257   2.537   0.632  1.8373 -2.4527 -0.1030
  494TMC3    H1 7402   1.449   2.819   0.411  1.6437 -1.3514  0.1741
  494TMC3    H2 7403   1.251   2.497   0.205 -1.0355 -0.3581 -0.6061
  494TMC3    C7 7404   1.373   2.736   0.171 -0.2347  0.5683 -0.0917
  494TMC3    C8 7405   1.261   2.370   0.435  0.6707 -0.2377 -0.7364
  494TMC3    O1 7406   1.409   2.660   0.078 -0.3800  0.0630 -0.1152
  494TMC3    O2 7407   1.332   2.336   0.526 -1.0111  0.1512 -0.1932
  495TMC3    C1 7408   0.114   4.433  14.627  0.0344  0.1915  0.0979
  495TMC3    C2 7409   0.013   4.427  14.527 -0.1269 -0.1322  0.4456
  495TMC3    C3 7410   4.657   4.521  14.536 -0.0612 -0.4056  0.3694
  495TMC3    C4 7411   0.098   4.519  14.737 -0.2299  0.2009 -0.1457
  495TMC3    C5 7412   0.002   4.614  14.728  0.4269  0.6782 -0.1324
  495TMC3    C6 7413   4.644   4.610  14.635 -0.1487  0.8113 -0.4805
  495TMC3     C 7414   0.182   4.312  14.673  0.1506 -0.0234 -0.4297
  495TMC3     O 7415   0.134   4.260  14.772 -0.0414  0.3736 -0.2163
  495TMC3     H 7416   0.012   4.344  14.459  1.1202 -0.3793  0.7227
  495TMC3    H1 7417   0.154   4.502  14.828 -1.5768 -2.8968  0.0877
  495TMC3    H2 7418   4.563   4.682  14.637 -0.9062 -0.0623  0.3924
  495TMC3    C7 7419   4.714   4.656  14.862 -0.5384 -0.8753  0.3126
  495TMC3    C8 7420   4.532   4.518  14.451 -0.0528  0.1615 -0.7229
  495TMC3    O1 7421   0.070   4.678  14.934  0.1679  0.1284 -0.4453
  495TMC3    O2 7422   4.434   4.569  14.501 -0.0876 -0.4478 -0.0755
  496MPD2     C 7423   2.100   0.552  15.199 -0.4478 -0.5338  0.1217
  496MPD2    C1 7424   2.170   0.542  15.315 -0.0702 -0.1777 -0.1367
  496MPD2    C2 7425   2.100   0.520  15.429 -0.2863 -0.2322 -0.0766
  496MPD2    C3 7426   1.964   0.516  15.427 -0.0689  0.2246  0.4986
  496MPD2    C4 7427   1.896   0.516  15.307 -0.1293  0.0041  0.4937
  496MPD2    C5 7428   1.965   0.534  15.190  0.0653 -0.0650 -0.0503
  496MPD2     H 7429   2.154   0.508  15.523 -0.6024  0.9320  0.2546
  496MPD2    H1 7430   1.791   0.497  15.290 -0.2777  1.0852  0.1591
  496MPD2    H2 7431   2.147   0.575  15.104 -0.5966 -3.2349 -0.6111
  496MPD2    H3 7432   1.920   0.538  15.092 -1.0284  1.1914  0.5032
  496MPD2     N 7433   1.881   0.515  15.541  0.4101 -0.7736 -0.2011
  496MPD2    H5 7434   1.782   0.500  15.523 -0.2258  0.5146  2.2079
  496MPD2    N1 7435   2.314   0.556  15.310  0.7843  0.6454 -0.2750
  496MPD2    H7 7436   2.365   0.522  15.229  0.5456  0.5746 -0.3982
  497TMC3    C1 7437   1.823   0.517  15.772  0.1669 -0.4257  0.2227
  497TMC3    C2 7438   1.702   0.591  15.746 -0.2553  0.0769  0.0696
  497TMC3    C3 7439   1.610   0.589  15.844 -0.7027 -0.4561  0.2745
  497TMC3    C4 7440   1.853   0.466  15.893 -0.0669  0.2427 -0.5813
  497TMC3    C5 7441   1.750   0.468  15.982  0.1329 -0.7202  0.0826
  497TMC3    C6 7442   1.629   0.517  15.958  0.1910  0.4185 -0.1197
  497TMC3     C 7443   1.923   0.516  15.672 -0.1384  0.5167 -0.4513
  497TMC3     O 7444   2.035   0.521  15.717  0.1561 -0.1233 -0.7236
  497TMC3     H 7445   1.680   0.638  15.651  0.7859  2.6138  1.0782
  497TMC3    H1 7446   1.946   0.419  15.924  0.2916  0.1880 -1.7254
  497TMC3    H2 7447   1.560   0.521  16.042  0.5023 -0.9219  0.1974
  497TMC3    C7 7448   1.756   0.391  16.107  0.1322 -0.5116 -0.1389
  497TMC3    C8 7449   1.504   0.690  15.849  0.0180  0.3367 -0.4053
  497TMC3    O1 7450   1.651   0.331  16.129  0.8114  0.3914  0.1697
  497TMC3    O2 7451   1.435   0.683  15.949  0.1182  0.2542 -0.4003
  498MPD2     C 7452   2.614   1.434  10.061 -0.4330 -0.2034  0.2162
  498MPD2    C1 7453   2.695   1.337  10.111 -0.5547 -0.1331  0.4141
  498MPD2    C2 7454   2.633   1.222  10.173  0.0376  0.2141  0.2296
  498MPD2    C3 7455   2.495   1.209  10.196  0.8936  0.0503 -0.6006
  498MPD2    C4 7456   2.416   1.316  10.149  0.1778  0.4233  0.3540
  498MPD2    C5 7457   2.476   1.432  10.095  0.0689 -0.0882 -0.5478
  498MPD2     H 7458   2.697   1.141  10.206 -0.0122 -0.3268 -1.0207
  498MPD2    H1 7459   2.308   1.321  10.152  0.1477 -0.0260 -0.0566
  498MPD2    H2 7460   2.658   1.527  10.027  1.0750 -0.0341  2.5659
  498MPD2    H3 7461   2.414   1.517  10.070 -2.2168 -1.0471  1.8511
  498MPD2     N 7462   2.442   1.092  10.247 -0.1566 -0.0770 -0.2211
  498MPD2    H5 7463   2.504   1.015  10.269  0.0835  0.9084  2.5789
  498MPD2    N1 7464   2.839   1.335  10.115  0.3210  0.1524 -0.5569
  498MPD2    H7 7465   2.872   1.255  10.168 -3.0347 -0.7808  0.1041
  499TMC3    C1 7466   3.059   1.395  10.046 -0.3504 -0.6987 -0.3960
  499TMC3    C2 7467   3.086   1.270  10.004  0.1932 -0.4289 -0.3295
  499TMC3    C3 7468   3.210   1.250   9.950  0.6354 -0.2509 -0.3435
  499TMC3    C4 7469   3.141   1.503  10.036 -0.8702 -0.4392  1.6199
  499TMC3    C5 7470   3.259   1.478   9.972 -0.2184  0.3030  0.3273
  499TMC3    C6 7471   3.300   1.359   9.926  0.7763  0.0256 -0.4241
  499TMC3     C 7472   2.921   1.431  10.057 -0.1516 -0.3773  0.1985
  499TMC3     O 7473   2.893   1.542  10.022  0.7431  0.0338 -0.1835
  499TMC3     H 7474   3.007   1.196   9.992  0.3801 -0.7491  0.3680
  499TMC3    H1 7475   3.127   1.585  10.105 -0.1915  0.1569  1.0303
  499TMC3    H2 7476   3.396   1.343   9.877  0.4492 -0.7378 -0.8105
  499TMC3    C7 7477   3.364   1.576   9.959  0.3508 -0.1638  0.2593
  499TMC3    C8 7478   3.254   1.113   9.911 -0.3733 -0.1206 -0.6044
  499TMC3    O1 7479   3.479   1.545   9.935 -0.0579  0.4855 -0.0319
  499TMC3    O2 7480   3.370   1.116   9.874 -0.1815 -0.6246 -0.1369
  500MPD2     C 7481   0.138   2.753  10.966 -0.1331 -0.5765  0.1461
  500MPD2    C1 7482   0.044   2.655  10.945  0.0803 -0.4208  1.1671
  500MPD2    C2 7483   4.659   2.686  10.890  0.8037 -0.1029 -0.8003
  500MPD2    C3 7484   4.630   2.812  10.846  0.2963 -0.4943 -0.0264
  500MPD2    C4 7485   4.726   2.911  10.863  0.1247  0.6253 -1.1930
  500MPD2    C5 7486   0.107   2.878  10.930 -0.2486 -0.3736  0.1080
  500MPD2     H 7487   4.590   2.606  10.865 -0.9603  0.2663  3.0343
  500MPD2    H1 7488   4.705   3.011  10.826  1.3433  1.2156 -0.2726
  500MPD2    H2 7489   0.239   2.729  10.995  0.0904 -0.8523 -0.8626
  500MPD2    H3 7490   0.178   2.960  10.939 -1.0595  0.2245  1.0821
  500MPD2     N 7491   4.507   2.844  10.790 -0.1719  0.0867 -0.1652
  500MPD2    H5 7492   4.498   2.929  10.735  0.9679  0.9540  0.9866
  500MPD2    N1 7493   0.084   2.520  10.952  0.0084  0.0432  0.0186
  500MPD2    H7 7494   0.010   2.458  10.921  0.1117  0.4873 -1.1082
  501TMC3    C1 7495   0.226   2.331  10.966 -0.6085  0.4157  0.2605
  501TMC3    C2 7496   0.148   2.264  10.874 -0.6588  0.2714  0.2572
  501TMC3    C3 7497   0.200   2.150  10.815 -0.2239 -0.7380 -0.0411
  501TMC3    C4 7498   0.349   2.281  11.008 -0.2490  0.3581 -0.0847
  501TMC3    C5 7499   0.395   2.164  10.954 -0.7561  0.4110 -0.8026
  501TMC3    C6 7500   0.313   2.096  10.863  0.1333 -0.1536  0.2105
  501TMC3     C 7501   0.206   2.467  11.001 -0.1961  0.4680 -0.6327
  501TMC3     O 7502   0.307   2.526  11.040  0.4347  0.0525 -0.0619
  501TMC3     H 7503   0.048   2.295  10.847 -0.9894 -0.2377  0.8930
  501TMC3    H1 7504   0.394   2.330  11.094 -1.4226  0.4361  0.4917
  501TMC3    H2 7505   0.361   2.012  10.813  0.1968  0.5385 -0.8846
  501TMC3    C7 7506   0.469   2.082  11.047  0.0216  0.0128 -0.2868
  501TMC3    C8 7507   0.135   2.077  10.706 -0.2694 -0.5385 -0.3603
  501TMC3    O1 7508   0.441   1.962  11.043  0.8797 -0.3213 -0.1488
  501TMC3    O2 7509   0.151   1.952  10.708 -0.0025 -0.8012  1.3836
  502TMC3    C1 7510   3.567   1.211  14.848 -0.1410 -0.4026 -0.4450
  502TMC3    C2 7511   3.576   1.340  14.790 -0.0351  0.2411 -0.1366
  502TMC3    C3 7512   3.483   1.429  14.830 -0.1612 -0.5264  0.4451
  502TMC3    C4 7513   3.468   1.182  14.942 -0.1007 -0.3311  0.3612
  502TMC3    C5 7514   3.367   1.273  14.965  0.3201 -0.9184 -1.0005
  502TMC3    C6 7515   3.385   1.407  14.927 -0.6180  0.5921 -0.2190
  502TMC3     C 7516   3.691   1.124  14.844 -0.3878  0.2896 -0.7742
  502TMC3     O 7517   3.763   1.152  14.747 -0.6065  0.1310  0.4527
  502TMC3     H 7518   3.647   1.371  14.714 -0.7953  1.9307 -0.1544
  502TMC3    H1 7519   3.449   1.076  14.958  0.6350 -0.6597 -0.9543
  502TMC3    H2 7520   3.314   1.484  14.956  0.5681  1.5174  0.2400
  502TMC3    C7 7521   3.255   1.225  15.044 -0.1901 -0.7785  0.3928
  502TMC3    C8 7522   3.526   1.571  14.821  0.2396 -0.3825 -0.4989
  502TMC3    O1 7523   3.276   1.121  15.108  0.4332  0.6218  0.8983
  502TMC3    O2 7524   3.646   1.591  14.828  0.4731  0.1273 -0.0854
  503MPD2     C 7525   1.635   1.731  16.709 -0.3781  0.3166 -0.6803
  503MPD2    C1 7526   1.614   1.738  16.848  0.0734  0.2221  0.0095
  503MPD2    C2 7527   1.637   1.628  16.923 -0.3213 -0.0258  0.1987
  503MPD2    C3 7528   1.675   1.508  16.855 -0.4724 -0.1960 -0.2207
  503MPD2    C4 7529   1.669   1.494  16.715  0.2477  0.1364  0.0267
  503MPD2    C5 7530   1.646   1.607  16.647 -0.6795 -0.2679  0.4989
  503MPD2     H 7531   1.635   1.631  17.031  0.5215  0.6273  0.1911
  503MPD2    H1 7532   1.675   1.397  16.667 -1.9860 -0.0467  0.1127
  503MPD2    H2 7533   1.623   1.819  16.647  0.6337  1.3745  0.6356
  503MPD2    H3 7534   1.636   1.588  16.540  0.4183 -2.4597  0.7900
  503MPD2     N 7535   1.700   1.397  16.936 -0.3471 -0.3083  0.1312
  503MPD2    H5 7536   1.690   1.416  17.036  0.5365  1.3077 -0.0964
  503MPD2    N1 7537   1.551   1.847  16.911  0.1516  0.8463  0.3583
  503MPD2    H7 7538   1.514   1.832  17.004 -0.9073  3.6429  0.3996
  504TMC3    C1 7539   1.791   1.188  17.004  0.1506 -0.1497 -0.4934
  504TMC3    C2 7540   1.788   1.260  17.118 -0.1343 -0.1515 -0.0953
  504TMC3    C3 7541   1.900   1.265  17.200  0.2525 -0.2070 -0.3822
  504TMC3    C4 7542   1.906   1.121  16.968  0.4445 -0.5471  0.3685
  504TMC3    C5 7543   2.021   1.139  17.041  0.5984 -0.2380  1.0329
  504TMC3    C6 7544   2.021   1.211  17.155 -0.4235  0.2543 -0.8648
  504TMC3     C 7545   1.760   1.276  16.898 -0.2465 -0.6966 -0.1839
  504TMC3     O 7546   1.810   1.239  16.793 -0.1345 -0.4199 -0.0285
  504TMC3     H 7547   1.691   1.298  17.148 -0.4778 -1.7604  0.8682
  504TMC3    H1 7548   1.911   1.065  16.875 -1.2452  2.3611 -1.4561
  504TMC3    H2 7549   2.108   1.229  17.218  0.0252 -2.8574 -0.5744
  504TMC3    C7 7550   2.149   1.133  16.965  0.4881  0.2151  0.2233
  504TMC3    C8 7551   1.886   1.376  17.293 -0.0912  0.0793 -0.5512
  504TMC3    O1 7552   2.135   1.117  16.843 -0.6524 -0.4052  0.3015
  504TMC3    O2 7553   1.827   1.474  17.249 -0.2341 -0.3547 -0.2181
  505MPD2     C 7554   1.971   0.337  11.218 -0.7036  0.0606 -0.5566
  505MPD2    C1 7555   2.029   0.226  11.162 -0.0502 -0.6276  0.5187
  505MPD2    C2 7556   2.165   0.213  11.178  0.4936  0.4677  0.3474
  505MPD2    C3 7557   2.242   0.306  11.242  0.3223  0.2072  0.2772
  505MPD2    C4 7558   2.181   0.418  11.294  0.0706 -0.3884  0.1300
  505MPD2    C5 7559   2.049   0.432  11.275 -0.0669  0.0225 -0.4513
  505MPD2     H 7560   2.209   0.128  11.127 -0.5602 -0.7742  1.4825
  505MPD2    H1 7561   2.235   0.495  11.348  0.4981 -0.2260 -0.5278
  505MPD2    H2 7562   1.864   0.356  11.209 -1.3554 -3.4878 -0.6168
  505MPD2    H3 7563   2.001   0.512  11.331  0.3358  0.1285 -0.2620
  505MPD2     N 7564   2.380   0.301  11.261  0.0825 -0.5565  0.3292
  505MPD2    H5 7565   2.420   0.379  11.313 -2.1908  1.3143 -0.6825
  505MPD2    N1 7566   1.952   0.137  11.080 -0.0319  0.7364 -0.1341
  505MPD2    H7 7567   1.854   0.159  11.062 -0.3489 -0.7872 -0.2646
  506TMC3    C1 7568   1.914   4.681  10.948 -0.0641  0.0501  0.0494
  506TMC3    C2 7569   1.861   0.016  10.848 -0.3544 -0.7411  0.0154
  506TMC3    C3 7570   1.858   4.699  10.720 -0.3623  0.4715  0.0259
  506TMC3    C4 7571   1.975   4.564  10.919 -0.0869 -0.5963  0.0229
  506TMC3    C5 7572   1.986   4.523  10.792 -0.5888 -0.1226  0.4295
  506TMC3    C6 7573   1.931   4.585  10.685 -0.1173 -0.5538 -0.5610
  506TMC3     C 7574   2.006   0.022  11.026 -0.6986 -0.6032 -0.6021
  506TMC3     O 7575   2.111   4.703  11.046  0.0651  0.0561  0.0125
  506TMC3     H 7576   1.805   0.107  10.867 -0.4402 -0.6687 -0.5781
  506TMC3    H1 7577   2.032   4.501  10.987  1.0043 -1.6113 -1.8233
  506TMC3    H2 7578   1.960   4.556  10.585  0.0481  0.3965 -0.7877
  506TMC3    C7 7579   2.124   4.494  10.756  0.3188 -0.5881  0.1160
  506TMC3    C8 7580   1.830   0.040  10.606  0.4388 -0.0224  0.0046
  506TMC3    O1 7581   2.145   4.434  10.656 -0.3990 -0.0376 -0.2796
  506TMC3    O2 7582   1.754   4.727  10.523  0.1495  0.5399  0.2810
  507TMC3    C1 7583   2.641   0.909  13.986  0.1153  0.0279  0.5777
  507TMC3    C2 7584   2.611   0.879  13.862  0.1401 -0.2894  0.7476
  507TMC3    C3 7585   2.585   0.987  13.781 -0.2106  0.0995 -0.7418
  507TMC3    C4 7586   2.641   1.034  14.038 -0.1490  0.6741  0.2836
  507TMC3    C5 7587   2.623   1.140  13.953  1.1782  0.0780  0.4140
  507TMC3    C6 7588   2.600   1.121  13.822 -0.3760 -0.3037 -0.3153
  507TMC3     C 7589   2.728   0.824  14.059 -0.2484 -0.2429  0.3308
  507TMC3     O 7590   2.817   0.765  13.997  0.5639  0.5087  0.2517
  507TMC3     H 7591   2.615   0.780  13.818 -1.0573  0.5093 -1.1946
  507TMC3    H1 7592   2.660   1.054  14.143  1.5446  1.1625 -0.1063
  507TMC3    H2 7593   2.574   1.203  13.756  0.4867  0.6981  0.5805
  507TMC3    C7 7594   2.540   1.240  14.006 -0.5196  0.2667 -0.1809
  507TMC3    C8 7595   2.460   0.969  13.707  0.4735  0.0956  0.1351
  507TMC3    O1 7596   2.447   1.286  13.938  0.3013  0.1711  0.3644
  507TMC3    O2 7597   2.444   0.883  13.622 -0.2242  1.0082  0.5630
  508MPD2     C 7598   3.570   3.374  16.427  0.2753  0.3297  0.2114
  508MPD2    C1 7599   3.571   3.480  16.504  0.3036 -0.9518  0.8183
  508MPD2    C2 7600   3.514   3.596  16.461 -0.1922 -0.1410  0.0547
  508MPD2    C3 7601   3.438   3.601  16.343  0.3525 -0.2438  0.2229
  508MPD2    C4 7602   3.435   3.495  16.259 -0.8997 -0.0418 -0.6342
  508MPD2    C5 7603   3.501   3.383  16.305 -0.0438  0.3047  0.6113
  508MPD2     H 7604   3.526   3.689  16.515  0.0559 -0.9085  1.3120
  508MPD2    H1 7605   3.383   3.499  16.165 -1.3659 -1.0476 -0.4102
  508MPD2    H2 7606   3.624   3.280  16.438  0.8013  0.7525  1.2546
  508MPD2    H3 7607   3.501   3.291  16.248 -1.3808  0.8066 -0.1953
  508MPD2     N 7608   3.375   3.721  16.318  0.1390  0.0819 -0.5131
  508MPD2    H5 7609   3.379   3.789  16.393 -2.8833  2.7470 -2.7266
  508MPD2    N1 7610   3.641   3.468  16.627 -0.4197 -0.1849  0.0535
  508MPD2    H7 7611   3.701   3.388  16.639 -0.3224 -0.3289 -1.4547
  509TMC3    C1 7612   3.277   4.072  16.045  0.7558 -0.4510  0.6969
  509TMC3    C2 7613   3.398   4.134  16.063  1.1121 -0.4797  0.2097
  509TMC3    C3 7614   3.489   4.070  16.148 -0.5541 -0.2106 -1.0437
  509TMC3    C4 7615   3.248   3.952  16.097 -0.3564 -1.3907  0.4630
  509TMC3    C5 7616   3.335   3.906  16.188 -0.3773  0.0971 -0.0344
  509TMC3    C6 7617   3.461   3.959  16.220 -0.6212 -0.2934  0.2756
  509TMC3     C 7618   3.185   4.132  15.953 -1.1364  0.5260 -0.6560
  509TMC3     O 7619   3.070   4.100  15.976 -0.0933  0.2434 -0.0905
  509TMC3     H 7620   3.420   4.234  16.027 -0.7140 -0.7928 -1.8416
  509TMC3    H1 7621   3.155   3.906  16.068  0.6788 -2.8868 -0.4916
  509TMC3    H2 7622   3.534   3.911  16.284 -2.0491  1.0991  3.0042
  509TMC3    C7 7623   3.329   3.760  16.193 -0.4155  0.7719  0.0820
  509TMC3    C8 7624   3.626   4.127  16.167 -0.2882 -0.0458  0.0963
  509TMC3    O1 7625   3.323   3.710  16.083  0.0316  0.2494 -0.3214
  509TMC3    O2 7626   3.693   4.089  16.264  0.1680  0.1355 -0.0380
  510MPD2     C 7627   1.336   0.601  14.694 -0.4096  0.1425  0.1158
  510MPD2    C1 7628   1.361   0.465  14.721 -0.7753 -0.5055 -0.4808
  510MPD2    C2 7629   1.494   0.414  14.698 -0.2980 -0.0618  0.4592
  510MPD2    C3 7630   1.596   0.492  14.654 -0.3239  0.2019  0.4095
  510MPD2    C4 7631   1.559   0.617  14.608 -0.2212  0.3537  0.0427
  510MPD2    C5 7632   1.436   0.669  14.631  0.1603  0.1839 -0.5130
  510MPD2     H 7633   1.521   0.310  14.707 -2.2356 -0.4538  1.8264
  510MPD2    H1 7634   1.631   0.675  14.552 -1.3284  1.2965 -0.4076
  510MPD2    H2 7635   1.235   0.639  14.696 -0.1889  0.6848  1.0567
  510MPD2    H3 7636   1.412   0.771  14.603 -3.1449 -0.0185  1.5829
  510MPD2     N 7637   1.733   0.447  14.656  0.1996  0.7390  0.0209
  510MPD2    H5 7638   1.759   0.361  14.702  0.7408  1.3803  0.9216
  510MPD2    N1 7639   1.257   0.381  14.768 -0.0752 -0.0287 -0.1652
  510MPD2    H7 7640   1.164   0.419  14.781 -0.2782 -1.1170  1.6063
  511TMC3    C1 7641   1.140   0.193  14.851 -0.5071 -0.1651  0.5825
  511TMC3    C2 7642   1.044   0.261  14.923 -0.4492 -0.4257  0.2781
  511TMC3    C3 7643   0.932   0.191  14.969  0.7618 -0.1523  0.0527
  511TMC3    C4 7644   1.117   0.060  14.819  0.1664  0.5212 -0.0308
  511TMC3    C5 7645   1.003   4.731  14.864 -0.4300 -0.0325 -0.5630
  511TMC3    C6 7646   0.908   0.058  14.937  0.9803 -0.6005  0.2228
  511TMC3     C 7647   1.262   0.248  14.804  0.1167 -0.0846 -0.2337
  511TMC3     O 7648   1.353   0.173  14.789 -0.0779 -0.7067  0.2325
  511TMC3     H 7649   1.052   0.366  14.946 -1.5408  0.0750 -1.6565
  511TMC3    H1 7650   1.181   0.011  14.748 -0.0483 -0.0488  0.1641
  511TMC3    H2 7651   0.818   0.008  14.970  0.1101  1.6019  1.2018
  511TMC3    C7 7652   0.988   4.592  14.833  0.5686  0.6713 -0.4706
  511TMC3    C8 7653   0.833   0.266  15.049  0.1795  0.2659 -0.2018
  511TMC3    O1 7654   1.054   4.547  14.744  0.4540  0.3243  0.4153
  511TMC3    O2 7655   0.813   0.384  15.025  0.4702 -0.0165  0.3546
  512TMC3    C1 7656   4.552   4.452  13.531 -0.1664  0.0536 -1.0585
  512TMC3    C2 7657   4.612   4.387  13.633 -0.6112  0.4510 -0.1433
  512TMC3    C3 7658   4.696   4.280  13.620 -0.7056 -0.1711  0.6992
  512TMC3    C4 7659   4.569   4.407  13.404  0.4706 -0.2250 -0.2809
  512TMC3    C5 7660   4.639   4.300  13.387  0.0734 -0.2236 -0.3172
  512TMC3    C6 7661   4.704   4.233  13.495 -0.1933 -0.0185 -0.3364
  512TMC3     C 7662   4.424   4.514  13.558  0.5163  0.7549 -0.0170
  512TMC3     O 7663   4.395   4.624  13.514 -0.2758 -0.1645 -0.2251
  512TMC3     H 7664   4.596   4.422  13.735  1.2702 -1.8978  0.9655
  512TMC3    H1 7665   4.503   4.437  13.323 -0.9455 -1.6195  0.3553
  512TMC3    H2 7666   0.037   4.154  13.480 -0.4988 -0.4637  0.4928
  512TMC3    C7 7667   4.655   4.250  13.249  0.1658 -0.2020 -1.1344
  512TMC3    C8 7668   0.083   4.270  13.689  0.1691 -0.0365  0.3840
  512TMC3    O1 7669   4.623   4.321  13.153  0.2119  0.2531 -0.2134
  512TMC3    O2 7670   0.158   4.177  13.676 -0.5871 -0.3307  0.5790
  513MPD2     C 7671   2.033   3.883  13.593  0.1513  0.5185 -0.2433
  513MPD2    C1 7672   2.108   3.973  13.523  0.2898 -0.0074 -0.4819
  513MPD2    C2 7673   2.126   4.098  13.572  0.5888  0.2621 -0.0611
  513MPD2    C3 7674   2.086   4.130  13.702 -0.6519  0.5434  0.5560
  513MPD2    C4 7675   2.023   4.038  13.783  0.2575 -0.3687 -0.7707
  513MPD2    C5 7676   1.993   3.916  13.724 -0.2360 -0.6560  0.2468
  513MPD2     H 7677   2.182   4.170  13.513  1.3741 -2.2958 -2.4498
  513MPD2    H1 7678   1.981   4.067  13.878  1.4181  1.3731 -0.7911
  513MPD2    H2 7679   2.022   3.782  13.555  0.9078 -0.2576  1.6216
  513MPD2    H3 7680   1.932   3.846  13.781 -2.1644  0.2430 -0.7304
  513MPD2     N 7681   2.098   4.271  13.725  0.3290 -0.0117 -0.1003
  513MPD2    H5 7682   2.130   4.324  13.645  1.1952 -0.1915  0.1274
  513MPD2    N1 7683   2.178   3.941  13.403  0.2147  0.0352 -0.0073
  513MPD2    H7 7684   2.252   4.003  13.371  0.3117 -1.0184 -1.8241
  514TMC3    C1 7685   2.237   3.836  13.211 -0.0676 -0.4532 -0.2597
  514TMC3    C2 7686   2.156   3.839  13.100 -0.0132  0.1308 -0.5490
  514TMC3    C3 7687   2.205   3.900  12.992 -0.0477 -0.1094 -0.1372
  514TMC3    C4 7688   2.354   3.910  13.218 -0.1730  0.1093  0.0355
  514TMC3    C5 7689   2.390   3.989  13.112 -0.1777 -0.0322 -0.4582
  514TMC3    C6 7690   2.317   3.987  12.999  0.6221 -0.0749 -0.0806
  514TMC3     C 7691   2.160   3.824  13.330 -0.5287  0.6620 -0.2281
  514TMC3     O 7692   2.073   3.739  13.331  0.2533  0.2162  0.0914
  514TMC3     H 7693   2.066   3.779  13.105  0.0887 -0.0722 -1.1110
  514TMC3    H1 7694   2.401   3.922  13.315 -0.5578  0.0288  0.2356
  514TMC3    H2 7695   2.325   4.069  12.929  3.5012  0.2983  0.6680
  514TMC3    C7 7696   2.393   4.122  13.177 -0.2601  0.2026 -1.3400
  514TMC3    C8 7697   2.133   3.880  12.867  0.3035  0.2599  0.4110
  514TMC3    O1 7698   2.288   4.158  13.225  0.1067  0.1175 -0.4072
  514TMC3    O2 7699   2.017   3.853  12.875 -0.2728  0.2820 -0.4251
  515MPD2     C 7700   4.519   1.273  14.899 -0.6873  0.3291 -0.1543
  515MPD2    C1 7701   4.551   1.354  14.791 -0.2453  0.4526  0.0237
  515MPD2    C2 7702   4.676   1.411  14.790  0.3547 -0.0119 -0.3055
  515MPD2    C3 7703   0.024   1.396  14.896 -0.2189 -0.0184 -0.2284
  515MPD2    C4 7704   4.732   1.308  14.997 -0.3971  0.6832  0.1465
  515MPD2    C5 7705   4.613   1.248  14.996  0.2727  1.0929  0.4213
  515MPD2     H 7706   4.715   1.465  14.704  0.4114  1.2593  0.5309
  515MPD2    H1 7707   0.057   1.289  15.082  2.1954  0.6891 -1.8213
  515MPD2    H2 7708   4.421   1.227  14.907 -0.3288 -0.3800  0.1306
  515MPD2    H3 7709   4.589   1.189  15.084  1.1428  0.1214  0.0033
  515MPD2     N 7710   0.153   1.451  14.898  0.1161 -0.2134 -0.0170
  515MPD2    H5 7711   0.226   1.426  14.964 -0.5854 -2.2667 -0.0269
  515MPD2    N1 7712   4.462   1.351  14.679  0.6245 -0.0977 -0.1593
  515MPD2    H7 7713   4.389   1.281  14.679 -1.0102  1.6180 -0.4363
  516TMC3    C1 7714   4.425   1.352  14.451 -0.3971  0.0935 -0.4164
  516TMC3    C2 7715   4.335   1.425  14.374  0.2995  0.3607 -0.6163
  516TMC3    C3 7716   4.249   1.346  14.300  0.1446  0.5721 -0.1179
  516TMC3    C4 7717   4.427   1.211  14.446  0.8266  0.8112 -0.4607
  516TMC3    C5 7718   4.353   1.147  14.355  0.4583  0.3358 -0.8436
  516TMC3    C6 7719   4.261   1.213  14.288  0.1442 -0.0502 -0.0107
  516TMC3     C 7720   4.489   1.420  14.565  0.5547  0.9745  0.1648
  516TMC3     O 7721   4.544   1.525  14.549  0.4285  0.1078  0.3341
  516TMC3     H 7722   4.333   1.532  14.391 -1.1739  0.4047 -1.0756
  516TMC3    H1 7723   4.493   1.162  14.517  0.7526 -1.0081 -1.6580
  516TMC3    H2 7724   4.201   1.160  14.215 -0.1136 -0.1752  0.2934
  516TMC3    C7 7725   4.367   1.002  14.348 -0.1580  0.5931 -0.5832
  516TMC3    C8 7726   4.143   1.414  14.225  0.2016 -0.5416  1.0005
  516TMC3    O1 7727   4.473   0.951  14.370 -0.4931 -0.1999  0.3080
  516TMC3    O2 7728   4.045   1.349  14.180  0.2290  0.0842 -0.2445
  517MPD2     C 7729   4.545   3.407  17.353 -0.2524  0.8247 -0.6387
  517MPD2    C1 7730   4.652   3.322  17.370  0.0376  0.1934  0.5400
  517MPD2    C2 7731   0.011   3.361  17.458  0.0969  0.4967 -0.0545
  517MPD2    C3 7732   0.000   3.475  17.530 -0.5007  0.0547 -0.0478
  517MPD2    C4 7733   4.634   3.560  17.510 -0.1979 -0.1069 -0.2003
  517MPD2    C5 7734   4.545   3.529  17.412  0.5852  0.0087 -0.5092
  517MPD2     H 7735   0.097   3.295  17.456  0.8912  1.4749  1.7155
  517MPD2    H1 7736   4.632   3.664  17.541 -0.2137 -0.6673  1.6693
  517MPD2    H2 7737   4.469   3.385  17.279  0.5678 -4.1018 -0.0124
  517MPD2    H3 7738   4.459   3.592  17.393 -1.4348 -2.7744 -0.6867
  517MPD2     N 7739   0.101   3.521  17.618 -0.5229 -0.2813  0.2903
  517MPD2    H5 7740   0.087   3.607  17.670  0.1813  0.3994 -0.6544
  517MPD2    N1 7741   4.669   3.193  17.306 -0.6158 -0.3308  0.7038
  517MPD2    H7 7742   0.010   3.135  17.320 -0.3343 -0.1631 -0.2592
  518TMC3    C1 7743   4.633   3.030  17.136 -0.0059 -0.1600 -0.5586
  518TMC3    C2 7744   4.546   2.933  17.103  0.5718  0.6350  0.2724
  518TMC3    C3 7745   4.580   2.834  17.020 -0.2668 -0.1672  0.3278
  518TMC3    C4 7746   0.026   3.012  17.129 -0.1177  0.5556  0.7290
  518TMC3    C5 7747   0.071   2.909  17.043  0.9621 -0.1307  0.7539
  518TMC3    C6 7748   4.714   2.830  16.987 -0.5418 -0.2051  0.4078
  518TMC3     C 7749   4.577   3.144  17.210 -0.1900  0.8497  0.0285
  518TMC3     O 7750   4.465   3.182  17.162 -0.6198 -0.2597 -0.3434
  518TMC3     H 7751   4.442   2.937  17.134  0.7845 -0.7075  1.1677
  518TMC3    H1 7752   0.090   3.095  17.159  0.0642  0.7635 -0.2221
  518TMC3    H2 7753   4.739   2.741  16.930  0.3368  0.2297  0.1166
  518TMC3    C7 7754   0.205   2.856  17.069 -0.6241 -0.4294 -0.1257
  518TMC3    C8 7755   4.511   2.708  17.009  0.2486 -0.0786  0.3381
  518TMC3    O1 7756   0.280   2.903  17.157 -0.0495  0.3103 -0.5044
  518TMC3    O2 7757   4.522   2.646  16.900 -0.0539  0.4408 -0.2808
  519MPD2     C 7758   1.759   1.331  14.453 -0.6983  0.0876  0.4218
  519MPD2    C1 7759   1.671   1.288  14.351  0.4411  0.0767  0.3398
  519MPD2    C2 7760   1.704   1.183  14.269 -0.8056  0.1858  0.3499
  519MPD2    C3 7761   1.819   1.112  14.295 -0.1385  0.1838  0.0285
  519MPD2    C4 7762   1.900   1.154  14.400 -0.6702 -0.1974  0.1780
  519MPD2    C5 7763   1.868   1.259  14.476  0.0055  0.1693  0.3214
  519MPD2     H 7764   1.637   1.157  14.188  0.9234 -1.7899 -0.4383
  519MPD2    H1 7765   1.984   1.089  14.421 -0.8389 -0.5947 -0.3578
  519MPD2    H2 7766   1.733   1.422  14.506 -0.0934  0.6169 -0.1946
  519MPD2    H3 7767   1.937   1.288  14.555  1.0815 -1.7237  0.0827
  519MPD2     N 7768   1.863   1.004  14.222 -0.1660  0.0548  0.5306
  519MPD2    H5 7769   1.940   0.945  14.251 -0.6394 -1.9056 -2.1420
  519MPD2    N1 7770   1.549   1.352  14.338 -0.0098 -0.1719 -0.1930
  519MPD2    H7 7771   1.526   1.408  14.419 -0.5221  0.4136 -0.7362
  520TMC3    C1 7772   1.874   0.864  14.027  0.6081 -1.1398 -0.4651
  520TMC3    C2 7773   1.809   0.821  13.913  0.2679  0.2968  0.5117
  520TMC3    C3 7774   1.884   0.793  13.801  0.2737 -0.5761  0.5233
  520TMC3    C4 7775   2.013   0.858  14.030  0.2255  0.5447  0.0079
  520TMC3    C5 7776   2.084   0.813  13.917 -0.3704 -0.0845  0.7711
  520TMC3    C6 7777   2.020   0.781  13.800 -0.1020 -0.7075  0.1525
  520TMC3     C 7778   1.815   0.981  14.094 -0.5805 -0.7843 -0.0274
  520TMC3     O 7779   1.738   1.046  14.022  0.2976 -0.3550  0.2407
  520TMC3     H 7780   1.701   0.816  13.922  0.1479 -0.5616 -1.3244
  520TMC3    H1 7781   2.063   0.879  14.124  0.7528 -0.8578  0.0331
  520TMC3    H2 7782   2.080   0.750  13.714  2.0432  0.1055  1.3564
  520TMC3    C7 7783   2.219   0.770  13.928 -0.7817 -0.4943  0.3086
  520TMC3    C8 7784   1.824   0.805  13.670  0.9187 -1.0465 -0.3802
  520TMC3    O1 7785   2.272   0.819  14.026 -0.2399 -0.5564 -0.6611
  520TMC3    O2 7786   1.886   0.754  13.577 -0.4746 -0.1484  0.8606
  521MPD2     C 7787   2.541   4.272   0.096 -0.8152 -0.3896 -0.8079
  521MPD2    C1 7788   2.558   4.167   0.004 -0.3034  1.2878 -0.4115
  521MPD2    C2 7789   2.671   4.169  17.685  0.1959 -0.0593 -0.2163
  521MPD2    C3 7790   2.768   4.257  17.705 -0.2784  0.3827  0.0611
  521MPD2    C4 7791   2.746   4.367   0.022  0.0732  0.0511  0.1455
  521MPD2    C5 7792   2.633   4.374   0.099 -1.0244 -0.0675 -0.2934
  521MPD2     H 7793   2.699   4.083  17.626 -0.4529 -1.1612  1.0874
  521MPD2    H1 7794   2.813   4.452   0.031  1.6597 -1.4487  2.7028
  521MPD2    H2 7795   2.450   4.279   0.154 -0.2080  2.1217 -0.1920
  521MPD2    H3 7796   2.615   4.470   0.146 -3.3443 -0.1722 -0.9536
  521MPD2     N 7797   2.880   4.245  17.626 -0.3781 -0.2522  0.2165
  521MPD2    H5 7798   2.875   4.182  17.547  1.5801  0.3151 -0.3631
  521MPD2    N1 7799   2.471   4.055  17.753  0.2063 -0.3982  0.1534
  521MPD2    H7 7800   2.397   4.038   0.063 -0.1553 -0.7579 -0.3354
  522TMC3    C1 7801   3.079   4.307  17.519  0.5514 -0.1196 -0.5225
  522TMC3    C2 7802   3.210   4.303  17.542  0.4913 -0.3897 -0.0635
  522TMC3    C3 7803   3.292   4.256  17.442 -0.1034 -0.2897 -0.5271
  522TMC3    C4 7804   3.016   4.279  17.398  0.4317 -0.3295 -0.0379
  522TMC3    C5 7805   3.098   4.244  17.294 -0.8478 -0.6313  0.3735
  522TMC3    C6 7806   3.238   4.226  17.318 -0.0458  0.4261  0.3401
  522TMC3     C 7807   2.990   4.325  17.636  0.4571  0.1656  0.6590
  522TMC3     O 7808   3.031   4.392  17.735 -0.2415  0.5436 -0.0771
  522TMC3     H 7809   3.259   4.327  17.636 -2.0559  4.5226  0.0108
  522TMC3    H1 7810   2.921   4.322  17.369  0.0266 -2.1717 -1.4130
  522TMC3    H2 7811   3.296   4.200  17.230  0.6815  1.9949  0.3588
  522TMC3    C7 7812   3.040   4.204  17.174  0.3193  0.0972  0.2878
  522TMC3    C8 7813   3.428   4.218  17.473  0.2981  0.3386 -0.0993
  522TMC3    O1 7814   3.102   4.124  17.103  0.4141  0.3596  0.1981
  522TMC3    O2 7815   3.482   4.263  17.570  0.3605 -0.2615 -0.3825
  523MPD2     C 7816   0.476   4.075  10.146 -0.2615 -0.6960  0.1946
  523MPD2    C1 7817   0.467   3.985  10.036  0.1285 -0.2243 -0.4562
  523MPD2    C2 7818   0.387   4.025   9.924 -0.5269 -0.0895 -0.2351
  523MPD2    C3 7819   0.319   4.144   9.929  0.0146  0.0713  0.1850
  523MPD2    C4 7820   0.321   4.220  10.043  0.0057  0.1895  0.4489
  523MPD2    C5 7821   0.409   4.193  10.148  0.4835  0.7012  0.0494
  523MPD2     H 7822   0.379   3.952   9.844  0.9534  0.8582 -1.2479
  523MPD2    H1 7823   0.260   4.309  10.052  0.9757  0.8852  0.1540
  523MPD2    H2 7824   0.534   4.059  10.237  0.5584  2.1868  0.1591
  523MPD2    H3 7825   0.417   4.258  10.235 -0.1998  1.6253 -0.5729
  523MPD2     N 7826   0.218   4.185   9.841 -0.2226  0.1905 -0.1919
  523MPD2    H5 7827   0.181   4.279   9.856 -1.3267 -0.0484 -1.4241
  523MPD2    N1 7828   0.529   3.861  10.047 -0.1258  0.0341  0.0828
  523MPD2    H7 7829   0.582   3.846  10.132  2.0763  1.2328 -1.1049
  524TMC3    C1 7830   0.057   4.177   9.663 -0.3269 -0.3405 -0.1181
  524TMC3    C2 7831   0.013   4.123   9.546  0.3613  0.6062  0.6115
  524TMC3    C3 7832   4.617   4.098   9.527  0.7840  0.0195 -0.6705
  524TMC3    C4 7833   4.707   4.230   9.750 -0.3782 -0.0954  0.3040
  524TMC3    C5 7834   4.575   4.211   9.729 -0.4285 -0.4018 -0.5179
  524TMC3    C6 7835   4.529   4.148   9.619  0.1242 -0.5007 -0.0595
  524TMC3     C 7836   0.181   4.128   9.720 -0.1430  0.0309 -0.2160
  524TMC3     O 7837   0.248   4.047   9.658  0.3461 -0.4888  0.5156
  524TMC3     H 7838   0.083   4.067   9.485  0.5225  0.1978  1.1723
  524TMC3    H1 7839   4.739   4.270   9.846 -0.4019 -1.5520  0.9326
  524TMC3    H2 7840   4.427   4.112   9.615  1.0493 -3.3026  1.5737
  524TMC3    C7 7841   4.490   4.273   9.823 -0.2386  0.8786 -0.2914
  524TMC3    C8 7842   4.567   4.007   9.422  0.0343 -0.0404  0.2782
  524TMC3    O1 7843   4.523   4.278   9.939  0.5330 -0.2225 -0.2151
  524TMC3    O2 7844   4.459   3.949   9.449 -0.6487 -0.0895 -0.2211
  525MPD2     C 7845   3.288   0.483  14.453 -0.2982 -0.0820  0.3487
  525MPD2    C1 7846   3.286   0.582  14.551 -0.1192  0.2236 -0.7650
  525MPD2    C2 7847   3.326   0.709  14.511  0.1996 -0.5493 -0.6521
  525MPD2    C3 7848   3.391   0.741  14.395  0.8194 -0.0808  0.1498
  525MPD2    C4 7849   3.382   0.640  14.296  0.4837  0.4074  0.0058
  525MPD2    C5 7850   3.333   0.517  14.330  0.1847  0.2952 -0.5085
  525MPD2     H 7851   3.314   0.784  14.588 -0.6555 -1.8569  0.4931
  525MPD2    H1 7852   3.423   0.658  14.198 -1.6955 -0.6212 -1.0921
  525MPD2    H2 7853   3.276   0.378  14.473 -0.1728 -0.1759 -0.0630
  525MPD2    H3 7854   3.321   0.446  14.249 -1.9454  1.7970 -1.4991
  525MPD2     N 7855   3.430   0.872  14.367  0.1721 -0.6445  0.4321
  525MPD2    H5 7856   3.452   0.887  14.269 -0.4727  1.3033  0.5832
  525MPD2    N1 7857   3.248   0.564  14.687  0.7498  0.5596 -0.0153
  525MPD2    H7 7858   3.273   0.637  14.753  0.6122  2.0893 -1.6751
  526TMC3    C1 7859   3.212   0.439  14.884  0.4904 -0.3532 -0.4758
  526TMC3    C2 7860   3.155   0.542  14.963  0.1305 -0.4596 -0.8527
  526TMC3    C3 7861   3.186   0.548  15.094  0.4165 -0.5811  0.3271
  526TMC3    C4 7862   3.299   0.354  14.939 -0.5542 -0.4859 -0.4569
  526TMC3    C5 7863   3.342   0.369  15.070  0.0101  0.3391  0.3859
  526TMC3    C6 7864   3.283   0.470  15.146 -0.9303 -0.0033 -0.4069
  526TMC3     C 7865   3.201   0.444  14.739  0.3788  0.3880 -0.3573
  526TMC3     O 7866   3.179   0.347  14.668  0.0009 -0.1435  0.2853
  526TMC3     H 7867   3.077   0.600  14.916 -0.0103 -1.5065 -1.8928
  526TMC3    H1 7868   3.335   0.280  14.869  2.9817  0.0338  0.8407
  526TMC3    H2 7869   3.319   0.486  15.248  1.4207 -0.2330 -1.1884
  526TMC3    C7 7870   3.468   0.309  15.114  0.8415 -0.0967  0.2150
  526TMC3    C8 7871   3.094   0.610  15.187 -0.1139 -0.4359 -0.2942
  526TMC3    O1 7872   3.535   0.364  15.199 -0.6733  0.4786 -0.5264
  526TMC3    O2 7873   3.122   0.590  15.307  0.5762  0.6210 -0.1489
  527MPD2     C 7874   0.828   3.352   1.328 -0.5735  0.3698 -0.2243
  527MPD2    C1 7875   0.849   3.329   1.197  0.1916  0.4124 -0.6287
  527MPD2    C2 7876   0.969   3.357   1.144  0.0159  0.1060 -0.3086
  527MPD2    C3 7877   1.080   3.371   1.228  0.1177 -0.5998  0.3553
  527MPD2    C4 7878   1.057   3.395   1.356  0.3967 -0.5705  0.3265
  527MPD2    C5 7879   0.931   3.404   1.395  0.3121 -0.2831 -0.5174
  527MPD2     H 7880   0.995   3.353   1.039 -1.9228  2.5428 -0.8639
  527MPD2    H1 7881   1.125   3.437   1.430  0.5745  0.0761 -0.2005
  527MPD2    H2 7882   0.734   3.336   1.380  0.1204  0.2855  1.0135
  527MPD2    H3 7883   0.905   3.431   1.497  0.8415 -0.7487 -0.2593
  527MPD2     N 7884   1.207   3.392   1.168  0.9007 -0.0162 -0.5671
  527MPD2    H5 7885   1.214   3.374   1.068 -2.1459 -1.4844 -0.5093
  527MPD2    N1 7886   0.747   3.306   1.099 -0.5437  0.6153  0.1413
  527MPD2    H7 7887   0.772   3.292   1.001  0.9915  0.8642  0.4903
  528TMC3    C1 7888   0.533   3.239   1.010  0.0149 -0.7382 -0.6708
  528TMC3    C2 7889   0.545   3.331   0.907 -0.2218  1.2515  1.0423
  528TMC3    C3 7890   0.443   3.343   0.817  0.2617 -0.3253  0.0762
  528TMC3    C4 7891   0.429   3.153   1.026  0.2662  0.1661  0.0034
  528TMC3    C5 7892   0.331   3.158   0.930  1.0193  0.7810 -0.5709
  528TMC3    C6 7893   0.334   3.252   0.824  0.0927 -0.0243  0.2278
  528TMC3     C 7894   0.620   3.257   1.130  0.2884 -0.1305 -0.3871
  528TMC3     O 7895   0.574   3.224   1.238  0.2462 -0.3293  0.5077
  528TMC3     H 7896   0.629   3.398   0.894 -0.6747  1.4050 -1.0701
  528TMC3    H1 7897   0.429   3.087   1.111  0.1891  1.6381  1.1372
  528TMC3    H2 7898   0.252   3.250   0.753  0.8341  2.9883 -0.7133
  528TMC3    C7 7899   0.211   3.082   0.950 -0.0264 -0.0147 -0.2485
  528TMC3    C8 7900   0.431   3.472   0.758 -0.4559 -0.7303  0.4560
  528TMC3    O1 7901   0.117   3.099   0.874 -0.3378 -0.0384  0.2952
  528TMC3    O2 7902   0.511   3.559   0.789  0.1751  0.1063  0.1066
  529MPD2     C 7903   3.782   1.839   0.926 -0.7490 -0.1921 -0.2062
  529MPD2    C1 7904   3.826   1.725   0.869  0.4184 -0.6915  0.5006
  529MPD2    C2 7905   3.800   1.702   0.736 -0.5861  0.2199  0.6013
  529MPD2    C3 7906   3.739   1.803   0.662 -0.4543 -0.7083 -0.0100
  529MPD2    C4 7907   3.715   1.927   0.713 -0.0405 -0.4102 -0.2900
  529MPD2    C5 7908   3.729   1.942   0.851 -0.3028  0.1539 -0.0760
  529MPD2     H 7909   3.831   1.611   0.685 -0.5952  0.8543 -0.5340
  529MPD2    H1 7910   3.678   2.003   0.645 -0.5223  1.3006  1.9125
  529MPD2    H2 7911   3.794   1.861   1.031 -0.8451  1.5592 -0.5689
  529MPD2    H3 7912   3.708   2.035   0.903  0.0399 -0.2808  0.8390
  529MPD2     N 7913   3.727   1.796   0.525  0.0847  0.8786  0.2394
  529MPD2    H5 7914   3.704   1.883   0.478 -0.9257  0.3283 -0.2848
  529MPD2    N1 7915   3.916   1.633   0.937 -0.3241  0.2152 -0.1778
  529MPD2    H7 7916   3.942   1.551   0.883  0.6569 -0.8486  1.8930
  530TMC3    C1 7917   4.072   1.554   1.096 -0.8846  0.0303 -0.6470
  530TMC3    C2 7918   4.169   1.601   1.184 -0.2857 -0.0433 -0.4411
  530TMC3    C3 7919   4.261   1.511   1.233  0.2721 -0.0249  0.3362
  530TMC3    C4 7920   4.058   1.424   1.064  0.2423 -0.6764 -0.2839
  530TMC3    C5 7921   4.148   1.340   1.119 -0.4191 -0.2892 -0.4526
  530TMC3    C6 7922   4.256   1.380   1.194 -0.1769  0.0076 -0.2581
  530TMC3     C 7923   3.970   1.653   1.062 -0.1179  0.7085 -0.0109
  530TMC3     O 7924   3.961   1.752   1.131 -0.0847 -0.1562 -0.3222
  530TMC3     H 7925   4.177   1.707   1.206 -0.9574 -0.0027 -0.3707
  530TMC3    H1 7926   3.981   1.387   0.998  0.5718 -2.1575  0.1753
  530TMC3    H2 7927   4.324   1.308   1.238 -0.9856  0.4242  1.6457
  530TMC3    C7 7928   4.138   1.200   1.089 -0.0888  0.2199  0.1360
  530TMC3    C8 7929   4.327   1.548   1.351  0.9601  0.3563 -0.6625
  530TMC3    O1 7930   4.244   1.140   1.099 -0.0067 -0.7149 -0.4157
  530TMC3    O2 7931   4.278   1.647   1.403 -0.0709  0.3143  0.1417
  531MPD2     C 7932   2.642   4.494  13.434 -0.2671  0.4623 -0.3138
  531MPD2    C1 7933   2.513   4.452  13.444 -0.0487 -0.1563  0.3114
  531MPD2    C2 7934   2.466   4.349  13.358 -0.0056 -0.0800  0.4405
  531MPD2    C3 7935   2.557   4.270  13.285 -0.0155 -0.2249 -0.2263
  531MPD2    C4 7936   2.690   4.308  13.280 -0.0227 -0.1181  0.4879
  531MPD2    C5 7937   2.729   4.418  13.355  0.5400 -0.2090 -0.0031
  531MPD2     H 7938   2.362   4.319  13.362 -0.2314  0.7751  1.1087
  531MPD2    H1 7939   2.759   4.259  13.213  0.5076  0.8638  0.3182
  531MPD2    H2 7940   2.692   4.565  13.499  1.3265 -0.6787 -0.2628
  531MPD2    H3 7941   2.830   4.454  13.339  0.9050 -1.8101 -1.2082
  531MPD2     N 7942   2.523   4.161  13.205  0.2488  0.1101 -0.2884
  531MPD2    H5 7943   2.601   4.110  13.164  0.5508 -0.4902  1.0123
  531MPD2    N1 7944   2.430   4.535  13.525  0.3269  0.6274  0.4615
  531MPD2    H7 7945   2.469   4.600  13.592  0.1010 -0.3871  1.5745
  532TMC3    C1 7946   2.253   4.571  13.675 -0.1152 -0.6047 -0.2875
  532TMC3    C2 7947   2.125   4.528  13.713 -0.0478 -0.6232 -0.0859
  532TMC3    C3 7948   2.108   4.476  13.836 -0.1334 -0.8978 -0.1523
  532TMC3    C4 7949   2.350   4.583  13.772 -0.3289  0.0017  0.1980
  532TMC3    C5 7950   2.314   4.556  13.901  0.5687 -0.3513 -0.0965
  532TMC3    C6 7951   2.195   4.508  13.934  0.3516 -0.4650 -0.5022
  532TMC3     C 7952   2.300   4.518  13.543  0.2040  0.6519 -0.2416
  532TMC3     O 7953   2.221   4.436  13.497  0.2742 -0.6510 -0.1985
  532TMC3     H 7954   2.056   4.517  13.631  0.5165 -2.4686 -0.3333
  532TMC3    H1 7955   2.453   4.604  13.749  0.0594 -0.2000  1.7783
  532TMC3    H2 7956   2.178   4.463  14.032  0.0266  1.2218  0.2202
  532TMC3    C7 7957   2.428   4.538  13.987  0.0534  0.0271 -0.2783
  532TMC3    C8 7958   2.054   4.336  13.834 -0.6219 -0.6744  0.2693
  532TMC3    O1 7959   2.455   4.612  14.080 -0.0018  0.4170 -0.6490
  532TMC3    O2 7960   2.029   4.283  13.942  0.4627  0.2116  0.3091
  533TMC3    C1 7961   3.460   1.093  14.367 -0.5455  0.0572 -0.5388
  533TMC3    C2 7962   3.551   1.182  14.411  0.3865  0.3470 -0.1052
  533TMC3    C3 7963   3.512   1.313  14.424 -0.5284  0.6163  0.8362
  533TMC3    C4 7964   3.343   1.138  14.313  0.3120 -0.1651  0.5008
  533TMC3    C5 7965   3.307   1.268  14.315  0.2590  0.1956 -0.0582
  533TMC3    C6 7966   3.394   1.357  14.373 -0.0711 -0.8011 -0.4271
  533TMC3     C 7967   3.440   0.980  14.446  0.1601  0.1567  0.4354
  533TMC3     O 7968   3.451   0.982  14.566  0.0469 -0.4907 -0.1374
  533TMC3     H 7969   3.644   1.149  14.456  0.0395 -0.8376 -0.2582
  533TMC3    H1 7970   3.265   1.063  14.305 -0.3741  0.6136 -0.0595
  533TMC3    H2 7971   3.373   1.463  14.369 -1.8923 -1.1271  0.7470
  533TMC3    C7 7972   3.172   1.289  14.374 -0.6575 -0.9250 -0.0475
  533TMC3    C8 7973   3.618   1.416  14.445 -0.3250  0.2730 -0.7640
  533TMC3    O1 7974   3.124   1.193  14.430  0.0082  0.8139  0.9474
  533TMC3    O2 7975   3.579   1.530  14.432  0.6199 -0.5710  0.6126
  534MPD2     C 7976   1.987   1.562   1.379  0.4074  0.0528 -0.5705
  534MPD2    C1 7977   1.939   1.693   1.361 -0.1436  0.0012 -0.1644
  534MPD2    C2 7978   1.808   1.718   1.319 -0.2621 -0.1329 -0.0474
  534MPD2    C3 7979   1.724   1.610   1.293  0.4721  0.1072 -0.2875
  534MPD2    C4 7980   1.775   1.482   1.315  0.4254 -0.1302 -0.1688
  534MPD2    C5 7981   1.902   1.457   1.366 -0.9287 -0.0670 -0.0266
  534MPD2     H 7982   1.775   1.818   1.292 -1.4181 -0.8822 -1.4382
  534MPD2    H1 7983   1.715   1.396   1.285  1.2170 -0.7601  0.0585
  534MPD2    H2 7984   2.087   1.539   1.413  0.8603  2.5306 -0.2226
  534MPD2    H3 7985   1.932   1.358   1.399  0.7114  0.1666 -0.8165
  534MPD2     N 7986   1.600   1.620   1.230 -0.1766 -0.0363 -0.3950
  534MPD2    H5 7987   1.567   1.527   1.204 -2.0046  0.3495  0.5092
  534MPD2    N1 7988   2.016   1.804   1.403  0.2591 -0.1930  0.4595
  534MPD2    H7 7989   1.981   1.899   1.397 -1.2723 -0.7105  1.2195
  535TMC3    C1 7990   1.416   1.719   1.112 -0.0156  0.5130 -0.5655
  535TMC3    C2 7991   1.326   1.628   1.155 -0.0096 -0.0223  0.0743
  535TMC3    C3 7992   1.206   1.609   1.087  0.3207  0.5616  0.0585
  535TMC3    C4 7993   1.385   1.804   1.005 -0.6754  0.1228 -0.0656
  535TMC3    C5 7994   1.275   1.767   0.928 -0.6909  0.0636  0.0690
  535TMC3    C6 7995   1.191   1.672   0.965  0.1627  0.3249 -0.5069
  535TMC3     C 7996   1.547   1.735   1.179  0.9788 -0.0060  0.1368
  535TMC3     O 7997   1.583   1.854   1.173  0.6525 -0.1627 -0.3005
  535TMC3     H 7998   1.345   1.565   1.241  0.4240  0.1817  0.1266
  535TMC3    H1 7999   1.452   1.885   0.982  1.0236 -1.2901 -0.0607
  535TMC3    H2 8000   1.099   1.668   0.908  0.5214 -2.0489 -0.9366
  535TMC3    C7 8001   1.220   1.858   0.836  0.2563  0.6693 -0.4599
  535TMC3    C8 8002   1.083   1.616   1.169  0.4958 -0.4051 -0.0362
  535TMC3    O1 8003   1.160   1.821   0.735 -0.2202  0.8318 -0.1310
  535TMC3    O2 8004   0.981   1.596   1.103 -0.3148  0.2952  0.6329
  536MPD2     C 8005   4.628   0.641  15.776  0.2489 -0.3149 -0.0932
  536MPD2    C1 8006   4.533   0.591  15.858 -0.2350 -0.2536 -0.1877
  536MPD2    C2 8007   4.399   0.574  15.813  0.5194  0.5613  0.4231
  536MPD2    C3 8008   4.368   0.608  15.686 -0.0881 -0.7759 -0.0745
  536MPD2    C4 8009   4.468   0.662  15.603 -0.6885 -0.1800  0.3624
  536MPD2    C5 8010   4.591   0.684  15.649 -0.3208 -0.6905 -0.4650
  536MPD2     H 8011   4.320   0.544  15.881  0.3725 -0.2947 -0.1175
  536MPD2    H1 8012   4.441   0.682  15.499  0.0413  0.2383  0.2554
  536MPD2    H2 8013   4.733   0.632  15.803  0.0039  0.0777  1.0059
  536MPD2    H3 8014   4.672   0.722  15.587 -1.1006  1.5403 -0.1193
  536MPD2     N 8015   4.239   0.586  15.634  0.2079 -0.6298  0.3665
  536MPD2    H5 8016   4.231   0.635  15.545 -2.8064 -0.0535  0.9533
  536MPD2    N1 8017   4.578   0.569  15.992 -0.0015 -0.3455  0.3291
  536MPD2    H7 8018   4.658   0.615  16.033 -0.4115  0.9693 -0.3474
  537TMC3    C1 8019   4.570   0.484  16.208 -0.3710 -0.5577 -0.2449
  537TMC3    C2 8020   4.623   0.599  16.263 -0.0202 -0.2610 -0.0014
  537TMC3    C3 8021   4.633   0.606  16.395 -0.0429  0.3100 -0.0042
  537TMC3    C4 8022   4.542   0.373  16.283  0.5492  0.1993 -0.7532
  537TMC3    C5 8023   4.559   0.376  16.421 -0.3712 -0.4826  0.6267
  537TMC3    C6 8024   4.592   0.498  16.478 -0.1028  1.3986  0.2661
  537TMC3     C 8025   4.506   0.490  16.074 -0.0270  0.2347  0.2115
  537TMC3     O 8026   4.429   0.400  16.040 -0.0434 -0.1712  0.0148
  537TMC3     H 8027   4.651   0.681  16.198 -1.7518  0.2338 -0.1098
  537TMC3    H1 8028   4.490   0.293  16.230  0.5274 -0.0677 -0.3272
  537TMC3    H2 8029   4.578   0.517  16.584 -3.1589 -1.1151  0.2970
  537TMC3    C7 8030   4.522   0.260  16.491  0.0973  1.0040 -0.1423
  537TMC3    C8 8031   4.641   0.735  16.465 -0.2117  0.3394  0.2768
  537TMC3    O1 8032   4.488   0.159  16.430 -0.3633 -0.0714 -0.1001
  537TMC3    O2 8033   4.703   0.740  16.569  0.5175  0.0975 -0.1691
  538TMC3    C1 8034   0.929   3.863  11.142 -0.2271 -0.4093 -0.1426
  538TMC3    C2 8035   1.020   3.771  11.120  0.4767  0.3261 -0.3785
  538TMC3    C3 8036   1.068   3.752  10.995 -0.3838 -0.3129 -0.2493
  538TMC3    C4 8037   0.884   3.943  11.045  0.1124  0.6377 -0.3630
  538TMC3    C5 8038   0.924   3.924  10.916  0.3960 -0.3828  0.3156
  538TMC3    C6 8039   1.021   3.832  10.889  0.4358 -0.2229  0.3075
  538TMC3     C 8040   0.824   3.833  11.244  0.2979  0.7613  0.3442
  538TMC3     O 8041   0.710   3.862  11.224 -0.2983  0.1757  0.0396
  538TMC3     H 8042   1.053   3.700  11.195  1.5262  0.5184 -0.6595
  538TMC3    H1 8043   0.802   4.012  11.062  0.0259  0.4023  0.1788
  538TMC3    H2 8044   1.055   3.829  10.785 -1.0716  0.8970 -0.2158
  538TMC3    C7 8045   0.819   3.929  10.814  0.2964  0.5377  0.0622
  538TMC3    C8 8046   1.168   3.656  10.971 -0.2479 -0.1340 -0.4655
  538TMC3    O1 8047   0.810   3.833  10.738  0.0958 -0.2589 -0.2582
  538TMC3    O2 8048   1.159   3.548  11.027  0.0795  0.0405  0.5269
  539MPD2     C 8049   0.811   3.126  11.817  0.4254 -0.3618 -0.7773
  539MPD2    C1 8050   0.792   3.072  11.689  0.8957 -0.7876  0.2224
  539MPD2    C2 8051   0.683   3.118  11.612 -0.6066 -0.2276  0.5619
  539MPD2    C3 8052   0.591   3.203  11.673  0.2148 -0.1812 -0.1197
  539MPD2    C4 8053   0.616   3.256  11.800  0.2979 -0.2484  0.8045
  539MPD2    C5 8054   0.731   3.221  11.871  0.1473  0.2612  0.4176
  539MPD2     H 8055   0.665   3.077  11.513 -0.6572 -0.7423  0.7839
  539MPD2    H1 8056   0.537   3.315  11.844 -0.5711 -0.1602 -0.8605
  539MPD2    H2 8057   0.888   3.094  11.887 -0.6033 -1.1252  0.0068
  539MPD2    H3 8058   0.762   3.261  11.967 -0.8028  1.6369  0.1442
  539MPD2     N 8059   0.463   3.227  11.616  0.4499 -0.1933  0.2566
  539MPD2    H5 8060   0.396   3.279  11.673 -0.2651  1.1079 -1.7761
  539MPD2    N1 8061   0.872   2.970  11.631  0.1303 -0.0777  0.2286
  539MPD2    H7 8062   0.837   2.935  11.542 -0.2863  2.8003 -0.7183
  540TMC3    C1 8063   0.287   3.188  11.461  0.5800  0.4955  0.7292
  540TMC3    C2 8064   0.236   3.208  11.335  0.1887  0.4964 -0.2227
  540TMC3    C3 8065   0.100   3.195  11.318 -0.2262 -0.0782 -0.0277
  540TMC3    C4 8066   0.216   3.123  11.555  0.4484 -0.1751  0.0815
  540TMC3    C5 8067   0.086   3.089  11.529 -0.3375  0.1069  0.3956
  540TMC3    C6 8068   0.021   3.127  11.410 -0.2273 -0.0599 -0.4775
  540TMC3     C 8069   0.425   3.209  11.485 -0.0497  0.6294  0.0109
  540TMC3     O 8070   0.486   3.209  11.379 -0.8001 -0.0093  0.1292
  540TMC3     H 8071   0.286   3.283  11.275 -0.4596  0.3051 -1.0042
  540TMC3    H1 8072   0.269   3.097  11.646  0.4372 -1.6956 -0.3489
  540TMC3    H2 8073   4.655   3.118  11.388 -0.2274  1.0742 -0.9496
  540TMC3    C7 8074   0.006   3.038  11.635 -0.2049  0.5680 -0.1739
  540TMC3    C8 8075   0.033   3.243  11.200 -0.9897 -0.6184  0.8597
  540TMC3    O1 8076   4.625   3.044  11.633  0.1946  0.1576  0.4256
  540TMC3    O2 8077   4.651   3.242  11.204  0.0683 -0.2498  0.3236
  541MPD2     C 8078   4.188   4.438  13.243  0.2586  0.0067 -0.5168
  541MPD2    C1 8079   4.066   4.378  13.264  0.0061 -0.6457  0.5110
  541MPD2    C2 8080   3.965   4.410  13.175  1.2727  0.6588 -0.3784
  541MPD2    C3 8081   3.981   4.503  13.074  0.3497 -0.3264  0.5018
  541MPD2    C4 8082   4.101   4.562  13.053 -0.3737 -0.2900 -0.1939
  541MPD2    C5 8083   4.209   4.536  13.139 -0.0276  0.2518 -0.3141
  541MPD2     H 8084   3.873   4.354  13.191 -0.1741  2.9603 -0.6406
  541MPD2    H1 8085   4.113   4.639  12.978 -0.7370  0.4242  0.4846
  541MPD2    H2 8086   4.268   4.409  13.310 -1.1071 -1.6473  0.4064
  541MPD2    H3 8087   4.300   4.591  13.117 -0.8723  2.3577  1.4777
  541MPD2     N 8088   3.880   4.527  12.976 -0.3298  0.0062  0.0630
  541MPD2    H5 8089   3.908   4.577  12.892 -0.0297 -1.2714 -0.6030
  541MPD2    N1 8090   4.070   4.277  13.361  0.0853 -0.3428  0.6115
  541MPD2    H7 8091   4.157   4.230  13.384 -0.4177 -0.3471  2.4501
  542TMC3    C1 8092   3.685   4.477  12.854 -0.6525  0.6976  0.2051
  542TMC3    C2 8093   3.768   4.460  12.741  0.4743  0.2342  0.0964
  542TMC3    C3 8094   3.703   4.445  12.623  0.6665 -0.4636  0.8241
  542TMC3    C4 8095   3.549   4.487  12.842  0.0548  0.1752  0.4614
  542TMC3    C5 8096   3.491   4.476  12.716  0.0725 -0.3729 -0.8361
  542TMC3    C6 8097   3.571   4.460  12.606  0.5378  0.4498  0.1620
  542TMC3     C 8098   3.748   4.487  12.990 -0.3314 -0.0355 -0.7245
  542TMC3     O 8099   3.686   4.450  13.091  0.4733  0.8160  0.0911
  542TMC3     H 8100   3.873   4.437  12.750  0.1895 -0.5115  1.6497
  542TMC3    H1 8101   3.492   4.488  12.934 -2.1463  1.8811 -0.9072
  542TMC3    H2 8102   3.531   4.461  12.506  2.7253  0.3213 -0.7190
  542TMC3    C7 8103   3.347   4.453  12.706 -0.7890  0.1169 -0.4145
  542TMC3    C8 8104   3.781   4.417  12.501  0.2181  0.2883  0.2382
  542TMC3    O1 8105   3.282   4.494  12.799 -0.4010 -0.3841 -0.2772
  542TMC3    O2 8106   3.744   4.458  12.395 -0.6713  0.3668 -0.0932
  543TMC3    C1 8107   3.397   0.840  17.472  0.3101  0.2772 -0.0623
  543TMC3    C2 8108   3.484   0.762  17.543  0.1376  0.3732  0.5185
  543TMC3    C3 8109   3.441   0.718  17.664 -0.3280 -0.7318  0.0731
  543TMC3    C4 8110   3.275   0.877  17.520 -0.2221 -0.6133  0.3825
  543TMC3    C5 8111   3.246   0.837  17.642 -0.2239  0.8193 -0.2132
  543TMC3    C6 8112   3.323   0.760  17.717 -1.0283  0.2607 -0.0188
  543TMC3     C 8113   3.446   0.888  17.346 -0.0167  0.1144 -0.2177
  543TMC3     O 8114   3.560   0.859  17.321 -0.1668  0.1147 -0.1757
  543TMC3     H 8115   3.581   0.730  17.506 -1.0494 -0.0046 -2.2293
  543TMC3    H1 8116   3.201   0.925  17.457  0.0089  0.3717  0.8486
  543TMC3    H2 8117   3.292   0.743   0.062  0.0608  0.2508  0.3119
  543TMC3    C7 8118   3.145   0.912  17.711  0.3351  0.2179 -0.1906
  543TMC3    C8 8119   3.538   0.641  17.740 -0.6901  0.0629  0.3325
  543TMC3    O1 8120   3.162   0.931   0.074 -0.4075  0.1553  0.1249
  543TMC3    O2 8121   3.614   0.567  17.674  0.1288  0.0987 -0.2228
  544MPD2     C 8122   3.700   0.464   0.434  0.0700 -0.0007  0.3251
  544MPD2    C1 8123   3.702   0.408   0.308  0.2033 -0.6548 -0.6658
  544MPD2    C2 8124   3.656   0.482   0.201  0.5140 -0.1489 -0.3320
  544MPD2    C3 8125   3.602   0.605   0.225 -0.2683 -0.1900 -0.1525
  544MPD2    C4 8126   3.618   0.670   0.345 -0.1742 -0.4995 -0.6138
  544MPD2    C5 8127   3.671   0.601   0.449  0.5810  0.0228 -0.4329
  544MPD2     H 8128   3.667   0.452   0.098 -0.7967  1.3587 -0.9253
  544MPD2    H1 8129   3.576   0.768   0.361 -0.3551 -1.1490  2.7654
  544MPD2    H2 8130   3.726   0.392   0.512 -0.6391 -0.4167  0.1851
  544MPD2    H3 8131   3.671   0.653   0.543  2.0470  2.7656 -1.9531
  544MPD2     N 8132   3.548   0.682   0.117 -0.6076 -0.4657  0.4856
  544MPD2    H5 8133   3.493   0.764   0.141 -1.4805 -0.2142 -2.2801
  544MPD2    N1 8134   3.761   0.281   0.300  0.0875 -0.1489  0.1587
  544MPD2    H7 8135   3.830   0.256   0.370 -0.2672 -0.9336  0.2250
  545TMC3    C1 8136   3.896   0.131   0.171  0.0759  0.5484 -0.3158
  545TMC3    C2 8137   4.008   0.171   0.229  0.1412 -0.2389  0.1586
  545TMC3    C3 8138   4.115   0.096   0.207  0.1111 -0.8009 -0.5250
  545TMC3    C4 8139   3.889   0.025   0.086  0.5117  0.2840 -0.4913
  545TMC3    C5 8140   3.996   4.682   0.085  0.4536  0.0763 -0.0617
  545TMC3    C6 8141   4.115   4.716   0.138 -0.3146  0.2710  0.3817
  545TMC3     C 8142   3.781   0.220   0.179  0.0912  0.5730  0.4411
  545TMC3     O 8143   3.694   0.210   0.088  0.0196  0.2613 -0.3221
  545TMC3     H 8144   4.013   0.263   0.287 -0.4132  0.2595 -0.5796
  545TMC3    H1 8145   3.799   4.734   0.034  0.4020  1.0972 -0.7901
  545TMC3    H2 8146   4.199   4.649   0.127 -0.7597 -0.1513 -0.4548
  545TMC3    C7 8147   3.981   4.545   0.035  0.2849 -0.3553  0.1852
  545TMC3    C8 8148   4.240   0.155   0.260 -0.2906 -0.1297 -0.0914
  545TMC3    O1 8149   3.935   4.523  17.681 -0.0565  0.7092 -0.1687
  545TMC3    O2 8150   4.240   0.226   0.364 -0.4213  0.5543 -0.8007
  546MPD2     C 8151   0.228   1.313  17.160  0.1041 -0.6322 -0.4377
  546MPD2    C1 8152   0.105   1.297  17.107 -0.0297  0.2432  0.9732
  546MPD2    C2 8153   0.047   1.404  17.047  0.4237  0.2859  0.8271
  546MPD2    C3 8154   0.104   1.527  17.041 -0.8861 -0.0159 -0.8189
  546MPD2    C4 8155   0.233   1.543  17.092  0.5148  0.0427  0.3077
  546MPD2    C5 8156   0.295   1.430  17.143  0.5828 -0.0729 -0.0392
  546MPD2     H 8157   4.685   1.395  17.012  0.7394  0.3365 -0.1096
  546MPD2    H1 8158   0.288   1.636  17.098  3.0382 -1.4922  0.8496
  546MPD2    H2 8159   0.275   1.223  17.196  0.7222 -0.8747 -1.8606
  546MPD2    H3 8160   0.397   1.442  17.178  0.4142 -0.3230  0.5223
  546MPD2     N 8161   0.032   1.644  17.001  0.0050 -0.0656 -0.2819
  546MPD2    H5 8162   0.088   1.729  16.992 -1.0525  0.6409 -0.2319
  546MPD2    N1 8163   0.038   1.174  17.106 -0.2519  0.9776  0.1178
  546MPD2    H7 8164   0.091   1.107  17.161  0.8257  0.3887 -1.6416
  547TMC3    C1 8165   4.697   0.981  17.005 -0.7953  0.4401  0.5433
  547TMC3    C2 8166   4.655   0.907  16.896 -0.4451  0.1353  0.3409
  547TMC3    C3 8167   4.640   0.768  16.903 -0.0007  0.1429 -0.4343
  547TMC3    C4 8168   4.720   0.920  17.128 -0.4802  0.8560 -0.4156
  547TMC3    C5 8169   4.712   0.781  17.123 -0.1173 -0.2091  0.4923
  547TMC3    C6 8170   4.690   0.707  17.008 -0.6512  0.4736 -0.2430
  547TMC3     C 8171   4.685   1.128  17.014 -0.1660  0.4265  0.0487
  547TMC3     O 8172   4.604   1.188  16.938 -0.0985  0.1950  0.4229
  547TMC3     H 8173   4.632   0.960  16.804 -2.5382  0.4714  1.0468
  547TMC3    H1 8174   4.737   0.975  17.220 -1.3636  1.0535 -0.3802
  547TMC3    H2 8175   4.687   0.599  17.012  2.4703  0.3247 -2.6208
  547TMC3    C7 8176   0.009   0.708  17.236  0.3405 -0.5513 -0.1058
  547TMC3    C8 8177   4.514   0.716  16.853  1.0739 -0.1552 -0.1746
  547TMC3    O1 8178   0.106   0.637  17.218 -0.6703  0.2440  0.8284
  547TMC3    O2 8179   4.477   0.768  16.750  0.1555  0.2288  0.1280
  548MPD2     C 8180   4.417   1.586  12.693 -0.4571  0.6365  0.3104
  548MPD2    C1 8181   4.349   1.471  12.651  0.6051 -0.1074  0.2668
  548MPD2    C2 8182   4.428   1.358  12.621 -0.1893  0.4576  0.2434
  548MPD2    C3 8183   4.567   1.354  12.641 -0.2557  0.1668  0.7045
  548MPD2    C4 8184   4.627   1.466  12.699  0.0326 -0.3437  0.1214
  548MPD2    C5 8185   4.552   1.580  12.721 -0.0508  0.3273  0.4957
  548MPD2     H 8186   4.385   1.263  12.591 -2.6382  1.7535 -0.3274
  548MPD2    H1 8187   4.731   1.469  12.728 -0.2188 -0.3748  1.0199
  548MPD2    H2 8188   4.358   1.670  12.727  0.7992  2.2902 -1.5906
  548MPD2    H3 8189   4.597   1.671  12.760 -0.6109  0.6446  0.3952
  548MPD2     N 8190   4.651   1.250  12.597  0.1152  0.4614  0.2327
  548MPD2    H5 8191   4.605   1.185  12.533 -1.1866  1.2095  0.4034
  548MPD2    N1 8192   4.211   1.468  12.661  0.9542 -0.2381  0.2619
  548MPD2    H7 8193   4.165   1.551  12.695 -0.4188 -1.2336  0.8425
  549TMC3    C1 8194   3.984   1.379  12.680  0.7783 -0.1557 -0.1979
  549TMC3    C2 8195   3.934   1.497  12.631 -0.0580  0.3421 -0.0524
  549TMC3    C3 8196   3.800   1.504  12.615 -0.3076  0.2220 -0.1024
  549TMC3    C4 8197   3.911   1.274  12.711 -0.0795 -0.5552 -0.2961
  549TMC3    C5 8198   3.775   1.294  12.703  0.6102 -0.0672  0.0732
  549TMC3    C6 8199   3.720   1.407  12.644 -0.1236 -0.2211  0.0142
  549TMC3     C 8200   4.131   1.357  12.646 -0.6218 -0.2999  0.5969
  549TMC3     O 8201   4.163   1.242  12.619 -0.2817  0.2831 -0.2089
  549TMC3     H 8202   3.994   1.582  12.603 -0.0829  0.6007  0.6732
  549TMC3    H1 8203   3.958   1.188  12.758  0.3183 -0.8028 -1.1575
  549TMC3    H2 8204   3.611   1.407  12.643 -0.1103  1.7156 -0.6994
  549TMC3    C7 8205   3.688   1.179  12.691  0.0616 -0.3470 -0.2918
  549TMC3    C8 8206   3.740   1.636  12.589 -0.7995  0.0595 -0.0460
  549TMC3    O1 8207   3.576   1.204  12.643 -0.3697 -0.1804  0.0800
  549TMC3    O2 8208   3.816   1.732  12.589  0.1796  0.3026  0.2132
  550TMC3    C1 8209   3.261   4.176  12.915  0.0240 -0.5093  0.5106
  550TMC3    C2 8210   3.154   4.238  12.981 -0.4813  0.7453  0.9900
  550TMC3    C3 8211   3.033   4.232  12.920 -0.2103  0.2060  0.1060
  550TMC3    C4 8212   3.250   4.096  12.802 -0.1996 -0.1580  0.4480
  550TMC3    C5 8213   3.124   4.091  12.748 -0.4004  0.2534  0.5110
  550TMC3    C6 8214   3.016   4.159  12.801 -0.1357  0.3518 -0.4909
  550TMC3     C 8215   3.399   4.177  12.972  0.0395 -0.2593 -0.3189
  550TMC3     O 8216   3.415   4.214  13.090  0.1102  0.4368  0.3697
  550TMC3     H 8217   3.180   4.304  13.063  0.6741  0.0632  1.1641
  550TMC3    H1 8218   3.318   4.022  12.762  2.1412  2.4107 -0.3143
  550TMC3    H2 8219   2.924   4.161  12.744 -1.1184  0.5647  1.1129
  550TMC3    C7 8220   3.087   4.016  12.638  0.2918  0.1760  0.3427
  550TMC3    C8 8221   2.921   4.320  12.957 -0.7268  0.1958  0.2183
  550TMC3    O1 8222   2.966   3.980  12.639  0.0841  0.3257 -0.0606
  550TMC3    O2 8223   2.950   4.427  13.011 -0.2377 -0.7595 -0.3527
  551TMC3    C1 8224   0.635   2.190  13.359 -0.6982  0.1364 -0.4200
  551TMC3    C2 8225   0.738   2.101  13.349 -0.0977  0.6694 -0.0241
  551TMC3    C3 8226   0.843   2.106  13.437 -0.7509  0.3188 -0.3326
  551TMC3    C4 8227   0.623   2.274  13.472 -0.0400 -0.4173 -0.1259
  551TMC3    C5 8228   0.729   2.278  13.559  0.8395  0.1055 -0.3764
  551TMC3    C6 8229   0.837   2.193  13.544 -0.1240  0.6221 -0.3361
  551TMC3     C 8230   0.546   2.195  13.244  0.2325  0.1616 -0.2842
  551TMC3     O 8231   0.435   2.141  13.254  0.5022  0.9439 -0.0300
  551TMC3     H 8232   0.730   2.025  13.272  1.4054  1.0164 -0.5291
  551TMC3    H1 8233   0.536   2.339  13.479  0.4987  0.2888  0.0580
  551TMC3    H2 8234   0.925   2.195  13.608 -1.3192  2.3833  1.2477
  551TMC3    C7 8235   0.745   2.379  13.661 -0.6826  0.4920  0.1301
  551TMC3    C8 8236   0.970   2.120  13.359  0.4053  0.7223 -0.2252
  551TMC3    O1 8237   0.843   2.368  13.730  0.2972  0.0419 -0.6059
  551TMC3    O2 8238   0.984   2.040  13.269 -0.1731  0.0631  0.2535
  552MPD2     C 8239   2.506   4.375  14.376  0.2038 -0.1818  0.2069
  552MPD2    C1 8240   2.451   4.271  14.443  0.5820 -0.2462  0.3830
  552MPD2    C2 8241   2.522   4.209  14.545 -1.0690 -0.1563 -0.1874
  552MPD2    C3 8242   2.650   4.246  14.576 -0.9182 -0.4807  0.9250
  552MPD2    C4 8243   2.704   4.349  14.502 -0.2719 -0.2355  0.0946
  552MPD2    C5 8244   2.629   4.407  14.403 -0.0820  0.5657  0.0746
  552MPD2     H 8245   2.482   4.122  14.597  1.0855 -0.7050  0.5533
  552MPD2    H1 8246   2.802   4.385  14.530  0.5007 -1.8809 -0.4995
  552MPD2    H2 8247   2.458   4.439  14.303 -1.5357  0.8295  2.2483
  552MPD2    H3 8248   2.678   4.491  14.354  0.3119  1.3053  1.7175
  552MPD2     N 8249   2.737   4.173  14.657 -0.5464 -0.3877  0.1886
  552MPD2    H5 8250   2.834   4.201  14.646 -0.8520  0.4155 -0.4701
  552MPD2    N1 8251   2.336   4.203  14.412  0.2046 -0.4623  0.1874
  552MPD2    H7 8252   2.318   4.116  14.462 -0.6108 -0.4780 -0.1230
  553TMC3    C1 8253   2.199   4.110  14.253  1.1092 -0.2716  0.0597
  553TMC3    C2 8254   2.241   4.082  14.126 -0.1439 -0.2666 -0.3180
  553TMC3    C3 8255   2.302   3.972  14.089 -0.1926  0.3360 -0.4901
  553TMC3    C4 8256   2.212   4.014  14.343 -0.2343 -0.0151 -0.9992
  553TMC3    C5 8257   2.284   3.898  14.304  0.6555 -1.1604 -0.0460
  553TMC3    C6 8258   2.326   3.874  14.176  0.0283 -0.0936  0.1939
  553TMC3     C 8259   2.261   4.235  14.302  0.3629 -1.0995  0.1488
  553TMC3     O 8260   2.268   4.334  14.229 -0.2784  1.0267  0.1681
  553TMC3     H 8261   2.225   4.164  14.056 -0.6225 -0.5735 -0.5677
  553TMC3    H1 8262   2.158   4.024  14.436  0.1094 -2.0023 -0.5996
  553TMC3    H2 8263   2.387   3.787  14.153  1.2335  0.5729  0.8556
  553TMC3    C7 8264   2.343   3.830  14.415  0.2955  0.2032 -0.3365
  553TMC3    C8 8265   2.364   3.964  13.958  0.6305 -0.4900 -0.2260
  553TMC3    O1 8266   2.323   3.874  14.524  0.1059 -0.7287 -0.1503
  553TMC3    O2 8267   2.409   4.066  13.911  0.0545 -0.2871 -0.3113
  554TMC3    C1 8268   4.017   3.177  11.662  0.1333  0.6790  0.2760
  554TMC3    C2 8269   3.948   3.186  11.540  0.2201 -0.5033  0.0014
  554TMC3    C3 8270   4.018   3.230  11.434  0.1213  0.1813 -0.0700
  554TMC3    C4 8271   4.153   3.206  11.673 -0.1850  0.3594  0.3771
  554TMC3    C5 8272   4.213   3.261  11.564  0.0791 -0.1347 -0.0134
  554TMC3    C6 8273   4.149   3.274  11.442 -0.0848  0.2929 -0.5789
  554TMC3     C 8274   3.970   3.084  11.764 -0.1820 -0.1323 -0.7623
  554TMC3     O 8275   3.850   3.066  11.781  0.6119  0.4281 -0.3415
  554TMC3     H 8276   3.844   3.155  11.534  0.1725 -0.1081 -1.2010
  554TMC3    H1 8277   4.203   3.220  11.768  0.1073 -1.5520  0.5087
  554TMC3    H2 8278   4.195   3.312  11.352 -1.3072 -0.5756 -1.5692
  554TMC3    C7 8279   4.342   3.330  11.584 -0.0654  0.8049  0.4038
  554TMC3    C8 8280   3.953   3.234  11.306  0.2150  0.0876 -0.7306
  554TMC3    O1 8281   4.390   3.332  11.696  0.4984  1.0847 -0.3375
  554TMC3    O2 8282   4.028   3.292  11.224 -0.2626 -0.3320 -0.3733
  555TMC3    C1 8283   3.993   2.909  15.191 -0.2288  0.1588 -0.9258
  555TMC3    C2 8284   3.926   2.988  15.278  0.7532  0.3564 -0.1561
  555TMC3    C3 8285   3.863   2.926  15.386 -0.1247 -0.1285 -0.2496
  555TMC3    C4 8286   3.995   2.770  15.214 -0.2632 -0.1182  0.5958
  555TMC3    C5 8287   3.925   2.710  15.313  0.8344  0.1182 -0.6735
  555TMC3    C6 8288   3.863   2.791  15.409 -0.0623 -0.9402  0.7759
  555TMC3     C 8289   4.009   2.944  15.047  0.1396  0.6583  0.1386
  555TMC3     O 8290   4.047   2.859  14.970 -0.1168  0.3833 -0.2717
  555TMC3     H 8291   3.927   3.096  15.269  0.9387  0.4418  0.8548
  555TMC3    H1 8292   4.051   2.712  15.141 -2.0961 -0.9154 -0.1607
  555TMC3    H2 8293   3.802   2.744  15.485 -1.6282  1.0221  0.7284
  555TMC3    C7 8294   3.873   2.571  15.293  0.4541  0.3188  0.0850
  555TMC3    C8 8295   3.803   3.018  15.486 -0.1646 -0.0112  0.6189
  555TMC3    O1 8296   3.786   2.539  15.371 -0.1118  0.5815  0.6854
  555TMC3    O2 8297   3.798   3.133  15.447 -0.5137 -0.3671 -0.5866
  556MPD2     C 8298   1.547   4.555  10.869  0.2396  0.1110  0.0490
  556MPD2    C1 8299   1.623   4.473  10.948 -0.3525  0.0482 -0.4207
  556MPD2    C2 8300   1.678   4.357  10.891  0.2257  0.2240  0.1389
  556MPD2    C3 8301   1.697   4.350  10.756 -0.4046 -0.0516 -0.3015
  556MPD2    C4 8302   1.635   4.449  10.681  0.5597 -0.1203 -0.8178
  556MPD2    C5 8303   1.554   4.536  10.737  0.7285  0.0394 -0.3966
  556MPD2     H 8304   1.726   4.285  10.955 -2.0111 -0.5157  0.9871
  556MPD2    H1 8305   1.638   4.452  10.573  2.1864 -0.9328 -0.8017
  556MPD2    H2 8306   1.495   4.649  10.884 -2.6690 -1.7011  1.1802
  556MPD2    H3 8307   1.496   4.603  10.674  1.2203  1.4883  0.6969
  556MPD2     N 8308   1.779   4.256  10.702 -0.3117  0.6156 -0.4042
  556MPD2    H5 8309   1.809   4.187  10.770  0.6050  1.0835 -0.3299
  556MPD2    N1 8310   1.627   4.494  11.085  0.5353  0.1533 -0.1087
  556MPD2    H7 8311   1.658   4.418  11.146 -1.4543 -0.1198  0.5526
  557TMC3    C1 8312   1.874   4.133  10.533 -0.1028 -0.2991 -0.0139
  557TMC3    C2 8313   1.870   4.121  10.395  0.1107  0.1435  0.0528
  557TMC3    C3 8314   1.823   4.004  10.337  0.0274 -0.4022  0.2732
  557TMC3    C4 8315   1.838   4.025  10.610 -0.0119 -0.1196 -0.1450
  557TMC3    C5 8316   1.766   3.927  10.547 -0.3875 -0.2189 -0.1569
  557TMC3    C6 8317   1.757   3.912  10.412  0.0049 -0.8096 -0.6241
  557TMC3     C 8318   1.830   4.260  10.577  0.6316 -0.1841  0.2652
  557TMC3     O 8319   1.820   4.351  10.496  1.4364  0.2701 -0.5564
  557TMC3     H 8320   1.883   4.205  10.328 -1.6967  0.5196  0.1743
  557TMC3    H1 8321   1.832   4.021  10.718  0.6040  1.1597 -0.0662
  557TMC3    H2 8322   1.690   3.831  10.382 -0.2155  0.1102 -2.5951
  557TMC3    C7 8323   1.652   3.876  10.621 -0.3804 -0.1781  0.3762
  557TMC3    C8 8324   1.785   4.018  10.196 -0.7059 -0.6764 -0.2824
  557TMC3    O1 8325   1.600   3.963  10.691 -0.1758  0.1468  0.1241
  557TMC3    O2 8326   1.842   4.107  10.131 -0.4906  0.3865 -0.1768
  558TMC3    C1 8327   4.322   2.788  10.646 -0.6487 -0.8484  0.0896
  558TMC3    C2 8328   4.200   2.720  10.640  0.2724  0.1232  1.0915
  558TMC3    C3 8329   4.143   2.702  10.514 -0.4354 -0.3772  0.4809
  558TMC3    C4 8330   4.386   2.817  10.528  0.0461 -0.0057 -0.4335
  558TMC3    C5 8331   4.339   2.782  10.410 -0.0761 -0.0756 -0.2555
  558TMC3    C6 8332   4.212   2.729  10.400 -0.6256 -0.1664  0.1941
  558TMC3     C 8333   4.402   2.755  10.767  0.0677 -0.4391  0.0662
  558TMC3     O 8334   4.357   2.668  10.842 -0.0283 -0.6933  0.6749
  558TMC3     H 8335   4.148   2.677  10.725 -0.8566  0.1273  0.4188
  558TMC3    H1 8336   4.481   2.869  10.527 -0.7289  1.4185 -0.5083
  558TMC3    H2 8337   4.165   2.700  10.306  0.6767  0.2990 -0.5994
  558TMC3    C7 8338   4.427   2.703  10.328 -1.1254 -0.4646  0.1268
  558TMC3    C8 8339   4.058   2.587  10.499  0.9585 -0.7015 -0.5021
  558TMC3    O1 8340   4.545   2.733  10.326  0.1554 -0.4782 -0.1574
  558TMC3    O2 8341   3.959   2.589  10.427  0.1114 -0.2318  0.3743
  559MPD2     C 8342   3.923   3.009  10.924  0.6979  0.0433 -0.2053
  559MPD2    C1 8343   3.936   2.874  10.892 -0.2135 -0.2482 -0.1837
  559MPD2    C2 8344   4.042   2.811  10.950  0.7266 -0.5235  0.2451
  559MPD2    C3 8345   4.135   2.874  11.031  0.3421 -0.1073  0.2136
  559MPD2    C4 8346   4.124   3.008  11.060 -0.2889 -0.1559 -0.4441
  559MPD2    C5 8347   4.015   3.069  11.012 -0.0168 -0.4135  0.4050
  559MPD2     H 8348   4.049   2.705  10.931  0.8930 -0.0196 -2.5567
  559MPD2    H1 8349   4.191   3.074  11.114 -0.6674 -1.4579  1.6227
  559MPD2    H2 8350   3.848   3.076  10.884  1.6353  0.2308 -1.6754
  559MPD2    H3 8351   4.001   3.173  11.038 -1.5822 -0.8392  1.2497
  559MPD2     N 8352   4.251   2.800  11.065  0.0657  0.4033  0.6677
  559MPD2    H5 8353   4.263   2.706  11.028  0.0886  0.0920  1.4605
  559MPD2    N1 8354   3.839   2.818  10.799  0.6747 -0.1530  0.5904
  559MPD2    H7 8355   3.760   2.874  10.769  1.5174  2.0014  2.4666
  560TMC3    C1 8356   4.473   2.755  11.145 -0.4859  0.1654  0.3168
  560TMC3    C2 8357   4.441   2.620  11.148  0.2095  0.0081 -0.4764
  560TMC3    C3 8358   4.532   2.543  11.207 -0.2882  0.2989  0.9475
  560TMC3    C4 8359   4.589   2.814  11.190  0.2951 -0.6077 -0.0679
  560TMC3    C5 8360   4.677   2.726  11.246 -0.3807  0.4406  0.5127
  560TMC3    C6 8361   4.651   2.591  11.258 -0.0808  0.0522 -1.0058
  560TMC3     C 8362   4.357   2.851  11.132  0.3985 -0.4627 -0.9283
  560TMC3     O 8363   4.381   2.965  11.165  0.0542  0.0987 -0.5702
  560TMC3     H 8364   4.348   2.577  11.113  0.0410 -0.4225  0.4954
  560TMC3    H1 8365   4.606   2.920  11.202 -0.4777 -0.5162  0.1978
  560TMC3    H2 8366   4.737   2.534  11.290 -0.6071 -0.2540 -0.1404
  560TMC3    C7 8367   0.036   2.770  11.338  0.2854  0.6984  0.0815
  560TMC3    C8 8368   4.510   2.400  11.204  0.4219  0.2572  0.0292
  560TMC3    O1 8369   0.033   2.715  11.445  0.7028 -0.4025  0.2498
  560TMC3    O2 8370   4.432   2.366  11.114 -0.1174 -0.2843  0.8344
  561TMC3    C1 8371   2.024   1.577  11.382  0.1686 -0.2477 -1.0998
  561TMC3    C2 8372   1.948   1.542  11.490 -0.0451 -0.5127 -0.3538
  561TMC3    C3 8373   1.918   1.631  11.589  0.5097  0.7139 -0.2260
  561TMC3    C4 8374   2.068   1.705  11.364 -0.3232  0.6124 -0.0636
  561TMC3    C5 8375   2.029   1.794  11.464  0.1289 -1.1230  0.1677
  561TMC3    C6 8376   1.956   1.758  11.572  1.0304 -0.4630  0.0602
  561TMC3     C 8377   2.097   1.477  11.308  0.7191 -0.0520  0.6042
  561TMC3     O 8378   2.090   1.368  11.356 -0.2898 -0.6951  0.9500
  561TMC3     H 8379   1.923   1.438  11.508 -0.5780 -0.4703 -0.8512
  561TMC3    H1 8380   2.109   1.741  11.270 -0.5726  0.2738 -0.3053
  561TMC3    H2 8381   1.923   1.833  11.644 -0.2673 -2.8344  1.9280
  561TMC3    C7 8382   2.075   1.934  11.463  0.4116 -0.0268  0.3833
  561TMC3    C8 8383   1.881   1.580  11.718  0.5635 -0.8371  0.1357
  561TMC3    O1 8384   2.030   2.011  11.548 -0.1837 -0.2821  0.5994
  561TMC3    O2 8385   1.887   1.458  11.725 -0.0191 -0.5302 -0.5329
  562TMC3    C1 8386   3.419   3.245  16.764 -0.5166  0.1242 -0.1446
  562TMC3    C2 8387   3.344   3.355  16.775 -0.0133 -0.3984 -0.3260
  562TMC3    C3 8388   3.254   3.387  16.678 -0.8057  0.7794 -0.1733
  562TMC3    C4 8389   3.409   3.165  16.660  0.9624  0.6411  0.0956
  562TMC3    C5 8390   3.314   3.200  16.563  0.4167  0.8061  0.2177
  562TMC3    C6 8391   3.239   3.305  16.570 -0.6419 -0.3751  0.1620
  562TMC3     C 8392   3.510   3.221  16.877 -0.1559  0.0383 -0.0192
  562TMC3     O 8393   3.524   3.310  16.961 -0.1158 -0.1975 -0.4951
  562TMC3     H 8394   3.355   3.424  16.857 -0.7131 -0.9617  0.2431
  562TMC3    H1 8395   3.487   3.101  16.622  1.4497  1.0475  0.4218
  562TMC3    H2 8396   3.156   3.323  16.502 -1.9367 -2.9130  1.0684
  562TMC3    C7 8397   3.308   3.129  16.437 -0.6322 -0.4327  0.0121
  562TMC3    C8 8398   3.176   3.514  16.686 -0.3958 -0.1029  0.0517
  562TMC3    O1 8399   3.244   3.176  16.344 -0.0489 -0.2938 -0.4608
  562TMC3    O2 8400   3.164   3.570  16.793  1.1998 -0.0805 -0.2149
  563MPD2     C 8401   1.123   4.522  15.630 -0.1853  0.1012 -0.1845
  563MPD2    C1 8402   1.121   4.497  15.766  0.3486  0.5936  0.4751
  563MPD2    C2 8403   1.238   4.499  15.838  0.1957  0.4251 -0.7963
  563MPD2    C3 8404   1.364   4.512  15.780  0.4077  0.6130  0.2998
  563MPD2    C4 8405   1.365   4.535  15.639 -0.6340 -0.4690 -0.5462
  563MPD2    C5 8406   1.244   4.532  15.574 -0.0623 -0.0687 -0.5332
  563MPD2     H 8407   1.237   4.478  15.944  2.5182 -0.7782 -1.0154
  563MPD2    H1 8408   1.453   4.521  15.577 -0.1175 -0.6647  0.2198
  563MPD2    H2 8409   1.032   4.521  15.572 -2.0145  0.1465  2.6484
  563MPD2    H3 8410   1.266   4.527  15.468  0.5228  0.7602 -0.4498
  563MPD2     N 8411   1.480   4.502  15.857 -0.5666 -1.0440 -0.4943
  563MPD2    H5 8412   1.470   4.475  15.954 -0.3988 -1.4735 -0.5966
  563MPD2    N1 8413   1.001   4.471  15.838 -0.2754 -0.5138 -0.2550
  563MPD2    H7 8414   1.015   4.466  15.938  0.9256  0.1014 -0.3872
  564TMC3    C1 8415   0.797   4.379  15.891  0.3431 -0.0629 -0.1753
  564TMC3    C2 8416   0.727   4.265  15.853  0.4099  0.0469  0.2793
  564TMC3    C3 8417   0.696   4.178  15.950  0.4746  0.0572 -0.1832
  564TMC3    C4 8418   0.837   4.401  16.018 -1.0414 -0.5553 -0.6022
  564TMC3    C5 8419   0.806   4.307  16.110  0.8790  0.4311  0.2386
  564TMC3    C6 8420   0.731   4.196  16.079 -0.2952 -0.0758 -1.0685
  564TMC3     C 8421   0.875   4.437  15.789  0.2700  0.2828  0.4659
  564TMC3     O 8422   0.833   4.440  15.677  0.4860  0.6812  0.6077
  564TMC3     H 8423   0.725   4.254  15.745  2.8724  1.5359  0.0834
  564TMC3    H1 8424   0.882   4.493  16.052 -1.0026 -0.5246 -0.7353
  564TMC3    H2 8425   0.682   4.139  16.156  1.8691  2.4492  2.1853
  564TMC3    C7 8426   0.906   4.289  16.210 -0.6439 -0.0892 -0.4137
  564TMC3    C8 8427   0.642   4.049  15.912 -0.2368  0.1113  0.2910
  564TMC3    O1 8428   1.015   4.342  16.186  0.1216 -0.2682 -0.0185
  564TMC3    O2 8429   0.683   3.960  15.988  0.0836 -0.0839 -0.4878
  565TMC3    C1 8430   1.171   0.505   9.818 -0.1118 -0.0080  0.6118
  565TMC3    C2 8431   1.157   0.422   9.928 -0.3562  0.5454  0.1033
  565TMC3    C3 8432   1.125   0.295   9.891  0.0971 -0.0102 -0.8037
  565TMC3    C4 8433   1.159   0.464   9.687 -0.3012 -0.2260 -0.0272
  565TMC3    C5 8434   1.121   0.339   9.662 -0.8663  0.5727  0.5516
  565TMC3    C6 8435   1.101   0.249   9.760 -1.2510 -0.5256 -0.7163
  565TMC3     C 8436   1.208   0.643   9.836 -0.2098 -0.3114  0.6758
  565TMC3     O 8437   1.175   0.713   9.747 -0.0933 -0.1315  0.1842
  565TMC3     H 8438   1.145   0.467  10.026 -0.1086 -1.0313  0.8476
  565TMC3    H1 8439   1.155   0.533   9.604  0.2327  1.3219  1.2434
  565TMC3    H2 8440   1.083   0.143   9.745  0.6206 -0.9815  0.2941
  565TMC3    C7 8441   1.076   0.307   9.528  0.7870 -0.4825  0.3858
  565TMC3    C8 8442   1.117   0.191   9.991 -0.0800  0.7673  0.3429
  565TMC3    O1 8443   1.120   0.373   9.435  0.2465  0.4949 -0.2613
  565TMC3    O2 8444   1.084   0.080   9.950 -0.2335  0.2935  0.2239
  566MPD2     C 8445   3.247   2.097  14.279 -0.4672 -0.8049  0.1104
  566MPD2    C1 8446   3.229   2.205  14.192 -0.0858 -0.6441  0.4031
  566MPD2    C2 8447   3.096   2.244  14.159 -0.1419 -0.3840 -0.7579
  566MPD2    C3 8448   2.987   2.178  14.211  0.1827 -0.0648 -0.7001
  566MPD2    C4 8449   3.006   2.075  14.297  0.0020 -0.1816 -0.4459
  566MPD2    C5 8450   3.142   2.039  14.330  0.2321 -0.2753  0.4672
  566MPD2     H 8451   3.084   2.325  14.087  1.2741 -0.5028 -1.1114
  566MPD2    H1 8452   2.919   2.024  14.336 -0.2593  1.0647  0.6194
  566MPD2    H2 8453   3.348   2.067  14.305 -0.0628  0.0692 -0.4439
  566MPD2    H3 8454   3.156   1.960  14.402 -0.5598 -1.8838 -1.1521
  566MPD2     N 8455   2.857   2.211  14.171  0.3474 -0.2467 -0.1262
  566MPD2    H5 8456   2.785   2.144  14.197 -0.6620  1.2142  0.8185
  566MPD2    N1 8457   3.343   2.272  14.145  0.1089  0.3066 -0.2489
  566MPD2    H7 8458   3.431   2.229  14.170  1.9364  3.3613 -1.3774
  567TMC3    C1 8459   3.477   2.413  14.020  0.0450  0.2311 -0.8812
  567TMC3    C2 8460   3.475   2.488  13.903  0.2117  0.1095 -1.3119
  567TMC3    C3 8461   3.556   2.601  13.892  0.2500 -0.1285 -1.1092
  567TMC3    C4 8462   3.559   2.446  14.124  0.5750 -0.7726  0.6068
  567TMC3    C5 8463   3.639   2.554  14.114  0.0215  0.3310 -0.1946
  567TMC3    C6 8464   3.636   2.633  13.999  0.0096  0.9464  0.5284
  567TMC3     C 8465   3.346   2.375  14.053 -0.2675  0.1762 -0.3576
  567TMC3     O 8466   3.259   2.442  14.002 -0.1200 -0.4684 -0.1268
  567TMC3     H 8467   3.410   2.454  13.823 -0.2867 -2.3090  0.1193
  567TMC3    H1 8468   3.560   2.385  14.214 -1.4944  1.6252  2.2867
  567TMC3    H2 8469   3.695   2.724  13.997  0.6016  0.6080  2.5382
  567TMC3    C7 8470   3.745   2.582  14.205  0.1041 -0.5967  0.2429
  567TMC3    C8 8471   3.483   2.707  13.821  0.1662  0.6122 -0.3795
  567TMC3    O1 8472   3.850   2.614  14.147  0.1400 -0.6464 -0.9774
  567TMC3    O2 8473   3.388   2.677  13.750 -0.0993  0.2372  0.3029
  568MPD2     C 8474   0.282   2.623  16.187 -0.4362  0.6026 -0.4523
  568MPD2    C1 8475   0.294   2.728  16.280  0.2380  0.5052  0.0131
  568MPD2    C2 8476   0.263   2.859  16.241  0.2811 -0.6297  0.7001
  568MPD2    C3 8477   0.241   2.891  16.107 -0.0315 -0.0372  0.1815
  568MPD2    C4 8478   0.232   2.785  16.020 -0.2276 -0.3962 -0.3390
  568MPD2    C5 8479   0.254   2.661  16.064  0.0257  0.1135 -0.2644
  568MPD2     H 8480   0.250   2.939  16.312  0.6867  0.3783 -0.3698
  568MPD2    H1 8481   0.210   2.808  15.916  0.6592  0.7468 -0.2819
  568MPD2    H2 8482   0.303   2.521  16.215  0.0911  0.1961 -2.2914
  568MPD2    H3 8483   0.247   2.582  15.991  0.1766  1.3616 -1.6396
  568MPD2     N 8484   0.217   3.024  16.071 -0.7755  0.1727  0.3350
  568MPD2    H5 8485   0.230   3.094  16.144 -0.4114  0.7911 -0.3302
  568MPD2    N1 8486   0.337   2.683  16.407  0.2680 -0.1599  0.0196
  568MPD2    H7 8487   0.343   2.584  16.426  0.2541 -0.6774 -2.6245
  569TMC3    C1 8488   0.162   3.209  15.950  0.2488 -0.4579 -0.4747
  569TMC3    C2 8489   0.134   3.249  16.075  0.2798  0.2814 -0.1043
  569TMC3    C3 8490   0.190   3.367  16.121 -0.7562 -0.0873 -0.4865
  569TMC3    C4 8491   0.224   3.292  15.859 -1.0077 -0.2341 -0.1065
  569TMC3    C5 8492   0.258   3.409  15.907 -0.2209 -0.4537 -0.2218
  569TMC3    C6 8493   0.246   3.449  16.033  0.2456  0.4903  0.2681
  569TMC3     C 8494   0.211   3.071  15.949  0.5868  0.5213  0.3803
  569TMC3     O 8495   0.245   3.019  15.840 -0.3170 -0.4137 -0.5079
  569TMC3     H 8496   0.077   3.199  16.152  2.0352  1.3083  1.8630
  569TMC3    H1 8497   0.249   3.254  15.761  0.1956 -0.3941  0.2626
  569TMC3    H2 8498   0.274   3.550  16.061  1.3344  0.2811 -0.0386
  569TMC3    C7 8499   0.289   3.499  15.793  0.1112 -0.4088 -0.5471
  569TMC3    C8 8500   0.259   3.338  16.242 -0.2787  0.2858  0.2594
  569TMC3    O1 8501   0.247   3.475  15.682 -0.1037 -0.1008 -0.0555
  569TMC3    O2 8502   0.285   3.221  16.264 -0.0550  0.3240  0.3050
  570TMC3    C1 8503   4.367   1.759  15.853  0.2821 -0.1817 -0.5098
  570TMC3    C2 8504   4.437   1.751  15.738  0.5483 -0.3081  0.1400
  570TMC3    C3 8505   4.496   1.869  15.697 -0.0159  0.4186 -0.3020
  570TMC3    C4 8506   4.332   1.873  15.919 -0.2845 -0.5323 -0.5850
  570TMC3    C5 8507   4.390   1.989  15.873 -0.2783 -0.1121  0.1575
  570TMC3    C6 8508   4.472   1.988  15.764 -0.3185  0.5060  0.1277
  570TMC3     C 8509   4.320   1.628  15.909 -0.3655  1.0849  0.0737
  570TMC3     O 8510   4.322   1.531  15.832  0.2806  0.3340  0.0521
  570TMC3     H 8511   4.460   1.656  15.692 -2.6928 -1.6901  1.3778
  570TMC3    H1 8512   4.267   1.871  16.005 -1.0925  2.8175 -1.1480
  570TMC3    H2 8513   4.541   2.072  15.754 -0.5109  0.6982  0.4073
  570TMC3    C7 8514   4.349   2.114  15.934 -0.3151 -0.3634  0.2375
  570TMC3    C8 8515   4.598   1.866  15.595 -0.4348 -0.7572  1.3797
  570TMC3    O1 8516   4.285   2.108  16.040 -0.2195 -0.1935  0.2486
  570TMC3    O2 8517   4.685   1.950  15.609  0.0144 -0.0329  0.2239
  571MPD2     C 8518   2.999   3.794  17.727  0.4736 -0.6663 -0.7113
  571MPD2    C1 8519   2.881   3.787   0.026 -0.3606  0.6088  0.1117
  571MPD2    C2 8520   2.846   3.876   0.122 -0.1075  0.2423  0.4276
  571MPD2    C3 8521   2.939   3.970   0.169 -0.1846 -0.0486 -0.1910
  571MPD2    C4 8522   3.059   3.980   0.103 -0.3903 -0.1228 -0.1035
  571MPD2    C5 8523   3.091   3.891   0.006 -0.2023  0.0523  0.0543
  571MPD2     H 8524   2.749   3.870   0.170  0.1737  1.9134  1.2067
  571MPD2    H1 8525   3.132   4.052   0.138  0.1936 -1.2500  0.9895
  571MPD2    H2 8526   3.033   3.732  17.644  0.2280 -0.9198 -0.6227
  571MPD2    H3 8527   3.185   3.895  17.709 -0.6684 -0.1479 -0.7632
  571MPD2     N 8528   2.929   4.060   0.276 -0.4991 -0.0567  0.6856
  571MPD2    H5 8529   2.995   4.137   0.275  1.2887 -1.6038 -2.0915
  571MPD2    N1 8530   2.793   3.684  17.723  0.2674  0.5122  0.2924
  571MPD2    H7 8531   2.832   3.631  17.647  0.0835  0.0031  0.5511
  572TMC3    C1 8532   2.821   4.176   0.447  0.0866  0.1230 -0.0530
  572TMC3    C2 8533   2.732   4.179   0.556 -0.0548  0.1908 -0.4904
  572TMC3    C3 8534   2.675   4.301   0.591  0.5598  0.0707 -0.4404
  572TMC3    C4 8535   2.849   4.295   0.384 -0.3889  0.3255  0.6104
  572TMC3    C5 8536   2.786   4.412   0.421  0.2254 -0.2994 -0.3014
  572TMC3    C6 8537   2.699   4.422   0.529  0.0681  0.3637 -0.1358
  572TMC3     C 8538   2.819   4.062   0.358 -0.7977 -0.1134  1.0281
  572TMC3     O 8539   2.731   3.977   0.377 -0.2241 -0.0027  0.2590
  572TMC3     H 8540   2.679   4.087   0.574  0.9712 -0.3209 -0.1060
  572TMC3    H1 8541   2.910   4.298   0.295  0.0255 -1.5755  0.8266
  572TMC3    H2 8542   2.652   4.518   0.548 -0.8908 -0.4318  1.4666
  572TMC3    C7 8543   2.820   4.536   0.344 -0.3124  0.1910  0.2820
  572TMC3    C8 8544   2.587   4.298   0.711 -0.5335  0.4724  0.0519
  572TMC3    O1 8545   2.740   4.627   0.348  0.1495 -0.0845 -0.4495
  572TMC3    O2 8546   2.491   4.373   0.703 -0.2185  0.7554 -0.5957
  573MPD2     C 8547   0.013   3.871   1.087  0.0675 -0.6114 -0.5121
  573MPD2    C1 8548   4.712   3.979   1.010 -0.0358  0.4165  0.4826
  573MPD2    C2 8549   4.624   3.959   0.907 -0.0478 -0.0093 -0.7770
  573MPD2    C3 8550   4.566   3.833   0.887  0.0932 -0.5281 -0.2873
  573MPD2    C4 8551   4.605   3.724   0.968  0.2108 -0.4597  0.2133
  573MPD2    C5 8552   4.694   3.748   1.065  0.1685  0.1955 -0.4474
  573MPD2     H 8553   4.601   4.045   0.846 -3.5919  0.4634  1.2539
  573MPD2    H1 8554   4.558   3.627   0.972  0.8380 -0.7795 -0.2111
  573MPD2    H2 8555   0.087   3.879   1.166 -0.2298 -1.6445 -0.1386
  573MPD2    H3 8556   4.719   3.668   1.133  1.3423 -0.2611 -1.4049
  573MPD2     N 8557   4.449   3.810   0.808  0.4396 -1.4339  0.7584
  573MPD2    H5 8558   4.411   3.716   0.808 -1.3029 -0.7405 -0.5994
  573MPD2    N1 8559   0.028   4.105   1.041 -0.5340  0.2591 -0.2477
  573MPD2    H7 8560   0.093   4.115   1.118 -0.5046 -0.9404 -0.1113
  574TMC3    C1 8561   4.256   3.864   0.692  0.0713 -0.7255  0.1954
  574TMC3    C2 8562   4.192   3.938   0.597  0.7554  0.2182 -0.1709
  574TMC3    C3 8563   4.074   3.887   0.549 -0.3029 -0.0543  0.1675
  574TMC3    C4 8564   4.190   3.760   0.757 -0.1335  0.3259 -0.5812
  574TMC3    C5 8565   4.068   3.721   0.713  0.0739 -1.1644  0.3540
  574TMC3    C6 8566   4.008   3.770   0.600  0.4993 -0.6832  0.2354
  574TMC3     C 8567   4.390   3.903   0.721  0.4457  0.2757 -0.1829
  574TMC3     O 8568   4.415   4.021   0.695  0.2804  0.4527 -0.2137
  574TMC3     H 8569   4.243   4.011   0.536  0.0237  0.5517 -0.3777
  574TMC3    H1 8570   4.228   3.707   0.843 -1.5157 -0.6734 -0.5883
  574TMC3    H2 8571   3.913   3.739   0.559  0.3024 -0.4225  0.4928
  574TMC3    C7 8572   3.996   3.626   0.804 -0.8454  0.2282 -0.1657
  574TMC3    C8 8573   4.036   3.923   0.414  0.7485 -0.0472  0.2973
  574TMC3    O1 8574   4.037   3.616   0.919  0.2018 -0.2726  0.1089
  574TMC3    O2 8575   3.972   3.844   0.347  0.2159 -0.1307 -0.5666
  575TMC3    C1 8576   1.521   0.340  10.894 -0.2834  0.1698  0.3617
  575TMC3    C2 8577   1.469   0.256  10.989 -0.1937  0.7484 -0.2403
  575TMC3    C3 8578   1.353   0.196  10.953  0.3678 -0.1526 -0.5120
  575TMC3    C4 8579   1.454   0.374  10.780 -0.2395 -0.2984 -0.1755
  575TMC3    C5 8580   1.331   0.318  10.757 -0.8709 -0.0411 -0.8825
  575TMC3    C6 8581   1.281   0.223  10.841  0.0076  0.0576  0.9140
  575TMC3     C 8582   1.665   0.357  10.908  0.3154  0.2012 -0.7341
  575TMC3     O 8583   1.729   0.300  10.996 -0.2423 -0.0956  0.7575
  575TMC3     H 8584   1.528   0.213  11.069 -2.0562 -2.2488 -0.4808
  575TMC3    H1 8585   1.497   0.428  10.696  0.9689 -2.1076 -0.7109
  575TMC3    H2 8586   1.181   0.185  10.829 -0.5124  1.1856  1.6554
  575TMC3    C7 8587   1.299   0.300  10.620  0.2908  0.1074 -0.5276
  575TMC3    C8 8588   1.295   0.096  11.040 -0.4806 -0.1501 -0.5144
  575TMC3    O1 8589   1.325   0.394  10.550  0.4809  0.0069  0.4000
  575TMC3    O2 8590   1.231   0.006  10.984 -0.7390 -0.6039 -0.2381
  576MPD2     C 8591   1.019   2.056  12.826 -0.2107  0.4754 -0.6026
  576MPD2    C1 8592   1.113   2.158  12.795  0.1289 -0.5931 -0.2044
  576MPD2    C2 8593   1.107   2.278  12.868 -0.6475 -0.1519  0.2850
  576MPD2    C3 8594   1.016   2.297  12.964 -0.2039  0.0364 -0.2139
  576MPD2    C4 8595   0.933   2.198  12.995 -0.7048  0.5873  0.2622
  576MPD2    C5 8596   0.930   2.084  12.923  0.4164 -0.1686  0.1694
  576MPD2     H 8597   1.170   2.359  12.835 -0.8021 -0.3050 -0.3865
  576MPD2    H1 8598   0.864   2.201  13.079 -3.3853 -0.3086 -1.9071
  576MPD2    H2 8599   1.003   1.967  12.767 -1.4516  0.0948  0.3124
  576MPD2    H3 8600   0.857   2.009  12.952 -1.6373  2.1774  1.0132
  576MPD2     N 8601   1.007   2.429  13.021  0.4609  0.1061 -0.0624
  576MPD2    H5 8602   1.077   2.497  12.993  0.3303  0.8639  1.4756
  576MPD2    N1 8603   1.214   2.138  12.697 -0.3100 -0.5411 -0.0419
  576MPD2    H7 8604   1.264   2.224  12.680 -0.1680 -0.7670 -0.7824
  577TMC3    C1 8605   1.312   2.028  12.501 -0.4411 -0.5465  0.2956
  577TMC3    C2 8606   1.332   1.908  12.428 -0.0508  0.2491  0.0753
  577TMC3    C3 8607   1.382   1.918  12.302  0.4681  0.6440  0.1773
  577TMC3    C4 8608   1.335   2.154  12.448 -0.8074  0.2896  0.4803
  577TMC3    C5 8609   1.395   2.151  12.327  0.4816  0.1779 -0.4282
  577TMC3    C6 8610   1.414   2.039  12.249  0.0257  0.3162  0.3031
  577TMC3     C 8611   1.229   2.023  12.622  0.1536 -0.2270  0.2820
  577TMC3     O 8612   1.182   1.911  12.643  0.4205  0.0620  0.1886
  577TMC3     H 8613   1.294   1.814  12.467  1.7534 -0.1705  0.8094
  577TMC3    H1 8614   1.291   2.248  12.480 -0.4510  0.9287 -0.9249
  577TMC3    H2 8615   1.459   2.047  12.150 -0.8320 -0.4861 -0.1541
  577TMC3    C7 8616   1.442   2.276  12.288  0.1189 -0.0728 -0.1257
  577TMC3    C8 8617   1.425   1.787  12.244  0.4782  0.2289 -0.3172
  577TMC3    O1 8618   1.475   2.359  12.373 -0.3070  0.6357  0.6201
  577TMC3    O2 8619   1.402   1.692  12.320  0.1761 -0.2643  0.3291
  578MPD2     C 8620   4.366   2.109   1.277  0.3816 -0.7337  0.6092
  578MPD2    C1 8621   4.381   1.995   1.201 -0.4504  0.2466  0.0974
  578MPD2    C2 8622   4.490   1.914   1.228 -0.1116 -0.7215  0.2466
  578MPD2    C3 8623   4.586   1.946   1.318  0.6226 -0.3736 -0.0714
  578MPD2    C4 8624   4.560   2.055   1.401 -0.2258 -0.0365  0.5925
  578MPD2    C5 8625   4.455   2.143   1.373  0.4519  0.4400  0.2796
  578MPD2     H 8626   4.499   1.825   1.167  2.5465  1.1320 -2.0828
  578MPD2    H1 8627   4.629   2.089   1.478 -2.4285  3.0270  1.2215
  578MPD2    H2 8628   4.279   2.174   1.278 -0.9054 -2.4146 -0.7816
  578MPD2    H3 8629   4.426   2.227   1.435 -1.8187  0.1376 -0.3680
  578MPD2     N 8630   4.698   1.860   1.327 -0.4488 -0.3177 -0.5899
  578MPD2    H5 8631   4.704   1.785   1.259  1.3469 -0.5928 -0.1279
  578MPD2    N1 8632   4.282   1.977   1.091 -0.3981 -0.0637  0.0271
  578MPD2    H7 8633   4.205   2.042   1.082 -0.5693 -0.1554  0.8366
  579TMC3    C1 8634   0.173   1.776   1.386 -0.1816 -0.2830  0.2448
  579TMC3    C2 8635   0.297   1.806   1.434  0.2474 -0.4469 -0.0248
  579TMC3    C3 8636   0.399   1.727   1.400 -0.1081  0.3251  0.2324
  579TMC3    C4 8637   0.145   1.662   1.311  0.4628 -0.0747  0.3423
  579TMC3    C5 8638   0.255   1.581   1.288  0.0599 -0.7250 -0.1234
  579TMC3    C6 8639   0.380   1.607   1.334  0.2540  0.6015 -0.4535
  579TMC3     C 8640   0.065   1.876   1.411  0.4797 -0.1652 -0.0736
  579TMC3     O 8641   0.086   1.964   1.487  0.6701 -0.7039  0.0556
  579TMC3     H 8642   0.317   1.890   1.500  1.1221  0.8804 -1.9597
  579TMC3    H1 8643   0.047   1.637   1.272  0.1891 -3.2557  3.0505
  579TMC3    H2 8644   0.464   1.538   1.329 -0.7579 -0.5805 -1.0892
  579TMC3    C7 8645   0.246   1.463   1.203  0.4144  0.4706  0.6723
  579TMC3    C8 8646   0.530   1.750   1.466 -0.0579  0.5070  0.2326
  579TMC3    O1 8647   0.342   1.390   1.205 -0.0620  0.0186  0.1852
  579TMC3    O2 8648   0.527   1.817   1.566 -0.0945 -0.2596  0.1919
  580TMC3    C1 8649   3.745   1.111  11.879 -0.9022 -0.2704  0.0718
  580TMC3    C2 8650   3.828   1.215  11.886 -0.4547 -0.1292 -0.5048
  580TMC3    C3 8651   3.930   1.207  11.970  0.4513 -0.6141  0.0142
  580TMC3    C4 8652   3.764   1.001  11.954  0.3995 -0.2730 -0.0283
  580TMC3    C5 8653   3.874   0.997  12.037  0.1765 -0.0749 -0.5120
  580TMC3    C6 8654   3.968   1.102  12.045  0.5297 -0.7198  0.2030
  580TMC3     C 8655   3.634   1.101  11.793 -0.4137  0.2515  0.3855
  580TMC3     O 8656   3.541   1.028  11.812  0.1853 -0.2328 -0.3537
  580TMC3     H 8657   3.815   1.308  11.832 -0.2534 -1.0574 -2.1365
  580TMC3    H1 8658   3.685   0.927  11.950  0.1528  0.0058 -0.3493
  580TMC3    H2 8659   4.053   1.108  12.111  0.4535 -0.8321  0.3134
  580TMC3    C7 8660   3.903   0.884  12.127  0.6464  0.1648  0.0113
  580TMC3    C8 8661   4.009   1.323  11.974 -0.3068  0.2395 -1.2435
  580TMC3    O1 8662   3.988   0.890  12.212  0.6010 -0.2036 -0.5740
  580TMC3    O2 8663   3.953   1.426  11.937  0.5200  0.1033  0.1175
  581MPD2     C 8664   1.795   1.012  14.721  0.1782  0.7660  0.0264
  581MPD2    C1 8665   1.766   1.100  14.819 -0.0314 -0.2876 -0.2358
  581MPD2    C2 8666   1.636   1.142  14.834  1.1061 -0.3486  0.6109
  581MPD2    C3 8667   1.536   1.111  14.747 -0.3350 -0.4842  0.3765
  581MPD2    C4 8668   1.569   1.020  14.647 -0.0500 -0.4657  0.1595
  581MPD2    C5 8669   1.697   0.961  14.643 -0.4534  0.1340  0.5784
  581MPD2     H 8670   1.599   1.201  14.917  0.3729  0.2602 -0.1504
  581MPD2    H1 8671   1.495   0.989  14.574 -0.1205  0.4446 -0.1511
  581MPD2    H2 8672   1.897   0.976  14.709 -0.6082 -1.0825 -1.0931
  581MPD2    H3 8673   1.732   0.888  14.572 -0.5560 -0.5202  1.1972
  581MPD2     N 8674   1.410   1.175  14.759 -0.0785  0.0754  0.6777
  581MPD2    H5 8675   1.401   1.258  14.816  0.7383 -0.0690  1.0231
  581MPD2    N1 8676   1.884   1.132  14.897 -0.4882 -0.1072 -0.5193
  581MPD2    H7 8677   1.973   1.091  14.870  1.4076  1.7306  2.9487
  582TMC3    C1 8678   1.990   1.222  15.082  0.5321  0.1858 -0.1615
  582TMC3    C2 8679   1.958   1.246  15.216 -0.2815 -0.4257  0.0144
  582TMC3    C3 8680   2.047   1.184  15.304  0.3176  0.5337 -1.0550
  582TMC3    C4 8681   2.092   1.147  15.040  0.2245  0.4567 -0.0654
  582TMC3    C5 8682   2.159   1.078  15.133 -0.3582  0.7022  0.1559
  582TMC3    C6 8683   2.132   1.095  15.264  0.1662 -0.1637 -0.1884
  582TMC3     C 8684   1.870   1.215  15.009  0.5157  0.2740 -0.5328
  582TMC3     O 8685   1.772   1.272  15.049 -0.1713  0.3849  0.3113
  582TMC3     H 8686   1.888   1.321  15.248  1.1208 -0.1165  2.3976
  582TMC3    H1 8687   2.133   1.150  14.940 -0.9746 -1.3998 -0.6170
  582TMC3    H2 8688   2.198   1.039  15.329 -0.1385  0.0557  0.3061
  582TMC3    C7 8689   2.166   0.941  15.079 -0.3105 -0.8832 -0.7341
  582TMC3    C8 8690   2.008   1.207  15.445 -0.8358 -0.1305 -1.1812
  582TMC3    O1 8691   2.219   0.930  14.967  0.6615 -0.1415 -0.4729
  582TMC3    O2 8692   1.936   1.301  15.469  0.2798 -0.6515 -0.0161
  583MPD2     C 8693   1.658   2.515  16.524  0.5750 -0.0942 -0.1443
  583MPD2    C1 8694   1.718   2.641  16.523 -0.3572  0.0169  0.5452
  583MPD2    C2 8695   1.684   2.726  16.626 -0.1616  0.1089  0.4836
  583MPD2    C3 8696   1.610   2.686  16.738  0.2125 -0.5660  0.0124
  583MPD2    C4 8697   1.551   2.559  16.736  0.6539 -0.6928  0.3000
  583MPD2    C5 8698   1.578   2.472  16.631  0.4412 -0.0720 -0.0239
  583MPD2     H 8699   1.729   2.825  16.627 -1.3947  0.6830 -2.8756
  583MPD2    H1 8700   1.492   2.528  16.821  0.0449  0.0757  0.1568
  583MPD2    H2 8701   1.675   2.440  16.447  1.8042 -0.9156  0.9457
  583MPD2    H3 8702   1.528   2.376  16.635  1.1116 -0.3263  2.4831
  583MPD2     N 8703   1.606   2.775  16.848 -0.4533  0.5810  0.1646
  583MPD2    H5 8704   1.650   2.863  16.825  1.9750 -0.5999  0.3064
  583MPD2    N1 8705   1.794   2.694  16.417 -0.0991  0.5723 -0.0984
  583MPD2    H7 8706   1.842   2.782  16.431  1.8359 -0.1803 -1.8296
  584TMC3    C1 8707   1.593   2.843  17.080 -0.1337  0.9107  1.4331
  584TMC3    C2 8708   1.654   2.957  17.044  0.1394 -0.2132  0.2990
  584TMC3    C3 8709   1.698   3.037  17.145  0.1051 -0.4024 -0.2614
  584TMC3    C4 8710   1.565   2.811  17.206 -0.3449  0.0933 -0.4687
  584TMC3    C5 8711   1.623   2.891  17.304 -0.0438  0.3654  0.0527
  584TMC3    C6 8712   1.694   3.006  17.276 -0.1609 -0.7578  0.0235
  584TMC3     C 8713   1.560   2.748  16.975  0.4082 -0.0549  0.6037
  584TMC3     O 8714   1.501   2.648  17.019 -0.0068 -0.1941  0.1783
  584TMC3     H 8715   1.654   2.994  16.943  0.5106 -0.7548  0.1022
  584TMC3    H1 8716   1.516   2.717  17.229  0.6417 -0.2290  0.3704
  584TMC3    H2 8717   1.749   3.062  17.351 -1.2370  0.5368 -0.1604
  584TMC3    C7 8718   1.579   2.877  17.439  0.3659  0.3428  0.2924
  584TMC3    C8 8719   1.745   3.166  17.094 -0.0919  0.3641  0.6010
  584TMC3    O1 8720   1.562   2.760  17.478 -0.3603 -0.3273  0.2805
  584TMC3    O2 8721   1.749   3.189  16.976 -0.1409 -0.0002  0.1623
  585MPD2     C 8722   0.888   1.668   0.225  0.4279  0.0364 -0.7473
  585MPD2    C1 8723   0.887   1.772   0.136  0.2431 -1.0336  0.3140
  585MPD2    C2 8724   0.916   1.755   0.003  0.1694 -0.2144 -1.0048
  585MPD2    C3 8725   0.972   1.633  17.714 -0.0080 -0.7632 -0.2917
  585MPD2    C4 8726   0.984   1.531   0.055 -0.0638 -0.3095  0.2378
  585MPD2    C5 8727   0.945   1.549   0.186 -0.4680 -0.3360 -0.2049
  585MPD2     H 8728   0.927   1.845  17.700 -0.2477  0.8925  0.5537
  585MPD2    H1 8729   1.035   1.440   0.027 -0.6722 -0.4696 -0.3722
  585MPD2    H2 8730   0.847   1.675   0.325  0.6725 -0.9234 -0.5815
  585MPD2    H3 8731   0.956   1.463   0.251  0.8308  2.0938  2.7819
  585MPD2     N 8732   1.003   1.602  17.580 -0.0573  0.8133  0.1543
  585MPD2    H5 8733   1.043   1.511  17.560  0.1874  0.9500  0.0163
  585MPD2    N1 8734   0.829   1.891   0.186 -0.1400 -0.1183 -0.9729
  585MPD2    H7 8735   0.816   1.893   0.287  1.8697 -0.6445 -0.7048
  586TMC3    C1 8736   1.028   1.635  17.338 -0.0066 -0.6142 -0.3534
  586TMC3    C2 8737   1.139   1.544  17.335 -0.4188 -0.6149  0.0495
  586TMC3    C3 8738   1.196   1.520  17.211 -0.0506  0.6362 -0.3279
  586TMC3    C4 8739   0.982   1.698  17.220  0.3491 -0.2363  0.6721
  586TMC3    C5 8740   1.046   1.665  17.101 -0.0189  0.6408  0.3145
  586TMC3    C6 8741   1.148   1.580  17.095  0.1103 -0.3014  1.0991
  586TMC3     C 8742   0.982   1.688  17.476 -0.4789  0.4529  0.2215
  586TMC3     O 8743   0.924   1.794  17.476 -0.1965  0.0297  0.2172
  586TMC3     H 8744   1.168   1.481  17.419  1.6201 -2.4385 -2.0137
  586TMC3    H1 8745   0.899   1.767  17.225  1.1363  0.6145  1.9229
  586TMC3    H2 8746   1.199   1.564  17.001 -0.7293 -0.3622  0.6599
  586TMC3    C7 8747   0.979   1.712  16.984  0.4508  0.1726  0.1128
  586TMC3    C8 8748   1.272   1.405  17.194 -0.3582  0.0570  0.6761
  586TMC3    O1 8749   0.867   1.763  16.997  0.1011 -0.4068  0.7016
  586TMC3    O2 8750   1.277   1.357  17.080  0.1147 -0.2927 -0.0711
  587TMC3    C1 8751   3.368   0.103  16.560 -0.3638 -0.3429 -0.8420
  587TMC3    C2 8752   3.325   0.186  16.460  0.0813  0.1301 -0.4247
  587TMC3    C3 8753   3.428   0.229  16.381  0.5645  0.1499 -0.0317
  587TMC3    C4 8754   3.494   0.081  16.593  0.6859  0.6604  0.4868
  587TMC3    C5 8755   3.595   0.125  16.512 -0.2883 -0.2547 -0.2249
  587TMC3    C6 8756   3.559   0.204  16.402  0.2583 -0.6148 -0.1303
  587TMC3     C 8757   3.262   0.049  16.652 -0.1978  0.7457  0.4306
  587TMC3     O 8758   3.271   4.678  16.695  0.1290  0.1398 -0.1194
  587TMC3     H 8759   3.222   0.189  16.424 -0.2054 -2.1417  0.1914
  587TMC3    H1 8760   3.499   0.020  16.683 -0.4584  2.5747  1.8481
  587TMC3    H2 8761   3.633   0.245  16.335 -0.9227 -0.4394 -1.3257
  587TMC3    C7 8762   3.727   0.147  16.582 -0.1452 -0.5074  0.5887
  587TMC3    C8 8763   3.390   0.318  16.276 -0.0408  0.0448 -0.2252
  587TMC3    O1 8764   3.734   0.127  16.700  0.2650 -0.4205  0.5127
  587TMC3    O2 8765   3.450   0.308  16.168  0.0034 -0.6126 -0.2434
  588TMC3    C1 8766   0.741   2.711  10.138  0.3796 -0.5062  0.5570
  588TMC3    C2 8767   0.703   2.591  10.096 -0.0128  0.3860  0.1676
  588TMC3    C3 8768   0.760   2.485  10.153 -0.0333 -0.2202 -0.3049
  588TMC3    C4 8769   0.852   2.728  10.219  0.2141  0.3810  0.1651
  588TMC3    C5 8770   0.917   2.618  10.269 -0.0725  0.7842 -0.2021
  588TMC3    C6 8771   0.869   2.493  10.232  0.7831 -0.4749 -0.0592
  588TMC3     C 8772   0.720   2.819  10.038 -0.0152  0.0249  0.5253
  588TMC3     O 8773   0.652   2.805   9.937 -0.1015 -0.9494 -0.0184
  588TMC3     H 8774   0.624   2.571  10.025 -1.2210  1.3423  1.2359
  588TMC3    H1 8775   0.870   2.822  10.271  0.8206  0.4257 -0.1256
  588TMC3    H2 8776   0.932   2.415  10.272 -0.3423 -1.0167  0.6763
  588TMC3    C7 8777   1.050   2.638  10.322 -0.8760  0.3815  0.1499
  588TMC3    C8 8778   0.704   2.352  10.133 -0.1781  0.5881  0.0047
  588TMC3    O1 8779   1.097   2.553  10.397  0.2461  0.2005  0.3667
  588TMC3    O2 8780   0.620   2.333  10.041  0.0476 -0.1990 -0.1022
  589TMC3    C1 8781   0.334   0.652   1.227  0.6443  1.0875  0.2945
  589TMC3    C2 8782   0.463   0.631   1.276  0.2879 -0.0922  0.4241
  589TMC3    C3 8783   0.551   0.549   1.215 -0.4529 -0.1581 -0.1645
  589TMC3    C4 8784   0.296   0.568   1.122 -0.6141  0.7616  0.8182
  589TMC3    C5 8785   0.393   0.492   1.053  0.2338  0.7698 -0.0077
  589TMC3    C6 8786   0.518   0.478   1.099  0.2996  0.2720 -0.1756
  589TMC3     C 8787   0.231   0.704   1.316  0.0766  0.7145 -1.0999
  589TMC3     O 8788   0.134   0.735   1.250  0.3824 -0.5508 -0.0328
  589TMC3     H 8789   0.500   0.692   1.357  0.7734  1.7978 -1.2244
  589TMC3    H1 8790   0.191   0.558   1.101 -0.9479  1.3624  2.1893
  589TMC3    H2 8791   0.590   0.414   1.050 -2.5101 -2.1608 -1.1105
  589TMC3    C7 8792   0.351   0.401   0.945 -0.7728 -0.3087  0.1956
  589TMC3    C8 8793   0.661   0.498   1.295  0.1835 -0.2190  0.8071
  589TMC3    O1 8794   0.441   0.348   0.877  0.1865  0.1416  0.0550
  589TMC3    O2 8795   0.659   0.530   1.412  0.0945 -0.7334  0.2445
  590MPD2     C 8796   4.306   3.405  16.649 -0.1362  0.4429 -0.0407
  590MPD2    C1 8797   4.273   3.527  16.689  0.1767 -0.2100 -1.0014
  590MPD2    C2 8798   4.365   3.625  16.692  0.1691  0.0141 -0.2179
  590MPD2    C3 8799   4.497   3.601  16.652  0.6451 -0.1056 -0.1429
  590MPD2    C4 8800   4.536   3.473  16.613 -0.0217 -0.0671  0.3392
  590MPD2    C5 8801   4.438   3.370  16.618  0.0142 -0.5547 -0.4500
  590MPD2     H 8802   4.352   3.726  16.728 -1.4755  0.3008 -1.6100
  590MPD2    H1 8803   4.630   3.459  16.562  0.5910 -0.5421  1.6126
  590MPD2    H2 8804   4.227   3.331  16.639 -0.8162  1.0275  1.1149
  590MPD2    H3 8805   4.462   3.272  16.579  1.9107  0.0279 -0.7460
  590MPD2     N 8806   4.584   3.715  16.636 -0.7111 -0.2152  0.4701
  590MPD2    H5 8807   4.540   3.802  16.665 -1.8064 -0.9008  0.8899
  590MPD2    N1 8808   4.136   3.555  16.726  0.4455 -0.2715 -0.6139
  590MPD2    H7 8809   4.072   3.483  16.692  1.7472 -2.2313  1.0466
  591TMC3    C1 8810   0.030   3.842  16.571  0.0239 -0.2416  0.1958
  591TMC3    C2 8811   0.154   3.846  16.525  0.3467  0.0743  0.0286
  591TMC3    C3 8812   0.192   3.944  16.435  0.2330 -0.3368 -0.3871
  591TMC3    C4 8813   4.676   3.934  16.539 -0.5809  0.0208 -0.2049
  591TMC3    C5 8814   4.725   4.041  16.464 -0.5038  0.0461 -0.3788
  591TMC3    C6 8815   0.109   4.051  16.411 -0.3000  0.3767 -0.0979
  591TMC3     C 8816   4.714   3.712  16.603  0.4384 -0.1932  0.1748
  591TMC3     O 8817   0.047   3.617  16.597 -0.0356  0.1850  0.3501
  591TMC3     H 8818   0.224   3.764  16.536 -1.2542 -1.1808  0.7005
  591TMC3    H1 8819   4.574   3.941  16.575 -0.3787  1.0866  0.1480
  591TMC3    H2 8820   0.160   4.131  16.358  1.5606  0.1290  1.3141
  591TMC3    C7 8821   4.625   4.135  16.416 -0.3740 -0.1033 -0.1299
  591TMC3    C8 8822   0.201   3.870  16.303 -0.3461 -0.3393 -0.4383
  591TMC3    O1 8823   4.516   4.127  16.469  0.1605  0.3281 -0.4512
  591TMC3    O2 8824   0.167   3.755  16.299 -0.1985 -0.2331 -0.4165
  592MPD2     C 8825   0.219   0.410  11.752  0.7059  0.4598  0.1891
  592MPD2    C1 8826   0.157   0.485  11.843  0.7768 -0.3651 -0.4777
  592MPD2    C2 8827   0.076   0.418  11.938 -0.1568 -0.6692  0.9637
  592MPD2    C3 8828   0.064   0.280  11.932 -0.5758  0.0247 -0.6835
  592MPD2    C4 8829   0.130   0.207  11.836  0.7988 -0.2040 -0.5810
  592MPD2    C5 8830   0.201   0.275  11.745  0.2191 -0.1581  0.4818
  592MPD2     H 8831   0.029   0.467  12.023 -0.9414  0.9164 -0.3767
  592MPD2    H1 8832   0.125   0.100  11.825  0.1292 -0.4114  1.6609
  592MPD2    H2 8833   0.291   0.453  11.684 -2.6367  3.4167 -1.4450
  592MPD2    H3 8834   0.249   0.213  11.669  2.0551  0.9210  0.7640
  592MPD2     N 8835   4.729   0.211  12.026 -0.4953  0.8362  0.3367
  592MPD2    H5 8836   4.681   0.272  12.091 -2.1082 -3.0580  2.7481
  592MPD2    N1 8837   0.182   0.619  11.845 -0.8599 -0.2594 -0.1219
  592MPD2    H7 8838   0.220   0.660  11.760 -0.5438 -1.3874 -0.5238
  593TMC3    C1 8839   0.200   0.850  11.900  0.3666  0.1140  0.3244
  593TMC3    C2 8840   0.162   0.943  11.986  0.2158  0.6217 -0.3766
  593TMC3    C3 8841   0.228   1.064  11.979 -0.6613 -0.4877 -0.6161
  593TMC3    C4 8842   0.290   0.864  11.800  0.0111 -0.1687 -0.1071
  593TMC3    C5 8843   0.349   0.988  11.795 -0.1313 -0.0444 -0.5694
  593TMC3    C6 8844   0.321   1.090  11.880  0.2523 -0.6944  1.3659
  593TMC3     C 8845   0.154   0.713  11.937  0.0648 -0.3221 -0.4039
  593TMC3     O 8846   0.105   0.696  12.051  0.1672  0.0072  0.1401
  593TMC3     H 8847   0.095   0.925  12.069 -0.7375  0.9366 -1.0789
  593TMC3    H1 8848   0.343   0.774  11.770 -2.7929 -1.2345 -1.8882
  593TMC3    H2 8849   0.360   1.189  11.860  0.1694 -0.9044  0.2014
  593TMC3    C7 8850   0.401   1.034  11.667 -0.3056  0.6820  0.1360
  593TMC3    C8 8851   0.169   1.178  12.040 -0.0464 -0.2994 -1.2874
  593TMC3    O1 8852   0.457   1.143  11.665 -0.1147 -0.0654  0.1460
  593TMC3    O2 8853   0.052   1.211  12.034 -0.4860  0.5156  0.4846
  594MPD2     C 8854   3.220   4.016  14.299  0.6894 -0.8276  0.2136
  594MPD2    C1 8855   3.246   4.033  14.429 -0.1778  1.0574  0.0076
  594MPD2    C2 8856   3.358   4.110  14.453 -1.5972 -0.0548  0.0869
  594MPD2    C3 8857   3.450   4.155  14.362  0.1669 -1.2226  0.4037
  594MPD2    C4 8858   3.432   4.108  14.238  0.1710  0.4195 -0.1642
  594MPD2    C5 8859   3.315   4.043  14.211  0.0913 -0.7943 -0.0671
  594MPD2     H 8860   3.373   4.152  14.552  1.6645  1.7830 -1.2198
  594MPD2    H1 8861   3.503   4.132  14.159 -1.7808 -0.6132 -2.2320
  594MPD2    H2 8862   3.133   3.959  14.268 -0.5669  0.0927  2.0299
  594MPD2    H3 8863   3.298   4.010  14.109  0.4365 -2.6963  0.4975
  594MPD2     N 8864   3.551   4.249  14.401 -0.2752 -0.6228 -0.2097
  594MPD2    H5 8865   3.545   4.295  14.491 -0.2877 -1.3027  0.1401
  594MPD2    N1 8866   3.153   3.998  14.527 -0.4059  0.6917 -0.2114
  594MPD2    H7 8867   3.058   3.980  14.494  0.0677 -3.2745  0.6111
  595TMC3    C1 8868   3.914   4.543  14.402 -0.4795  0.6278  0.1803
  595TMC3    C2 8869   3.836   4.452  14.328  0.2658  0.9804 -0.2682
  595TMC3    C3 8870   3.719   4.415  14.394  0.4135  0.5958 -0.6226
  595TMC3    C4 8871   3.886   4.591  14.526  0.2679  0.2591  0.1522
  595TMC3    C5 8872   3.763   4.552  14.579 -0.1521  0.3282  0.4335
  595TMC3    C6 8873   3.675   4.476  14.512 -0.5793  0.0953 -0.4657
  595TMC3     C 8874   4.053   4.548  14.366  0.2277  0.5592  0.0091
  595TMC3     O 8875   4.126   4.580  14.459 -0.3475 -0.4389 -0.0680
  595TMC3     H 8876   3.853   4.412  14.229  1.1211 -0.4836  0.4759
  595TMC3    H1 8877   3.952   4.652  14.586 -2.0884  1.5877  1.4235
  595TMC3    H2 8878   3.582   4.443  14.556 -1.5047  1.1169 -1.6401
  595TMC3    C7 8879   3.703   4.610  14.697 -0.6429  0.0502 -0.0058
  595TMC3    C8 8880   3.632   4.322  14.319  0.2745  0.3038  0.2440
  595TMC3    O1 8881   3.580   4.617  14.696 -0.3225  0.5174 -0.3042
  595TMC3    O2 8882   3.650   4.311  14.196 -0.0139 -0.2010 -0.4542
  596MPD2     C 8883   2.252   2.117  16.648  0.1659 -0.1527  0.0335
  596MPD2    C1 8884   2.322   2.236  16.617 -1.3663 -0.3439  0.8182
  596MPD2    C2 8885   2.373   2.263  16.490  0.5963 -0.2969 -0.5039
  596MPD2    C3 8886   2.359   2.172  16.385  0.1502 -0.2407  0.1624
  596MPD2    C4 8887   2.289   2.060  16.420  0.5128  0.2707 -0.6735
  596MPD2    C5 8888   2.237   2.037  16.547  0.6429 -0.1460 -0.2526
  596MPD2     H 8889   2.409   2.363  16.467 -0.0257  0.4357  1.6718
  596MPD2    H1 8890   2.253   1.994  16.342 -2.2559 -0.3658  1.1451
  596MPD2    H2 8891   2.203   2.091  16.741  1.2012  3.2127  1.5257
  596MPD2    H3 8892   2.188   1.943  16.569  0.5950  0.2826  1.4527
  596MPD2     N 8893   2.391   2.196  16.252 -1.2781 -0.1211  0.6107
  596MPD2    H5 8894   2.382   2.125  16.180  2.2997 -0.2505  0.3022
  596MPD2    N1 8895   2.343   2.338  16.713  1.1269  0.1459 -1.0560
  596MPD2    H7 8896   2.403   2.415  16.688  1.0339  0.7746  0.6165
  597TMC3    C1 8897   2.320   2.483  16.890  0.4334  0.1165 -0.3903
  597TMC3    C2 8898   2.452   2.517  16.880 -0.2220  0.3403  0.2922
  597TMC3    C3 8899   2.499   2.628  16.947  0.0424 -0.6125 -0.7504
  597TMC3    C4 8900   2.231   2.546  16.971  0.3297  0.4478  0.6160
  597TMC3    C5 8901   2.287   2.655  17.039  0.6998  0.8704  0.4697
  597TMC3    C6 8902   2.419   2.693  17.032  0.3609  0.1650 -0.4999
  597TMC3     C 8903   2.274   2.357  16.830 -0.0747  0.6180  0.3356
  597TMC3     O 8904   2.177   2.295  16.868  0.5839  0.5347 -0.0024
  597TMC3     H 8905   2.527   2.453  16.836  0.2915  0.4231  1.0452
  597TMC3    H1 8906   2.130   2.510  16.984  0.7412 -0.7016  0.5861
  597TMC3    H2 8907   2.448   2.783  17.085  0.0375  0.7986 -1.3965
  597TMC3    C7 8908   2.207   2.723  17.136  0.3477  0.0076 -0.8169
  597TMC3    C8 8909   2.629   2.691  16.914 -0.1271  0.2751 -0.2450
  597TMC3    O1 8910   2.123   2.657  17.197  0.1605 -0.1857  0.8622
  597TMC3    O2 8911   2.673   2.769  16.994 -0.2784 -0.4673 -0.2082
  598TMC3    C1 8912   0.807   3.887  15.468 -0.3600 -0.4539 -0.1829
  598TMC3    C2 8913   0.727   3.781  15.495  0.2545 -0.5619 -0.0103
  598TMC3    C3 8914   0.661   3.728  15.386  0.8669  0.1843  0.4122
  598TMC3    C4 8915   0.805   3.953  15.344  0.5426  0.2359 -0.1887
  598TMC3    C5 8916   0.706   3.920  15.255  0.0032 -0.3331 -0.0840
  598TMC3    C6 8917   0.651   3.799  15.274  0.4966  0.5045  0.3023
  598TMC3     C 8918   0.857   3.971  15.577 -0.1454 -0.4374 -1.1277
  598TMC3     O 8919   0.829   4.091  15.581  0.4255  0.3015 -0.3431
  598TMC3     H 8920   0.729   3.738  15.594 -0.3716 -0.1994  0.1596
  598TMC3    H1 8921   0.865   4.042  15.333 -0.3743  0.8056 -0.5383
  598TMC3    H2 8922   0.577   3.768  15.201  0.2735  2.2096 -0.1739
  598TMC3    C7 8923   0.730   3.970  15.121  0.3183  0.1573 -0.4683
  598TMC3    C8 8924   0.605   3.591  15.398 -0.0518 -0.1691  0.0760
  598TMC3    O1 8925   0.710   3.887  15.034 -0.5051 -0.1047 -0.5440
  598TMC3    O2 8926   0.610   3.545  15.511 -0.3444  0.0545  0.1327
  599MPD2     C 8927   0.601   1.532  15.246  0.5018 -0.3444  0.2775
  599MPD2    C1 8928   0.572   1.407  15.285 -0.1859  0.4686 -0.5822
  599MPD2    C2 8929   0.453   1.387  15.361  0.0013  0.2297  0.0246
  599MPD2    C3 8930   0.369   1.490  15.388 -0.2770 -0.7709 -0.3151
  599MPD2    C4 8931   0.409   1.618  15.346 -0.3075  0.1174  0.3160
  599MPD2    C5 8932   0.526   1.635  15.278 -0.2559  0.3703  0.5087
  599MPD2     H 8933   0.446   1.285  15.395 -0.2820  0.1207 -0.3490
  599MPD2    H1 8934   0.333   1.692  15.364  1.7611  2.1773  0.5738
  599MPD2    H2 8935   0.688   1.553  15.184 -0.5345 -0.8793 -1.3647
  599MPD2    H3 8936   0.556   1.738  15.259  3.2826 -0.6457  0.6188
  599MPD2     N 8937   0.263   1.484  15.487 -0.2088  0.1670 -0.1074
  599MPD2    H5 8938   0.228   1.574  15.517 -0.0059  0.8776 -2.0025
  599MPD2    N1 8939   0.658   1.304  15.249 -0.5119  0.2227 -0.9048
  599MPD2    H7 8940   0.746   1.326  15.203 -0.4604  0.2170 -0.8105
  600TMC3    C1 8941   0.111   1.383  15.647 -0.1535  0.0472  0.6275
  600TMC3    C2 8942   4.739   1.297  15.641 -0.0422  0.1936  0.5810
  600TMC3    C3 8943   4.628   1.330  15.716 -0.7431  0.1197  0.0122
  600TMC3    C4 8944   0.102   1.498  15.728  1.2709 -0.0857 -0.0275
  600TMC3    C5 8945   4.731   1.523  15.805  0.5263  0.3839 -0.3427
  600TMC3    C6 8946   4.620   1.446  15.793  0.2786  0.0210  0.7423
  600TMC3     C 8947   0.203   1.370  15.540 -0.4962 -0.6658 -1.0652
  600TMC3     O 8948   0.215   1.259  15.491 -0.3754  0.2082 -0.4788
  600TMC3     H 8949   0.005   1.216  15.569  0.6386  0.4503  0.3450
  600TMC3    H1 8950   0.193   1.551  15.751  1.3824 -1.0186  1.7205
  600TMC3    H2 8951   4.540   1.451  15.866 -1.1318 -0.9206 -0.7332
  600TMC3    C7 8952   4.722   1.637  15.887 -0.3547 -0.6321 -0.4253
  600TMC3    C8 8953   4.526   1.228  15.718  0.3062 -0.1755  0.1825
  600TMC3    O1 8954   4.617   1.644  15.952  0.4194 -0.2857 -0.0668
  600TMC3    O2 8955   4.563   1.121  15.669 -0.1262 -0.0836 -0.0951
  601MPD2     C 8956   3.114   0.087   0.042  0.2856 -0.3178 -0.1487
  601MPD2    C1 8957   2.980   0.064   0.035 -0.4678 -0.4136  0.5525
  601MPD2    C2 8958   2.925   4.705   0.127  0.8241 -0.3071 -0.3728
  601MPD2    C3 8959   3.006   4.640   0.223 -0.2028  0.6217  0.2647
  601MPD2    C4 8960   3.141   4.675   0.228 -0.5711  0.3959 -0.2332
  601MPD2    C5 8961   3.188   0.026   0.137 -0.0277  0.6515 -0.1960
  601MPD2     H 8962   2.823   4.669   0.117  0.9553 -0.4593 -1.1718
  601MPD2    H1 8963   3.213   4.632   0.296 -0.2003 -0.4083 -1.1472
  601MPD2    H2 8964   3.165   0.150  17.728 -0.0577 -0.2023 -0.2953
  601MPD2    H3 8965   3.295   0.042   0.144 -0.2911  2.2589  0.1630
  601MPD2     N 8966   2.956   4.539   0.304  0.2703 -0.3345 -0.4399
  601MPD2    H5 8967   3.015   4.482   0.363  0.0610 -1.1806 -1.0375
  601MPD2    N1 8968   2.895   0.113  17.687  0.3298 -0.6073 -0.4901
  601MPD2    H7 8969   2.801   0.078  17.674  0.0735 -0.4190  0.7832
  602TMC3    C1 8970   2.848   0.239  17.485  0.0940  0.6308  0.1672
  602TMC3    C2 8971   2.902   0.308  17.379 -0.0150 -0.7562 -0.6339
  602TMC3    C3 8972   2.820   0.350  17.278  1.0395 -0.1291 -0.4697
  602TMC3    C4 8973   2.716   0.215  17.492  0.3655 -0.1707 -0.0541
  602TMC3    C5 8974   2.637   0.247  17.384 -0.2732  0.4295 -0.1207
  602TMC3    C6 8975   2.687   0.309  17.274 -0.0390  0.4291 -0.3418
  602TMC3     C 8976   2.945   0.190  17.578  0.2432  0.4375  0.6858
  602TMC3     O 8977   3.058   0.227  17.547 -0.0761  0.0015 -0.0951
  602TMC3     H 8978   3.002   0.348  17.377 -0.5100  0.7047  3.4821
  602TMC3    H1 8979   2.679   0.167  17.582  2.5966 -0.8053  0.5040
  602TMC3    H2 8980   2.627   0.314  17.184 -0.4280 -0.2378 -0.1231
  602TMC3    C7 8981   2.505   0.201  17.365  0.1394 -0.1359  0.1252
  602TMC3    C8 8982   2.854   0.457  17.188  0.7349  0.0960  0.4842
  602TMC3    O1 8983   2.481   0.079  17.352 -0.2812  0.4969  0.0708
  602TMC3    O2 8984   2.973   0.494  17.184 -0.0273  1.1408  0.0766
  603TMC3    C1 8985   0.839   0.077  11.319  0.2810  0.2475 -0.2374
  603TMC3    C2 8986   0.808   0.113  11.450 -0.1335 -0.2744  0.3582
  603TMC3    C3 8987   0.850   0.227  11.502  0.0467  0.3830 -0.0089
  603TMC3    C4 8988   0.915   0.158  11.236 -0.2928  0.4612 -0.3971
  603TMC3    C5 8989   0.948   0.275  11.285  0.1787 -0.4764  0.2407
  603TMC3    C6 8990   0.930   0.308  11.417  0.4769 -0.7351  0.0677
  603TMC3     C 8991   0.777   4.699  11.258  0.4879  0.1187 -0.0876
  603TMC3     O 8992   0.785   4.688  11.138  0.1529 -0.5017  0.4332
  603TMC3     H 8993   0.744   0.042  11.501 -1.0165  1.1815  1.2842
  603TMC3    H1 8994   0.939   0.119  11.137  1.8824  1.1832 -0.1640
  603TMC3    H2 8995   0.947   0.413  11.437  0.6017 -0.7725  0.1581
  603TMC3    C7 8996   1.036   0.358  11.202  0.6294 -0.0978  0.0585
  603TMC3    C8 8997   0.856   0.235  11.647  0.5586  0.1990 -0.3083
  603TMC3    O1 8998   1.134   0.408  11.252 -0.0983  0.9408  0.3858
  603TMC3    O2 8999   0.813   0.135  11.712  0.0901  0.1485 -0.4663
  604MPD2     C 9000   2.021   3.850  16.546  0.2316 -0.9448 -0.1662
  604MPD2    C1 9001   1.951   3.907  16.443 -0.6988 -0.1105  0.7847
  604MPD2    C2 9002   1.978   3.872  16.312 -0.1574  0.4167  0.0706
  604MPD2    C3 9003   2.081   3.789  16.282  0.2701 -0.0510 -0.4139
  604MPD2    C4 9004   2.153   3.736  16.384 -0.0794  0.9455 -0.7717
  604MPD2    C5 9005   2.129   3.773  16.517  0.7995  0.0069 -0.9354
  604MPD2     H 9006   1.920   3.920  16.234 -1.4652 -2.2107 -0.5872
  604MPD2    H1 9007   2.239   3.672  16.373 -0.4002  0.0299  2.0394
  604MPD2    H2 9008   2.004   3.867  16.652 -1.7756  1.0137 -0.8045
  604MPD2    H3 9009   2.197   3.727  16.587  2.9928  1.1189 -2.3056
  604MPD2     N 9010   2.113   3.762  16.144  0.4729 -0.4302 -0.2406
  604MPD2    H5 9011   2.062   3.809  16.070  2.0241  1.0888 -0.3357
  604MPD2    N1 9012   1.854   3.997  16.482  0.7162 -0.1813  0.4766
  604MPD2    H7 9013   1.855   4.017  16.581  1.6996  1.9527  0.0395
  605TMC3    C1 9014   1.672   4.156  16.485 -0.6555  0.9077  0.9916
  605TMC3    C2 9015   1.729   4.209  16.600  0.0585 -0.5484  0.0416
  605TMC3    C3 9016   1.648   4.298  16.674 -0.2382 -0.6116 -0.2355
  605TMC3    C4 9017   1.542   4.171  16.443 -0.3903  0.3326  0.8242
  605TMC3    C5 9018   1.474   4.265  16.519 -0.7322  0.4173 -0.1666
  605TMC3    C6 9019   1.525   4.338  16.627  0.7477 -1.0295  0.4389
  605TMC3     C 9020   1.758   4.064  16.406 -0.1768 -0.0784  1.1275
  605TMC3     O 9021   1.722   4.034  16.293 -0.4082  0.2327 -0.4913
  605TMC3     H 9022   1.835   4.206  16.625  0.5963 -0.3098 -2.1927
  605TMC3    H1 9023   1.504   4.127  16.351 -0.5734  0.6792  0.7356
  605TMC3    H2 9024   1.468   4.418  16.672 -1.4506 -2.3262 -0.0481
  605TMC3    C7 9025   1.337   4.244  16.506 -0.1261 -0.0316  0.4307
  605TMC3    C8 9026   1.719   4.400  16.745  0.1741  0.3101  0.4376
  605TMC3    O1 9027   1.259   4.336  16.529 -0.1632 -0.3792  0.1189
  605TMC3    O2 9028   1.842   4.387  16.740  0.0050 -0.1922  0.7910
  606TMC3    C1 9029   2.767   2.071  17.700  0.0979 -0.3954 -0.0259
  606TMC3    C2 9030   2.901   2.080  17.695 -0.2947  0.3007  0.3267
  606TMC3    C3 9031   2.958   2.045  17.574 -0.2867  0.3124 -0.7438
  606TMC3    C4 9032   2.690   2.030  17.594 -0.0272  0.2515 -0.6226
  606TMC3    C5 9033   2.752   2.009  17.470  0.0298  0.0941 -0.6939
  606TMC3    C6 9034   2.884   2.022  17.457 -0.1538  1.1023  0.2718
  606TMC3     C 9035   2.698   2.102   0.071 -0.0763  0.0623 -0.7991
  606TMC3     O 9036   2.762   2.115   0.175  0.1956 -1.2881  0.1833
  606TMC3     H 9037   2.953   2.113   0.027  0.7198  1.2375 -0.6006
  606TMC3    H1 9038   2.583   2.045  17.594 -0.0868 -0.1373  0.4383
  606TMC3    H2 9039   2.935   1.994  17.365  2.4509  0.0541  2.0373
  606TMC3    C7 9040   2.673   1.961  17.364 -0.6611  1.0122 -0.6014
  606TMC3    C8 9041   3.092   1.997  17.588  0.1146 -0.7574  0.7237
  606TMC3    O1 9042   2.589   1.875  17.395  0.2536  0.0505  0.1330
  606TMC3    O2 9043   3.138   1.985  17.702 -0.3190 -0.0919 -0.4867
  607MPD2     C 9044   0.219   4.691  12.216  0.4975  0.1651 -0.3911
  607MPD2    C1 9045   0.227   0.081  12.269 -0.0590 -0.3359 -0.1346
  607MPD2    C2 9046   0.173   0.108  12.392 -0.5084 -0.4405  0.4759
  607MPD2    C3 9047   0.115   0.008  12.466  0.2703 -0.3711  0.1623
  607MPD2    C4 9048   0.095   4.625  12.411  0.4612  0.3331  0.4554
  607MPD2    C5 9049   0.154   4.600  12.287 -0.0796  0.6707 -0.4979
  607MPD2     H 9050   0.181   0.210  12.428 -0.3284 -0.0319 -0.6997
  607MPD2    H1 9051   0.048   4.541  12.459  1.5514 -0.9080 -0.6462
  607MPD2    H2 9052   0.263   4.658  12.123  2.4467  0.8058  0.3054
  607MPD2    H3 9053   0.153   4.500  12.244  1.3138  0.5737 -0.2831
  607MPD2     N 9054   0.061   0.053  12.597  0.0258  0.4151 -0.2505
  607MPD2    H5 9055   0.076   0.151  12.619 -0.1222 -0.3584  3.2533
  607MPD2    N1 9056   0.296   0.184  12.205 -0.3714 -0.6773 -0.7469
  607MPD2    H7 9057   0.300   0.276  12.248 -1.1373  0.0465 -2.2108
  608TMC3    C1 9058   0.446   0.295  12.083 -1.1952  0.4544  0.1901
  608TMC3    C2 9059   0.473   0.359  12.201  0.2300 -0.4442  0.1072
  608TMC3    C3 9060   0.551   0.467  12.186 -0.0171 -0.3509 -0.3074
  608TMC3    C4 9061   0.485   0.340  11.959 -0.2506 -0.1395 -0.3983
  608TMC3    C5 9062   0.562   0.453  11.955  0.3276  0.3273  0.3034
  608TMC3    C6 9063   0.593   0.518  12.069  0.0171  0.6341 -0.7065
  608TMC3     C 9064   0.357   0.182  12.082 -0.2759  0.3984 -0.9234
  608TMC3     O 9065   0.394   0.090  12.016 -0.3482 -0.5435 -0.0390
  608TMC3     H 9066   0.450   0.313  12.297  1.4885  0.3162  0.7622
  608TMC3    H1 9067   0.446   0.282  11.876  2.2078 -1.2308 -0.7813
  608TMC3    H2 9068   0.661   0.602  12.080  0.8625 -0.1769  0.1982
  608TMC3    C7 9069   0.586   0.514  11.824 -0.6348 -0.2193 -0.2008
  608TMC3    C8 9070   0.587   0.547  12.300 -0.1693 -0.0716 -0.4399
  608TMC3    O1 9071   0.560   0.451  11.724  0.1198 -0.4684 -0.0554
  608TMC3    O2 9072   0.689   0.620  12.301 -0.2013 -0.0098 -0.0492
  609TMC3    C1 9073   3.397   3.745   9.045 -0.3185  0.1996 -0.0579
  609TMC3    C2 9074   3.326   3.671   8.960 -0.9625 -0.4570 -0.2297
  609TMC3    C3 9075   3.397   3.579   8.890 -0.2945  0.3159  0.1969
  609TMC3    C4 9076   3.534   3.745   9.057  0.0214  0.4498  0.2961
  609TMC3    C5 9077   3.599   3.656   8.973  0.0918 -0.5453  0.3713
  609TMC3    C6 9078   3.529   3.563   8.898  0.0770  0.0487 -0.8590
  609TMC3     C 9079   3.313   3.821   9.144 -0.3269 -0.3277 -0.0675
  609TMC3     O 9080   3.213   3.869   9.100 -0.1980 -0.4961 -0.3432
  609TMC3     H 9081   3.220   3.678   8.941 -0.5706  0.3568 -2.0714
  609TMC3    H1 9082   3.587   3.828   9.101 -0.8343 -0.4810  3.1081
  609TMC3    H2 9083   3.590   3.505   8.830  0.5037 -2.4714  1.6951
  609TMC3    C7 9084   3.735   3.613   9.000  0.3886  0.4213 -0.5720
  609TMC3    C8 9085   3.322   3.509   8.785 -0.0229 -0.0216 -0.4077
  609TMC3    O1 9086   3.785   3.516   8.940 -0.2897  0.0438  0.3948
  609TMC3    O2 9087   3.215   3.558   8.745  0.5800  0.4360 -0.2942
  610TMC3    C1 9088   1.239   0.776  12.189 -0.4175  0.4686 -0.1925
  610TMC3    C2 9089   1.306   0.763  12.069 -0.8510  0.3447 -0.9648
  610TMC3    C3 9090   1.344   0.637  12.035  0.6785 -0.3125  0.1734
  610TMC3    C4 9091   1.214   0.675  12.279 -0.3781 -0.0610 -0.0906
  610TMC3    C5 9092   1.260   0.551  12.241 -0.3852 -0.5524 -0.3807
  610TMC3    C6 9093   1.322   0.524  12.115  0.1109  0.0760 -0.0071
  610TMC3     C 9094   1.229   0.906  12.253 -0.3030  0.6951  0.2888
  610TMC3     O 9095   1.221   0.921  12.373  0.6569 -0.1075  0.0622
  610TMC3     H 9096   1.345   0.847  12.013  1.0052 -0.6103 -1.1051
  610TMC3    H1 9097   1.167   0.700  12.374 -1.2536  4.0330 -1.5942
  610TMC3    H2 9098   1.346   0.426  12.077 -0.8631  0.3957 -1.4438
  610TMC3    C7 9099   1.280   0.450  12.344 -0.7911  0.6991  0.4407
  610TMC3    C8 9100   1.421   0.618  11.908  0.3260  0.5343 -0.6343
  610TMC3    O1 9101   1.339   0.349  12.311  0.1552  0.2154  0.1212
  610TMC3    O2 9102   1.457   0.505  11.885  0.3084  0.3944  0.0019
  611MPD2     C 9103   0.297   0.075  10.377  0.6042  0.4404  0.5198
  611MPD2    C1 9104   0.230   0.194  10.352 -0.4753  0.1542 -0.2312
  611MPD2    C2 9105   0.306   0.311  10.333  0.2784  0.0336  0.1152
  611MPD2    C3 9106   0.444   0.301  10.357  0.1396 -0.0549  0.1772
  611MPD2    C4 9107   0.504   0.182  10.383 -0.2528 -0.0876  0.3609
  611MPD2    C5 9108   0.433   0.068  10.403  0.0637  0.2065 -0.1142
  611MPD2     H 9109   0.260   0.406  10.308  2.4745  0.8287 -0.9139
  611MPD2    H1 9110   0.610   0.176  10.406  0.6061  1.8905 -2.9519
  611MPD2    H2 9111   0.239   4.726  10.399 -1.5050  1.2879 -1.5114
  611MPD2    H3 9112   0.480   4.713  10.424  0.5001  0.4046 -0.1871
  611MPD2     N 9113   0.532   0.413  10.358 -0.6451  0.0006  0.3703
  611MPD2    H5 9114   0.612   0.401  10.419  1.6813  2.3802 -2.2258
  611MPD2    N1 9115   0.088   0.184  10.333 -0.6362  0.4651  0.2776
  611MPD2    H7 9116   0.045   0.093  10.341 -1.5817  0.9356  0.5414
  612TMC3    C1 9117   0.611   0.629  10.326 -0.8642  0.1917 -0.1898
  612TMC3    C2 9118   0.703   0.609  10.431  0.0784  0.0454  0.4540
  612TMC3    C3 9119   0.759   0.724  10.480  0.1082 -0.1868  0.4341
  612TMC3    C4 9120   0.579   0.754  10.275  0.5455  0.2782  0.1746
  612TMC3    C5 9121   0.644   0.855  10.328  0.6121 -0.0777  0.4330
  612TMC3    C6 9122   0.737   0.851  10.433 -0.4530  0.7242  1.3329
  612TMC3     C 9123   0.509   0.535  10.296  0.9490  0.5863  0.4920
  612TMC3     O 9124   0.420   0.557  10.214  0.1764  0.2581  0.3396
  612TMC3     H 9125   0.717   0.516  10.485 -0.1631 -0.6548 -0.7022
  612TMC3    H1 9126   0.522   0.764  10.183 -0.0848  0.2969  0.5625
  612TMC3    H2 9127   0.789   0.936  10.476 -0.3483  0.6767  1.3018
  612TMC3    C7 9128   0.622   0.989  10.283 -0.2926  0.4575 -0.0069
  612TMC3    C8 9129   0.877   0.712  10.565 -0.2191 -0.1460 -0.4522
  612TMC3    O1 9130   0.633   1.081  10.364  0.1953 -0.2922  0.2532
  612TMC3    O2 9131   0.941   0.812  10.579  0.4041 -0.2358 -0.2408
  613MPD2     C 9132   3.794   2.503  16.898  0.4999  0.1980  0.4500
  613MPD2    C1 9133   3.710   2.562  16.806 -0.5630 -0.5287 -0.0095
  613MPD2    C2 9134   3.592   2.497  16.773 -0.2746  0.2409  0.2074
  613MPD2    C3 9135   3.559   2.368  16.823  0.2282 -0.3519  0.2084
  613MPD2    C4 9136   3.647   2.314  16.913 -0.0148  0.5885 -0.6602
  613MPD2    C5 9137   3.765   2.378  16.943  0.5208  0.5572  0.2735
  613MPD2     H 9138   3.522   2.536  16.701 -2.3332 -0.2404  1.9630
  613MPD2    H1 9139   3.628   2.216  16.956 -1.6130  0.9314 -0.6054
  613MPD2    H2 9140   3.893   2.544  16.918  1.6582 -3.2714  1.8874
  613MPD2    H3 9141   3.839   2.331  17.007  1.5163  1.2968 -0.3412
  613MPD2     N 9142   3.450   2.297  16.760 -0.3673 -0.1356 -0.8575
  613MPD2    H5 9143   3.444   2.197  16.774  2.6135 -0.2399 -0.4007
  613MPD2    N1 9144   3.749   2.681  16.740  0.0897  0.2283 -0.0463
  613MPD2    H7 9145   3.846   2.709  16.748  0.0190 -0.6085  3.6954
  614TMC3    C1 9146   3.755   2.778  16.522  0.2822 -0.0592 -0.6378
  614TMC3    C2 9147   3.778   2.658  16.465  0.1238  0.1210  0.4255
  614TMC3    C3 9148   3.739   2.629  16.337 -0.7441 -0.7836  0.4066
  614TMC3    C4 9149   3.706   2.880  16.438  1.3031 -0.4136 -0.7618
  614TMC3    C5 9150   3.660   2.849  16.306  0.2422 -0.0873  0.5296
  614TMC3    C6 9151   3.665   2.716  16.261 -0.2843 -0.2395  0.8691
  614TMC3     C 9152   3.678   2.740  16.635  0.7568 -0.0183 -0.1133
  614TMC3     O 9153   3.558   2.723  16.613  0.7262 -0.3133 -0.1122
  614TMC3     H 9154   3.827   2.578  16.520  0.3483 -0.1929 -0.2289
  614TMC3    H1 9155   3.718   2.983  16.469 -0.3124 -0.1843 -0.9023
  614TMC3    H2 9156   3.632   2.691  16.161  3.3447  0.1517 -0.3962
  614TMC3    C7 9157   3.673   2.958  16.214 -0.6608 -0.2002  0.1664
  614TMC3    C8 9158   3.694   2.486  16.325  0.0033 -0.4215  0.1804
  614TMC3    O1 9159   3.671   3.074  16.261 -0.4401 -0.1961  0.2918
  614TMC3    O2 9160   3.673   2.423  16.424  0.3548 -0.1850  0.5622
  615MPD2     C 9161   3.274   4.074  16.507  0.6180 -0.3914 -0.0489
  615MPD2    C1 9162   3.377   4.161  16.471 -0.3362  0.1923  0.4817
  615MPD2    C2 9163   3.356   4.273  16.391 -0.0839 -0.0225  0.6727
  615MPD2    C3 9164   3.229   4.295  16.348 -0.0638 -0.5847 -1.0552
  615MPD2    C4 9165   3.131   4.215  16.383 -0.1753 -0.0540  0.7168
  615MPD2    C5 9166   3.150   4.100  16.462 -0.3623 -0.5017 -0.9473
  615MPD2     H 9167   3.438   4.340  16.366 -1.6502  1.3809 -0.6960
  615MPD2    H1 9168   3.030   4.244  16.355  0.3439  1.1944  0.1463
  615MPD2    H2 9169   3.290   3.987  16.569 -0.6983  0.2248  1.1438
  615MPD2    H3 9170   3.055   4.055  16.488  0.0034 -0.0416  1.1413
  615MPD2     N 9171   3.208   4.403  16.254 -0.3129 -0.1755  0.1609
  615MPD2    H5 9172   3.115   4.410  16.215 -1.1468 -1.2697  1.9717
  615MPD2    N1 9173   3.507   4.136  16.514  0.0161  0.5209  0.0118
  615MPD2    H7 9174   3.580   4.202  16.487  0.0115  0.7191  0.4921
  616TMC3    C1 9175   3.687   4.042  16.628 -0.1060 -0.2332 -0.2385
  616TMC3    C2 9176   3.741   4.164  16.626 -0.1497 -0.1620 -0.8543
  616TMC3    C3 9177   3.874   4.179  16.588 -0.2944 -0.3807 -0.1961
  616TMC3    C4 9178   3.764   3.930  16.594  0.0313  0.0205  0.6928
  616TMC3    C5 9179   3.891   3.950  16.546  0.2613 -0.5479 -0.5443
  616TMC3    C6 9180   3.948   4.079  16.536  0.1991  0.0414  0.6263
  616TMC3     C 9181   3.547   4.027  16.578 -0.3704  0.0876  1.0174
  616TMC3     O 9182   3.504   3.915  16.558 -0.4762 -0.4339 -0.4982
  616TMC3     H 9183   3.675   4.246  16.653  1.3462  0.5988  0.4099
  616TMC3    H1 9184   3.723   3.830  16.591 -0.5479  0.2155  1.9626
  616TMC3    H2 9185   4.020   4.099  16.457  0.1477 -2.8464 -0.1405
  616TMC3    C7 9186   3.968   3.842  16.511 -0.0922  0.3205 -0.2917
  616TMC3    C8 9187   3.902   4.317  16.544  0.6765  0.4795 -0.1756
  616TMC3    O1 9188   3.917   3.735  16.531  0.3427  0.0647 -0.3236
  616TMC3    O2 9189   3.804   4.377  16.503 -0.6567 -0.7637  0.2368
  617MPD2     C 9190   1.403   2.293  13.740 -0.1861 -0.3537 -0.0295
  617MPD2    C1 9191   1.407   2.221  13.856 -0.2629 -0.4746 -0.3999
  617MPD2    C2 9192   1.289   2.229  13.926  0.1531 -0.1554 -0.4016
  617MPD2    C3 9193   1.169   2.286  13.884  0.1377  0.0748 -0.2718
  617MPD2    C4 9194   1.178   2.365  13.767 -0.6709 -0.1522 -0.6340
  617MPD2    C5 9195   1.294   2.367  13.701 -0.2503 -0.0437 -0.1023
  617MPD2     H 9196   1.288   2.167  14.014 -2.4859 -0.7945 -0.8862
  617MPD2    H1 9197   1.092   2.416  13.726 -0.1526  0.3778 -1.0657
  617MPD2    H2 9198   1.498   2.298  13.688  0.8965  0.9818  2.0977
  617MPD2    H3 9199   1.289   2.407  13.600  0.5238  0.4339  0.0557
  617MPD2     N 9200   1.043   2.288  13.955 -0.4125 -0.1352 -0.3256
  617MPD2    H5 9201   0.971   2.346  13.913  0.3592  0.3971 -0.9034
  617MPD2    N1 9202   1.527   2.161  13.894  0.4922  0.2049 -0.8755
  617MPD2    H7 9203   1.592   2.130  13.822  0.6070 -0.0532 -0.6590
  618TMC3    C1 9204   1.658   2.011  14.015 -0.1186  0.1135 -0.3601
  618TMC3    C2 9205   1.641   1.922  13.912  0.0463 -0.0403  0.3232
  618TMC3    C3 9206   1.748   1.875  13.853  0.0685 -0.5790 -0.1972
  618TMC3    C4 9207   1.775   2.053  14.055  0.2988  0.0151  0.7254
  618TMC3    C5 9208   1.882   2.001  13.992 -0.2547 -0.7498  0.2296
  618TMC3    C6 9209   1.878   1.906  13.890 -0.5595  0.3272 -0.2472
  618TMC3     C 9210   1.556   2.117  14.015  0.1725 -0.0352 -0.3080
  618TMC3     O 9211   1.509   2.154  14.123 -0.2929 -0.1024  0.0763
  618TMC3     H 9212   1.540   1.901  13.879  0.1147  1.1956 -0.6881
  618TMC3    H1 9213   1.773   2.138  14.123  1.8050 -0.2334  1.0710
  618TMC3    H2 9214   1.964   1.854  13.851 -0.9817 -1.1655  0.8225
  618TMC3    C7 9215   2.008   2.046  14.044 -0.1354  0.5888  0.0020
  618TMC3    C8 9216   1.729   1.817  13.720  0.2615  0.4823 -0.2347
  618TMC3    O1 9217   2.013   2.072  14.164  0.0417 -0.4361  0.7781
  618TMC3    O2 9218   1.615   1.794  13.682  0.2430 -0.3492 -0.1716
  619MPD2     C 9219   2.977   3.469  13.743  0.1539 -0.4657 -0.2986
  619MPD2    C1 9220   2.879   3.536  13.675 -0.1003 -0.3338 -0.0072
  619MPD2    C2 9221   2.759   3.470  13.660 -0.0873 -0.0198 -0.4553
  619MPD2    C3 9222   2.730   3.345  13.710 -0.5507 -0.2278  0.2825
  619MPD2    C4 9223   2.831   3.288  13.782 -0.0061  1.0424 -0.5238
  619MPD2    C5 9224   2.955   3.350  13.801 -0.2465  0.2246  0.7552
  619MPD2     H 9225   2.678   3.521  13.609 -0.1954 -1.2337 -1.4896
  619MPD2    H1 9226   2.826   3.188  13.825 -1.7159  1.2096 -0.3518
  619MPD2    H2 9227   3.076   3.510  13.760 -0.7459  0.3559  2.9161
  619MPD2    H3 9228   3.032   3.292  13.850  1.9698 -0.9337 -4.0898
  619MPD2     N 9229   2.604   3.283  13.703  0.2313  0.0616 -0.1840
  619MPD2    H5 9230   2.578   3.203  13.760 -2.0884  3.4156  3.4889
  619MPD2    N1 9231   2.902   3.662  13.612  0.0059  0.8593  1.0140
  619MPD2    H7 9232   2.822   3.707  13.568 -1.2468 -0.0856  2.3052
  620TMC3    C1 9233   2.996   3.865  13.553 -0.0208  0.3281 -0.8007
  620TMC3    C2 9234   2.881   3.876  13.474 -0.5030  0.6918  0.4853
  620TMC3    C3 9235   2.827   4.004  13.471 -0.9700 -0.1228  0.1454
  620TMC3    C4 9236   3.050   3.962  13.627 -0.5710  1.1596  0.3310
  620TMC3    C5 9237   2.996   4.092  13.620  0.7420 -0.2583 -0.1127
  620TMC3    C6 9238   2.890   4.112  13.534 -0.1066 -0.3445  0.0246
  620TMC3     C 9239   3.023   3.731  13.603  0.0547  0.4597  0.2511
  620TMC3     O 9240   3.124   3.710  13.666  0.1892  0.3858  0.4558
  620TMC3     H 9241   2.847   3.800  13.405 -1.2948  0.6564  0.9099
  620TMC3    H1 9242   3.117   3.938  13.709  1.5236  1.8482 -1.1657
  620TMC3    H2 9243   2.841   4.209  13.531  2.6520  1.1323  1.8855
  620TMC3    C7 9244   2.999   4.151  13.756 -0.2867  0.2712  0.3639
  620TMC3    C8 9245   2.688   4.001  13.514  0.3810 -0.8732  0.0331
  620TMC3    O1 9246   3.104   4.168  13.823  0.4210 -0.2104  0.0001
  620TMC3    O2 9247   2.671   4.086  13.602 -0.1533 -0.1946 -0.1895
  621MPD2     C 9248   2.890   3.579  10.713 -0.2684  0.4659  0.3453
  621MPD2    C1 9249   2.839   3.564  10.586 -0.7433 -0.9034 -0.5229
  621MPD2    C2 9250   2.777   3.668  10.529 -0.5430  0.9104  1.2469
  621MPD2    C3 9251   2.758   3.784  10.598 -0.6270 -0.1244  0.0770
  621MPD2    C4 9252   2.825   3.798  10.724 -0.6788 -0.3307 -0.2378
  621MPD2    C5 9253   2.892   3.695  10.779  0.2828 -0.6411  0.1700
  621MPD2     H 9254   2.738   3.663  10.428  0.8747 -0.3008  0.7614
  621MPD2    H1 9255   2.805   3.888  10.781 -3.4222  0.2116 -2.0440
  621MPD2    H2 9256   2.948   3.503  10.764  1.0296  1.4363  0.3000
  621MPD2    H3 9257   2.947   3.709  10.872  1.0383  0.3611 -0.4314
  621MPD2     N 9258   2.669   3.878  10.542 -0.0493  0.8509 -0.0999
  621MPD2    H5 9259   2.637   3.848  10.451 -4.2053  1.7456  1.0536
  621MPD2    N1 9260   2.839   3.445  10.511  0.3456 -0.0645 -0.1160
  621MPD2    H7 9261   2.806   3.446  10.415 -0.3285 -0.8497  0.1093
  622TMC3    C1 9262   2.847   3.217  10.476 -0.5691  0.4900 -1.1962
  622TMC3    C2 9263   2.752   3.225  10.380 -0.8234 -0.4465 -0.1736
  622TMC3    C3 9264   2.724   3.117  10.295  0.5267 -0.7459  0.7881
  622TMC3    C4 9265   2.917   3.106  10.497 -0.5730 -0.0442  0.1623
  622TMC3    C5 9266   2.886   3.001  10.410 -0.7851 -0.1689 -0.3908
  622TMC3    C6 9267   2.793   3.004  10.307  0.0978  0.6847 -0.7082
  622TMC3     C 9268   2.879   3.323  10.564 -0.0476 -0.4189  0.3324
  622TMC3     O 9269   2.920   3.284  10.672  0.0449 -0.5594  0.3229
  622TMC3     H 9270   2.679   3.304  10.392 -1.2019 -1.3141  3.0288
  622TMC3    H1 9271   2.999   3.105  10.568 -0.9677 -0.3951  0.6123
  622TMC3    H2 9272   2.767   2.922  10.240 -2.1018 -0.7347  1.8769
  622TMC3    C7 9273   2.946   2.874  10.438 -0.0337  0.3724  0.2545
  622TMC3    C8 9274   2.614   3.113  10.202  0.4348  0.4006 -0.5832
  622TMC3    O1 9275   3.040   2.872  10.519 -0.3853  0.0402  0.0076
  622TMC3    O2 9276   2.605   3.015  10.129  0.2553  0.1659 -0.0241
  623MPD2     C 9277   2.291   4.710  16.062  0.9563  0.3980  0.2403
  623MPD2    C1 9278   2.176   4.683  16.145  0.8177 -1.0824 -0.1989
  623MPD2    C2 9279   2.191   4.709  16.279  0.1367 -0.5079  0.0725
  623MPD2    C3 9280   2.314   0.015  16.330  0.1771  0.4781  0.3481
  623MPD2    C4 9281   2.412   0.048  16.242 -0.9977  0.4477  0.2362
  623MPD2    C5 9282   2.401   0.027  16.108 -0.0747  0.2785  0.2468
  623MPD2     H 9283   2.111   4.695  16.350  1.7732 -0.0956  1.9897
  623MPD2    H1 9284   2.501   0.096  16.283 -0.8916 -0.0921  0.6273
  623MPD2    H2 9285   2.290   4.695  15.955 -0.2767 -0.7858  0.4221
  623MPD2    H3 9286   2.486   0.038  16.042 -1.6435  0.7099 -1.6799
  623MPD2     N 9287   2.323   0.038  16.475 -0.4736  0.1306 -0.5420
  623MPD2    H5 9288   2.253   4.735  16.534 -0.7103  2.2864  0.7516
  623MPD2    N1 9289   2.061   4.622  16.098  0.5094  0.2196 -0.3346
  623MPD2    H7 9290   1.992   4.603  16.171 -0.6376  0.0038 -1.4644
  624TMC3    C1 9291   2.463   4.659  16.860 -0.1668  0.1978 -0.0090
  624TMC3    C2 9292   2.348   4.688  16.928  0.1141  0.4318  0.1651
  624TMC3    C3 9293   2.249   0.022  16.868  0.1133  0.1119 -0.5219
  624TMC3    C4 9294   2.507   4.730  16.749 -0.3703 -0.6396 -0.8497
  624TMC3    C5 9295   2.411   0.070  16.689  0.1405  0.2352  0.3796
  624TMC3    C6 9296   2.279   0.079  16.743  0.2587  0.5033 -0.2021
  624TMC3     C 9297   2.566   4.585  16.932 -0.0148 -0.5129 -0.1584
  624TMC3     O 9298   2.570   4.598  17.052 -0.6552  0.1038 -0.2860
  624TMC3     H 9299   2.330   4.625  17.014  2.4349 -2.0905 -1.2086
  624TMC3    H1 9300   2.607   4.716  16.708 -0.4085 -0.8750 -0.8607
  624TMC3    H2 9301   2.203   0.126  16.681 -0.7891 -0.5664  0.2809
  624TMC3    C7 9302   2.430   0.095  16.543 -0.0871 -0.2780  0.7455
  624TMC3    C8 9303   2.118   4.709  16.882 -0.5052  0.3177  0.2753
  624TMC3    O1 9304   2.535   0.143  16.502  0.0866 -0.3571  1.0221
  624TMC3    O2 9305   2.116   4.593  16.923  0.3746  0.0349  0.5782
  625MPD2     C 9306   2.636   0.828   0.486 -0.4967 -0.4016 -1.3201
  625MPD2    C1 9307   2.629   0.961   0.516  0.6534  0.0259 -0.2534
  625MPD2    C2 9308   2.730   1.016   0.589  0.7409  0.1530 -0.4668
  625MPD2    C3 9309   2.842   0.950   0.630  0.1733  0.2110  0.3251
  625MPD2    C4 9310   2.847   0.813   0.598 -0.2659 -0.2421 -0.7304
  625MPD2    C5 9311   2.740   0.758   0.535  0.0854 -0.2833 -0.7342
  625MPD2     H 9312   2.723   1.119   0.623 -1.9586 -0.0631 -0.3541
  625MPD2    H1 9313   2.929   0.744   0.618  0.2940  0.3398 -1.0251
  625MPD2    H2 9314   2.557   0.777   0.432 -1.2150  0.3740 -1.0113
  625MPD2    H3 9315   2.750   0.656   0.499 -0.7331 -0.3594 -0.7268
  625MPD2     N 9316   2.945   1.024   0.700 -0.3012  0.3617  0.1541
  625MPD2    H5 9317   2.927   1.124   0.709  0.5990  0.8109 -3.3190
  625MPD2    N1 9318   2.531   1.050   0.471  0.0662  0.1819  0.3555
  625MPD2    H7 9319   2.542   1.145   0.507  1.6590  1.2144 -2.8366
  626TMC3    C1 9320   2.319   1.128   0.390  0.8639 -0.7391 -0.2092
  626TMC3    C2 9321   2.240   1.141   0.279  0.1007  0.2624  0.4497
  626TMC3    C3 9322   2.162   1.249   0.260  0.3847 -0.2007 -0.0790
  626TMC3    C4 9323   2.320   1.216   0.490 -0.0743 -0.3417  0.1347
  626TMC3    C5 9324   2.228   1.316   0.475 -0.8685  0.8978 -0.7767
  626TMC3    C6 9325   2.161   1.343   0.360 -0.1699  0.2588 -0.6921
  626TMC3     C 9326   2.422   1.020   0.394  0.2437  0.3473  0.4757
  626TMC3     O 9327   2.390   0.913   0.353 -0.2708 -0.2103 -0.6714
  626TMC3     H 9328   2.244   1.061   0.205 -0.7925  0.2616  0.3969
  626TMC3    H1 9329   2.366   1.207   0.588  1.4259  0.1884 -0.5272
  626TMC3    H2 9330   2.100   1.432   0.366 -2.9724 -1.8108  1.8758
  626TMC3    C7 9331   2.172   1.371   0.605 -0.2669  0.3474 -0.1020
  626TMC3    C8 9332   2.107   1.270   0.131 -0.0033 -0.3829 -0.6212
  626TMC3    O1 9333   2.255   1.373   0.695  0.3131 -0.3298  0.1449
  626TMC3    O2 9334   2.101   1.174   0.051 -0.4201  0.2852  0.2301
  627MPD2     C 9335   0.619   1.063  14.413  0.2728 -0.2339 -0.1161
  627MPD2    C1 9336   0.742   1.003  14.439  0.3232 -0.2438  0.0389
  627MPD2    C2 9337   0.779   0.890  14.376  0.3107  0.3120 -0.8687
  627MPD2    C3 9338   0.697   0.834  14.282  0.7232 -0.6020 -0.5522
  627MPD2    C4 9339   0.575   0.899  14.250  0.5202 -0.0214  0.4707
  627MPD2    C5 9340   0.532   1.010  14.324 -0.1172  1.0241  0.0754
  627MPD2     H 9341   0.877   0.846  14.388  0.0626 -0.0821 -0.2631
  627MPD2    H1 9342   0.506   0.866  14.173  1.7425 -0.7440 -0.3251
  627MPD2    H2 9343   0.578   1.144  14.472  0.8995  0.8816 -1.2380
  627MPD2    H3 9344   0.439   1.061  14.305 -0.0518  1.7533  1.6984
  627MPD2     N 9345   0.736   0.704  14.227 -0.1945 -0.3370  0.3325
  627MPD2    H5 9346   0.827   0.672  14.257 -0.3141  0.1906  1.2639
  627MPD2    N1 9347   0.843   1.057  14.521 -0.1398 -0.4306 -0.3132
  627MPD2    H7 9348   0.933   1.011  14.522 -0.0883 -0.3024  1.5032
  628TMC3    C1 9349   0.957   1.232  14.638 -0.5765  0.6442  0.4131
  628TMC3    C2 9350   1.067   1.153  14.647  0.7188 -0.0216  0.4666
  628TMC3    C3 9351   1.183   1.211  14.703  0.0004 -0.3010 -0.6683
  628TMC3    C4 9352   0.945   1.361  14.677 -0.1361 -0.2020 -0.3616
  628TMC3    C5 9353   1.060   1.414  14.738 -0.0866 -0.0700  0.0649
  628TMC3    C6 9354   1.169   1.340  14.756  0.4210 -0.6055 -0.3505
  628TMC3     C 9355   0.833   1.184  14.581  0.4557 -0.2673  0.0190
  628TMC3     O 9356   0.735   1.254  14.579 -0.8957 -0.0638  0.2890
  628TMC3     H 9357   1.063   1.049  14.618 -2.2879 -0.8511  3.8545
  628TMC3    H1 9358   0.847   1.407  14.670 -0.3648 -0.3565  1.8818
  628TMC3    H2 9359   1.261   1.390  14.785 -0.9320  1.9161 -0.4206
  628TMC3    C7 9360   1.060   1.557  14.767 -1.1714  0.0701 -0.1087
  628TMC3    C8 9361   1.302   1.135  14.683 -0.2809 -0.3654 -0.1368
  628TMC3    O1 9362   1.126   1.596  14.864  0.1668  0.3372  1.2146
  628TMC3    O2 9363   1.279   1.038  14.609 -0.3334  0.0835  0.3651
  629MPD2     C 9364   4.210   4.697  16.385  0.5513  0.4355 -0.2738
  629MPD2    C1 9365   4.293   4.593  16.429  0.2999  0.0519  0.0682
  629MPD2    C2 9366   4.236   4.479  16.482 -0.3988  0.3262  0.1331
  629MPD2    C3 9367   4.094   4.465  16.487  0.4021  0.2481 -0.8576
  629MPD2    C4 9368   4.014   4.570  16.444  0.2405 -0.9595  0.1393
  629MPD2    C5 9369   4.073   4.684  16.397 -0.0075 -0.3616 -0.0128
  629MPD2     H 9370   4.303   4.405  16.523  1.7816  0.6457 -2.8386
  629MPD2    H1 9371   3.906   4.568  16.435  0.3444 -0.7300 -1.1580
  629MPD2    H2 9372   4.250   0.050  16.347 -0.4063  1.1854  0.5439
  629MPD2    H3 9373   4.006   0.022  16.363 -0.2120  0.5695  2.5573
  629MPD2     N 9374   4.037   4.344  16.538  0.6548  0.3369  0.0037
  629MPD2    H5 9375   4.105   4.273  16.562 -0.0264 -0.0708  0.7235
  629MPD2    N1 9376   4.438   4.614  16.421  0.2662  0.0644  0.0281
  629MPD2    H7 9377   4.468   4.699  16.374 -0.2599  0.5703  0.5984
  630TMC3    C1 9378   4.656   4.614  16.478 -0.3049  0.3941 -0.4019
  630TMC3    C2 9379   4.700   4.682  16.372  0.0751  0.4080 -0.4465
  630TMC3    C3 9380   0.048   0.044  16.397  0.3567 -0.4209  0.4011
  630TMC3    C4 9381   4.688   4.653  16.606  0.6840 -0.3557 -0.4115
  630TMC3    C5 9382   0.033   0.024  16.624 -0.0619  0.9465 -0.1215
  630TMC3    C6 9383   0.090   0.088  16.520 -0.6799  0.2378 -0.0188
  630TMC3     C 9384   4.529   4.544  16.485  0.0088 -0.5431 -0.4003
  630TMC3     O 9385   4.518   4.459  16.573  0.4105  0.1291  0.4832
  630TMC3     H 9386   4.670   4.647  16.274 -2.5543 -0.3445  0.6264
  630TMC3    H1 9387   4.630   4.618  16.691 -2.4247  2.5164 -1.4085
  630TMC3    H2 9388   0.152   0.174  16.541 -1.4387  0.9105 -0.5581
  630TMC3    C7 9389   0.090   0.034  16.761  0.3546  0.0016  0.0011
  630TMC3    C8 9390   0.089   0.125  16.286 -0.0490 -0.0107 -0.3921
  630TMC3    O1 9391   0.017   4.728  16.847 -0.0934 -0.6279 -0.0967
  630TMC3    O2 9392   0.195   0.182  16.311 -0.0063 -0.3243 -0.8030
  631MPD2     C 9393   2.794   0.550  15.961 -0.0081  0.2295  0.2808
  631MPD2    C1 9394   2.836   0.488  15.848 -0.3119 -0.2594 -0.2413
  631MPD2    C2 9395   2.924   0.382  15.856 -0.0855 -0.0726 -0.6488
  631MPD2    C3 9396   2.966   0.336  15.978 -0.1688  0.0066 -0.4229
  631MPD2    C4 9397   2.905   0.392  16.089 -1.0145  0.1349  0.3569
  631MPD2    C5 9398   2.835   0.506  16.079  0.8104 -0.2188  0.1624
  631MPD2     H 9399   2.984   0.339  15.776  1.7185  0.5877  0.3518
  631MPD2    H1 9400   2.935   0.360  16.189 -0.1059  0.8291  0.3012
  631MPD2    H2 9401   2.735   0.641  15.964 -0.7284 -0.3136  2.3776
  631MPD2    H3 9402   2.814   0.554  16.174  0.4412  2.4573 -1.2637
  631MPD2     N 9403   3.056   0.235  15.978 -0.2608 -0.2111  0.0248
  631MPD2    H5 9404   3.102   0.206  15.893 -1.0609  1.0232 -0.8297
  631MPD2    N1 9405   2.788   0.535  15.726  0.2057 -0.2425 -0.6638
  631MPD2    H7 9406   2.705   0.593  15.716 -0.0495 -0.1619  1.8370
  632TMC3    C1 9407   2.735   0.490  15.497  0.9780 -0.1854 -0.3288
  632TMC3    C2 9408   2.612   0.550  15.513 -0.0167 -0.3464 -0.6550
  632TMC3    C3 9409   2.526   0.543  15.403 -0.3924 -0.1608 -0.5915
  632TMC3    C4 9410   2.780   0.437  15.384  0.1169 -0.4172  0.4059
  632TMC3    C5 9411   2.695   0.436  15.280 -0.1702 -0.1677 -0.4259
  632TMC3    C6 9412   2.571   0.488  15.280 -1.0646 -0.4357  0.1266
  632TMC3     C 9413   2.836   0.480  15.610 -0.3159  0.5527  0.3344
  632TMC3     O 9414   2.950   0.436  15.589  0.5883 -0.0327 -0.0823
  632TMC3     H 9415   2.571   0.573  15.610 -0.3732  1.0327 -1.1451
  632TMC3    H1 9416   2.878   0.392  15.378 -0.8567 -2.2102 -2.0697
  632TMC3    H2 9417   2.519   0.483  15.185  2.4857  1.7761 -1.9678
  632TMC3    C7 9418   2.733   0.352  15.167  0.0890  0.5463 -0.1593
  632TMC3    C8 9419   2.389   0.578  15.423 -0.6653  0.0488 -0.5320
  632TMC3    O1 9420   2.691   0.391  15.060  0.1787 -0.1053  0.3054
  632TMC3    O2 9421   2.351   0.622  15.534 -0.2096 -0.8703 -0.0061
  633MPD2     C 9422   1.828   2.114  17.100 -0.1698 -0.5960 -0.1615
  633MPD2    C1 9423   1.855   2.078  16.972 -0.6739 -0.4943 -0.4217
  633MPD2    C2 9424   1.901   1.945  16.947 -0.1632  0.2435 -0.4094
  633MPD2    C3 9425   1.906   1.850  17.051  0.7546 -0.5413 -0.3087
  633MPD2    C4 9426   1.876   1.889  17.177 -0.6711  0.8910  0.5374
  633MPD2    C5 9427   1.830   2.017  17.201 -0.4296  0.2275 -0.2290
  633MPD2     H 9428   1.923   1.915  16.845  0.2988 -0.3768 -0.1284
  633MPD2    H1 9429   1.888   1.827  17.265  1.0260  1.0538  0.4231
  633MPD2    H2 9430   1.806   2.218  17.121 -0.5326 -0.7101  0.0371
  633MPD2    H3 9431   1.805   2.054  17.300 -3.1557  1.3071 -1.3169
  633MPD2     N 9432   1.951   1.716  17.047  0.0330  0.2963  0.9135
  633MPD2    H5 9433   1.965   1.664  17.133 -0.4038  0.8641  1.3331
  633MPD2    N1 9434   1.849   2.162  16.858  0.1073 -0.1586 -0.2089
  633MPD2    H7 9435   1.899   2.133  16.774 -1.9144 -3.2865 -0.3259
  634TMC3    C1 9436   1.856   2.354  16.740  0.1273  0.5705 -0.3426
  634TMC3    C2 9437   1.887   2.284  16.627  0.3290 -0.2081  0.2580
  634TMC3    C3 9438   1.978   2.338  16.540 -0.2652  0.6173  0.2420
  634TMC3    C4 9439   1.907   2.479  16.761 -0.1079 -0.8172 -0.1050
  634TMC3    C5 9440   2.008   2.526  16.677 -0.5061  0.3913  0.8149
  634TMC3    C6 9441   2.042   2.460  16.566 -0.0666  0.2985  0.5738
  634TMC3     C 9442   1.802   2.288  16.857  0.8181  0.7097 -0.1903
  634TMC3     O 9443   1.738   2.343  16.948 -0.0170 -0.4887  0.4328
  634TMC3     H 9444   1.835   2.191  16.610  1.3372  0.0158 -3.9251
  634TMC3    H1 9445   1.867   2.536  16.845 -0.9878 -0.8209 -0.5163
  634TMC3    H2 9446   2.123   2.499  16.505 -0.0693 -1.3398 -0.4670
  634TMC3    C7 9447   2.067   2.664  16.685 -0.1002 -0.3481  0.8057
  634TMC3    C8 9448   2.003   2.262  16.418  0.0730 -0.3719  0.2584
  634TMC3    O1 9449   2.155   2.692  16.603 -0.2768 -0.3042  0.0506
  634TMC3    O2 9450   1.927   2.171  16.397  0.4031  0.7512 -0.0408
  635TMC3    C1 9451   2.585   3.590  17.669 -0.2944  0.3959  0.4925
  635TMC3    C2 9452   2.616   3.609  17.533  0.5120 -0.2764  0.6273
  635TMC3    C3 9453   2.529   3.540  17.450  0.2718  0.0632 -0.1433
  635TMC3    C4 9454   2.492   3.504  17.713 -0.1232 -0.6304 -0.9887
  635TMC3    C5 9455   2.411   3.431  17.622  0.8177  0.1247 -0.4637
  635TMC3    C6 9456   2.446   3.446  17.490  0.1813  0.0114  0.0497
  635TMC3     C 9457   2.663   3.668  17.756  0.2597  0.0246  0.4816
  635TMC3     O 9458   2.617   3.684   0.111 -0.0065 -0.0803 -0.0771
  635TMC3     H 9459   2.697   3.674  17.504 -0.7911  0.9375 -0.2963
  635TMC3    H1 9460   2.502   3.463   0.056 -0.6085  1.5804 -0.0563
  635TMC3    H2 9461   2.373   3.406  17.420 -0.3029 -0.8847  1.0664
  635TMC3    C7 9462   2.361   3.295  17.655  0.3145 -0.3421  0.0281
  635TMC3    C8 9463   2.516   3.592  17.318  0.0419  0.4919  0.6641
  635TMC3    O1 9464   2.354   3.210  17.566  0.5869  0.0111 -0.4146
  635TMC3    O2 9465   2.455   3.520  17.240 -0.4489 -0.4362  0.4658
  636MPD2     C 9466   3.316   2.921  16.224  0.1034  0.3910  0.4684
  636MPD2    C1 9467   3.320   2.901  16.362 -0.2504 -0.2733 -0.1041
  636MPD2    C2 9468   3.307   2.765  16.397 -0.5048  0.3793  0.5352
  636MPD2    C3 9469   3.264   2.671  16.310  0.3992 -0.0116 -0.1301
  636MPD2    C4 9470   3.240   2.703  16.178  0.9132  0.8005 -0.8156
  636MPD2    C5 9471   3.262   2.830  16.138  0.4102 -0.2321 -0.5784
  636MPD2     H 9472   3.316   2.742  16.503  2.3768 -1.6570 -0.1621
  636MPD2    H1 9473   3.213   2.636  16.097 -1.5166  2.4756 -1.4024
  636MPD2    H2 9474   3.354   3.012  16.179 -0.5670  1.2907  1.7233
  636MPD2    H3 9475   3.248   2.862  16.035  1.8798 -0.6234 -0.8961
  636MPD2     N 9476   3.246   2.541  16.365 -0.6541 -0.0336  0.1516
  636MPD2    H5 9477   3.273   2.537  16.462 -0.7938  4.2850  0.3589
  636MPD2    N1 9478   3.349   3.001  16.455  0.4291  0.3856  0.2788
  636MPD2    H7 9479   3.372   2.967  16.548  1.6302 -2.5302 -1.0615
  637TMC3    C1 9480   3.223   2.306  16.367  0.0235  0.4161 -0.2290
  637TMC3    C2 9481   3.203   2.321  16.498 -0.1136  0.0832 -0.2887
  637TMC3    C3 9482   3.285   2.260  16.587 -0.7346  0.6248 -0.3142
  637TMC3    C4 9483   3.298   2.204  16.320  0.1554  0.1926 -0.2245
  637TMC3    C5 9484   3.361   2.127  16.412  0.1591  0.4890 -0.4302
  637TMC3    C6 9485   3.363   2.160  16.539  0.3265 -0.1938 -0.0758
  637TMC3     C 9486   3.225   2.429  16.290  0.7201  0.6205 -0.5851
  637TMC3     O 9487   3.228   2.405  16.168 -0.1560  0.2030  0.3537
  637TMC3     H 9488   3.138   2.402  16.528  0.4789  0.2917  0.4158
  637TMC3    H1 9489   3.315   2.198  16.213 -0.7671  1.9476 -0.4627
  637TMC3    H2 9490   3.437   2.105  16.596 -0.1036  0.0233  0.6909
  637TMC3    C7 9491   3.445   2.012  16.375 -0.3791  0.1947 -0.0685
  637TMC3    C8 9492   3.353   2.348  16.676 -0.3370  0.0887 -0.0555
  637TMC3    O1 9493   3.415   1.916  16.447  0.2212  0.7233  0.5483
  637TMC3    O2 9494   3.321   2.470  16.663  0.2809 -0.4232  0.1215
  638MPD2     C 9495   2.978   1.610  14.399 -0.2606 -0.1910  0.1504
  638MPD2    C1 9496   3.006   1.476  14.420  0.1781 -0.9198  0.3459
  638MPD2    C2 9497   2.907   1.400  14.481  0.2884  0.1094 -0.6002
  638MPD2    C3 9498   2.787   1.462  14.527  0.5314 -0.0412  0.1294
  638MPD2    C4 9499   2.771   1.594  14.509 -0.1256 -0.0563  0.4323
  638MPD2    C5 9500   2.871   1.670  14.453  0.7209 -0.4843 -0.4327
  638MPD2     H 9501   2.924   1.293  14.484 -2.6249 -0.3201  0.8618
  638MPD2    H1 9502   2.691   1.649  14.557 -2.0449 -0.8888 -1.8361
  638MPD2    H2 9503   3.052   1.672  14.351  0.5014 -0.2965  1.2020
  638MPD2    H3 9504   2.870   1.778  14.458 -0.2768 -0.4557 -1.1437
  638MPD2     N 9505   2.693   1.378  14.598 -0.3718 -0.5723 -0.1884
  638MPD2    H5 9506   2.722   1.281  14.598  0.2389 -0.3954  0.9339
  638MPD2    N1 9507   3.129   1.424  14.372  0.3474 -0.4904  0.8514
  638MPD2    H7 9508   3.196   1.491  14.337 -0.6848 -0.4147 -0.9735
  639TMC3    C1 9509   2.505   1.324  14.725 -0.2283  0.1626 -0.5227
  639TMC3    C2 9510   2.502   1.197  14.673  0.4573  0.3251  0.6304
  639TMC3    C3 9511   2.463   1.102  14.762  0.2199  0.4174  0.5021
  639TMC3    C4 9512   2.460   1.360  14.848  0.1264 -0.0874 -0.2050
  639TMC3    C5 9513   2.444   1.265  14.940  0.6538 -0.1738 -0.1762
  639TMC3    C6 9514   2.447   1.134  14.894 -0.6948 -0.0755  0.1655
  639TMC3     C 9515   2.576   1.421  14.656  0.3191  0.6629  0.4190
  639TMC3     O 9516   2.523   1.530  14.661 -0.3505 -0.2047 -0.0943
  639TMC3     H 9517   2.539   1.181  14.572 -2.5681  0.2938 -0.4682
  639TMC3    H1 9518   2.469   1.463  14.880  0.3945 -0.5128  1.0972
  639TMC3    H2 9519   2.459   1.054  14.966  0.7984  0.0460  0.0342
  639TMC3    C7 9520   2.535   1.277  15.052  0.1298 -0.6361  0.1148
  639TMC3    C8 9521   2.471   0.964  14.707 -0.2313 -0.2361 -1.0098
  639TMC3    O1 9522   2.492   1.216  15.146  0.3023  0.4219 -0.0418
  639TMC3    O2 9523   2.518   0.954  14.596  0.6879 -0.2385 -0.5167
  640MPD2     C 9524   3.486   0.187  10.226 -0.7649  0.0404 -0.7027
  640MPD2    C1 9525   3.386   0.199  10.127  0.4501  0.4836 -0.3736
  640MPD2    C2 9526   3.295   0.306  10.124  0.0150  0.9334 -0.0350
  640MPD2    C3 9527   3.312   0.405  10.216 -0.0865 -0.7628  0.7837
  640MPD2    C4 9528   3.417   0.401  10.306  0.0074  0.4990  0.7585
  640MPD2    C5 9529   3.513   0.299  10.304  1.2621  0.1709  0.3394
  640MPD2     H 9530   3.236   0.325  10.035 -0.5519 -2.4357 -0.3691
  640MPD2    H1 9531   3.429   0.480  10.379  0.4464  1.6860 -0.6194
  640MPD2    H2 9532   3.545   0.096  10.239 -0.7669 -0.2433 -2.6718
  640MPD2    H3 9533   3.599   0.299  10.370  0.6192 -2.2591  1.1658
  640MPD2     N 9534   3.230   0.522  10.222 -0.1155  1.1095  0.4029
  640MPD2    H5 9535   3.256   0.597  10.285 -0.5945  1.5710  0.0585
  640MPD2    N1 9536   3.383   0.091  10.033 -0.1419 -0.3797  0.1201
  640MPD2    H7 9537   3.458   0.024  10.024 -0.3699 -0.7110  0.6810
  641TMC3    C1 9538   3.286   4.678   9.870  0.5161 -0.7549 -1.1370
  641TMC3    C2 9539   3.374   4.582   9.917 -0.4381 -0.4372  0.6028
  641TMC3    C3 9540   3.372   4.466   9.848 -0.0771 -0.8367 -0.8808
  641TMC3    C4 9541   3.198   4.648   9.777 -0.3910 -0.0257 -0.4011
  641TMC3    C5 9542   3.201   4.533   9.706  0.0164 -0.7599  0.8768
  641TMC3    C6 9543   3.290   4.436   9.740  0.1174 -0.4756 -0.3274
  641TMC3     C 9544   3.272   0.064   9.950 -0.5694 -0.6616 -0.7710
  641TMC3     O 9545   3.167   0.129   9.942 -0.9195  0.4169  0.1731
  641TMC3     H 9546   3.449   4.604   9.992 -0.1051  0.5491 -0.0283
  641TMC3    H1 9547   3.133   4.729   9.745  0.6153  0.8420 -0.2665
  641TMC3    H2 9548   3.308   4.355   9.671 -0.4847  0.2930 -1.3754
  641TMC3    C7 9549   3.143   4.529   9.577 -0.2097  0.4328  0.1750
  641TMC3    C8 9550   3.470   4.368   9.873  0.1874 -0.2087  0.0376
  641TMC3    O1 9551   3.203   4.466   9.495 -0.1613  0.4027 -0.3910
  641TMC3    O2 9552   3.491   4.282   9.788  0.3489 -0.5397 -0.7888
  642TMC3    C1 9553   0.101   1.128  12.538  0.2840  0.9368 -0.0705
  642TMC3    C2 9554   0.211   1.153  12.462 -0.4339  0.0951 -0.3688
  642TMC3    C3 9555   0.250   1.053  12.375  0.0233  0.3347  0.5122
  642TMC3    C4 9556   0.045   1.002  12.545 -0.0512  0.0434  0.5584
  642TMC3    C5 9557   0.089   0.904  12.466  0.1529 -1.4072  0.1484
  642TMC3    C6 9558   0.192   0.925  12.382  0.7225  0.4955 -0.4083
  642TMC3     C 9559   0.051   1.241  12.610 -0.2203 -0.0772 -0.3324
  642TMC3     O 9560   0.130   1.308  12.674 -0.1493 -0.3587 -0.4903
  642TMC3     H 9561   0.241   1.257  12.470 -1.3322  0.2344  1.1853
  642TMC3    H1 9562   4.703   0.992  12.615 -0.1017  0.7869  0.6056
  642TMC3    H2 9563   0.227   0.845  12.319 -0.2803  0.0387 -0.3797
  642TMC3    C7 9564   0.029   0.771  12.474 -0.2084 -0.0764  0.8261
  642TMC3    C8 9565   0.393   1.046  12.350  0.6617 -0.0017  0.1608
  642TMC3    O1 9566   0.041   0.701  12.371  0.2338  0.1932  0.1905
  642TMC3    O2 9567   0.426   0.999  12.242 -0.1549 -0.0481  0.1685
  643TMC3    C1 9568   4.452   0.946   0.380 -0.6853 -0.1623 -0.4799
  643TMC3    C2 9569   4.341   1.025   0.380  0.5716  0.4097  0.2582
  643TMC3    C3 9570   4.251   0.997   0.283  0.5043  0.2890  0.0986
  643TMC3    C4 9571   4.483   0.858   0.279 -0.0256  0.4375  0.7301
  643TMC3    C5 9572   4.386   0.841   0.186 -0.4780  1.0702  0.0893
  643TMC3    C6 9573   4.266   0.904   0.185 -0.3692  0.3944  0.4048
  643TMC3     C 9574   4.551   1.007   0.465  0.3351  0.0112  0.0592
  643TMC3     O 9575   4.512   1.104   0.533  0.4261 -0.1668  0.9772
  643TMC3     H 9576   4.310   1.102   0.450 -0.8597 -0.6740  0.8185
  643TMC3    H1 9577   4.587   0.828   0.275  0.2717  1.7033 -1.1026
  643TMC3    H2 9578   4.193   0.880   0.109 -1.4667 -1.0665  1.9429
  643TMC3    C7 9579   4.423   0.797   0.052  0.2021  0.1751  0.5693
  643TMC3    C8 9580   4.139   1.090   0.275 -0.3782  0.2074  0.6763
  643TMC3    O1 9581   4.354   0.824  17.711  0.3211 -0.4105 -0.0402
  643TMC3    O2 9582   4.108   1.146   0.380 -0.0702 -0.1995  0.0763
  644MPD2     C 9583   3.182   0.154   9.357 -0.5537  0.0406 -0.2519
  644MPD2    C1 9584   3.295   0.160   9.429  0.1855  0.0266  0.4153
  644MPD2    C2 9585   3.335   0.283   9.475  0.6980  0.5287 -1.1327
  644MPD2    C3 9586   3.264   0.396   9.443 -0.2194 -0.0933 -0.3554
  644MPD2    C4 9587   3.151   0.388   9.363 -0.4049 -0.4673  0.8946
  644MPD2    C5 9588   3.114   0.265   9.321  0.2388 -0.1069 -0.4319
  644MPD2     H 9589   3.421   0.296   9.539 -1.3921  0.8300  1.6162
  644MPD2    H1 9590   3.088   0.472   9.337 -0.1524 -0.7751 -0.6638
  644MPD2    H2 9591   3.140   0.060   9.324 -3.4907  2.2099 -2.7016
  644MPD2    H3 9592   3.028   0.272   9.256  1.0282  1.0833 -1.3600
  644MPD2     N 9593   3.310   0.518   9.495 -0.0391  0.1166 -0.0500
  644MPD2    H5 9594   3.395   0.505   9.549 -0.7194 -1.6735  0.5793
  644MPD2    N1 9595   3.369   0.040   9.464 -0.3757  0.5309  0.4746
  644MPD2    H7 9596   3.332   4.704   9.408 -1.1316 -0.9163  2.9543
  645TMC3    C1 9597   3.347   0.756   9.491  0.4199 -0.1663  0.1818
  645TMC3    C2 9598   3.460   0.749   9.563  0.0423 -0.6936  0.1660
  645TMC3    C3 9599   3.525   0.864   9.610 -0.3840  0.7526 -0.3039
  645TMC3    C4 9600   3.290   0.875   9.472  0.3096 -0.1469 -0.1484
  645TMC3    C5 9601   3.356   0.984   9.511 -0.0104  0.4684  0.3511
  645TMC3    C6 9602   3.482   0.987   9.567 -0.6477  0.2823  0.2803
  645TMC3     C 9603   3.259   0.641   9.468  0.7075  0.2989  0.5097
  645TMC3     O 9604   3.150   0.674   9.422 -0.1702 -0.1448 -0.0774
  645TMC3     H 9605   3.515   0.657   9.577 -1.8535 -2.0647 -1.3199
  645TMC3    H1 9606   3.193   0.891   9.427 -0.4884  1.7093  2.1927
  645TMC3    H2 9607   3.536   1.078   9.592  0.6916 -0.1662 -0.9815
  645TMC3    C7 9608   3.289   1.110   9.527 -0.1873  0.1393  0.0401
  645TMC3    C8 9609   3.665   0.857   9.654  0.2559 -0.7924 -0.1836
  645TMC3    O1 9610   3.356   1.210   9.518  0.1511  0.3075 -0.2191
  645TMC3    O2 9611   3.732   0.956   9.637  0.6161  0.1486 -0.4703
  646MPD2     C 9612   3.306   4.519  14.578  0.2044  0.0725 -0.5862
  646MPD2    C1 9613   3.268   4.612  14.674 -0.2934 -0.1818  1.2444
  646MPD2    C2 9614   3.208   4.734  14.646 -0.4029 -0.0055 -0.5025
  646MPD2    C3 9615   3.176   0.024  14.509  0.7161 -0.5759  0.7579
  646MPD2    C4 9616   3.206   4.663  14.419  0.3023  0.0676  0.1052
  646MPD2    C5 9617   3.273   4.541  14.452  0.1647  0.5489 -0.1006
  646MPD2     H 9618   3.171   0.052  14.730 -0.7720 -2.0353  0.7540
  646MPD2    H1 9619   3.161   4.678  14.322  0.6488 -1.3307 -0.2758
  646MPD2    H2 9620   3.366   4.434  14.607 -0.0344 -0.1270 -0.6793
  646MPD2    H3 9621   3.297   4.465  14.379  2.5394  0.9837  0.1982
  646MPD2     N 9622   3.108   0.144  14.475  0.8879 -0.0753 -0.2692
  646MPD2    H5 9623   3.096   0.209  14.552 -1.6918 -0.0907 -0.6862
  646MPD2    N1 9624   3.309   4.574  14.808  0.3071 -0.1119 -0.7542
  646MPD2    H7 9625   3.339   4.479  14.824 -0.7997 -0.4278 -0.5518
  647TMC3    C1 9626   3.393   4.594  15.017  0.3843  0.5134  0.2329
  647TMC3    C2 9627   3.341   4.619  15.140  0.1267  0.0313 -0.2218
  647TMC3    C3 9628   3.386   4.542  15.242  0.0427 -0.4598  0.2166
  647TMC3    C4 9629   3.479   4.496  14.993  0.5350 -0.6152 -0.2827
  647TMC3    C5 9630   3.525   4.419  15.094 -0.1134  1.2068 -0.0567
  647TMC3    C6 9631   3.481   4.440  15.219 -0.4579 -0.2058 -0.2634
  647TMC3     C 9632   3.329   4.660  14.908 -0.4523 -0.2676  0.1990
  647TMC3     O 9633   3.304   0.039  14.905  0.7704 -0.1797 -0.1065
  647TMC3     H 9634   3.270   4.698  15.162 -2.6945 -2.4211 -0.5584
  647TMC3    H1 9635   3.520   4.479  14.894 -0.1779 -0.1648 -0.6609
  647TMC3    H2 9636   3.519   4.375  15.297  2.2705  1.5052 -0.1592
  647TMC3    C7 9637   3.660   4.358  15.097 -0.1093  0.1748 -0.1858
  647TMC3    C8 9638   3.281   4.514  15.339 -0.0978  0.3193  0.6201
  647TMC3    O1 9639   3.710   4.354  15.208  0.3370 -0.1347 -0.2612
  647TMC3    O2 9640   3.170   4.567  15.324 -0.3359  0.1679  0.4196
  648TMC3    C1 9641   2.482   2.319  16.073  0.6560 -0.7876 -0.1917
  648TMC3    C2 9642   2.590   2.245  16.060  0.1390  0.0071 -0.6463
  648TMC3    C3 9643   2.699   2.279  15.979  0.2039  0.2576 -0.0475
  648TMC3    C4 9644   2.481   2.446  16.019  0.1536  0.2897  0.1464
  648TMC3    C5 9645   2.587   2.485  15.945  0.0045  0.0526 -0.2830
  648TMC3    C6 9646   2.695   2.404  15.922  0.0356  0.0229  0.0473
  648TMC3     C 9647   2.422   2.324  16.205 -0.1900  0.0904 -0.0390
  648TMC3     O 9648   2.409   2.434  16.255 -0.0448 -0.2445 -0.7067
  648TMC3     H 9649   2.591   2.152  16.116  2.4774 -1.3412 -2.9266
  648TMC3    H1 9650   2.389   2.503  16.011  1.1156  2.1105  1.8833
  648TMC3    H2 9651   2.782   2.443  15.870  1.6345 -1.9756  1.2067
  648TMC3    C7 9652   2.589   2.611  15.872 -0.6719 -0.2215  0.1679
  648TMC3    C8 9653   2.826   2.225  16.020  0.8842  0.0823  0.4118
  648TMC3    O1 9654   2.633   2.604  15.760  0.0677 -0.2595  0.5823
  648TMC3    O2 9655   2.825   2.174  16.129  0.1807  0.0216  0.7345
  649TMC3    C1 9656   1.655   3.518  12.819  0.1769  0.2309  0.1310
  649TMC3    C2 9657   1.784   3.552  12.813  0.3189  0.1096  0.0128
  649TMC3    C3 9658   1.860   3.499  12.911 -0.0066 -0.6827 -0.3074
  649TMC3    C4 9659   1.592   3.451  12.917 -0.0251  0.5412  0.1446
  649TMC3    C5 9660   1.668   3.416  13.023  0.1206  0.2523 -0.0540
  649TMC3    C6 9661   1.807   3.434  13.018  0.2754  0.0319  0.0098
  649TMC3     C 9662   1.565   3.585  12.728  0.9059  0.4979 -0.3764
  649TMC3     O 9663   1.451   3.611  12.767 -0.1856 -0.5941 -0.3935
  649TMC3     H 9664   1.825   3.609  12.730  0.8790 -1.4950 -0.8075
  649TMC3    H1 9665   1.484   3.445  12.914  0.0476 -0.4420 -0.4184
  649TMC3    H2 9666   1.869   3.370  13.080  0.4630 -1.2526 -1.5162
  649TMC3    C7 9667   1.595   3.337  13.128  0.6245 -0.5220 -0.7770
  649TMC3    C8 9668   2.005   3.518  12.888  0.3281  0.0835 -0.2155
  649TMC3    O1 9669   1.481   3.302  13.107  0.4534 -0.4599 -0.4333
  649TMC3    O2 9670   2.037   3.538  12.770  0.4786  0.2010 -0.4319
  650TMC3    C1 9671   4.147   0.325  12.806  0.3828  0.0522  0.3404
  650TMC3    C2 9672   4.067   0.412  12.875 -0.2441  0.3517  0.0727
  650TMC3    C3 9673   3.958   0.461  12.812 -0.2442  0.3048 -0.2443
  650TMC3    C4 9674   4.137   0.303  12.672  0.0425 -0.2545  0.2205
  650TMC3    C5 9675   4.028   0.354  12.613  0.1018  0.6502  0.1857
  650TMC3    C6 9676   3.937   0.436  12.681  0.1329  0.0475  0.2430
  650TMC3     C 9677   4.251   0.253  12.881  0.1895  0.2261 -0.5736
  650TMC3     O 9678   4.278   0.303  12.991  0.3050 -0.2346  0.1287
  650TMC3     H 9679   4.102   0.446  12.972  0.4137 -0.0824 -0.0146
  650TMC3    H1 9680   4.225   0.267  12.621 -0.8561 -1.0259 -0.7998
  650TMC3    H2 9681   3.855   0.481  12.625  0.0310  1.2892  1.3969
  650TMC3    C7 9682   4.024   0.354  12.473 -0.3240  0.9339  0.3831
  650TMC3    C8 9683   3.906   0.586  12.855  0.2951  0.2332  0.9165
  650TMC3    O1 9684   4.069   0.265  12.406  0.3333 -0.1926 -0.2806
  650TMC3    O2 9685   3.977   0.673  12.901 -0.9176 -0.3436  0.3540
  651MPD2     C 9686   3.122   2.037  10.585 -0.6538 -0.5226 -0.3350
  651MPD2    C1 9687   3.088   2.157  10.641 -0.2306 -0.0492 -0.0379
  651MPD2    C2 9688   3.186   2.252  10.668 -0.5617  0.0832 -0.1959
  651MPD2    C3 9689   3.310   2.234  10.617 -1.0502  0.5811 -0.1323
  651MPD2    C4 9690   3.345   2.115  10.554 -0.1693  0.1144  0.4261
  651MPD2    C5 9691   3.250   2.021  10.544 -0.1792 -0.6255  0.8796
  651MPD2     H 9692   3.157   2.337  10.729  0.4544 -1.6153  2.6697
  651MPD2    H1 9693   3.441   2.101  10.508 -0.8553  2.8528 -1.8253
  651MPD2    H2 9694   3.054   1.954  10.571  0.9434 -1.9563  0.5528
  651MPD2    H3 9695   3.273   1.924  10.499  1.6692 -0.3393  1.2216
  651MPD2     N 9696   3.387   2.343  10.627 -0.0339 -0.2627 -0.1083
  651MPD2    H5 9697   3.354   2.430  10.667 -3.3494 -0.8197 -1.5997
  651MPD2    N1 9698   2.953   2.194  10.677 -0.0690  0.0037 -0.1222
  651MPD2    H7 9699   2.933   2.292  10.697  1.2609 -0.2309  2.3511
  652TMC3    C1 9700   3.713   2.649  10.676 -0.0447  0.2052 -0.6982
  652TMC3    C2 9701   3.696   2.517  10.628  0.3459 -0.0961 -0.0198
  652TMC3    C3 9702   3.567   2.492  10.584  0.2085  0.8156 -0.8391
  652TMC3    C4 9703   3.622   2.745  10.645 -0.1238  0.6889  0.7197
  652TMC3    C5 9704   3.505   2.713  10.585  0.1995 -0.0165  0.2483
  652TMC3    C6 9705   3.477   2.581  10.552 -0.0935 -0.0895  0.0427
  652TMC3     C 9706   3.837   2.685  10.744  0.5415 -0.4451 -0.1112
  652TMC3     O 9707   3.910   2.597  10.778 -0.8291  0.5699 -0.7698
  652TMC3     H 9708   3.761   2.436  10.661 -0.0135 -0.8853 -1.2623
  652TMC3    H1 9709   3.653   2.848  10.662 -0.0034  0.9310 -0.9543
  652TMC3    H2 9710   3.392   2.548  10.494 -0.4558  0.8653  0.0412
  652TMC3    C7 9711   3.406   2.808  10.552 -0.1700 -0.1323 -0.4655
  652TMC3    C8 9712   3.521   2.349  10.585 -0.3591 -0.6261 -0.2266
  652TMC3    O1 9713   3.342   2.787  10.450  0.4218 -0.0389 -0.2951
  652TMC3    O2 9714   3.605   2.264  10.581  0.3011 -0.6202 -0.1929
  653MPD2     C 9715   1.776   2.350  17.714  0.2363  0.2817 -0.5063
  653MPD2    C1 9716   1.718   2.452  17.651  0.0364  0.6998  0.0780
  653MPD2    C2 9717   1.642   2.432  17.540 -0.1452  0.0062  0.9614
  653MPD2    C3 9718   1.629   2.307  17.480 -0.1621  0.1480  0.7580
  653MPD2    C4 9719   1.698   2.207  17.544  0.2102 -0.1580 -0.3171
  653MPD2    C5 9720   1.768   2.225  17.658 -0.8487 -0.4510  0.0533
  653MPD2     H 9721   1.591   2.516  17.496  0.2700 -0.4054 -0.3029
  653MPD2    H1 9722   1.712   2.108  17.502  0.6807 -0.1002 -0.2974
  653MPD2    H2 9723   1.820   2.357   0.055 -1.8641 -1.9596  0.6064
  653MPD2    H3 9724   1.807   2.136  17.707  0.8120 -1.4526 -3.0615
  653MPD2     N 9725   1.557   2.286  17.357 -0.6699 -0.2948 -0.5209
  653MPD2    H5 9726   1.515   2.367  17.313 -0.8347 -0.4030 -0.5602
  653MPD2    N1 9727   1.718   2.584  17.699 -0.5649 -0.6615 -0.1463
  653MPD2    H7 9728   1.678   2.654  17.638 -0.8362  0.6369  1.5548
  654TMC3    C1 9729   1.478   2.167  17.163 -0.6798  0.1598 -0.5667
  654TMC3    C2 9730   1.398   2.268  17.120 -0.3983 -0.6209  0.3465
  654TMC3    C3 9731   1.344   2.256  16.998 -0.4067  0.2100  0.5296
  654TMC3    C4 9732   1.491   2.053  17.088  0.6503  0.1580 -0.6702
  654TMC3    C5 9733   1.453   2.057  16.955  0.1206 -0.0789 -0.0467
  654TMC3    C6 9734   1.387   2.164  16.908 -0.2754 -0.4503 -0.3236
  654TMC3     C 9735   1.524   2.162  17.300  0.2040 -1.0130 -0.0848
  654TMC3     O 9736   1.538   2.053  17.357 -0.4446  0.2815  0.1532
  654TMC3     H 9737   1.378   2.359  17.176  0.5355  1.3367 -2.5069
  654TMC3    H1 9738   1.548   1.973  17.133 -0.4913 -0.9923 -1.2667
  654TMC3    H2 9739   1.347   2.162  16.807 -0.4867  2.6969 -0.2848
  654TMC3    C7 9740   1.513   1.963  16.859  0.2066  0.1221  0.3181
  654TMC3    C8 9741   1.209   2.306  16.978  0.3752 -1.1838  0.2003
  654TMC3    O1 9742   1.524   2.008  16.747 -0.4288 -0.3252  0.1574
  654TMC3    O2 9743   1.178   2.427  16.974  0.7675  0.2527  0.1044
  655MPD2     C 9744   3.108   2.441  15.553  0.2573 -0.0889 -0.4129
  655MPD2    C1 9745   3.176   2.555  15.584 -0.5626 -0.0319 -0.1897
  655MPD2    C2 9746   3.269   2.606  15.500 -0.3364 -0.0099 -0.0180
  655MPD2    C3 9747   3.303   2.540  15.381 -0.1310  0.8763 -0.5611
  655MPD2    C4 9748   3.241   2.421  15.353 -0.0982  0.1738 -0.0201
  655MPD2    C5 9749   3.140   2.380  15.438  0.4875 -0.2395  0.7977
  655MPD2     H 9750   3.321   2.696  15.531  0.4049  0.2540 -2.0492
  655MPD2    H1 9751   3.258   2.365  15.261 -0.4045 -1.2206  0.7817
  655MPD2    H2 9752   3.029   2.400  15.615  2.0616 -1.0188  1.2449
  655MPD2    H3 9753   3.090   2.287  15.414 -0.4472  0.0985  1.4185
  655MPD2     N 9754   3.409   2.585  15.291  0.0269 -0.3269 -0.3392
  655MPD2    H5 9755   3.409   2.541  15.199  0.3082 -0.2577 -0.3752
  655MPD2    N1 9756   3.146   2.626  15.704  0.2988 -0.5055  0.0600
  655MPD2    H7 9757   3.193   2.716  15.715 -2.1862  0.4493  2.8312
  656TMC3    C1 9758   3.029   2.707  15.895 -0.2719  0.3435  1.0124
  656TMC3    C2 9759   2.946   2.681  16.003  0.2544  0.3880 -0.1959
  656TMC3    C3 9760   2.882   2.777  16.069  0.7127  0.4798  0.5320
  656TMC3    C4 9761   3.041   2.839  15.866 -0.1371  1.3438 -0.0528
  656TMC3    C5 9762   2.982   2.940  15.936 -0.0758  0.2735  0.2774
  656TMC3    C6 9763   2.897   2.913  16.042  0.3079 -0.1140  0.2602
  656TMC3     C 9764   3.064   2.593  15.804 -0.4765 -0.0764  0.9523
  656TMC3     O 9765   3.046   2.483  15.851  0.7273 -0.4732 -0.0717
  656TMC3     H 9766   2.936   2.576  16.031 -0.5045  0.6646  0.5817
  656TMC3    H1 9767   3.097   2.873  15.779  0.4922  3.5992  1.2161
  656TMC3    H2 9768   2.868   3.001  16.097  2.1053  0.5453  0.1660
  656TMC3    C7 9769   3.019   3.076  15.903 -0.1668 -0.5520  0.9147
  656TMC3    C8 9770   2.795   2.740  16.174 -0.1423 -0.0739 -0.0015
  656TMC3    O1 9771   3.128   3.094  15.850 -0.0427  0.0971  0.2501
  656TMC3    O2 9772   2.740   2.632  16.170 -0.2449 -0.0471  0.8106
  657TMC3    C1 9773   1.645   2.574  15.006 -0.1232 -1.0342 -0.0201
  657TMC3    C2 9774   1.703   2.500  15.111 -0.1643 -0.3043  0.0472
  657TMC3    C3 9775   1.636   2.513  15.232  0.2001  0.6722 -0.3852
  657TMC3    C4 9776   1.534   2.651  15.015 -0.2467  0.7641 -0.0370
  657TMC3    C5 9777   1.472   2.647  15.140 -0.6854  0.3431  0.9226
  657TMC3    C6 9778   1.523   2.588  15.254 -0.0722 -0.0937 -0.1043
  657TMC3     C 9779   1.714   2.576  14.875 -0.2428  0.1419  0.0876
  657TMC3     O 9780   1.665   2.648  14.789 -0.0760 -0.1556 -0.1068
  657TMC3     H 9781   1.794   2.441  15.105 -1.4878 -2.3517  0.1644
  657TMC3    H1 9782   1.499   2.713  14.934  0.2592 -1.3679 -1.8926
  657TMC3    H2 9783   1.478   2.604  15.351 -0.1648 -0.9082 -0.0166
  657TMC3    C7 9784   1.326   2.675  15.136  0.4143  0.5436 -0.0458
  657TMC3    C8 9785   1.706   2.465  15.358 -0.1183 -0.0917 -0.4806
  657TMC3    O1 9786   1.283   2.723  15.029 -0.4596  0.1215 -0.5616
  657TMC3    O2 9787   1.694   2.539  15.454  0.0284 -0.2556  0.4498
  658MPD2     C 9788   3.982   2.673  14.652  0.2910 -0.2477 -0.5181
  658MPD2    C1 9789   3.846   2.647  14.681 -0.7095 -1.0999 -0.1271
  658MPD2    C2 9790   3.762   2.615  14.575 -0.2028 -0.6785  0.6331
  658MPD2    C3 9791   3.806   2.605  14.442 -0.7099  0.2265 -0.1872
  658MPD2    C4 9792   3.939   2.632  14.420  0.2688 -0.6835 -1.5972
  658MPD2    C5 9793   4.021   2.659  14.527  0.0808 -0.0722  0.9148
  658MPD2     H 9794   3.656   2.595  14.590 -0.5175 -0.1731 -0.9154
  658MPD2    H1 9795   3.989   2.630  14.323 -0.7486 -1.4260 -2.1025
  658MPD2    H2 9796   4.050   2.702  14.732 -0.5097  0.6578 -0.1615
  658MPD2    H3 9797   4.126   2.684  14.511 -0.5570  1.9758  0.0198
  658MPD2     N 9798   3.716   2.579  14.340 -0.4256  0.2883 -0.6316
  658MPD2    H5 9799   3.621   2.570  14.374 -0.6967  0.9522 -1.2122
  658MPD2    N1 9800   3.804   2.675  14.809  0.0371 -0.4428  0.1233
  658MPD2    H7 9801   3.877   2.733  14.850 -0.8472 -0.1295  1.2604
  659TMC3    C1 9802   3.650   2.724  14.978 -0.7794  0.3651  0.4850
  659TMC3    C2 9803   3.599   2.662  15.091  0.5077  0.9373 -0.5193
  659TMC3    C3 9804   3.558   2.742  15.190 -0.8459 -1.3006 -0.6811
  659TMC3    C4 9805   3.649   2.861  14.954 -0.2381 -0.0790  0.0030
  659TMC3    C5 9806   3.588   2.939  15.052  0.0379  0.5149  0.3777
  659TMC3    C6 9807   3.549   2.878  15.170 -0.0080  0.1330 -0.5044
  659TMC3     C 9808   3.680   2.641  14.862  0.5854 -0.3910  0.4158
  659TMC3     O 9809   3.596   2.560  14.820 -0.3610 -0.6103 -0.2405
  659TMC3     H 9810   3.608   2.556  15.112  0.8282  1.2952  1.1820
  659TMC3    H1 9811   3.669   2.891  14.851  2.8616 -0.8577  0.3721
  659TMC3    H2 9812   3.496   2.939  15.242  0.0316 -2.4675  1.7379
  659TMC3    C7 9813   3.486   3.034  14.999  0.8821  0.5051 -0.4209
  659TMC3    C8 9814   3.496   2.693  15.312 -0.4829  0.2176  0.2568
  659TMC3    O1 9815   3.463   3.018  14.878  0.3394 -0.5721 -0.2303
  659TMC3    O2 9816   3.509   2.765  15.408 -0.1835  0.5558 -0.4472
  660MPD2     C 9817   1.055   1.576  12.873  0.3964 -0.0160 -0.5816
  660MPD2    C1 9818   0.929   1.607  12.832  0.4941  0.7710  0.0318
  660MPD2    C2 9819   0.822   1.566  12.906  0.1232 -0.2911 -0.5392
  660MPD2    C3 9820   0.837   1.477  13.015 -0.3406 -0.9908 -0.0859
  660MPD2    C4 9821   0.967   1.449  13.055 -0.3711  0.2257 -0.3889
  660MPD2    C5 9822   1.076   1.501  12.982  0.1488  0.1759 -0.0538
  660MPD2     H 9823   0.720   1.586  12.878 -0.4304  0.1277  1.7465
  660MPD2    H1 9824   0.987   1.406  13.152  1.1523 -1.5408 -1.4867
  660MPD2    H2 9825   1.138   1.611  12.813  2.7815  1.9923  3.8750
  660MPD2    H3 9826   1.177   1.469  13.004  0.3867  0.8014 -0.2323
  660MPD2     N 9827   0.732   1.434  13.094  0.0571 -0.3144  0.1454
  660MPD2    H5 9828   0.766   1.382  13.175 -0.5078 -1.1685 -0.1593
  660MPD2    N1 9829   0.908   1.668  12.706 -0.0537 -0.3665  0.1775
  660MPD2    H7 9830   0.991   1.677  12.648 -0.3568  0.7928 -0.0881
  661TMC3    C1 9831   0.781   1.751  12.522 -0.2172 -0.1121  0.6729
  661TMC3    C2 9832   0.869   1.842  12.480 -0.4398 -0.1998  0.3477
  661TMC3    C3 9833   0.842   1.929  12.381 -0.4509 -0.0196  0.5902
  661TMC3    C4 9834   0.664   1.731  12.458  0.3030  0.5070  0.3293
  661TMC3    C5 9835   0.641   1.813  12.349 -0.1150 -0.1094  0.3550
  661TMC3    C6 9836   0.724   1.913  12.310 -0.0580  0.0479 -0.7113
  661TMC3     C 9837   0.786   1.708  12.661  0.5410  0.1840 -0.6499
  661TMC3     O 9838   0.679   1.725  12.715  0.0259 -0.1335  0.2730
  661TMC3     H 9839   0.959   1.859  12.538 -0.5710  1.6859 -0.0097
  661TMC3    H1 9840   0.588   1.660  12.490  2.3936 -2.0063 -0.3203
  661TMC3    H2 9841   0.709   1.979  12.225  0.9338 -0.3499 -1.1882
  661TMC3    C7 9842   0.533   1.784  12.259 -0.1017  0.2462 -0.0770
  661TMC3    C8 9843   0.966   1.956  12.308 -0.1976 -0.3550  0.6050
  661TMC3    O1 9844   0.493   1.879  12.193 -0.4245 -0.1420  0.1411
  661TMC3    O2 9845   1.064   1.879  12.320  0.4700  0.0831  0.0486
  662MPD2     C 9846   1.625   1.058  17.351 -0.4978  0.6235  0.3976
  662MPD2    C1 9847   1.542   1.058  17.238  0.7506 -0.0769  0.1079
  662MPD2    C2 9848   1.442   1.154  17.227  0.0273 -0.1842  0.1794
  662MPD2    C3 9849   1.436   1.266  17.317  0.3324  0.1811  0.2500
  662MPD2    C4 9850   1.514   1.259  17.427  0.2362  0.5931 -0.1578
  662MPD2    C5 9851   1.615   1.160  17.437  0.3390 -0.6499 -0.6160
  662MPD2     H 9852   1.382   1.151  17.137 -0.3266 -0.9713  0.4480
  662MPD2    H1 9853   1.525   1.341  17.497  2.1611 -0.3692  0.6685
  662MPD2    H2 9854   1.703   0.983  17.365  1.9604  3.4108  1.5032
  662MPD2    H3 9855   1.683   1.149  17.520  0.9531  1.9399 -0.7950
  662MPD2     N 9856   1.352   1.377  17.304 -0.4051  0.0273  0.6617
  662MPD2    H5 9857   1.354   1.441  17.382 -0.7749 -2.1754  2.5046
  662MPD2    N1 9858   1.545   0.958  17.141 -0.0438  0.8063 -0.2622
  662MPD2    H7 9859   1.463   0.951  17.082  2.5649 -0.6477 -3.7194
  663TMC3    C1 9860   1.595   0.742  17.087 -0.3905  0.0464  1.0353
  663TMC3    C2 9861   1.477   0.737  17.023  0.4628  0.1830 -0.6848
  663TMC3    C3 9862   1.423   0.615  16.993  0.8714  0.0753 -0.5061
  663TMC3    C4 9863   1.640   0.625  17.143 -0.7136  0.3481 -0.0270
  663TMC3    C5 9864   1.571   0.508  17.137  0.2471  0.1557  0.5295
  663TMC3    C6 9865   1.458   0.506  17.061  0.2421 -0.2087  0.8839
  663TMC3     C 9866   1.644   0.860  17.140  0.0952 -0.0149 -0.1596
  663TMC3     O 9867   1.753   0.852  17.190  0.0409  0.0713  0.1136
  663TMC3     H 9868   1.450   0.822  16.961 -1.4173  0.4470  0.4650
  663TMC3    H1 9869   1.738   0.628  17.190 -0.5994 -0.4424 -0.2147
  663TMC3    H2 9870   1.412   0.412  17.034 -0.3984  0.4462 -0.2693
  663TMC3    C7 9871   1.637   0.390  17.205  0.3851  0.8496  0.1615
  663TMC3    C8 9872   1.284   0.620  17.001  0.3344 -0.0378  0.0848
  663TMC3    O1 9873   1.747   0.405  17.253  0.2535 -0.2640 -0.1171
  663TMC3    O2 9874   1.209   0.628  16.903  0.0775  0.2058 -0.4909
  664MPD2     C 9875   4.348   4.428  17.362 -0.2073  0.6160  0.1249
  664MPD2    C1 9876   4.428   4.485  17.452  0.1744 -0.4409  0.3026
  664MPD2    C2 9877   4.439   4.427  17.576 -0.1039 -0.1317  0.1725
  664MPD2    C3 9878   4.372   4.312  17.611 -0.3472  0.3173 -0.1148
  664MPD2    C4 9879   4.299   4.253  17.511  0.3078 -0.3903  0.0862
  664MPD2    C5 9880   4.284   4.308  17.388 -0.4766  0.0350 -0.0278
  664MPD2     H 9881   4.502   4.478  17.648 -0.4451 -2.3347  2.0367
  664MPD2    H1 9882   4.255   4.155  17.523 -1.2303  0.3885  0.7834
  664MPD2    H2 9883   4.346   4.465  17.260 -0.0877 -1.3461 -0.5968
  664MPD2    H3 9884   4.234   4.255  17.307 -0.6011  0.6725 -0.3645
  664MPD2     N 9885   4.375   4.261  17.743  0.3478 -0.4788 -0.6183
  664MPD2    H5 9886   4.414   4.321   0.058 -2.2019  0.7768 -0.3086
  664MPD2    N1 9887   4.483   4.614  17.418 -0.1477  0.5323  0.3745
  664MPD2    H7 9888   4.452   4.650  17.328 -1.7986 -1.0829  0.2816
  665TMC3    C1 9889   4.355   4.112   0.169 -0.3385  0.8538 -0.4896
  665TMC3    C2 9890   4.394   3.988   0.197  0.1540  0.1773  0.4808
  665TMC3    C3 9891   4.464   3.973   0.315  0.0970 -0.4283 -0.1132
  665TMC3    C4 9892   4.386   4.227   0.252 -0.8296 -0.0517 -0.1277
  665TMC3    C5 9893   4.461   4.201   0.368 -0.9583 -0.2420  0.0329
  665TMC3    C6 9894   4.494   4.071   0.397  0.1742  0.0812  0.7387
  665TMC3     C 9895   4.325   4.137   0.034  0.4501 -0.4805  0.4317
  665TMC3     O 9896   4.273   4.049  17.730 -0.7526 -0.5415  0.0168
  665TMC3     H 9897   4.386   3.915   0.117  3.1202 -0.5961  0.8793
  665TMC3    H1 9898   4.345   4.326   0.234 -0.4555  0.0798 -0.2586
  665TMC3    H2 9899   4.550   4.067   0.490 -1.2878 -0.9371  1.5840
  665TMC3    C7 9900   4.454   4.304   0.469 -0.1699 -0.5889 -0.5907
  665TMC3    C8 9901   4.440   3.848   0.379  0.5977 -0.1018  0.3062
  665TMC3    O1 9902   4.349   4.367   0.471  0.2096 -0.0383 -0.0992
  665TMC3    O2 9903   4.529   3.810   0.452  0.7368 -0.2930  1.2157
  666TMC3    C1 9904   2.533   4.060  10.495 -0.3080 -0.0718 -0.2168
  666TMC3    C2 9905   2.470   3.960  10.427  0.1821 -0.7309  0.3889
  666TMC3    C3 9906   2.454   3.965  10.291 -0.3639 -0.2930 -0.0084
  666TMC3    C4 9907   2.581   4.171  10.425  0.6711 -0.6272  0.0022
  666TMC3    C5 9908   2.552   4.179  10.289  0.0021 -0.4121  0.2495
  666TMC3    C6 9909   2.496   4.074  10.213 -0.1223  0.0502  0.3372
  666TMC3     C 9910   2.631   4.005  10.585  0.0177 -0.1204 -0.5309
  666TMC3     O 9911   2.687   4.068  10.675 -0.4237  0.4620 -0.1503
  666TMC3     H 9912   2.435   3.874  10.483  0.0589 -0.9967 -0.0909
  666TMC3    H1 9913   2.663   4.229  10.466 -0.5336  0.8019  0.3893
  666TMC3    H2 9914   2.485   4.080  10.106 -1.7320  1.0961  0.5623
  666TMC3    C7 9915   2.639   4.275  10.215  0.5489 -0.2667  0.1314
  666TMC3    C8 9916   2.483   3.834  10.233  0.0606  0.4551 -0.2116
  666TMC3    O1 9917   2.644   4.378  10.277 -0.0626 -0.3102  0.2262
  666TMC3    O2 9918   2.565   3.771  10.300  0.4899  0.4877 -0.0535
  667MPD2     C 9919   0.628   3.719  14.644 -0.3936  0.0673 -0.2328
  667MPD2    C1 9920   0.508   3.761  14.709 -0.1143 -0.2786 -0.6529
  667MPD2    C2 9921   0.415   3.662  14.751  0.1315 -0.0531  0.1909
  667MPD2    C3 9922   0.439   3.531  14.731 -0.0125 -0.2543  0.6877
  667MPD2    C4 9923   0.561   3.497  14.674  0.7156 -0.3475  0.1357
  667MPD2    C5 9924   0.654   3.591  14.635  0.7423 -0.4080  0.2464
  667MPD2     H 9925   0.324   3.692  14.802 -0.6344 -1.5770 -0.2458
  667MPD2    H1 9926   0.579   3.395  14.644  2.7976  0.2986 -0.7780
  667MPD2    H2 9927   0.706   3.791  14.621 -0.6225  0.6841  0.9334
  667MPD2    H3 9928   0.746   3.563  14.586  0.6068  0.8842 -0.7402
  667MPD2     N 9929   0.362   3.423  14.786 -0.5087  0.3886  0.3735
  667MPD2    H5 9930   0.398   3.331  14.764 -2.4293  0.3248 -2.4494
  667MPD2    N1 9931   0.482   3.894  14.751  0.1102 -0.2184 -0.1503
  667MPD2    H7 9932   0.400   3.909  14.809 -0.1825 -1.7865 -0.1740
  668TMC3    C1 9933   0.513   4.131  14.772 -0.1537  0.7401 -0.6335
  668TMC3    C2 9934   0.565   4.245  14.715  0.5493  0.3429  0.1594
  668TMC3    C3 9935   0.564   4.356  14.789 -0.0812  0.3975 -0.1458
  668TMC3    C4 9936   0.459   4.133  14.902 -0.4429 -0.1455 -0.4381
  668TMC3    C5 9937   0.461   4.249  14.970 -0.5289  0.4281 -0.0992
  668TMC3    C6 9938   0.510   4.361  14.916 -0.4061  0.1591 -0.1044
  668TMC3     C 9939   0.556   3.999  14.713  0.1574 -0.1090  0.1635
  668TMC3     O 9940   0.650   4.013  14.637  0.3304 -0.0515  0.3139
  668TMC3     H 9941   0.601   4.252  14.613 -1.7248 -1.6503 -0.7588
  668TMC3    H1 9942   0.445   4.039  14.954  2.7472 -0.2640  0.2060
  668TMC3    H2 9943   0.514   4.448  14.981 -0.2831  0.1175 -0.0562
  668TMC3    C7 9944   0.412   4.252  15.102  0.4012 -0.4042 -0.0608
  668TMC3    C8 9945   0.541   4.479  14.722  0.6422 -0.3003 -0.2855
  668TMC3    O1 9946   0.458   4.336  15.177 -0.1872 -0.1941  0.2845
  668TMC3    O2 9947   0.452   4.549  14.766 -0.3686 -0.1729 -0.5028
  669TMC3    C1 9948   2.979   3.962  14.970 -0.2620  0.6052  0.2838
  669TMC3    C2 9949   2.851   3.993  14.922 -0.0767  0.4562  0.2682
  669TMC3    C3 9950   2.832   4.004  14.784 -0.0518  0.0136  1.0596
  669TMC3    C4 9951   3.080   3.952  14.885  0.0797  0.7612 -0.5958
  669TMC3    C5 9952   3.060   3.973  14.750 -0.8539 -0.3892  0.0324
  669TMC3    C6 9953   2.933   4.003  14.695 -1.1950  0.1926 -0.4325
  669TMC3     C 9954   2.985   3.923  15.106  0.1186 -0.0478  0.6061
  669TMC3     O 9955   2.904   3.984  15.174 -0.0167  0.0225  0.6030
  669TMC3     H 9956   2.761   3.989  14.982 -1.2467 -0.6409 -1.5670
  669TMC3    H1 9957   3.178   3.950  14.932 -1.1237  1.2846  1.8749
  669TMC3    H2 9958   2.912   4.020  14.590 -0.4003 -1.8017 -0.9194
  669TMC3    C7 9959   3.176   3.995  14.665  0.4316 -0.0588  0.6612
  669TMC3    C8 9960   2.708   4.076  14.750 -0.4312  0.1054 -0.1831
  669TMC3    O1 9961   3.279   4.032  14.722  0.2771  0.5589 -0.4838
  669TMC3    O2 9962   2.604   4.046  14.808 -0.1416 -0.3456  0.3130
  670MPD2     C 9963   1.135   1.933  13.644 -0.0954 -0.3524  0.4674
  670MPD2    C1 9964   1.261   1.877  13.660 -0.6088 -0.0097  0.2210
  670MPD2    C2 9965   1.276   1.786  13.762 -0.6603  0.1905 -0.0649
  670MPD2    C3 9966   1.181   1.756  13.850  0.7034  0.2969 -0.6146
  670MPD2    C4 9967   1.059   1.812  13.833 -1.1243  0.0849  0.3772
  670MPD2    C5 9968   1.042   1.905  13.732  0.1902  0.6515 -0.4414
  670MPD2     H 9969   1.373   1.739  13.772 -1.9551 -2.4857 -0.1728
  670MPD2    H1 9970   0.970   1.793  13.892 -0.2465 -0.2146  1.5961
  670MPD2    H2 9971   1.121   1.991  13.554 -0.1795 -0.8513  0.1614
  670MPD2    H3 9972   0.941   1.942  13.718 -0.4354 -1.1834 -0.7517
  670MPD2     N 9973   1.211   1.667  13.956  0.2111 -0.4712 -0.7463
  670MPD2    H5 9974   1.303   1.625  13.961 -0.0615 -1.3224 -2.7507
  670MPD2    N1 9975   1.369   1.901  13.573  0.3913 -0.7841 -0.1299
  670MPD2    H7 9976   1.457   1.864  13.606  1.4083  1.4272 -0.3950
  671TMC3    C1 9977   1.184   1.561  14.170 -0.1204  0.3442 -0.1594
  671TMC3    C2 9978   1.308   1.499  14.157 -0.0204  0.2334 -0.1722
  671TMC3    C3 9979   1.346   1.417  14.253 -0.4225 -0.0775  0.2341
  671TMC3    C4 9980   1.106   1.551  14.283 -0.4183  0.3575  0.1874
  671TMC3    C5 9981   1.136   1.435  14.359  1.1270 -0.6968  0.3298
  671TMC3    C6 9982   1.266   1.380  14.354 -0.0000  0.0581 -0.0117
  671TMC3     C 9983   1.123   1.628  14.055 -0.2907  0.1408  0.8494
  671TMC3     O 9984   1.004   1.662  14.065 -0.5439 -0.3028 -0.0975
  671TMC3     H 9985   1.350   1.475  14.060  0.6646 -2.4228  0.7759
  671TMC3    H1 9986   1.008   1.596  14.289  0.6427  2.6735  0.1546
  671TMC3    H2 9987   1.296   1.295  14.414 -2.2387 -1.7680 -1.4542
  671TMC3    C7 9988   1.053   1.324  14.307 -0.1754 -0.2738  0.4262
  671TMC3    C8 9989   1.469   1.345  14.227 -0.3183 -0.4733 -0.3720
  671TMC3    O1 9990   1.105   1.228  14.257  0.0870  0.1587  0.0208
  671TMC3    O2 9991   1.488   1.312  14.111 -0.1922  0.6367 -0.0086
  672MPD2     C 9992   1.573   2.177   0.850 -0.0880 -0.0196 -0.0807
  672MPD2    C1 9993   1.692   2.112   0.863 -0.4410  0.0201  0.0219
  672MPD2    C2 9994   1.805   2.182   0.910  0.0094 -0.2436 -0.4799
  672MPD2    C3 9995   1.798   2.311   0.959 -0.8819 -0.0001 -0.4848
  672MPD2    C4 9996   1.679   2.378   0.943 -0.2025  0.1048 -0.4300
  672MPD2    C5 9997   1.574   2.315   0.883 -0.0325  0.1300 -0.0436
  672MPD2     H 9998   1.893   2.120   0.920  1.6572  2.5137  2.1513
  672MPD2    H1 9999   1.676   2.485   0.960 -0.2506  0.1688 -0.8247
  672MPD2    H210000   1.484   2.141   0.801  1.1595 -0.7212 -1.8142
  672MPD2    H310001   1.492   2.379   0.851 -0.7042 -0.6836  0.0407
  672MPD2     N10002   1.902   2.383   1.033  0.4518 -0.3888  0.3756
  672MPD2    H510003   1.867   2.471   1.070 -1.9554 -0.5282 -1.5194
  672MPD2    N110004   1.721   1.983   0.805  0.3049  0.0087 -0.0784
  672MPD2    H710005   1.811   1.940   0.825  0.8981  0.7581 -1.0989
  673TMC3    C110006   1.671   1.785   0.677  0.4068 -0.2503  0.3323
  673TMC3    C210007   1.796   1.771   0.627 -0.0454 -0.0553  0.2320
  673TMC3    C310008   1.809   1.745   0.497  0.8932  0.3572 -0.0678
  673TMC3    C410009   1.557   1.759   0.599 -0.6483 -0.1039  0.1097
  673TMC3    C510010   1.576   1.720   0.468  0.2226  0.3520 -0.3288
  673TMC3    C610011   1.701   1.720   0.416  0.3044  0.1612 -0.4863
  673TMC3     C10012   1.631   1.907   0.744  0.0303 -0.2440 -0.0357
  673TMC3     O10013   1.517   1.936   0.701 -0.4319 -0.4059 -0.5546
  673TMC3     H10014   1.881   1.805   0.685  0.9373  0.4859 -1.5063
  673TMC3    H110015   1.455   1.750   0.635 -0.1533 -0.6651  1.3541
  673TMC3    H210016   1.714   1.719   0.308 -2.3220  0.3579 -0.8070
  673TMC3    C710017   1.473   1.766   0.371 -0.1809 -0.5892  0.5313
  673TMC3    C810018   1.941   1.714   0.435  0.2194 -0.0968  0.0696
  673TMC3    O110019   1.478   1.720   0.254 -0.2929 -0.1377 -0.7052
  673TMC3    O210020   1.941   1.670   0.323 -0.2993  0.0870 -0.3592
  674MPD2     C10021   1.283   2.409  17.612  0.0568 -0.5142  0.0412
  674MPD2    C110022   1.230   2.286  17.607 -0.4415  0.4690  0.8703
  674MPD2    C210023   1.101   2.268  17.654 -0.4821  0.6529  0.5000
  674MPD2    C310024   1.022   2.366  17.700 -0.1112 -0.7632  0.3626
  674MPD2    C410025   1.073   2.486  17.702  0.4209 -0.0641 -0.0779
  674MPD2    C510026   1.204   2.506  17.659 -0.7479 -0.8225  1.0162
  674MPD2     H10027   1.059   2.168  17.662  1.1738 -0.0546  0.3886
  674MPD2    H110028   1.009   2.571  17.721 -0.2558 -0.5299 -0.2641
  674MPD2    H210029   1.385   2.437  17.587 -0.5174  1.0425 -0.5457
  674MPD2    H310030   1.236   2.609  17.671  0.2303 -0.9008 -0.9763
  674MPD2     N10031   0.895   2.336   0.004  0.1843  0.0849  0.4803
  674MPD2    H510032   0.860   2.242  17.743  0.5008  0.2452 -0.9562
  674MPD2    N110033   1.313   2.176  17.587  0.6406  0.0804 -0.1983
  674MPD2    H710034   1.410   2.203  17.578  0.9014 -1.0799 -0.8347
  675TMC3    C110035   1.377   1.961  17.625 -0.3704 -0.0932  0.2837
  675TMC3    C210036   1.378   1.832  17.575  0.0666  0.1841  0.1989
  675TMC3    C310037   1.459   1.745  17.636 -0.7665 -0.1381  0.3064
  675TMC3    C410038   1.453   1.998  17.736 -0.0430  0.3092 -0.5708
  675TMC3    C510039   1.547   1.908   0.019  0.0924  0.3121  0.3929
  675TMC3    C610040   1.554   1.780  17.728  0.0087  0.1574  0.6906
  675TMC3     C10041   1.280   2.045  17.576  0.0688 -0.0116  0.3542
  675TMC3     O10042   1.167   2.006  17.542 -0.0509  0.2382 -0.2243
  675TMC3     H10043   1.304   1.802  17.502  1.6787  0.4228 -1.5274
  675TMC3    H110044   1.443   2.097   0.023 -0.1007  0.9859 -2.0884
  675TMC3    H210045   1.635   1.718   0.006 -1.0001 -0.9860  0.9923
  675TMC3    C710046   1.655   1.946   0.110 -0.3365  0.5793 -0.1181
  675TMC3    C810047   1.417   1.603  17.642  0.4552 -0.2085  0.3458
  675TMC3    O110048   1.763   1.882   0.117 -0.2583  0.1175  0.0250
  675TMC3    O210049   1.382   1.544  17.540  0.3448  0.0016  0.1318
  676MPD2     C10050   4.481   0.098  11.133  0.2945  0.1997 -0.0673
  676MPD2    C110051   4.396   0.029  11.213 -0.6782 -0.6576  0.2141
  676MPD2    C210052   4.382   4.631  11.183 -0.6799  0.6049 -0.0564
  676MPD2    C310053   4.446   4.571  11.076 -0.5647  0.0775  0.3143
  676MPD2    C410054   4.525   4.650  10.992 -0.3027 -0.4020  0.0845
  676MPD2    C510055   4.543   0.037  11.028 -0.3580 -0.1066  0.3881
  676MPD2     H10056   4.312   4.569  11.239 -0.6603  0.4161 -0.2384
  676MPD2    H110057   4.572   4.616  10.900 -2.6671 -0.1718 -1.1997
  676MPD2    H210058   4.503   0.202  11.150 -0.6274  0.4584 -0.5058
  676MPD2    H310059   4.614   0.099  10.975 -0.6018  0.0747  0.2712
  676MPD2     N10060   4.425   4.442  11.028  0.3885  0.1730 -0.0443
  676MPD2    H510061   4.473   4.427  10.940 -1.1418  2.3298 -1.2643
  676MPD2    N110062   4.327   0.083  11.326  0.6159  0.3630 -0.4460
  676MPD2    H710063   4.268   0.023  11.382 -0.8930  2.2445 -0.0443
  677TMC3    C110064   4.262   0.226  11.487 -0.2933  0.0029 -0.1889
  677TMC3    C210065   4.229   0.112  11.563 -0.0795  0.1670  0.0742
  677TMC3    C310066   4.155   0.141  11.675  0.9086 -0.6393 -0.1317
  677TMC3    C410067   4.223   0.352  11.506 -0.5282 -0.0655  0.0152
  677TMC3    C510068   4.153   0.374  11.625  0.6239  0.2916  0.4807
  677TMC3    C610069   4.116   0.269  11.704 -0.1837 -0.2444 -0.4434
  677TMC3     C10070   4.328   0.212  11.363  0.4151 -0.3083 -0.2692
  677TMC3     O10071   4.387   0.308  11.318 -0.1011  0.7731  0.0017
  677TMC3     H10072   4.250   0.009  11.539  1.9712  1.1654 -2.3728
  677TMC3    H110073   4.238   0.434  11.438 -1.2365 -0.2485 -0.3628
  677TMC3    H210074   4.065   0.297  11.796 -0.8753  2.1286 -1.5527
  677TMC3    C710075   4.143   0.498  11.683 -0.4650 -0.5951 -0.6125
  677TMC3    C810076   4.143   0.040  11.777 -0.1274  0.7869  0.8685
  677TMC3    O110077   4.066   0.515  11.776 -0.1772 -0.0908 -0.8428
  677TMC3    O210078   4.215   4.679  11.780  0.3697 -0.0243 -0.1955
  678MPD2     C10079   1.097   0.234   1.358 -0.3021  0.1763 -0.1823
  678MPD2    C110080   1.093   0.267   1.221 -0.2433  0.4809  0.4004
  678MPD2    C210081   0.986   0.352   1.181  0.4316  0.6209 -0.6744
  678MPD2    C310082   0.885   0.394   1.272 -0.1449 -0.5772 -0.9866
  678MPD2    C410083   0.893   0.349   1.400 -0.7463 -0.2446 -0.3092
  678MPD2    C510084   1.000   0.272   1.444  0.7466  0.3858 -0.4839
  678MPD2     H10085   0.975   0.363   1.074  1.1270 -0.0406 -0.8168
  678MPD2    H110086   0.814   0.374   1.471  1.0138  2.5936  0.6472
  678MPD2    H210087   1.174   0.170   1.399 -1.0241 -0.9853 -0.6409
  678MPD2    H310088   1.001   0.241   1.548  2.0853 -1.7667 -1.1423
  678MPD2     N10089   0.768   0.459   1.217 -0.2904 -0.8265  0.1744
  678MPD2    H510090   0.772   0.487   1.120 -0.7235 -0.0088  0.3869
  678MPD2    N110091   1.190   0.225   1.125  0.4179  0.4731 -0.0158
  678MPD2    H710092   1.173   0.247   1.027 -1.0918  1.3170  0.4335
  679TMC3    C110093   1.600   0.070   0.970 -0.2370 -0.0011  0.1321
  679TMC3    C210094   1.500   0.059   1.061  0.0311 -0.2409  0.9604
  679TMC3    C310095   1.390   0.135   1.039 -0.2616  0.1037  0.0373
  679TMC3    C410096   1.579   0.140   0.854 -0.5018 -0.5030  0.1557
  679TMC3    C510097   1.466   0.204   0.834  0.2139  0.7348  0.6049
  679TMC3    C610098   1.363   0.208   0.930  0.4547  0.1593 -0.1062
  679TMC3     C10099   1.675   4.691   0.958 -0.0090  0.2377 -0.1344
  679TMC3     O10100   1.628   4.583   0.978  0.4322  0.1603 -0.5419
  679TMC3     H10101   1.511   4.734   1.148 -0.5745  0.4240  1.5298
  679TMC3    H110102   1.647   0.123   0.772  1.4501 -0.7144  1.7879
  679TMC3    H210103   1.276   0.264   0.899  1.5321  0.6987 -2.1927
  679TMC3    C710104   1.419   0.246   0.703  0.5076 -0.1791 -0.4038
  679TMC3    C810105   1.300   0.147   1.156 -0.2684  0.0797 -0.2190
  679TMC3    O110106   1.340   0.337   0.692 -0.3748 -0.2950  0.1052
  679TMC3    O210107   1.340   0.101   1.262 -0.6742  0.0432  0.1644
  680MPD2     C10108   0.795   3.613  13.399 -0.1409  0.5271  0.7656
  680MPD2    C110109   0.899   3.572  13.476  0.3818 -0.0644  1.2667
  680MPD2    C210110   0.993   3.666  13.518  0.2011  0.1968  0.1689
  680MPD2    C310111   0.964   3.800  13.518 -0.3558 -0.2863  0.7231
  680MPD2    C410112   0.849   3.842  13.446  0.7020 -0.5207  0.6089
  680MPD2    C510113   0.772   3.748  13.386  0.1038 -0.3191  0.5333
  680MPD2     H10114   1.072   3.629  13.582 -0.6791 -0.0991  1.0854
  680MPD2    H110115   0.839   3.948  13.429  0.4696 -0.5716  0.4386
  680MPD2    H210116   0.721   3.550  13.350  1.3805 -0.2974 -0.5039
  680MPD2    H310117   0.691   3.786  13.325  1.2223  1.5015  0.1993
  680MPD2     N10118   1.034   3.897  13.590 -0.6361  0.2515  0.6399
  680MPD2    H510119   1.021   3.995  13.568 -0.5033  0.6341  2.2825
  680MPD2    N110120   0.937   3.436  13.508 -0.0398  0.6083  0.5889
  680MPD2    H710121   1.023   3.414  13.557 -0.1324  1.4742  1.1489
  681TMC3    C110122   0.912   3.213  13.551  0.9653 -0.3241 -0.4575
  681TMC3    C210123   0.851   3.170  13.665 -0.1993 -0.4664  0.7048
  681TMC3    C310124   0.937   3.152  13.781 -0.1741 -0.3972 -0.7774
  681TMC3    C410125   1.053   3.211  13.543  0.0728 -0.4337  0.1573
  681TMC3    C510126   1.120   3.159  13.651 -0.3131  0.0231  0.5043
  681TMC3    C610127   1.067   3.130  13.778 -0.2649  0.0907 -0.2125
  681TMC3     C10128   0.853   3.327  13.491 -0.0964 -0.3601 -0.4661
  681TMC3     O10129   0.731   3.329  13.472  0.2769  0.1270  0.1581
  681TMC3     H10130   0.744   3.182  13.673 -0.2752 -0.3322 -0.5810
  681TMC3    H110131   1.097   3.214  13.444 -1.1649  1.5614 -0.3371
  681TMC3    H210132   1.123   3.114  13.869  0.7816  1.1725 -0.6608
  681TMC3    C710133   1.265   3.144  13.639 -0.6669 -0.4297 -0.3827
  681TMC3    C810134   0.873   3.192  13.908  0.3107 -0.6044  0.2474
  681TMC3    O110135   1.324   3.075  13.719  0.2579 -0.1114  0.5717
  681TMC3    O210136   0.752   3.200  13.912 -0.1452  0.6275  1.2432
  682MPD2     C10137   3.728   4.478  10.766  0.4306  0.4975  0.3102
  682MPD2    C110138   3.599   4.511  10.810 -0.4010  0.0630 -0.5177
  682MPD2    C210139   3.567   4.499  10.948 -0.1222  0.0768 -0.7506
  682MPD2    C310140   3.664   4.445  11.036 -0.4045 -0.4695 -0.0139
  682MPD2    C410141   3.784   4.405  10.982  0.3742  0.2506  0.9226
  682MPD2    C510142   3.812   4.407  10.846  0.1636 -0.2151 -0.3092
  682MPD2     H10143   3.467   4.523  10.981 -0.2948 -1.4730 -0.1166
  682MPD2    H110144   3.864   4.362  11.042  2.1074  1.6270 -0.3972
  682MPD2    H210145   3.769   4.497  10.667 -0.6567 -0.8510 -0.3913
  682MPD2    H310146   3.909   4.365  10.821  0.9040  1.3306 -0.0177
  682MPD2     N10147   3.639   4.415  11.172  0.8200  0.1900 -0.2544
  682MPD2    H510148   3.720   4.383  11.224  0.6371  2.2426  1.3063
  682MPD2    N110149   3.510   4.561  10.713  0.2107  0.0716 -0.1826
  682MPD2    H710150   3.421   4.599  10.744 -0.2509 -0.2007 -1.1903
  683TMC3    C110151   3.529   4.481  11.604  0.0022 -0.2175 -0.6212
  683TMC3    C210152   3.631   4.390  11.642 -0.0208 -1.1072  0.2189
  683TMC3    C310153   3.690   4.310  11.548  0.1895 -0.5324  0.5522
  683TMC3    C410154   3.492   4.490  11.473 -0.5565  0.1861 -0.0235
  683TMC3    C510155   3.551   4.412  11.389  0.2654  0.0529  0.8805
  683TMC3    C610156   3.649   4.325  11.418 -0.6226  0.6479 -0.3925
  683TMC3     C10157   3.489   4.572  11.703 -0.1986 -0.0651 -1.2126
  683TMC3     O10158   3.561   4.590  11.801  0.0363 -0.4654  0.3974
  683TMC3     H10159   3.670   4.386  11.743 -0.4160 -0.0630  0.4047
  683TMC3    H110160   3.424   4.567  11.438 -1.5755 -0.2248  1.0492
  683TMC3    H210161   3.696   4.259  11.346  1.8137  1.8050  0.1451
  683TMC3    C710162   3.526   4.443  11.247  0.4751  0.3845 -0.9106
  683TMC3    C810163   3.801   4.222  11.564  0.6208 -0.3350  0.3151
  683TMC3    O110164   3.427   4.502  11.209  0.0631  0.3636 -0.2628
  683TMC3    O210165   3.877   4.213  11.472 -0.4038 -0.4336  0.4119
  684MPD2     C10166   1.672   4.661  16.474  0.1467 -0.7111  0.1821
  684MPD2    C110167   1.589   4.636  16.366  0.1632  0.5429 -0.0155
  684MPD2    C210168   1.483   4.722  16.347 -0.2250  0.3034 -0.0062
  684MPD2    C310169   1.467   0.097  16.422 -0.4306  0.4303  0.0912
  684MPD2    C410170   1.543   0.104  16.539  1.0272 -0.2398 -0.0725
  684MPD2    C510171   1.641   0.019  16.558 -0.0950 -0.3613 -0.8040
  684MPD2     H10172   1.422   4.709  16.258 -0.6332 -0.8322  0.4257
  684MPD2    H110173   1.525   0.178  16.616 -0.3762  1.1665 -1.7527
  684MPD2    H210174   1.760   4.603  16.499 -0.9998 -2.3942  0.3461
  684MPD2    H310175   1.712   0.042  16.637 -1.4769  0.1390  0.3142
  684MPD2     N10176   1.379   0.202  16.394 -0.3962  0.1367  0.1300
  684MPD2    H510177   1.376   0.281  16.458 -0.9063  1.0247 -0.9672
  684MPD2    N110178   1.618   4.536  16.274  0.3682  0.1227  0.3822
  684MPD2    H710179   1.555   4.531  16.195 -0.5100  2.8862  0.9039
  685TMC3    C110180   1.760   4.413  16.132  0.3878  0.4470 -0.1691
  685TMC3    C210181   1.666   4.447  16.043  0.3761 -0.2197  0.4500
  685TMC3    C310182   1.701   4.490  15.920 -0.3246 -0.2612 -0.2962
  685TMC3    C410183   1.892   4.419  16.097  0.7339  1.0338 -0.0746
  685TMC3    C510184   1.928   4.477  15.985 -0.2650  0.8631 -0.5470
  685TMC3    C610185   1.832   4.514  15.894 -0.0871  0.2792  0.4622
  685TMC3     C10186   1.737   4.464  16.272  0.2572  0.1162  0.1941
  685TMC3     O10187   1.843   4.464  16.336 -0.0388 -0.3571 -0.0776
  685TMC3     H10188   1.565   4.412  16.062 -0.3094  1.7443  0.4064
  685TMC3    H110189   1.968   4.383  16.167 -1.1388 -0.8377  0.9790
  685TMC3    H210190   1.855   4.567  15.802  0.5315 -3.6038 -1.5865
  685TMC3    C710191   2.037   4.568  15.977 -0.4936 -1.4557 -0.1719
  685TMC3    C810192   1.604   4.522  15.814 -0.9678 -0.5221  0.1425
  685TMC3    O110193   2.090   4.598  15.870  0.4026  0.5273 -0.0483
  685TMC3    O210194   1.641   4.582  15.716 -0.0857  0.1953  0.1295
  686MPD2     C10195   2.542   4.534  15.666  0.2019  0.2026  0.3367
  686MPD2    C110196   2.581   4.495  15.791  0.0961 -0.2632 -0.5467
  686MPD2    C210197   2.714   4.502  15.821  0.1747 -0.9871 -0.0554
  686MPD2    C310198   2.811   4.535  15.733  0.1562  0.3390 -0.4752
  686MPD2    C410199   2.771   4.570  15.606 -0.1640  0.4590  0.0356
  686MPD2    C510200   2.638   4.571  15.570  0.8944 -0.0219  0.0944
  686MPD2     H10201   2.747   4.473  15.920  0.4678  0.8414  0.3891
  686MPD2    H110202   2.845   4.615  15.541  0.7340 -0.7691  0.2323
  686MPD2    H210203   2.443   4.520  15.623 -0.6801 -0.4584  2.5978
  686MPD2    H310204   2.607   4.581  15.466 -2.8922 -0.7538  1.1213
  686MPD2     N10205   2.947   4.558  15.768 -0.1518  0.0435 -0.1789
  686MPD2    H510206   2.999   4.620  15.706  1.0202  0.3343  1.1003
  686MPD2    N110207   2.485   4.442  15.875  0.5205  0.2358 -0.7886
  686MPD2    H710208   2.399   4.410  15.831  0.5401 -1.4614  0.3710
  687TMC3    C110209   3.137   4.587  15.914  0.2408  0.7825 -0.3279
  687TMC3    C210210   3.108   4.721  15.938  0.9068 -0.3362 -0.2573
  687TMC3    C310211   3.163   0.046  16.054 -0.2249 -0.2488  0.4380
  687TMC3    C410212   3.205   4.518  16.009  0.5237  0.9484  0.8006
  687TMC3    C510213   3.264   4.584  16.117 -0.2342 -0.1369  0.3960
  687TMC3    C610214   3.248   4.723  16.138 -0.0701  0.0287 -0.2958
  687TMC3     C10215   3.014   4.515  15.884  0.3376  1.0386 -0.0943
  687TMC3     O10216   2.981   4.435  15.968  0.1568 -0.4465 -0.2458
  687TMC3     H10217   3.015   0.020  15.899  2.5967  1.1581 -2.7715
  687TMC3    H110218   3.218   4.411  16.001 -3.6065  0.4439  0.5990
  687TMC3    H210219   3.288   0.030  16.227 -0.4937  1.9562 -1.1343
  687TMC3    C710220   3.293   4.506  16.237  0.5214  0.2992  0.7540
  687TMC3    C810221   3.116   0.172  16.086 -0.0775 -0.0381  0.3038
  687TMC3    O110222   3.389   4.544  16.304 -0.8446 -0.6859 -0.4112
  687TMC3    O210223   3.107   0.202  16.205 -0.3383  0.0236  0.2277
  688MPD2     C10224   2.059   3.136  17.384  0.1250  0.3142 -0.3282
  688MPD2    C110225   2.044   3.005  17.420  1.0515  0.2683 -0.4479
  688MPD2    C210226   2.102   2.905  17.346  0.6611  0.5128  0.5371
  688MPD2    C310227   2.183   2.948  17.238  0.1890 -0.2834 -0.3209
  688MPD2    C410228   2.230   3.077  17.232 -0.2687 -0.1955  0.6166
  688MPD2    C510229   2.172   3.173  17.306  0.8547  0.9607  0.0652
  688MPD2     H10230   2.091   2.799  17.365 -0.8015 -0.0452 -3.4893
  688MPD2    H110231   2.304   3.110  17.160 -0.7195  0.1029  0.2882
  688MPD2    H210232   2.011   3.220  17.433 -0.1063 -0.6346  1.0788
  688MPD2    H310233   2.204   3.276  17.296 -1.9476  1.7510 -0.7375
  688MPD2     N10234   2.238   2.857  17.147  0.0665  0.4245  0.0500
  688MPD2    H510235   2.293   2.906  17.078 -0.8177  0.6604 -0.4832
  688MPD2    N110236   1.952   2.962  17.523 -0.1634  0.4404 -0.3894
  688MPD2    H710237   1.952   2.861  17.535 -1.1058  0.0771 -3.4103
  689TMC3    C110238   1.822   2.976  17.723  0.1354 -0.4037 -0.9659
  689TMC3    C210239   1.795   3.049   0.081 -0.2994 -0.2211  0.2833
  689TMC3    C310240   1.759   2.979   0.194  0.2289 -0.0205 -0.1310
  689TMC3    C410241   1.798   2.841  17.717 -0.1057  0.0377  0.0560
  689TMC3    C510242   1.769   2.776   0.078 -0.7139  0.2926  0.3464
  689TMC3    C610243   1.749   2.839   0.194 -0.1108  0.6018  0.3942
  689TMC3     C10244   1.882   3.043  17.611  0.1544  1.0025  0.1078
  689TMC3     O10245   1.871   3.161  17.610 -0.7634  0.3700 -0.4511
  689TMC3     H10246   1.822   3.154   0.086 -1.0515 -0.0140 -0.0302
  689TMC3    H110247   1.814   2.785  17.625  1.2871 -2.2591  1.7083
  689TMC3    H210248   1.717   2.789   0.285 -0.9419 -1.7416 -1.1923
  689TMC3    C710249   1.747   2.628   0.070  0.3196 -0.2839  0.2408
  689TMC3    C810250   1.724   3.057   0.312  1.0095  0.2619 -0.8089
  689TMC3    O110251   1.772   2.549   0.160 -0.2723 -0.0162 -0.2945
  689TMC3    O210252   1.724   2.999   0.419 -0.0425 -0.8420  0.8302
  690MPD2     C10253   4.466   0.303  15.516  0.4910 -0.7665  0.2704
  690MPD2    C110254   4.362   0.254  15.445 -0.5364  0.1221  0.0743
  690MPD2    C210255   4.358   0.260  15.311 -0.2645  0.0402  0.1425
  690MPD2    C310256   4.470   0.302  15.236 -0.4858 -0.1339  0.1347
  690MPD2    C410257   4.582   0.351  15.310  0.7120  1.1324 -0.1689
  690MPD2    C510258   4.576   0.353  15.449  0.2072 -0.7526  0.1524
  690MPD2     H10259   4.269   0.230  15.257  1.6792 -1.0266 -2.4812
  690MPD2    H110260   4.674   0.388  15.265  0.6406  1.5437  0.0178
  690MPD2    H210261   4.458   0.324  15.622 -1.1510 -2.6836  0.5225
  690MPD2    H310262   4.657   0.394  15.508  0.2734 -0.9666  0.2119
  690MPD2     N10263   4.468   0.301  15.098  0.1390  0.0029  0.1197
  690MPD2    H510264   4.382   0.263  15.059  1.2923 -1.5276 -0.9378
  690MPD2    N110265   4.250   0.222  15.527 -0.0655 -0.5274 -0.2640
  690MPD2    H710266   4.263   0.212  15.627 -0.1218  0.8190 -0.1214
  691TMC3    C110267   4.024   0.166  15.585 -0.0804  0.0320 -0.1301
  691TMC3    C210268   3.893   0.179  15.551 -0.1282  0.4271 -0.1243
  691TMC3    C310269   3.798   0.092  15.607  0.1642  0.2190 -0.4648
  691TMC3    C410270   4.061   0.075  15.678 -0.1507 -0.2470  0.4206
  691TMC3    C510271   3.964   4.725  15.723 -0.5801 -1.0106 -0.4976
  691TMC3    C610272   3.838   4.734  15.694  0.1406  0.2865 -0.6260
  691TMC3     C10273   4.115   0.222  15.488  0.2548  0.2639 -0.0140
  691TMC3     O10274   4.071   0.256  15.380  0.0842  0.0580 -0.7109
  691TMC3     H10275   3.865   0.250  15.475  1.7423  1.1076 -0.1645
  691TMC3    H110276   4.163   0.060  15.712  0.1164 -0.3936 -0.4439
  691TMC3    H210277   3.758   4.689  15.752 -0.8503  3.1403  0.2728
  691TMC3    C710278   4.011   4.635  15.823 -0.0427  0.3373 -0.0809
  691TMC3    C810279   3.669   0.092  15.557 -0.3006 -0.6661 -0.6667
  691TMC3    O110280   4.112   4.658  15.890  0.2031 -0.4032  0.2100
  691TMC3    O210281   3.602   4.731  15.549 -0.2838 -0.3395  0.0814
  692TMC3    C110282   0.749   1.098  15.275 -0.0769 -0.3660  0.4899
  692TMC3    C210283   0.861   1.172  15.313  0.9362 -0.2413  0.0965
  692TMC3    C310284   0.965   1.104  15.382  0.2172  0.7758 -0.0814
  692TMC3    C410285   0.733   0.976  15.329  0.3649  0.2887  0.1084
  692TMC3    C510286   0.818   0.920  15.418  0.3795  0.0980  0.2028
  692TMC3    C610287   0.939   0.983  15.442 -0.1197  0.8100 -0.2830
  692TMC3     C10288   0.630   1.175  15.263 -0.0677 -0.2782  0.5491
  692TMC3     O10289   0.525   1.121  15.264  0.1309 -0.3278  0.6491
  692TMC3     H10290   0.895   1.252  15.248  0.0274 -0.6411 -0.8913
  692TMC3    H110291   0.638   0.934  15.299 -0.9743  2.4473  1.2784
  692TMC3    H210292   1.019   0.927  15.489  0.9323  0.3501 -2.6718
  692TMC3    C710293   0.777   0.795  15.482 -0.6281 -0.8864  0.0321
  692TMC3    C810294   1.059   1.182  15.454 -0.0557 -0.0605  0.2802
  692TMC3    O110295   0.694   0.736  15.417  0.2557  0.1388  0.0498
  692TMC3    O210296   1.130   1.130  15.538 -0.1388 -0.8769 -0.0371
  693MPD2     C10297   0.389   4.060  10.631 -0.8426 -0.1917  0.0081
  693MPD2    C110298   0.425   3.937  10.685 -0.0489 -0.3611  0.5327
  693MPD2    C210299   0.550   3.946  10.747  0.1799 -0.7079 -0.3947
  693MPD2    C310300   0.629   4.060  10.747 -0.0831  0.2514 -0.1192
  693MPD2    C410301   0.586   4.170  10.684 -0.3364 -0.4969  0.1458
  693MPD2    C510302   0.469   4.163  10.622 -0.4872 -0.5848 -0.0002
  693MPD2     H10303   0.586   3.856  10.796  0.3015 -0.2561  0.3593
  693MPD2    H110304   0.646   4.260  10.674 -1.2936 -0.0894 -2.0414
  693MPD2    H210305   0.303   4.066  10.565  1.2631  1.2332 -2.6178
  693MPD2    H310306   0.439   4.250  10.565 -0.5132 -1.0852 -0.7509
  693MPD2     N10307   0.758   4.052  10.800  0.2374  0.2385 -0.7092
  693MPD2    H510308   0.820   4.125  10.834  0.9619  0.1861 -1.9071
  693MPD2    N110309   0.332   3.835  10.690 -0.3141 -0.0554 -0.2334
  693MPD2    H710310   0.251   3.858  10.635 -0.2698  0.6111 -0.0137
  694TMC3    C110311   0.229   3.656  10.790  0.0709  0.2676  0.0869
  694TMC3    C210312   0.117   3.672  10.717  0.2551 -0.4056 -0.3996
  694TMC3    C310313   4.738   3.661  10.771 -0.0748  0.1244 -0.2084
  694TMC3    C410314   0.215   3.628  10.923  0.4276  0.0174 -0.5582
  694TMC3    C510315   0.086   3.623  10.974 -0.5149  0.0219  0.5629
  694TMC3    C610316   4.713   3.642  10.899 -0.6409 -0.3998 -0.4373
  694TMC3     C10317   0.354   3.721  10.763  0.3908  0.5278  0.3786
  694TMC3     O10318   0.443   3.695  10.841 -0.4626  0.5107 -0.3922
  694TMC3     H10319   0.129   3.706  10.615 -0.6181  2.5362  0.4718
  694TMC3    H110320   0.297   3.628  10.994 -0.5462  0.5548  0.5637
  694TMC3    H210321   4.612   3.642  10.939 -0.5848  1.1851 -0.2876
  694TMC3    C710322   0.072   3.626  11.118  0.4084 -0.3968 -0.2795
  694TMC3    C810323   4.618   3.654  10.682 -0.4713  0.1491 -0.3851
  694TMC3    O110324   0.173   3.640  11.185  0.0291 -0.1190 -0.3061
  694TMC3    O210325   4.514   3.621  10.738 -0.9994  0.2348 -0.0285
  695MPD2     C10326   1.679   0.926  13.439 -0.4415  0.4172 -0.6503
  695MPD2    C110327   1.634   0.928  13.571 -0.0346 -0.1586  0.4682
  695MPD2    C210328   1.504   0.973  13.607 -0.0665 -0.0974 -0.6409
  695MPD2    C310329   1.428   1.023  13.501  0.2277  0.0580  0.3881
  695MPD2    C410330   1.470   1.010  13.371  0.7526 -0.2356 -0.1720
  695MPD2    C510331   1.597   0.965  13.333 -0.4934 -0.2936  0.2598
  695MPD2     H10332   1.469   0.968  13.710  0.2426  1.7454 -0.4298
  695MPD2    H110333   1.413   1.047  13.286  1.2483 -2.9680 -1.7171
  695MPD2    H210334   1.778   0.887  13.417 -0.5723  0.5134 -1.4243
  695MPD2    H310335   1.622   0.944  13.230  1.9756 -0.4101  0.8765
  695MPD2     N10336   1.296   1.058  13.543  0.2553  0.4689  0.2496
  695MPD2    H510337   1.279   1.065  13.643 -2.2928  1.1076 -0.2253
  695MPD2    N110338   1.712   0.883  13.674  0.4618 -0.4064 -0.6928
  695MPD2    H710339   1.688   0.918  13.766  1.0245 -1.6243 -0.0720
  696TMC3    C110340   1.091   1.150  13.539  0.2987  0.3208 -0.4031
  696TMC3    C210341   1.065   1.084  13.660  0.3583 -0.3132 -0.0433
  696TMC3    C310342   0.950   1.118  13.718 -0.0640 -0.1557  0.3658
  696TMC3    C410343   1.005   1.233  13.475  0.4174 -0.1892  0.4442
  696TMC3    C510344   0.887   1.257  13.533 -0.0755  0.1497 -0.9036
  696TMC3    C610345   0.860   1.207  13.663 -0.6606 -0.0695  0.1609
  696TMC3     C10346   1.208   1.122  13.464  0.1615 -0.1877  0.6823
  696TMC3     O10347   1.200   1.132  13.343 -0.1115 -0.2592 -0.1162
  696TMC3     H10348   1.128   1.014  13.715 -0.9271  0.2688  2.1620
  696TMC3    H110349   1.035   1.288  13.386  0.1585  0.4073  0.7274
  696TMC3    H210350   0.766   1.239  13.706 -0.6670 -1.1122  0.9228
  696TMC3    C710351   0.818   1.382  13.505 -0.0801  0.1374 -0.0319
  696TMC3    C810352   0.932   1.084  13.858 -0.1742 -0.6198  0.5482
  696TMC3    O110353   0.806   1.405  13.387 -0.3373  0.2284  0.0070
  696TMC3    O210354   1.031   1.053  13.928 -0.0748 -0.0500  0.6775
  697MPD2     C10355   0.427   2.718  15.506 -0.2691  0.1991  0.7648
  697MPD2    C110356   0.456   2.715  15.374  0.2570  0.7804 -0.0685
  697MPD2    C210357   0.530   2.818  15.318 -0.3668  0.3312 -0.3077
  697MPD2    C310358   0.581   2.921  15.401 -0.1780 -0.0518  0.0338
  697MPD2    C410359   0.540   2.934  15.532  0.1214  0.2079 -0.3566
  697MPD2    C510360   0.469   2.827  15.585  0.4065 -0.3923  0.2758
  697MPD2     H10361   0.543   2.821  15.210 -1.1133  0.8418 -0.3851
  697MPD2    H110362   0.581   3.012  15.594 -2.7075  0.7349  0.8617
  697MPD2    H210363   0.358   2.643  15.545 -0.0627  0.6113  1.9416
  697MPD2    H310364   0.445   2.810  15.689  0.9268 -0.4184  0.3909
  697MPD2     N10365   0.670   3.008  15.334  0.0649  0.3311  0.6617
  697MPD2    H510366   0.696   2.970  15.244  0.4952 -2.2007  1.8746
  697MPD2    N110367   0.410   2.609  15.288  0.2278  0.4951 -0.0909
  697MPD2    H710368   0.441   2.618  15.192  1.8045 -3.8153  0.0246
  698TMC3    C110369   0.827   3.184  15.294  1.4624 -0.5696 -0.7103
  698TMC3    C210370   0.886   3.301  15.343 -0.6299  0.3299 -0.4477
  698TMC3    C310371   0.918   3.400  15.247 -0.1526  0.4083 -0.0197
  698TMC3    C410372   0.789   3.175  15.162  0.4033  0.7405  0.3356
  698TMC3    C510373   0.814   3.281  15.074 -0.0460  0.1958  0.4122
  698TMC3    C610374   0.890   3.393  15.114 -0.3165 -1.0467  0.4089
  698TMC3     C10375   0.732   3.122  15.386  0.3915  0.8759 -0.0707
  698TMC3     O10376   0.714   3.181  15.490 -0.2474  0.6055  0.1241
  698TMC3     H10377   0.926   3.307  15.443  0.2541  2.3671 -0.9308
  698TMC3    H110378   0.734   3.091  15.122  2.2305 -0.9230  1.2804
  698TMC3    H210379   0.911   3.479  15.052  0.4066 -0.4738  1.4563
  698TMC3    C710380   0.780   3.255  14.936  0.4996 -0.3457  0.2307
  698TMC3    C810381   0.987   3.512  15.302 -0.0866  0.2466 -0.8125
  698TMC3    O110382   0.680   3.192  14.911 -0.0863 -0.2851  0.3408
  698TMC3    O210383   0.955   3.535  15.417  0.1119 -0.3914 -0.0525
  699TMC3    C110384   0.511   1.383  13.167 -0.5488  0.1779  0.3135
  699TMC3    C210385   0.560   1.269  13.226  0.4246  0.4335 -0.0086
  699TMC3    C310386   0.470   1.182  13.278  0.4674  0.0587 -0.4240
  699TMC3    C410387   0.381   1.406  13.167  0.6958  0.0914  0.5383
  699TMC3    C510388   0.293   1.326  13.229 -0.1801  0.2640  0.0181
  699TMC3    C610389   0.338   1.218  13.299 -0.8431 -0.7346 -0.0109
  699TMC3     C10390   0.600   1.456  13.076 -0.0481 -0.0247  0.2171
  699TMC3     O10391   0.539   1.532  13.006  0.0527 -0.6254 -0.4033
  699TMC3     H10392   0.667   1.257  13.244  0.4971 -1.3203 -1.7173
  699TMC3    H110393   0.349   1.501  13.126 -1.8332 -1.1082 -0.2770
  699TMC3    H210394   0.261   1.156  13.344 -0.1557 -2.2232 -0.9049
  699TMC3    C710395   0.166   1.378  13.265 -0.0109 -0.0421 -0.1031
  699TMC3    C810396   0.502   1.059  13.355 -0.2224 -0.6564 -0.2701
  699TMC3    O110397   0.116   1.329  13.365  0.3345  0.4012 -0.5315
  699TMC3    O210398   0.419   1.025  13.435  0.1769 -0.0177  0.0085
  700TMC3    C110399   0.063   3.627  17.171  0.0069  0.6162  0.8414
  700TMC3    C210400   0.116   3.507  17.153  0.5385  0.4142 -0.6835
  700TMC3    C310401   0.232   3.474  17.224 -0.2429 -0.1273  0.1453
  700TMC3    C410402   0.130   3.726  17.240 -0.4765 -0.5581  0.0619
  700TMC3    C510403   0.245   3.692  17.310  0.3717  0.3833 -0.3769
  700TMC3    C610404   0.299   3.563  17.307  0.3357 -0.0232  0.2982
  700TMC3     C10405   4.705   3.678  17.082  0.5339  0.4653  0.5543
  700TMC3     O10406   4.601   3.618  17.062 -0.3670  0.2515 -0.5425
  700TMC3     H10407   0.059   3.433  17.099 -1.6089  0.6492  1.2123
  700TMC3    H110408   0.081   3.819  17.264  0.7518 -0.4571  2.1281
  700TMC3    H210409   0.384   3.534  17.368  0.8151 -0.8866 -0.7808
  700TMC3    C710410   0.338   3.790  17.373 -0.6689 -0.8500  0.6620
  700TMC3    C810411   0.289   3.352  17.182 -0.4940 -0.2581  0.5574
  700TMC3    O110412   0.454   3.751  17.393 -0.4092 -0.5033  0.3046
  700TMC3    O210413   0.227   3.269  17.120  0.5581  0.0833  0.2498
  701TMC3    C110414   4.525   2.373  15.323 -0.1534 -0.1350  0.5539
  701TMC3    C210415   4.562   2.382  15.196  0.2873  0.8684  0.0727
  701TMC3    C310416   4.654   2.473  15.159  0.0678 -0.0166 -0.0704
  701TMC3    C410417   4.572   2.457  15.420 -0.2727  0.1817 -0.5630
  701TMC3    C510418   4.652   2.560  15.388 -0.1502 -0.3158  0.3136
  701TMC3    C610419   4.698   2.568  15.258  0.3839 -0.0907  0.1541
  701TMC3     C10420   4.475   2.243  15.364  0.3811  0.2344 -0.2591
  701TMC3     O10421   4.476   2.226  15.485  0.2904 -0.0719  0.4861
  701TMC3     H10422   4.519   2.320  15.118 -0.2565  1.7100 -0.3039
  701TMC3    H110423   4.530   2.446  15.520 -0.6687 -1.2284 -0.8894
  701TMC3    H210424   0.001   2.665  15.236 -1.2398  0.3647 -0.9629
  701TMC3    C710425   4.690   2.662  15.478 -0.0947 -0.3021  0.2129
  701TMC3    C810426   4.662   2.522  15.021  0.5946 -0.5144 -0.2451
  701TMC3    O110427   0.002   2.761  15.425 -0.0958 -0.0926 -0.2063
  701TMC3    O210428   4.733   2.620  15.006  0.1521  0.4202 -0.5621
  702MPD2     C10429   3.991   4.393  10.470  0.1884 -0.3118 -0.8095
  702MPD2    C110430   4.125   4.394  10.514 -0.1085  0.7753  0.2043
  702MPD2    C210431   4.209   4.496  10.473  0.1581 -0.7877 -0.0819
  702MPD2    C310432   4.167   4.594  10.383 -0.2606 -0.4957  0.2398
  702MPD2    C410433   4.034   4.596  10.339  0.1948  0.3270 -0.2358
  702MPD2    C510434   3.948   4.494  10.383 -0.5418  0.8532  0.1554
  702MPD2     H10435   4.309   4.502  10.515  0.3788 -1.8115 -0.4657
  702MPD2    H110436   3.989   4.682  10.290  0.8915  0.2670 -0.9835
  702MPD2    H210437   3.906   4.329  10.493 -0.7277  2.1592  2.6065
  702MPD2    H310438   3.841   4.502  10.367 -0.6611  0.3691  0.7238
  702MPD2     N10439   4.243   4.705  10.342  0.0935  0.2669  0.0035
  702MPD2    H510440   4.191   0.044  10.306  0.3773  0.1533 -0.6552
  702MPD2    N110441   4.154   4.290  10.602 -0.2094  0.3689 -0.2941
  702MPD2    H710442   4.077   4.239  10.643  0.7626 -0.2691  0.7321
  703TMC3    C110443   4.428   0.117  10.360  0.4629 -0.0599 -0.4496
  703TMC3    C210444   4.344   0.223  10.386  0.6418 -0.3837  0.1324
  703TMC3    C310445   4.399   0.347  10.395  0.2823  0.0813  0.1732
  703TMC3    C410446   4.562   0.132  10.334 -0.4745  0.2626 -0.5436
  703TMC3    C510447   4.612   0.260  10.336 -0.5207 -0.6597 -0.4751
  703TMC3    C610448   4.525   0.369  10.369 -0.8271 -0.5966 -0.1021
  703TMC3     C10449   4.376   4.722  10.372 -0.1495  0.7063  0.3542
  703TMC3     O10450   4.456   4.635  10.412 -0.2296  0.1718  0.1408
  703TMC3     H10451   4.237   0.212  10.394  0.5466  0.6866  0.3658
  703TMC3    H110452   4.617   0.042  10.312  0.8745  0.5911  1.4974
  703TMC3    H210453   4.558   0.473  10.374  1.0508 -1.2322  0.6513
  703TMC3    C710454   0.005   0.293  10.308 -0.1472  0.4118  0.2619
  703TMC3    C810455   4.303   0.458  10.409  0.3123 -0.6166 -0.3102
  703TMC3    O110456   0.033   0.411  10.287 -0.1227  0.0572 -0.1325
  703TMC3    O210457   4.343   0.563  10.355  0.7606 -0.0929  0.3972
  704TMC3    C110458   2.276   2.410  12.847 -0.2938 -0.7359  0.0508
  704TMC3    C210459   2.349   2.423  12.728 -0.4540  0.3152 -0.3491
  704TMC3    C310460   2.421   2.320  12.685 -0.0411 -0.3283  0.0492
  704TMC3    C410461   2.273   2.299  12.920  0.0876 -0.7462  0.6550
  704TMC3    C510462   2.323   2.189  12.858  0.3524 -0.1395  0.0509
  704TMC3    C610463   2.394   2.198  12.747 -0.3413  0.1162 -0.3020
  704TMC3     C10464   2.165   2.501  12.873  0.5012  1.2491 -0.3189
  704TMC3     O10465   2.112   2.505  12.985 -0.3780  0.9695  0.1169
  704TMC3     H10466   2.368   2.521  12.687  0.9191  0.6952  1.1568
  704TMC3    H110467   2.216   2.292  13.011 -0.7172  0.2687  0.2356
  704TMC3    H210468   2.438   2.108  12.705 -1.0571 -0.3083 -0.1265
  704TMC3    C710469   2.246   2.070  12.867  0.6331  0.2487 -0.0924
  704TMC3    C810470   2.422   2.307  12.541  0.2038  0.0656 -0.0225
  704TMC3    O110471   2.283   1.973  12.803 -0.5215  0.4131 -0.5877
  704TMC3    O210472   2.379   2.208  12.486  0.5360  0.8021  0.2279
  705MPD2     C10473   1.047   1.045  16.145  0.5828  0.5054  0.3067
  705MPD2    C110474   1.046   1.183  16.141  0.0022  0.0298 -0.4195
  705MPD2    C210475   0.933   1.246  16.115 -0.0492 -0.3004  0.3879
  705MPD2    C310476   0.812   1.177  16.084 -0.1265 -0.5282 -0.3744
  705MPD2    C410477   0.821   1.041  16.083 -0.1159 -0.5017  0.1193
  705MPD2    C510478   0.934   0.975  16.115  0.1837  0.2195  0.3354
  705MPD2     H10479   0.937   1.353  16.129  4.1884 -0.4780  0.5513
  705MPD2    H110480   0.737   0.973  16.079  1.1983 -1.9604 -2.2505
  705MPD2    H210481   1.135   0.983  16.162 -0.6543 -1.2329  0.3550
  705MPD2    H310482   0.941   0.869  16.096  1.0386  0.0078  1.7608
  705MPD2     N10483   0.691   1.243  16.055 -0.0677  0.6188  0.3195
  705MPD2    H510484   0.608   1.188  16.034  0.5294  0.2639 -1.0781
  705MPD2    N110485   1.161   1.258  16.160 -0.3132  0.6342 -0.0772
  705MPD2    H710486   1.158   1.350  16.117 -0.6279  0.3390 -0.6750
  706TMC3    C110487   1.612   1.263  16.070 -0.0647  0.0058  0.0038
  706TMC3    C210488   1.608   1.392  16.017 -0.0636  0.0683  0.4539
  706TMC3    C310489   1.495   1.462  16.041  0.0081 -0.2156  0.6656
  706TMC3    C410490   1.510   1.211  16.145  0.4201 -0.4601  0.5336
  706TMC3    C510491   1.398   1.285  16.166  0.4623  0.0001  0.4502
  706TMC3    C610492   1.399   1.412  16.124 -0.3221  0.1052  0.1500
  706TMC3     C10493   1.725   1.177  16.040 -0.3762  0.3374  0.3904
  706TMC3     O10494   1.776   1.119  16.134 -0.3371  0.2565  0.1866
  706TMC3     H10495   1.687   1.435  15.957  2.0468 -3.3509  0.7867
  706TMC3    H110496   1.507   1.103  16.159  2.0899 -0.4334  1.0608
  706TMC3    H210497   1.315   1.472  16.156 -1.6894 -1.2075 -0.9529
  706TMC3    C710498   1.279   1.208  16.206 -0.6358 -0.1053  0.4117
  706TMC3    C810499   1.475   1.595  15.982 -0.1424  0.4381 -0.7978
  706TMC3    O110500   1.294   1.101  16.266  0.7233 -0.2631 -0.5123
  706TMC3    O210501   1.361   1.625  15.944  0.3674  0.2575  0.5485
  707TMC3    C110502   4.035   4.111   1.557 -0.0666 -0.2394  0.8783
  707TMC3    C210503   3.999   3.990   1.500 -0.1950 -0.6444  0.6820
  707TMC3    C310504   3.888   3.928   1.549  0.2659  0.3484 -0.0018
  707TMC3    C410505   3.975   4.164   1.665 -0.7652  0.0415 -1.1457
  707TMC3    C510506   3.864   4.108   1.711 -0.1362 -0.8455  0.4919
  707TMC3    C610507   3.817   3.992   1.649  0.2151 -0.0614  0.2443
  707TMC3     C10508   4.128   4.187   1.479 -0.5184  0.6478 -0.3391
  707TMC3     O10509   4.205   4.132   1.396 -0.2216  0.2359  0.4329
  707TMC3     H10510   4.055   3.953   1.415 -1.7399  0.4836 -0.8329
  707TMC3    H110511   4.016   4.254   1.711 -1.1852 -0.0728 -0.5417
  707TMC3    H210512   3.725   3.946   1.682  0.7218 -0.8426  0.5580
  707TMC3    C710513   3.787   4.176   1.815  0.0309 -0.1672 -0.5262
  707TMC3    C810514   3.833   3.797   1.503  0.4256 -0.0288 -0.1499
  707TMC3    O110515   3.841   4.264   1.879  0.1414  0.2466 -0.2286
  707TMC3    O210516   3.731   3.753   1.557 -0.0817 -0.5513 -0.8634
  708MPD2     C10517   4.409   3.238  14.075 -0.4673 -0.1834  0.4173
  708MPD2    C110518   4.336   3.346  14.110 -0.1778  0.9822  0.1619
  708MPD2    C210519   4.360   3.400  14.239  0.3597  0.1121 -0.2416
  708MPD2    C310520   4.460   3.354  14.327  0.5938  0.2366  0.3518
  708MPD2    C410521   4.527   3.242  14.287  0.0526  0.4205 -0.2990
  708MPD2    C510522   4.495   3.185  14.169  0.1446  0.0112 -0.1977
  708MPD2     H10523   4.309   3.484  14.285  2.0382  0.1559  1.5326
  708MPD2    H110524   4.605   3.199  14.349  0.6253  0.0396 -1.2993
  708MPD2    H210525   4.407   3.200  13.974 -1.9810 -0.8497  0.6959
  708MPD2    H310526   4.545   3.093  14.142 -0.2247  0.3447 -2.0328
  708MPD2     N10527   4.485   3.428  14.443  0.0303 -0.0789  0.1362
  708MPD2    H510528   4.422   3.508  14.455 -0.5570 -0.3486 -1.0958
  708MPD2    N110529   4.267   3.424  14.014 -0.1872 -0.5233  0.2122
  708MPD2    H710530   4.252   3.379  13.924  2.8324 -3.9662  1.4360
  709TMC3    C110531   4.159   3.618  13.922  0.7745  0.2913  0.3697
  709TMC3    C210532   4.237   3.637  13.812 -0.1946  1.0573 -0.3665
  709TMC3    C310533   4.251   3.762  13.760  0.3414 -0.1153 -0.0902
  709TMC3    C410534   4.099   3.722  13.984  0.2184 -0.0857 -0.8808
  709TMC3    C510535   4.126   3.843  13.931 -0.2643  1.0553 -0.1656
  709TMC3    C610536   4.198   3.866  13.818  0.2368  0.5164 -0.3585
  709TMC3     C10537   4.215   3.551  14.038 -1.5321  0.1177  0.2652
  709TMC3     O10538   4.211   3.613  14.144  0.2348  0.0422 -0.0331
  709TMC3     H10539   4.297   3.557  13.770 -0.1879  1.8196 -1.8076
  709TMC3    H110540   4.028   3.716  14.065  0.1183 -1.2051 -1.0595
  709TMC3    H210541   4.223   3.963  13.777 -0.6703  0.9860  0.1747
  709TMC3    C710542   4.141   3.955  14.026 -0.4573 -0.4290 -0.3806
  709TMC3    C810543   4.306   3.777  13.622 -0.3237 -0.3833 -0.2648
  709TMC3    O110544   4.141   4.075  13.987 -0.5606  0.1657  0.0923
  709TMC3    O210545   4.302   3.892  13.580  0.5202 -0.2867  0.3850
  710TMC3    C110546   0.875   0.679   0.172  0.6269 -0.1987  0.5134
  710TMC3    C210547   0.879   0.662   0.032 -1.3287  0.0955 -0.3112
  710TMC3    C310548   0.955   0.561  17.737 -0.0798  0.6127  0.1803
  710TMC3    C410549   0.944   0.595   0.259 -0.3142 -0.3362  0.6829
  710TMC3    C510550   1.014   0.492   0.206  0.0166  0.0913  0.5476
  710TMC3    C610551   1.011   0.473   0.069  0.1718  0.7812  0.6427
  710TMC3     C10552   0.767   0.766   0.210  0.2451 -0.0974  0.5653
  710TMC3     O10553   0.677   0.789   0.125 -0.7289  0.0969 -0.1554
  710TMC3     H10554   0.833   0.736  17.725 -3.2354  0.1064  1.0355
  710TMC3    H110555   0.938   0.600   0.367  0.4506  0.8542  0.6766
  710TMC3    H210556   1.039   0.377   0.025 -0.4011  0.8364  0.1630
  710TMC3    C710557   1.092   0.403   0.290  0.1169 -0.5438 -0.0704
  710TMC3    C810558   1.012   0.570  17.609 -0.2541  0.2636  0.4254
  710TMC3    O110559   1.071   0.416   0.411  0.1551  0.2471  0.1856
  710TMC3    O210560   1.115   0.510  17.597 -0.6570  0.7293 -0.2772
  711TMC3    C110561   0.334   1.589  14.833  0.2964  0.5926  0.0121
  711TMC3    C210562   0.366   1.723  14.838  0.0181  0.5276  0.4170
  711TMC3    C310563   0.487   1.753  14.880  0.0542 -0.1861 -0.0672
  711TMC3    C410564   0.414   1.487  14.865  0.6566  0.2296 -0.3772
  711TMC3    C510565   0.543   1.527  14.893 -0.1686 -0.7305  0.8916
  711TMC3    C610566   0.576   1.656  14.909 -0.2258 -0.4543 -0.6058
  711TMC3     C10567   0.193   1.554  14.817 -0.0962  0.0469  0.4172
  711TMC3     O10568   0.130   1.625  14.738  0.6155  0.0842  0.0977
  711TMC3     H10569   0.294   1.796  14.804  0.2290  0.3111 -0.5000
  711TMC3    H110570   0.386   1.384  14.850 -1.2573  0.6687  0.1109
  711TMC3    H210571   0.679   1.688  14.913 -0.2288 -0.3859 -1.0768
  711TMC3    C710572   0.648   1.432  14.923  0.6017  0.0675 -0.1729
  711TMC3    C810573   0.489   1.868  14.970 -0.0106  0.3984 -0.1036
  711TMC3    O110574   0.752   1.479  14.964  0.3640 -0.4777 -0.0262
  711TMC3    O210575   0.378   1.923  14.980 -0.5140  0.2553 -0.1316
  712MPD2     C10576   2.323   2.567  14.102 -0.3877 -0.1164 -0.7520
  712MPD2    C110577   2.233   2.587  13.999  0.5000 -0.6286 -0.1417
  712MPD2    C210578   2.242   2.701  13.924 -0.5872 -0.7533  0.6550
  712MPD2    C310579   2.346   2.791  13.940  0.5758  0.4961 -0.1811
  712MPD2    C410580   2.443   2.758  14.040 -0.3844  0.1140 -0.6668
  712MPD2    C510581   2.434   2.645  14.113  0.4385 -0.1014  0.3873
  712MPD2     H10582   2.169   2.718  13.846 -0.9826 -3.6386  0.4015
  712MPD2    H110583   2.523   2.827  14.061 -0.1579 -0.5864  0.7919
  712MPD2    H210584   2.299   2.491  14.176 -1.3986  0.0634 -0.8939
  712MPD2    H310585   2.494   2.641  14.203 -2.4973  1.6292  2.4574
  712MPD2     N10586   2.349   2.927  13.887 -0.3344  0.4642 -0.6191
  712MPD2    H510587   2.435   2.980  13.903 -0.9410  0.5918  2.1573
  712MPD2    N110588   2.112   2.523  13.981  0.3469  0.4741  0.0638
  712MPD2    H710589   2.057   2.566  13.907  0.6563  2.1756  0.8221
  713TMC3    C110590   2.279   3.116  13.782  0.1163  0.4051  0.1943
  713TMC3    C210591   2.394   3.134  13.710  0.3228  0.5514 -0.3457
  713TMC3    C310592   2.391   3.235  13.616 -0.1366  0.2965 -0.3445
  713TMC3    C410593   2.166   3.181  13.750 -0.0296  0.3837  0.3328
  713TMC3    C510594   2.166   3.263  13.641  0.4155  0.4049  0.1127
  713TMC3    C610595   2.279   3.291  13.566  0.7721  0.1254 -0.6332
  713TMC3     C10596   2.243   2.984  13.831 -0.6529  0.2807  0.6076
  713TMC3     O10597   2.126   2.950  13.821  0.2176 -0.7368  0.1608
  713TMC3     H10598   2.484   3.076  13.726  0.0086 -0.6310 -2.8378
  713TMC3    H110599   2.068   3.163  13.793 -0.7880 -0.1912 -1.5965
  713TMC3    H210600   2.290   3.377  13.501  1.0101 -1.1131 -2.2213
  713TMC3    C710601   2.056   3.364  13.618  0.0885  0.6558 -0.8994
  713TMC3    C810602   2.511   3.313  13.600  0.3856  0.1218 -0.0650
  713TMC3    O110603   2.034   3.394  13.503 -0.4163  0.1029  0.3636
  713TMC3    O210604   2.518   3.386  13.505  0.7960 -0.3477  0.4751
  714MPD2     C10605   0.006   1.597   1.631 -0.8458 -0.4024 -0.4231
  714MPD2    C110606   0.018   1.484   1.552 -0.3293 -0.4451  0.5460
  714MPD2    C210607   4.661   1.451   1.466  0.1157  0.5815  0.0433
  714MPD2    C310608   4.547   1.539   1.451 -0.4055 -1.4593 -0.3095
  714MPD2    C410609   4.535   1.650   1.531 -0.8348 -0.1420  0.6652
  714MPD2    C510610   4.634   1.681   1.617 -0.2462  0.2793  0.0490
  714MPD2     H10611   4.675   1.369   1.396  1.4015  2.3123 -1.7508
  714MPD2    H110612   4.442   1.706   1.535 -1.2494 -0.7985  0.2860
  714MPD2    H210613   0.075   1.647   1.699 -4.0841  1.2747  1.6458
  714MPD2    H310614   4.630   1.773   1.674 -1.6597  0.2764 -0.0487
  714MPD2     N10615   4.451   1.492   1.361  0.1935 -0.0037 -0.5868
  714MPD2    H510616   4.466   1.399   1.322 -2.9927  0.0829 -1.9723
  714MPD2    N110617   0.134   1.405   1.566 -0.4244  0.7392  0.3331
  714MPD2    H710618   0.204   1.449   1.624 -0.8464 -0.3837  1.6851
  715TMC3    C110619   0.281   1.213   1.573  0.0770  0.2453 -0.2764
  715TMC3    C210620   0.326   1.134   1.470 -0.5812 -0.2942 -0.0191
  715TMC3    C310621   0.459   1.129   1.455 -0.0076  0.1579 -0.2684
  715TMC3    C410622   0.367   1.294   1.650 -0.0836 -0.3932  0.1960
  715TMC3    C510623   0.498   1.307   1.604  0.1015 -0.0645 -0.0861
  715TMC3    C610624   0.540   1.225   1.511  0.2433 -0.3033  0.3996
  715TMC3     C10625   0.148   1.273   1.533  0.5068 -0.3307  0.5095
  715TMC3     O10626   0.063   1.199   1.483  0.0041 -0.0092 -0.7446
  715TMC3     H10627   0.264   1.058   1.424 -1.5670  0.5600 -0.0934
  715TMC3    H110628   0.332   1.360   1.728 -2.1496 -0.7773 -0.4206
  715TMC3    H210629   0.644   1.238   1.483  0.7863 -0.2612  2.4666
  715TMC3    C710630   0.605   1.367   1.685  0.7138  0.4938 -0.2541
  715TMC3    C810631   0.500   1.044   1.355  0.3261 -0.1518  0.0056
  715TMC3    O110632   0.725   1.337   1.670 -0.4696 -0.4339 -0.1903
  715TMC3    O210633   0.422   1.010   1.262 -0.2502  0.1431  0.3735
  716MPD2     C10634   3.648   4.297  10.185  0.0303  0.3670  0.4009
  716MPD2    C110635   3.625   4.288  10.055  0.1210 -0.3749  0.3082
  716MPD2    C210636   3.708   4.215   9.973 -0.4851 -0.3593  0.0974
  716MPD2    C310637   3.815   4.153  10.028 -0.6369  0.8747 -0.2320
  716MPD2    C410638   3.829   4.148  10.159  0.5013 -0.1872 -0.0262
  716MPD2    C510639   3.748   4.223  10.238 -0.0732 -0.4122  0.1188
  716MPD2     H10640   3.701   4.214   9.865  0.0877  1.6987  0.0420
  716MPD2    H110641   3.903   4.091  10.214  0.0501  0.9188  1.7566
  716MPD2    H210642   3.593   4.366  10.248  1.2396  2.7321 -1.1615
  716MPD2    H310643   3.770   4.227  10.344  1.0330 -3.2161 -0.0280
  716MPD2     N10644   3.908   4.098   9.931 -0.2508  0.1611 -0.2292
  716MPD2    H510645   3.873   4.072   9.839 -2.2165  0.5944  0.4004
  716MPD2    N110646   3.524   4.375   9.998 -0.1954  0.2009 -0.3737
  716MPD2    H710647   3.471   4.435  10.061  1.4203  0.1292  1.0586
  717TMC3    C110648   4.112   3.981   9.864  0.1643 -0.5143  0.7151
  717TMC3    C210649   4.055   3.965   9.746  0.9735  0.2835 -0.3679
  717TMC3    C310650   4.135   3.901   9.650 -0.2113 -0.4489 -0.1437
  717TMC3    C410651   4.243   3.941   9.894  0.1978  0.3604  0.6526
  717TMC3    C510652   4.315   3.887   9.791 -0.5314 -0.3990  0.0029
  717TMC3    C610653   4.263   3.865   9.670  0.2339  0.3687  0.4394
  717TMC3     C10654   4.032   4.050   9.970  0.1804  0.7036 -0.4977
  717TMC3     O10655   4.083   4.044  10.084  0.2420  0.2265  0.1612
  717TMC3     H10656   3.951   3.985   9.726  0.9181  1.5092  1.1453
  717TMC3    H110657   4.283   3.966   9.992  3.5070  0.6814 -0.8198
  717TMC3    H210658   4.323   3.822   9.590  0.2908 -0.3447  0.8711
  717TMC3    C710659   4.457   3.873   9.814  0.9457  0.5674 -0.2112
  717TMC3    C810660   4.062   3.866   9.529 -0.0935 -0.7813  0.4035
  717TMC3    O110661   4.502   3.892   9.930  0.3144  0.3530 -0.1243
  717TMC3    O210662   3.954   3.920   9.510 -0.0776  0.0665  0.1929
  718MPD2     C10663   3.545   3.325  12.878 -0.2889  0.3722 -0.2641
  718MPD2    C110664   3.410   3.294  12.864 -0.1415  0.0620 -0.0074
  718MPD2    C210665   3.345   3.199  12.945 -0.7227  0.9639  0.2618
  718MPD2    C310666   3.415   3.143  13.049  0.2537 -0.1623 -0.4509
  718MPD2    C410667   3.547   3.171  13.077 -0.4197 -0.2023  0.4900
  718MPD2    C510668   3.609   3.261  12.988  0.6930 -0.2755  0.6659
  718MPD2     H10669   3.241   3.174  12.931 -0.5881  0.8816 -0.6154
  718MPD2    H110670   3.599   3.139  13.166 -1.4037 -0.4480  0.9742
  718MPD2    H210671   3.599   3.385  12.806  0.3637  0.7738  0.5659
  718MPD2    H310672   3.714   3.282  13.003  0.8249 -0.8720  0.5650
  718MPD2     N10673   3.348   3.043  13.117 -0.2364 -0.2322 -0.0258
  718MPD2    H510674   3.265   3.006  13.072  0.6278 -0.9156 -1.0764
  718MPD2    N110675   3.349   3.343  12.738 -0.1462  0.1049  0.1116
  718MPD2    H710676   3.407   3.390  12.670  0.4966 -0.6756  0.1222
  719TMC3    C110677   3.175   3.320  12.567  0.6266 -0.5324 -0.7682
  719TMC3    C210678   3.061   3.240  12.550  0.2949 -0.6901 -0.2465
  719TMC3    C310679   3.057   3.127  12.467 -0.4687  0.6671 -0.2879
  719TMC3    C410680   3.282   3.288  12.489 -0.0973  0.7105  0.6664
  719TMC3    C510681   3.276   3.182  12.406 -0.0461  0.7170  0.6212
  719TMC3    C610682   3.164   3.102  12.382  0.2971  0.2145  0.3422
  719TMC3     C10683   3.215   3.325  12.705 -0.5050 -0.3563  0.3690
  719TMC3     O10684   3.126   3.284  12.774 -0.3705  0.1595  0.1789
  719TMC3     H10685   2.977   3.265  12.613 -0.0291 -1.1950 -0.4785
  719TMC3    H110686   3.368   3.354  12.485 -0.0213  0.7174  2.4277
  719TMC3    H210687   3.162   3.027  12.304 -1.2221 -0.7145  1.2854
  719TMC3    C710688   3.410   3.138  12.364  0.0002 -0.4839 -0.6109
  719TMC3    C810689   3.029   3.004  12.533  0.1489 -0.4943  0.5654
  719TMC3    O110690   3.492   3.226  12.333  0.0522  0.6136 -0.1112
  719TMC3    O210691   3.121   2.922  12.525  0.4204 -0.8910  0.3688
  720MPD2     C10692   1.926   0.150  14.352 -0.2319  1.0097  0.1825
  720MPD2    C110693   1.992   0.119  14.238  0.8286 -0.0060 -0.3878
  720MPD2    C210694   2.129   0.088  14.255  0.3202  0.4164  0.3393
  720MPD2    C310695   2.195   0.089  14.379  0.0646 -0.1262  0.1277
  720MPD2    C410696   2.124   0.111  14.489  0.4349 -0.9291 -0.3876
  720MPD2    C510697   1.991   0.150  14.474 -0.4512  0.0065 -0.3262
  720MPD2     H10698   2.180   0.074  14.161 -0.2019  0.6841  0.0176
  720MPD2    H110699   2.163   0.117  14.589  1.9053  0.0793 -1.0265
  720MPD2    H210700   1.822   0.179  14.352 -0.6258 -0.4086 -1.0757
  720MPD2    H310701   1.924   0.163  14.558  1.6436 -1.9978  1.6649
  720MPD2     N10702   2.327   0.044  14.386 -0.3002  0.3318  0.0427
  720MPD2    H510703   2.362   0.002  14.301  0.4739  2.3323 -0.6476
  720MPD2    N110704   1.934   0.112  14.111  0.0980  0.6194  0.3742
  720MPD2    H710705   1.986   0.061  14.040  1.0132  3.1972 -0.8288
  721TMC3    C110706   2.544   0.040  14.464  0.7603 -0.1832 -0.2701
  721TMC3    C210707   2.626   0.013  14.571  0.0340  0.3949  0.4739
  721TMC3    C310708   2.762   4.730  14.538 -0.6871 -0.7819 -0.6679
  721TMC3    C410709   2.590   0.043  14.331 -0.4878 -0.0707 -0.4383
  721TMC3    C510710   2.724   0.018  14.312 -0.5838  0.3104  0.1853
  721TMC3    C610711   2.811   4.729  14.415 -1.3270 -1.0078  0.8691
  721TMC3     C10712   2.405   0.061  14.496  0.2684 -0.4347 -1.0194
  721TMC3     O10713   2.385   0.103  14.610 -0.3487 -0.2905 -0.1446
  721TMC3     H10714   2.586   0.002  14.671  1.2872  1.4276  1.0924
  721TMC3    H110715   2.519   0.039  14.249 -1.4738 -0.7697  0.4440
  721TMC3    H210716   2.908   4.685  14.398 -1.5321 -1.8470  1.9028
  721TMC3    C710717   2.793   0.010  14.175 -1.3088 -0.1636  0.7557
  721TMC3    C810718   2.845   4.702  14.653  0.5067 -0.4639  0.5890
  721TMC3    O110719   2.913   4.730  14.172 -0.6042  0.3664  0.4128
  721TMC3    O210720   2.901   4.599  14.650 -0.4218  0.4295 -0.8287
  722MPD2     C10721   1.061   3.288  13.183  0.9381  0.3072  0.2648
  722MPD2    C110722   1.020   3.421  13.158 -0.6432 -0.2426  0.5708
  722MPD2    C210723   0.891   3.450  13.114 -0.1465  0.3651 -0.2304
  722MPD2    C310724   0.799   3.349  13.084  0.2708  0.1047 -0.2115
  722MPD2    C410725   0.842   3.225  13.105  0.2401 -0.2307  0.2681
  722MPD2    C510726   0.969   3.194  13.155 -0.6484 -0.3490  0.0991
  722MPD2     H10727   0.863   3.552  13.091 -1.7940 -0.1333 -0.4749
  722MPD2    H110728   0.778   3.138  13.095 -1.6675  1.6163 -3.7365
  722MPD2    H210729   1.156   3.255  13.223  0.5081 -3.5823 -1.9324
  722MPD2    H310730   0.986   3.089  13.173  0.2436 -0.6821 -2.6966
  722MPD2     N10731   0.665   3.383  13.053 -0.0736  0.1003 -0.0120
  722MPD2    H510732   0.639   3.481  13.052 -0.2698  0.0648  2.0109
  722MPD2    N110733   1.112   3.530  13.185  0.0140  0.3840 -0.2187
  722MPD2    H710734   1.079   3.620  13.152 -0.7588  0.9221  2.0265
  723TMC3    C110735   0.437   3.342  13.002  0.6887 -0.4007 -0.5649
  723TMC3    C210736   0.332   3.268  13.058  0.0124  0.1395 -0.3382
  723TMC3    C310737   0.212   3.323  13.090 -0.0299 -0.1034 -0.4326
  723TMC3    C410738   0.413   3.468  12.973 -0.3337 -0.9576 -0.1349
  723TMC3    C510739   0.295   3.528  13.020 -0.8019 -0.3529  0.2641
  723TMC3    C610740   0.185   3.458  13.072 -0.2046 -0.2085  0.3327
  723TMC3     C10741   0.568   3.293  13.024  0.3016 -0.1057 -0.1564
  723TMC3     O10742   0.579   3.171  13.031  0.1480  0.0758  0.6516
  723TMC3     H10743   0.355   3.162  13.060  1.5204  0.4730  0.3209
  723TMC3    H110744   0.483   3.533  12.921  0.2966 -0.5932  1.1885
  723TMC3    H210745   0.095   3.512  13.101  1.1280  0.6249  2.9015
  723TMC3    C710746   0.263   3.658  12.970 -0.4171 -0.4863  0.5921
  723TMC3    C810747   0.097   3.231  13.100 -0.0368  0.5169  0.1831
  723TMC3    O110748   0.306   3.691  12.860 -0.5112  0.7728  0.0740
  723TMC3    O210749   4.728   3.284  13.118 -0.0323 -0.2668 -0.3913
  724TMC3    C110750   0.994   0.817  10.190  0.0393  0.2004 -0.2366
  724TMC3    C210751   0.913   0.875  10.089 -0.3861  0.5857 -0.1513
  724TMC3    C310752   0.891   1.009  10.086 -0.4210 -0.0050  0.2346
  724TMC3    C410753   1.046   0.892  10.297  0.2622  0.1342 -0.9251
  724TMC3    C510754   1.025   1.023  10.297 -0.3593  1.1170  0.1988
  724TMC3    C610755   0.951   1.080  10.190 -0.9655 -0.5711  0.6675
  724TMC3     C10756   1.008   0.668  10.210  0.3458 -0.4229 -1.2139
  724TMC3     O10757   1.080   0.638  10.304 -0.6566 -0.6610 -0.1980
  724TMC3     H10758   0.903   0.820   9.997 -0.7615  1.9373 -0.9142
  724TMC3    H110759   1.108   0.840  10.370  1.2997 -0.8374 -2.4978
  724TMC3    H210760   0.944   1.189  10.189 -2.2333 -0.6385  1.8379
  724TMC3    C710761   1.106   1.108  10.396  0.0132  0.3352 -0.1131
  724TMC3    C810762   0.876   1.070   9.957 -0.4526 -0.4021 -0.3099
  724TMC3    O110763   1.077   1.229  10.389 -0.5370  0.3251  0.8616
  724TMC3    O210764   0.838   1.000   9.860 -0.2307 -0.5555  0.6234
  725TMC3    C110765   2.717   0.337  12.975  0.5116  0.0610 -0.2008
  725TMC3    C210766   2.675   0.346  12.847 -0.3665  0.7027 -0.4717
  725TMC3    C310767   2.566   0.275  12.817  0.3723  0.0459  0.1674
  725TMC3    C410768   2.671   0.248  13.064  0.3110 -0.4763  0.1936
  725TMC3    C510769   2.577   0.158  13.018  0.3308 -0.7134 -0.0505
  725TMC3    C610770   2.510   0.181  12.901  0.3540  0.7706 -0.1561
  725TMC3     C10771   2.798   0.444  13.012 -0.2477 -0.1161 -0.1152
  725TMC3     O10772   2.782   0.551  12.962  0.4155 -0.0656 -0.1568
  725TMC3     H10773   2.708   0.429  12.786 -1.7690 -1.4974 -4.2125
  725TMC3    H110774   2.710   0.242  13.165  1.1554  0.5853 -0.0712
  725TMC3    H210775   2.441   0.113  12.852  3.5270 -2.6396  0.1512
  725TMC3    C710776   2.614   0.024  13.062 -0.6382  0.0102  0.0256
  725TMC3    C810777   2.482   0.308  12.710 -0.7336  0.5598 -0.1095
  725TMC3    O110778   2.730   0.017  13.103  0.2732  0.0316  0.5943
  725TMC3    O210779   2.386   0.235  12.685  0.0136 -0.2247 -0.1064
  726MPD2     C10780   1.058   2.075  11.007 -0.1368  0.3152  0.2671
  726MPD2    C110781   0.991   2.117  10.891  0.2970  0.0046  0.5164
  726MPD2    C210782   0.870   2.054  10.857  0.3020  0.5117 -0.1387
  726MPD2    C310783   0.842   1.933  10.919  0.2863  0.1459 -0.0787
  726MPD2    C410784   0.921   1.883  11.021  0.4314 -0.1251  0.2834
  726MPD2    C510785   1.020   1.955  11.078  0.0288 -0.6963 -0.2014
  726MPD2     H10786   0.807   2.099  10.782  1.9262  0.0302 -1.7771
  726MPD2    H110787   0.900   1.792  11.077 -1.5869  0.9344  1.2338
  726MPD2    H210788   1.147   2.124  11.043  1.3135 -1.0652 -1.4241
  726MPD2    H310789   1.063   1.920  11.171  1.3877  3.7409  0.8009
  726MPD2     N10790   0.724   1.858  10.891 -0.8399  0.2539  0.1677
  726MPD2    H510791   0.711   1.768  10.935  1.5664  0.2389  0.8724
  726MPD2    N110792   1.025   2.239  10.828 -0.2994  0.1497  0.5767
  726MPD2    H710793   0.978   2.260  10.740  3.2210  1.3269 -1.0144
  727TMC3    C110794   1.099   2.457  10.796 -0.9706 -0.9686  0.8701
  727TMC3    C210795   1.199   2.544  10.799 -0.4576  0.7105  0.2576
  727TMC3    C310796   1.186   2.664  10.752  0.8069  0.5142 -0.4900
  727TMC3    C410797   0.978   2.487  10.747  0.7780 -0.3577  0.5127
  727TMC3    C510798   0.959   2.621  10.715  0.2987  0.2360 -0.3467
  727TMC3    C610799   1.059   2.712  10.723 -0.2212 -0.4058 -0.5526
  727TMC3     C10800   1.107   2.336  10.876  0.0382  0.2985 -0.3971
  727TMC3     O10801   1.182   2.334  10.975  0.3500  0.0888 -0.7218
  727TMC3     H10802   1.291   2.513  10.846 -0.5791  0.4470  0.3191
  727TMC3    H110803   0.898   2.414  10.734 -0.6981  1.4199 -0.4015
  727TMC3    H210804   1.048   2.818  10.703 -0.2894 -0.0091  1.5965
  727TMC3    C710805   0.837   2.666  10.653 -0.3817 -0.5626  0.2962
  727TMC3    C810806   1.263   2.748  10.837 -0.3203 -0.8295  0.2062
  727TMC3    O110807   0.754   2.582  10.634 -0.1166  0.2238 -0.0457
  727TMC3    O210808   1.385   2.722  10.840  0.0661 -0.2712  0.0630
  728TMC3    C110809   4.552   0.296  14.876  0.6091  0.6555  0.9582
  728TMC3    C210810   4.665   0.279  14.792  0.1044  0.4174 -0.3678
  728TMC3    C310811   4.648   0.304  14.659  0.4414 -0.2211 -0.0044
  728TMC3    C410812   4.426   0.336  14.828  0.0115 -0.7148  0.3299
  728TMC3    C510813   4.418   0.366  14.693  0.3844 -0.8489  0.4292
  728TMC3    C610814   4.524   0.341  14.610 -0.5964  0.1028  0.4570
  728TMC3     C10815   4.577   0.325  15.016  0.5055  0.5299 -0.2519
  728TMC3     O10816   4.693   0.348  15.036 -0.0536  0.3374  0.3422
  728TMC3     H10817   0.019   0.251  14.838 -0.0804 -1.7803 -1.3456
  728TMC3    H110818   4.350   0.362  14.900 -0.3036 -1.5015  0.2817
  728TMC3    H210819   4.511   0.346  14.502  2.7348 -0.7798  0.0209
  728TMC3    C710820   4.298   0.445  14.647  0.1875  0.4748  0.8968
  728TMC3    C810821   0.020   0.322  14.574  0.3682 -0.0869 -0.0132
  728TMC3    O110822   4.194   0.443  14.707 -0.6026 -0.0600  0.0468
  728TMC3    O210823   4.739   0.303  14.457 -0.1326 -0.3806 -0.6631
  729MPD2     C10824   2.134   1.158  16.245  0.8956 -0.0684  0.5355
  729MPD2    C110825   2.159   1.292  16.263  0.1340  0.0142 -0.7936
  729MPD2    C210826   2.179   1.333  16.397  0.5474 -0.6055  0.2534
  729MPD2    C310827   2.138   1.258  16.500 -0.1344  0.5439  0.1943
  729MPD2    C410828   2.087   1.136  16.472 -0.3148  0.0247  0.1721
  729MPD2    C510829   2.098   1.073  16.349 -0.3103  0.0247  0.4450
  729MPD2     H10830   2.224   1.430  16.414  1.1037 -0.7865 -0.1701
  729MPD2    H110831   2.046   1.082  16.557  0.0431 -1.1351 -0.3945
  729MPD2    H210832   2.139   1.117  16.145 -0.3079  0.0060  0.4457
  729MPD2    H310833   2.080   0.967  16.334 -0.6029  0.3429 -1.4795
  729MPD2     N10834   2.150   1.291  16.632  0.3773  0.1115  0.9096
  729MPD2    H510835   2.101   1.238  16.704  0.5465 -1.1953  0.0629
  729MPD2    N110836   2.181   1.372  16.149  0.9554 -0.7527  0.0529
  729MPD2    H710837   2.171   1.319  16.063  0.6210  0.4254 -0.6274
  730TMC3    C110838   2.231   1.451  16.784 -0.2438 -0.3704 -0.1123
  730TMC3    C210839   2.332   1.473  16.874 -0.3744 -0.2830 -0.6901
  730TMC3    C310840   2.296   1.532  16.995 -0.9456  0.2620 -0.2751
  730TMC3    C410841   2.106   1.494  16.807 -0.1857 -0.6605 -0.0384
  730TMC3    C510842   2.075   1.548  16.925 -0.1955 -0.1328  0.0559
  730TMC3    C610843   2.167   1.566  17.026  0.7251 -0.0371 -1.0285
  730TMC3     C10844   2.261   1.366  16.670  0.7810  0.5090 -0.4835
  730TMC3     O10845   2.370   1.382  16.616 -0.0393  0.4221 -0.1484
  730TMC3     H10846   2.436   1.451  16.851  0.1066 -1.3968  2.5462
  730TMC3    H110847   2.039   1.477  16.723  0.6239 -2.1225 -0.3850
  730TMC3    H210848   2.147   1.626  17.114 -1.0272 -0.1507 -1.3350
  730TMC3    C710849   1.992   1.665  16.923  0.4767 -0.1815  0.3870
  730TMC3    C810850   2.382   1.636  17.049  0.2008  0.3896 -0.0692
  730TMC3    O110851   1.968   1.710  16.809  0.3109  0.5677 -0.7203
  730TMC3    O210852   2.446   1.590  17.141  0.0725  0.6081 -0.2355
  731MPD2     C10853   2.115   3.844  12.361 -0.6793 -0.0221 -0.0284
  731MPD2    C110854   2.248   3.826  12.394  0.1411  0.1495  0.1302
  731MPD2    C210855   2.283   3.831  12.529  0.3047  0.3053  0.1680
  731MPD2    C310856   2.183   3.848  12.626  0.1543  0.1838 -0.2138
  731MPD2    C410857   2.053   3.856  12.588  0.2006 -0.3549 -1.1053
  731MPD2    C510858   2.021   3.860  12.459  0.1151  0.1360  0.1248
  731MPD2     H10859   2.389   3.831  12.553  0.0401 -2.7854  1.4480
  731MPD2    H110860   1.970   3.860  12.658  1.3364 -2.1402  0.3480
  731MPD2    H210861   2.073   3.841  12.261 -0.2720  0.8158 -0.2218
  731MPD2    H310862   1.918   3.863  12.428  0.4813  0.6838 -1.0504
  731MPD2     N10863   2.222   3.867  12.761  0.6897 -0.1055  0.3990
  731MPD2    H510864   2.321   3.882  12.780  1.0523 -1.7235 -0.2262
  731MPD2    N110865   2.347   3.812  12.291 -0.3496 -0.2257  0.0520
  731MPD2    H710866   2.317   3.848  12.201 -0.4197  3.4883  1.5600
  732TMC3    C110867   2.555   3.780  12.188  0.1993 -0.5024 -0.5273
  732TMC3    C210868   2.513   3.858  12.080  0.3851  0.0296 -0.3706
  732TMC3    C310869   2.593   3.852  11.964 -0.5176 -0.3753 -0.2949
  732TMC3    C410870   2.676   3.707  12.184  0.1482  0.0321 -0.1464
  732TMC3    C510871   2.749   3.707  12.065  0.4012 -0.1366 -0.1705
  732TMC3    C610872   2.708   3.775  11.957 -0.3719  0.2002  0.8487
  732TMC3     C10873   2.479   3.771  12.316 -0.2664 -0.6660  0.2212
  732TMC3     O10874   2.523   3.706  12.408 -0.1845  0.0376 -0.4956
  732TMC3     H10875   2.418   3.909  12.078  1.0905  1.3898  1.7414
  732TMC3    H110876   2.715   3.650  12.267 -0.7826 -0.0288  0.2532
  732TMC3    H210877   2.776   3.777  11.873  0.2159  0.3981  1.3321
  732TMC3    C710878   2.891   3.716  12.075 -0.3456  0.2509 -0.3475
  732TMC3    C810879   2.562   3.927  11.844  0.2512 -0.1127  0.2474
  732TMC3    O110880   2.962   3.732  11.975  0.0754  0.3890  0.6267
  732TMC3    O210881   2.630   3.899  11.749 -0.0256  0.4407 -0.1868
  733TMC3    C110882   3.266   2.682  13.368  0.6840 -0.5455  0.1218
  733TMC3    C210883   3.322   2.798  13.349 -0.6893  0.6279 -0.9205
  733TMC3    C310884   3.321   2.859  13.232 -0.5577 -0.1041 -0.6975
  733TMC3    C410885   3.202   2.623  13.269 -0.4255 -0.1940  0.4742
  733TMC3    C510886   3.203   2.683  13.146  0.2733 -0.1543 -1.0458
  733TMC3    C610887   3.271   2.797  13.123 -0.8870 -0.5920  0.2356
  733TMC3     C10888   3.186   2.683  13.491 -0.0421 -0.0583 -0.9441
  733TMC3     O10889   3.135   2.792  13.509  0.0951  0.6130 -1.0029
  733TMC3     H10890   3.359   2.853  13.435  3.1629 -3.0596 -0.1909
  733TMC3    H110891   3.125   2.550  13.292  0.0087 -0.6520  0.4792
  733TMC3    H210892   3.295   2.825  13.021  1.0532 -0.0602  0.8522
  733TMC3    C710893   3.100   2.643  13.048  0.4127 -0.1053 -0.3761
  733TMC3    C810894   3.402   2.969  13.220  1.0099 -0.1799  0.1093
  733TMC3    O110895   3.014   2.567  13.089  0.5309 -0.1153  0.0299
  733TMC3    O210896   3.483   3.001  13.307  0.1341 -0.5635 -0.1823
  734MPD2     C10897   0.485   0.560  12.804 -0.4117  0.0789  0.2432
  734MPD2    C110898   0.389   0.483  12.746 -0.1522 -0.6823 -0.0017
  734MPD2    C210899   0.390   0.481  12.605  0.5355 -0.4753 -0.0317
  734MPD2    C310900   0.492   0.553  12.533 -1.0272 -0.4456 -0.3762
  734MPD2    C410901   0.588   0.622  12.599  0.2913 -0.3460 -0.0326
  734MPD2    C510902   0.584   0.633  12.740 -0.7369  0.1470  0.0887
  734MPD2     H10903   0.307   0.441  12.548  0.2662  0.4674 -0.3028
  734MPD2    H110904   0.653   0.682  12.538 -0.2097 -0.1750 -0.4011
  734MPD2    H210905   0.488   0.552  12.912 -0.7346  0.0544  0.2484
  734MPD2    H310906   0.664   0.680  12.795 -0.2821  0.6900 -1.0295
  734MPD2     N10907   0.489   0.524  12.390 -0.2002 -0.2402  0.5061
  734MPD2    H510908   0.419   0.457  12.361  0.4318 -0.1720 -1.2048
  734MPD2    N110909   0.296   0.414  12.827  0.1191 -0.0412  0.3625
  734MPD2    H710910   0.310   0.418  12.927  3.9500  2.1939 -0.2668
  735TMC3    C110911   0.143   0.233  12.876  0.3137 -0.0421 -0.7210
  735TMC3    C210912   0.039   0.163  12.823  0.1754 -1.1292  0.2725
  735TMC3    C310913   0.039   0.028  12.818  0.0082 -0.4701  0.5028
  735TMC3    C410914   0.237   0.161  12.938 -0.4285  0.0347 -0.5965
  735TMC3    C510915   0.245   0.024  12.934 -0.2839 -0.1346 -0.4189
  735TMC3    C610916   0.135   4.693  12.884  0.0542  0.4198 -0.2682
  735TMC3     C10917   0.198   0.332  12.783  0.3989 -0.7336 -0.1677
  735TMC3     O10918   0.154   0.313  12.671  0.7293 -0.0972  0.0184
  735TMC3     H10919   4.696   0.214  12.776  0.8364  1.0404  1.4596
  735TMC3    H110920   0.328   0.215  12.961 -0.7770  1.7854 -3.2655
  735TMC3    H210921   0.151   4.589  12.856  0.1948 -0.0821  1.6630
  735TMC3    C710922   0.374   4.715  12.884  0.0192 -0.2375 -0.0324
  735TMC3    C810923   0.009   4.707  12.693 -0.3592  0.5298  0.3785
  735TMC3    O110924   0.449   0.061  12.844  0.0397 -0.1701  0.2598
  735TMC3    O210925   4.721   4.589  12.696  0.3619  0.1102 -0.1414
  736MPD2     C10926   0.550   4.394  12.926  0.4953 -0.6455 -0.4678
  736MPD2    C110927   0.523   4.517  12.867  0.5083  0.4213 -0.3838
  736MPD2    C210928   0.617   4.566  12.780  0.1297 -0.7431  0.2094
  736MPD2    C310929   0.732   4.498  12.745 -0.1026 -0.4464 -0.5225
  736MPD2    C410930   0.756   4.378  12.800 -0.0234  0.2283  0.2602
  736MPD2    C510931   0.666   4.330  12.890  0.2581 -0.2316 -0.0897
  736MPD2     H10932   0.609   4.666  12.737  1.5504 -0.8337 -0.2647
  736MPD2    H110933   0.852   4.331  12.781  0.3716  0.9165  0.5724
  736MPD2    H210934   0.480   4.340  12.989  0.7894  1.3933  1.5862
  736MPD2    H310935   0.678   4.225  12.914  1.5713 -0.0678 -0.0235
  736MPD2     N10936   0.828   4.560  12.661 -0.0475 -0.7414  0.1412
  736MPD2    H510937   0.897   4.497  12.620  1.1930  1.5856 -1.3539
  736MPD2    N110938   0.408   4.581  12.906 -0.1092 -0.3509 -0.7983
  736MPD2    H710939   0.339   4.540  12.968 -1.1209  3.3245  0.4950
  737TMC3    C110940   0.927   4.721  12.516  0.7848 -0.4694  0.3405
  737TMC3    C210941   0.916   0.111  12.467  0.1503 -0.2223  0.4066
  737TMC3    C310942   0.957   0.133  12.338 -0.3894 -0.1009  0.5436
  737TMC3    C410943   1.000   4.625  12.448  0.0728  0.0914 -0.1957
  737TMC3    C510944   1.050   4.655  12.323 -0.3265 -0.2494 -0.1403
  737TMC3    C610945   1.028   0.039  12.265 -0.1780  0.3616  0.4844
  737TMC3     C10946   0.829   4.686  12.612 -0.0038 -0.9364  0.5136
  737TMC3     O10947   0.757   0.045  12.650 -0.5343 -0.1875 -0.0832
  737TMC3     H10948   0.868   0.190  12.523  1.2631 -0.8135  2.2043
  737TMC3    H110949   1.046   4.542  12.500 -2.6259 -0.8647  0.6866
  737TMC3    H210950   1.060   0.061  12.163  0.7844 -1.2849  0.4330
  737TMC3    C710951   1.122   4.545  12.252  0.1891 -0.0354  0.3903
  737TMC3    C810952   0.934   0.259  12.281 -0.2899  0.0776  0.0813
  737TMC3    O110953   1.106   4.436  12.309 -0.3516  0.3378 -0.4636
  737TMC3    O210954   0.923   0.352  12.363  0.1165  0.4486 -0.0080
  738MPD2     C10955   1.130   3.764  15.373  0.4669 -0.4802 -0.6454
  738MPD2    C110956   1.134   3.710  15.247 -0.4279 -0.2146  0.3295
  738MPD2    C210957   1.220   3.760  15.150 -0.2807  0.4063  0.3822
  738MPD2    C310958   1.310   3.863  15.177  0.0558  1.0696 -0.5622
  738MPD2    C410959   1.291   3.927  15.297 -0.0701 -0.5816  0.1341
  738MPD2    C510960   1.202   3.881  15.393 -0.0508 -0.3431  0.6174
  738MPD2     H10961   1.229   3.719  15.050 -0.3473  0.5546  0.3165
  738MPD2    H110962   1.358   4.005  15.333  0.0282 -0.3687 -0.5141
  738MPD2    H210963   1.061   3.727  15.448  1.1466  0.6473  0.5343
  738MPD2    H310964   1.196   3.928  15.490  0.8322 -0.9801  0.9852
  738MPD2     N10965   1.411   3.908  15.087  0.1522 -0.1452  0.0502
  738MPD2    H510966   1.461   3.992  15.114 -0.9749  0.3987  0.4766
  738MPD2    N110967   1.056   3.592  15.214  0.2117  0.0054  0.3029
  738MPD2    H710968   1.082   3.561  15.121 -1.9792  1.1941 -0.7068
  739TMC3    C110969   1.547   3.932  14.898  0.4718  0.1934 -0.2409
  739TMC3    C210970   1.533   3.925  14.764 -0.6782  0.1270 -0.8942
  739TMC3    C310971   1.570   4.039  14.699  0.3527 -0.2722 -0.4138
  739TMC3    C410972   1.629   4.029  14.966 -0.6162  0.0509  0.5541
  739TMC3    C510973   1.677   4.131  14.896 -0.7671 -0.6095  0.2074
  739TMC3    C610974   1.638   4.139  14.765 -0.0918 -0.0691  0.1773
  739TMC3     C10975   1.458   3.841  14.974  0.3012 -0.3039  0.8800
  739TMC3     O10976   1.416   3.744  14.912 -0.3447 -0.1069  0.2208
  739TMC3     H10977   1.473   3.844  14.724  1.2755 -0.9324 -1.7245
  739TMC3    H110978   1.648   4.017  15.072  0.3750 -3.9692 -0.0593
  739TMC3    H210979   1.685   4.218  14.707 -0.7239  1.7231  2.0773
  739TMC3    C710980   1.773   4.217  14.949  0.4039 -0.1836  0.1073
  739TMC3    C810981   1.583   4.017  14.553 -0.1692 -0.2538  0.3603
  739TMC3    O110982   1.822   4.185  15.055 -0.1990 -1.1195  0.7225
  739TMC3    O210983   1.517   3.927  14.501 -0.1069 -0.3905  0.1281
  740TMC3    C110984   1.966   0.447  14.619  0.2913  0.5480 -0.6439
  740TMC3    C210985   1.983   0.363  14.727 -0.3710  0.0170 -0.3057
  740TMC3    C310986   2.116   0.325  14.742  0.8413  0.4246 -0.0942
  740TMC3    C410987   2.063   0.476  14.529  0.2982 -0.2561  0.0996
  740TMC3    C510988   2.185   0.435  14.551 -0.1579 -0.3524  0.2776
  740TMC3    C610989   2.219   0.351  14.654 -0.1509 -0.5102  0.4965
  740TMC3     C10990   1.840   0.506  14.596  0.4883  0.1365 -0.3990
  740TMC3     O10991   1.846   0.595  14.514  0.4150 -0.1174  0.2134
  740TMC3     H10992   1.912   0.344  14.806  0.8884  2.1869  1.3526
  740TMC3    H110993   2.047   0.553  14.454 -0.3175 -1.5613 -1.1159
  740TMC3    H210994   2.325   0.338  14.671  0.0662  1.0901  0.4136
  740TMC3    C710995   2.274   0.412  14.438  0.1578  0.1938 -0.5748
  740TMC3    C810996   2.145   0.278  14.876  0.7144  0.5857  0.1243
  740TMC3    O110997   2.394   0.384  14.446  0.0382 -0.1089  0.7831
  740TMC3    O210998   2.062   0.279  14.959  0.4049  0.0260 -0.2908
  741TMC3    C110999   1.339   4.474  14.147  0.4387 -0.4463  0.2795
  741TMC3    C211000   1.264   4.388  14.069 -0.2709  0.3642 -0.2891
  741TMC3    C311001   1.224   4.275  14.134 -0.5028 -0.5483 -0.0621
  741TMC3    C411002   1.375   4.443  14.275 -0.3867  0.0100 -0.0783
  741TMC3    C511003   1.344   4.321  14.330  0.1459  0.0093 -0.1074
  741TMC3    C611004   1.253   4.241  14.262  0.1212  0.1939  0.0970
  741TMC3     C11005   1.346   4.613  14.100 -0.0857  0.7599 -0.1316
  741TMC3     O11006   1.416   4.690  14.165 -0.6607 -0.1507 -0.0868
  741TMC3     H11007   1.230   4.396  13.966  1.8582  0.4278 -0.9728
  741TMC3    H111008   1.432   4.520  14.326 -0.9778  0.5093 -0.1745
  741TMC3    H211009   1.202   4.157  14.310 -1.4028  1.4904  0.7449
  741TMC3    C711010   1.364   4.313  14.469  0.0604  0.7165  0.6067
  741TMC3    C811011   1.112   4.210  14.078  0.2997 -0.3708  0.0037
  741TMC3    O111012   1.437   4.398  14.518 -0.6057  0.4865  0.2367
  741TMC3    O211013   1.035   4.282  14.015 -0.0925 -0.1213  0.0754
  742TMC3    C111014   1.643   3.085  15.241  0.2139 -0.4744  0.6471
  742TMC3    C211015   1.562   3.118  15.135 -0.3126 -0.1789 -0.6368
  742TMC3    C311016   1.624   3.145  15.013 -0.1997  0.2254  0.3487
  742TMC3    C411017   1.778   3.064  15.226  0.7901  0.7227  0.3186
  742TMC3    C511018   1.827   3.079  15.101 -0.9026  0.8141 -0.3923
  742TMC3    C611019   1.755   3.134  14.991  0.0287  0.7762 -0.5056
  742TMC3     C11020   1.580   3.025  15.357 -0.4637  0.2442  0.3719
  742TMC3     O11021   1.643   3.012  15.460  0.2741 -0.6671 -0.2408
  742TMC3     H11022   1.464   3.162  15.153 -0.2834 -0.6386  0.6490
  742TMC3    H111023   1.834   3.007  15.299  1.5300  1.4530  0.3231
  742TMC3    H211024   1.806   3.158  14.898 -0.8619 -0.4315 -1.3102
  742TMC3    C711025   1.976   3.080  15.086 -0.0276  0.7521 -0.7176
  742TMC3    C811026   1.536   3.160  14.901  0.1061  0.7210  0.2366
  742TMC3    O111027   2.017   3.054  14.975 -0.1305  0.0669 -0.2382
  742TMC3    O211028   1.419   3.148  14.937 -0.0018 -0.9284 -0.0921
  743MPD2     C11029   0.129   3.288   1.218 -0.6311  0.4435 -0.2562
  743MPD2    C111030   0.094   3.356   1.102 -0.2572  0.0051 -0.1806
  743MPD2    C211031   0.171   3.458   1.047 -0.1958  0.0367  0.6013
  743MPD2    C311032   0.287   3.493   1.118  0.3315  0.2521  0.3728
  743MPD2    C411033   0.321   3.426   1.232 -0.2654  0.1158 -0.6943
  743MPD2    C511034   0.254   3.315   1.275 -0.5739  0.1420  0.2272
  743MPD2     H11035   0.134   3.519   0.965 -0.6408 -1.2301 -0.1452
  743MPD2    H111036   0.402   3.460   1.295 -0.1489  0.2209 -0.8995
  743MPD2    H211037   0.077   3.199   1.252  0.9104 -0.2358  0.3432
  743MPD2    H311038   0.288   3.263   1.364 -1.9518  0.8278  1.1594
  743MPD2     N11039   0.345   3.614   1.076 -0.1741 -0.2801  0.4398
  743MPD2    H511040   0.291   3.668   1.010 -0.7876 -3.0297 -1.2766
  743MPD2    N111041   4.709   3.335   1.042  0.2587 -0.4171 -0.0798
  743MPD2    H711042   4.701   3.364   0.945  0.9491 -1.7193 -0.5216
  744TMC3    C111043   4.482   3.265   1.021  0.4193 -0.2898  0.3843
  744TMC3    C211044   4.363   3.241   1.088  0.2560  0.1270  0.0476
  744TMC3    C311045   4.248   3.278   1.024 -0.3649  0.1681  0.8468
  744TMC3    C411046   4.477   3.311   0.893  0.0932  0.1708 -0.1150
  744TMC3    C511047   4.360   3.357   0.837  0.2998 -0.0555  0.2928
  744TMC3    C611048   4.242   3.346   0.904  1.1813 -0.3847 -0.0069
  744TMC3     C11049   4.606   3.263   1.099 -0.0287 -0.1463  0.7493
  744TMC3     O11050   4.598   3.224   1.213  0.4423 -0.0043 -0.0882
  744TMC3     H11051   4.361   3.200   1.188 -1.6676  3.9525  1.5537
  744TMC3    H111052   4.563   3.309   0.826  1.3222  1.6112  1.4155
  744TMC3    H211053   4.157   3.380   0.847  1.0266  0.7343  0.8858
  744TMC3    C711054   4.363   3.446   0.722 -0.1958  0.3024 -0.8462
  744TMC3    C811055   4.127   3.275   1.096 -1.0975  0.3259  1.1549
  744TMC3    O111056   4.446   3.536   0.729  0.3893 -0.3753  0.0976
  744TMC3    O211057   4.060   3.169   1.106  0.1067 -0.4054 -0.5603
  745TMC3    C111058   1.926   2.399  14.028 -0.0447 -0.0165 -0.4487
  745TMC3    C211059   1.843   2.436  14.130 -0.4603  0.1204  0.0440
  745TMC3    C311060   1.716   2.492  14.107  0.2015 -0.9956 -0.4380
  745TMC3    C411061   1.884   2.431  13.905 -0.4757  0.2935  0.4599
  745TMC3    C511062   1.753   2.474  13.887  0.1467 -0.1226  0.0635
  745TMC3    C611063   1.662   2.502  13.989  0.1149  0.8485  0.2892
  745TMC3     C11064   2.065   2.426  14.063 -0.0312  0.0109  0.4798
  745TMC3     O11065   2.106   2.364  14.156  0.2487  0.2344  0.5287
  745TMC3     H11066   1.872   2.430  14.234  1.9895  0.0451 -0.6376
  745TMC3    H111067   1.953   2.421  13.822 -3.3855  0.3451 -1.9690
  745TMC3    H211068   1.561   2.541  13.977 -1.3548 -2.0346  3.1974
  745TMC3    C711069   1.706   2.519  13.755 -0.7286 -0.6464  0.1736
  745TMC3    C811070   1.676   2.589  14.203  0.3921  0.6347  0.2621
  745TMC3    O111071   1.586   2.546  13.740 -0.3087  0.0971  0.1320
  745TMC3    O211072   1.557   2.588  14.238  0.2439 -0.3493 -0.4154
  746TMC3    C111073   4.333   4.232  11.013  0.7349 -0.2676  0.4111
  746TMC3    C211074   4.357   4.249  10.874 -0.4335  0.1457  0.3851
  746TMC3    C311075   4.273   4.194  10.779  0.1607  0.0351 -0.0276
  746TMC3    C411076   4.231   4.154  11.053  0.1179 -0.2733  0.4786
  746TMC3    C511077   4.144   4.104  10.952 -0.0969 -0.0018  0.3616
  746TMC3    C611078   4.158   4.135  10.823  0.0853 -1.0408  0.3736
  746TMC3     C11079   4.351   4.349  11.088  0.2480  0.4682  0.1851
  746TMC3     O11080   4.318   4.335  11.203  0.6773  0.1338 -0.2231
  746TMC3     H11081   4.452   4.291  10.842 -0.8006 -0.9855 -2.1771
  746TMC3    H111082   4.209   4.138  11.158  2.1517  1.6605  1.1903
  746TMC3    H211083   4.100   4.076  10.753 -0.6155  0.1740 -0.0621
  746TMC3    C711084   4.017   4.055  10.999 -0.4784 -0.2353  0.2988
  746TMC3    C811085   4.282   4.269  10.649 -0.2553 -0.3899  0.1615
  746TMC3    O111086   3.922   4.078  10.926  0.2501 -0.1382 -0.2855
  746TMC3    O211087   4.392   4.319  10.618  0.8524  0.2902  0.5779
  747TMC3    C111088   1.619   4.622  11.281  0.3660  0.7112 -0.2559
  747TMC3    C211089   1.529   4.551  11.358 -0.2986  0.2313  0.0006
  747TMC3    C311090   1.495   4.586  11.484 -0.0402  0.6683  0.3683
  747TMC3    C411091   1.672   4.736  11.331 -0.5044  0.7587  0.3374
  747TMC3    C511092   1.627   0.033  11.455 -0.3838  0.4926  0.3759
  747TMC3    C611093   1.542   4.705  11.534 -0.5075  0.1682 -0.2975
  747TMC3     C11094   1.593   4.617  11.141 -0.5943 -0.0713  0.1989
  747TMC3     O11095   1.595   4.721  11.080  0.2294 -0.3922 -0.4854
  747TMC3     H11096   1.481   4.464  11.314  2.0290 -0.7262 -0.6183
  747TMC3    H111097   1.731   0.066  11.273 -0.6839 -0.5841 -1.4644
  747TMC3    H211098   1.519   0.001  11.633  1.3240  1.0222 -0.1837
  747TMC3    C711099   1.717   0.124  11.522  0.2258 -0.4185 -0.5139
  747TMC3    C811100   1.430   4.486  11.573  0.9816 -0.5547 -0.3569
  747TMC3    O111101   1.665   0.184  11.612 -0.1028  0.3862  0.2594
  747TMC3    O211102   1.401   4.374  11.534 -0.7548  0.4326  0.3264
  748MPD2     C11103   4.265   4.579   1.857  0.1898  0.3394  0.2108
  748MPD2    C111104   4.396   4.570   1.799  0.3877  0.3707  1.4956
  748MPD2    C211105   4.452   4.676   1.725 -0.3347  0.3963 -0.8679
  748MPD2    C311106   4.373   0.043   1.710  0.0733 -0.7370 -0.2481
  748MPD2    C411107   4.257   0.060   1.779  0.0206  0.5523  0.4008
  748MPD2    C511108   4.198   4.694   1.841 -0.5388 -0.4782  0.2440
  748MPD2     H11109   4.545   4.685   1.669  0.0262 -2.1136 -0.6940
  748MPD2    H111110   4.197   0.149   1.766  0.2698  0.5103 -1.0490
  748MPD2    H211111   4.211   4.495   1.900  1.6287  0.5829  2.5080
  748MPD2    H311112   4.102   4.721   1.883  0.4277 -0.4671  2.4220
  748MPD2     N11113   4.427   0.150   1.638 -0.0489  0.5028  0.2093
  748MPD2    H511114   4.525   0.134   1.615 -0.5167 -1.1656 -0.5986
  748MPD2    N111115   4.455   4.440   1.805 -0.3903 -0.5213 -0.8206
  748MPD2    H711116   4.408   4.364   1.853 -0.0432  1.7885  3.2089
  749TMC3    C111117   4.435   0.335   1.498 -0.1896 -0.3136 -0.5701
  749TMC3    C211118   4.556   0.367   1.559  0.0401 -0.0775  0.1046
  749TMC3    C311119   4.649   0.436   1.481 -0.1295  0.0852 -0.7085
  749TMC3    C411120   4.412   0.354   1.365  0.0964 -0.1553 -0.3830
  749TMC3    C511121   4.509   0.415   1.293  0.0422  0.3497  0.3615
  749TMC3    C611122   4.628   0.461   1.351  0.5182 -0.2937  0.3843
  749TMC3     C11123   4.352   0.249   1.574  0.3227  1.1310 -0.1180
  749TMC3     O11124   4.229   0.260   1.565  0.1744 -0.1435  0.3854
  749TMC3     H11125   4.573   0.360   1.665  0.3871  1.8696  0.1820
  749TMC3    H111126   4.310   0.346   1.328 -0.3181  0.7235  0.5478
  749TMC3    H211127   4.698   0.525   1.299 -3.0760  1.9432 -1.6499
  749TMC3    C711128   4.469   0.488   1.176 -0.7084 -0.1806 -0.6567
  749TMC3    C811129   0.040   0.419   1.528  0.8160 -0.2781  0.5641
  749TMC3    O111130   4.534   0.588   1.158  0.3009 -0.6642 -0.7487
  749TMC3    O211131   0.054   0.423   1.649  0.3741  0.1343  0.3791
  750MPD2     C11132   4.143   1.976  11.237  0.2901  0.0361  0.5511
  750MPD2    C111133   4.087   1.862  11.187 -0.7297  0.2076  0.1415
  750MPD2    C211134   4.170   1.767  11.127  0.1716  0.4049  0.7373
  750MPD2    C311135   4.314   1.779  11.130 -0.3002 -0.6293 -0.1229
  750MPD2    C411136   4.360   1.894  11.192 -1.4767  0.1482  0.1152
  750MPD2    C511137   4.275   1.993  11.237  1.1732 -0.2486  0.1115
  750MPD2     H11138   4.128   1.674  11.089  2.4716  0.1424 -1.1240
  750MPD2    H111139   4.466   1.916  11.202 -1.5174  0.6055 -0.4812
  750MPD2    H211140   4.090   2.058  11.283  1.1414  1.0075 -0.1790
  750MPD2    H311141   4.323   2.081  11.278  0.6843 -1.2275  2.8292
  750MPD2     N11142   4.402   1.679  11.086 -0.0474 -0.3600 -0.4776
  750MPD2    H511143   4.497   1.682  11.122 -0.1687 -0.0256 -0.1750
  750MPD2    N111144   3.945   1.843  11.191  0.2490 -0.8183  0.3527
  750MPD2    H711145   3.895   1.919  11.236  2.7171  0.7647  0.4452
  751TMC3    C111146   4.470   1.475  10.995  0.0152  1.3613 -0.2808
  751TMC3    C211147   4.512   1.418  11.113 -0.3581  0.3198 -0.1442
  751TMC3    C311148   4.586   1.308  11.120 -0.6717  0.5450  0.4196
  751TMC3    C411149   4.499   1.409  10.875  0.1082  0.5504 -0.1838
  751TMC3    C511150   4.572   1.296  10.887  0.2161  0.0345  0.4434
  751TMC3    C611151   4.627   1.245  11.007 -0.1266  0.0995 -0.5508
  751TMC3     C11152   4.375   1.587  10.990 -0.8057 -1.0122  0.4656
  751TMC3     O11153   4.284   1.582  10.908 -0.2270 -0.7447  0.7073
  751TMC3     H11154   4.489   1.470  11.206  2.9344  3.5442 -1.1211
  751TMC3    H111155   4.433   1.431  10.792  1.2635 -1.1305 -1.5547
  751TMC3    H211156   4.679   1.151  11.012  1.3772  0.8891 -1.4915
  751TMC3    C711157   4.564   1.198  10.782 -0.1946  0.2570  0.1777
  751TMC3    C811158   4.549   1.215  11.224  0.1141  1.0468  0.5581
  751TMC3    O111159   4.645   1.107  10.785 -0.1796 -0.4815 -0.2431
  751TMC3    O211160   4.547   1.095  11.191 -0.0244  0.3756  0.0979
  752TMC3    C111161   3.136   1.138  16.273  1.1717 -0.1975  0.1597
  752TMC3    C211162   3.209   1.024  16.307  0.1288  0.4279 -0.3749
  752TMC3    C311163   3.273   1.026  16.429  0.0994  0.1061  0.1687
  752TMC3    C411164   3.120   1.242  16.364 -0.3049  0.1364 -0.1692
  752TMC3    C511165   3.182   1.233  16.486  0.2191  0.2259  0.0916
  752TMC3    C611166   3.265   1.126  16.517 -1.0423  0.2065 -0.2040
  752TMC3     C11167   3.065   1.148  16.144  0.3962 -0.1900 -0.4403
  752TMC3     O11168   3.103   1.075  16.057 -0.8039  0.3750  0.1054
  752TMC3     H11169   3.222   0.943  16.236  0.4796 -0.0989  0.2841
  752TMC3    H111170   3.056   1.326  16.341  0.3147  0.2766 -1.3806
  752TMC3    H211171   3.315   1.139  16.612 -0.8127  1.0149 -0.4279
  752TMC3    C711172   3.127   1.301  16.607  0.2570  0.1852  0.4168
  752TMC3    C811173   3.346   0.906  16.478  0.2250 -0.4489  0.1184
  752TMC3    O111174   3.177   1.277  16.717  0.0419  0.0915 -0.3108
  752TMC3    O211175   3.340   0.891  16.601 -0.2082  0.2773 -0.3067
  753TMC3    C111176   0.160   2.581  13.371 -0.1821  0.2504  0.2851
  753TMC3    C211177   0.217   2.533  13.482 -0.8350  0.6635  0.0132
  753TMC3    C311178   0.225   2.398  13.496 -0.5189 -0.2937 -0.3306
  753TMC3    C411179   0.126   2.503  13.266 -0.5591  0.5399  0.2293
  753TMC3    C511180   0.159   2.371  13.274 -0.2097  0.2226  0.0353
  753TMC3    C611181   0.206   2.317  13.386  0.2565  0.3233  0.2346
  753TMC3     C11182   0.153   2.725  13.358 -1.1213 -0.2165 -0.1149
  753TMC3     O11183   0.064   2.795  13.407  0.4677  0.0301 -0.6043
  753TMC3     H11184   0.263   2.601  13.553  0.3445  1.7219 -1.7915
  753TMC3    H111185   0.081   2.541  13.175 -2.3627 -1.9405  0.0698
  753TMC3    H211186   0.195   2.210  13.402  2.3456 -0.0827 -1.0910
  753TMC3    C711187   0.109   2.281  13.174 -0.0652 -0.4288 -0.3790
  753TMC3    C811188   0.265   2.340  13.619  0.8011 -0.2203 -0.5185
  753TMC3    O111189   0.026   2.332  13.094 -0.2587  0.1085 -0.2233
  753TMC3    O211190   0.316   2.234  13.605 -0.4229 -0.7671 -0.3266
  754MPD2     C11191   3.893   1.361  13.287 -0.0546 -0.6265 -0.0846
  754MPD2    C111192   3.885   1.222  13.270  0.0600  0.3561 -0.1130
  754MPD2    C211193   3.779   1.183  13.187 -0.7457 -0.2443 -0.1086
  754MPD2    C311194   3.672   1.263  13.161 -0.2499  0.0823 -0.2847
  754MPD2    C411195   3.683   1.394  13.200 -0.0643  0.5356 -0.2400
  754MPD2    C511196   3.803   1.446  13.246 -0.3912  0.1059  0.9365
  754MPD2     H11197   3.766   1.079  13.158 -1.8066  0.4825 -2.2119
  754MPD2    H111198   3.614   1.472  13.168  0.2575  0.3489 -1.3955
  754MPD2    H211199   3.975   1.394  13.350 -0.2643  1.3182 -0.8395
  754MPD2    H311200   3.821   1.553  13.257  0.0775  0.1770 -0.5157
  754MPD2     N11201   3.559   1.236  13.077  0.3763  0.0419 -0.6838
  754MPD2    H511202   3.488   1.308  13.081 -0.2691 -0.5736 -0.9642
  754MPD2    N111203   3.980   1.133  13.320 -0.2684 -0.2553 -0.3178
  754MPD2    H711204   4.053   1.175  13.378  1.1309  0.4787 -2.5772
  755MPD2     C11205   2.934   1.807  13.049 -0.2600 -0.8711 -0.4798
  755MPD2    C111206   2.857   1.696  13.040  0.2976  1.1404  0.3863
  755MPD2    C211207   2.917   1.571  13.013  0.1398 -0.1830  0.3382
  755MPD2    C311208   3.055   1.567  13.000  0.8294 -0.3670  0.8033
  755MPD2    C411209   3.130   1.682  13.003 -0.4469 -0.0820  1.1165
  755MPD2    C511210   3.069   1.800  13.027  1.1495  0.0936 -0.3233
  755MPD2     H11211   2.848   1.487  13.008 -1.1078  0.9260 -1.1467
  755MPD2    H111212   3.229   1.692  12.961 -0.7716  0.9044  0.5998
  755MPD2    H211213   2.895   1.907  13.039  2.8572  0.3707 -0.1750
  755MPD2    H311214   3.134   1.884  13.007  1.3678  0.3375  1.4155
  755MPD2     N11215   3.128   1.442  12.964 -0.0829  0.7801 -0.6890
  755MPD2    H511216   3.227   1.446  12.946  0.4331  1.2319  2.3018
  755MPD2    N111217   2.717   1.695  13.053 -0.2023  0.3824  0.4687
  755MPD2    H711218   2.668   1.607  13.042  1.7282 -1.0504  3.1302
  756MPD2     C11219   4.566   2.486  10.175  1.3281 -0.2592  0.1990
  756MPD2    C111220   4.430   2.490  10.207  0.0567 -0.0643  0.0435
  756MPD2    C211221   4.339   2.391  10.169 -0.8549 -0.2764  0.1398
  756MPD2    C311222   4.390   2.281  10.106  0.4434 -0.5741  0.0189
  756MPD2    C411223   4.524   2.272  10.092 -0.0837 -0.0700  0.1314
  756MPD2    C511224   4.612   2.370  10.124 -0.5995  0.8071  0.2265
  756MPD2     H11225   4.234   2.401  10.191 -0.6437  1.0765  0.5165
  756MPD2    H111226   4.572   2.191  10.039 -0.2302  1.3618 -2.1960
  756MPD2    H211227   4.638   2.563  10.200  0.0324  1.2979 -0.8637
  756MPD2    H311228   4.718   2.353  10.110 -1.0866 -1.2658 -0.9783
  756MPD2     N11229   4.299   2.186  10.051  0.5655  0.4696 -0.5281
  756MPD2    H511230   4.208   2.199  10.095  0.7455 -1.1708  0.3174
  756MPD2    N111231   4.371   2.586  10.290 -0.5069 -1.1026 -0.0852
  756MPD2    H711232   4.277   2.564  10.321 -0.9940 -1.5245 -1.8383
  757MPD2     C11233   3.348   1.944   9.925 -0.2942 -0.3999  0.1691
  757MPD2    C111234   3.406   1.819   9.947 -0.8374 -0.0957  0.2385
  757MPD2    C211235   3.551   1.821   9.948 -0.0455 -0.6819  0.3581
  757MPD2    C311236   3.621   1.932   9.910  0.4737  0.5517 -0.6492
  757MPD2    C411237   3.558   2.055   9.876 -0.6621  0.0452  0.4197
  757MPD2    C511238   3.419   2.061   9.897 -0.6653 -1.2264 -0.5767
  757MPD2     H11239   3.609   1.732   9.971 -0.1013 -1.1047 -1.1702
  757MPD2    H111240   3.614   2.147   9.863  0.1369 -0.5202 -0.1555
  757MPD2    H211241   3.241   1.955   9.925 -0.3605 -1.0604  0.7670
  757MPD2    H311242   3.364   2.155   9.900 -0.0204 -0.9291  1.7485
  757MPD2     N11243   3.762   1.916   9.921  0.1664 -0.2954  1.2281
  757MPD2    H511244   3.792   1.827   9.959  1.2006 -0.7202 -0.5757
  757MPD2    N111245   3.317   1.705   9.951 -0.2361 -0.1018  0.3588
  757MPD2    H711246   3.218   1.712   9.931 -0.2833  2.3382  1.4228
  758MPD2     C11247   3.452   0.909  15.870 -0.2630 -0.6551  0.6969
  758MPD2    C111248   3.569   0.837  15.898 -0.9335 -0.3043 -0.2444
  758MPD2    C211249   3.630   0.857  16.020 -0.1520 -0.0570  0.5416
  758MPD2    C311250   3.590   0.964  16.112  0.4381 -0.7747 -0.2973
  758MPD2    C411251   3.484   1.039  16.072 -0.6599  0.7403 -0.4998
  758MPD2    C511252   3.412   1.005  15.957 -0.1470 -0.5090 -0.2437
  758MPD2     H11253   3.712   0.793  16.052  0.8352 -0.4249 -2.7136
  758MPD2    H111254   3.452   1.128  16.124 -2.9091 -1.2179  1.4574
  758MPD2    H211255   3.399   0.892  15.777 -2.7255 -0.7421  2.1253
  758MPD2    H311256   3.325   1.066  15.932 -0.4061 -0.2837  1.1955
  758MPD2     N11257   3.657   0.988  16.229 -0.2638  0.2307 -0.4297
  758MPD2    H511258   3.633   1.066  16.289  2.7497  0.8003  0.0630
  758MPD2    N111259   3.611   0.739  15.798  0.4836  0.1205 -0.7253
  758MPD2    H711260   3.567   0.755  15.708 -1.3674 -2.0852 -0.2144
  759MPD2     C11261   2.220   4.213  10.095  0.3968 -0.0574  0.1840
  759MPD2    C111262   2.214   4.121   9.993 -0.4361  0.2858  0.2201
  759MPD2    C211263   2.293   4.143   9.883 -0.0307 -0.7534  0.1879
  759MPD2    C311264   2.386   4.251   9.878  0.0761  0.2281 -0.0358
  759MPD2    C411265   2.374   4.349   9.975 -0.2324  0.1383 -0.3321
  759MPD2    C511266   2.292   4.331  10.082  0.1934 -0.4047  0.3326
  759MPD2     H11267   2.286   4.064   9.809  0.3328 -0.2464 -0.4005
  759MPD2    H111268   2.432   4.441   9.969 -0.9621  0.5178 -1.5887
  759MPD2    H211269   2.153   4.194  10.178 -0.3737 -0.4119 -0.5132
  759MPD2    H311270   2.288   4.398  10.167 -0.4792 -3.1728  2.5014
  759MPD2     N11271   2.474   4.266   9.771 -0.5516  0.1781 -0.5691
  759MPD2    H511272   2.461   4.203   9.692  0.8791 -0.0727 -0.6071
  759MPD2    N111273   2.135   4.004  10.011  0.0835  0.1104 -0.3276
  759MPD2    H711274   2.112   3.980  10.107  0.3997  2.0899  0.2308
  760MPD2     C11275   2.796   1.038  11.189 -0.2032  0.3702  0.7102
  760MPD2    C111276   2.746   1.106  11.296 -0.1833  0.6946 -0.4528
  760MPD2    C211277   2.701   1.035  11.410 -0.0808 -0.1249 -0.1211
  760MPD2    C311278   2.704   0.895  11.414  0.6815 -0.0364 -0.0925
  760MPD2    C411279   2.757   0.832  11.305 -0.4895  0.1223 -0.1848
  760MPD2    C511280   2.807   0.905  11.197  0.0110 -0.0928 -0.8140
  760MPD2     H11281   2.652   1.086  11.492  1.3572  2.4950 -0.9100
  760MPD2    H111282   2.766   0.724  11.296 -1.9096 -0.0138  0.1446
  760MPD2    H211283   2.805   1.067  11.085  1.8937  1.3739  1.1750
  760MPD2    H311284   2.841   0.850  11.110  0.0919  0.8236 -1.3550
  760MPD2     N11285   2.672   0.808  11.520 -0.1158  0.1359  0.1684
  760MPD2    H511286   2.692   0.710  11.501 -1.4615  0.1683 -1.4244
  760MPD2    N111287   2.709   1.247  11.283 -0.1089 -0.0053  0.1397
  760MPD2    H711288   2.656   1.280  11.363  0.4961  0.7046  0.2523
  761MPD2     C11289   4.179   1.118  11.556  0.2803  0.0218  0.1648
  761MPD2    C111290   4.217   1.048  11.444  0.2762 -0.8503  0.3563
  761MPD2    C211291   4.325   1.092  11.372  0.6343  0.7629  0.2399
  761MPD2    C311292   4.392   1.205  11.415  0.2469 -0.0829  0.2262
  761MPD2    C411293   4.355   1.275  11.531  0.1544 -0.1692 -0.2104
  761MPD2    C511294   4.244   1.233  11.604  0.0146 -0.4138 -0.4250
  761MPD2     H11295   4.347   1.047  11.276 -1.3689  0.0484  0.1052
  761MPD2    H111296   4.406   1.369  11.548  0.9285 -0.8623  1.4193
  761MPD2    H211297   4.098   1.084  11.620 -1.1606  0.4593 -1.4423
  761MPD2    H311298   4.214   1.297  11.686  1.0331  0.5174 -0.7797
  761MPD2     N11299   4.493   1.271  11.334  0.5092 -0.4989  0.5672
  761MPD2    H511300   4.514   1.366  11.362 -0.8115  0.2996 -1.1146
  761MPD2    N111301   4.145   0.928  11.411  0.2031  0.8632  0.0563
  761MPD2    H711302   4.081   0.900  11.484 -0.5230  0.5955 -0.6920
  762MPD2     C11303   3.996   0.756  10.692  1.0304  0.3830 -0.5104
  762MPD2    C111304   4.021   0.642  10.756 -0.2586 -0.4004  0.2811
  762MPD2    C211305   4.076   0.532  10.690  0.7311  0.4604  0.1394
  762MPD2    C311306   4.113   0.543  10.552  0.1657  0.5572 -0.7746
  762MPD2    C411307   4.087   0.665  10.492 -0.0638  0.6363  0.1384
  762MPD2    C511308   4.018   0.767  10.554  0.0514  0.0187 -0.2228
  762MPD2     H11309   4.106   0.440  10.737  0.6277  0.0939 -0.5086
  762MPD2    H111310   4.124   0.676  10.391 -1.3724 -0.7211 -0.4996
  762MPD2    H211311   3.955   0.835  10.754  0.2822 -0.1544 -0.3210
  762MPD2    H311312   4.000   0.862  10.506  0.6771  0.4158  0.3327
  762MPD2     N11313   4.203   0.441  10.501  0.2423 -0.3883  0.1198
  762MPD2    H511314   4.198   0.355  10.555 -3.2150  0.7293  1.5594
  762MPD2    N111315   4.000   0.645  10.898  0.4189  0.6818  0.0442
  762MPD2    H711316   3.990   0.739  10.936  0.7632  0.4730  0.6539
  763MPD2     C11317   0.692   1.130  15.695  0.5088 -0.8557 -0.2138
  763MPD2    C111318   0.568   1.187  15.672  0.3379  0.1472  1.0357
  763MPD2    C211319   0.548   1.323  15.682  0.0537  0.5930 -0.1451
  763MPD2    C311320   0.659   1.403  15.700 -0.0999  0.4454 -0.0739
  763MPD2    C411321   0.780   1.345  15.714 -0.5567  0.1922  0.1496
  763MPD2    C511322   0.796   1.210  15.727  0.5672  0.2903  0.0188
  763MPD2     H11323   0.450   1.364  15.666  0.8016  2.3089 -0.3077
  763MPD2    H111324   0.864   1.411  15.729  1.0474 -1.5215 -1.1666
  763MPD2    H211325   0.710   1.023  15.689 -1.6565 -1.2166 -0.2156
  763MPD2    H311326   0.898   1.172  15.725 -0.0046 -1.3692  2.3200
  763MPD2     N11327   0.660   1.538  15.702  0.1421  0.7344 -0.1561
  763MPD2    H511328   0.750   1.585  15.700 -0.7067  2.3599  0.4107
  763MPD2    N111329   0.465   1.101  15.623 -0.5872 -0.1061 -0.3155
  763MPD2    H711330   0.395   1.145  15.565  1.3954  4.2578  0.5660
  764MPD2     C11331   3.911   2.324  17.473  0.6417  0.2973  0.0820
  764MPD2    C111332   3.777   2.288  17.496  0.2994 -0.4082 -0.1611
  764MPD2    C211333   3.758   2.171  17.569  0.3250  0.1259  0.5710
  764MPD2    C311334   3.858   2.109  17.641 -0.0646 -0.0121 -0.3512
  764MPD2    C411335   3.983   2.155  17.630 -0.7365 -0.1859  0.0450
  764MPD2    C511336   4.016   2.257  17.542 -0.4636  0.4385 -0.1556
  764MPD2     H11337   3.655   2.139  17.581  0.7499 -1.1010  0.9977
  764MPD2    H111338   4.075   2.116  17.671  0.1553  2.0606  0.1775
  764MPD2    H211339   3.935   2.410  17.411 -0.0833 -0.6141 -1.4763
  764MPD2    H311340   4.122   2.275  17.528  0.0229  0.9803  4.2052
  764MPD2     N11341   3.814   2.001  17.718  0.3072  0.6794  0.2794
  764MPD2    H511342   3.719   1.968  17.703  0.0795  0.9189  1.2191
  764MPD2    N111343   3.664   2.340  17.431 -0.8113  0.5196  0.1798
  764MPD2    H711344   3.577   2.287  17.427 -0.7707  0.4769 -0.1320
  765MPD2     C11345   3.229   0.308  15.469 -0.0659  0.0006  0.0627
  765MPD2    C111346   3.304   0.404  15.523 -0.2225  0.1995  0.1774
  765MPD2    C211347   3.436   0.377  15.559 -0.0510  0.1207  0.1364
  765MPD2    C311348   3.487   0.260  15.517 -0.1791 -0.0675  0.1701
  765MPD2    C411349   3.416   0.174  15.433  0.5637 -0.0685 -0.0082
  765MPD2    C511350   3.279   0.188  15.421  0.3261  0.4703  0.2488
  765MPD2     H11351   3.501   0.450  15.606  0.5686 -0.2763 -0.1122
  765MPD2    H111352   3.462   0.087  15.387 -1.2614 -1.0415  0.0063
  765MPD2    H211353   3.136   0.352  15.435 -1.2330 -2.8156 -0.3359
  765MPD2    H311354   3.224   0.129  15.349 -0.4710  0.4453  0.8815
  765MPD2     N11355   3.619   0.223  15.558  0.3869 -0.0560 -0.1715
  765MPD2    H511356   3.678   0.281  15.618  0.7016 -0.0756 -0.4626
  765MPD2    N111357   3.235   0.523  15.556 -0.0709  0.0267  0.0913
  765MPD2    H711358   3.135   0.514  15.541  0.0575 -1.5529  0.1514
  766MPD2     C11359   2.690   0.910  15.303 -0.2872  0.3298 -0.6895
  766MPD2    C111360   2.793   0.856  15.385 -0.6144  0.7877 -0.0786
  766MPD2    C211361   2.887   0.772  15.330 -0.1315 -0.7907  0.1232
  766MPD2    C311362   2.886   0.752  15.192 -0.1059 -0.5892  0.3663
  766MPD2    C411363   2.785   0.808  15.115 -0.2715 -0.1914  0.3321
  766MPD2    C511364   2.687   0.885  15.165  0.4437 -0.3134  0.4328
  766MPD2     H11365   2.957   0.715  15.391  0.5146  1.6800  1.7043
  766MPD2    H111366   2.778   0.780  15.010  0.5889 -0.3833  0.3326
  766MPD2    H211367   2.614   0.972  15.350 -0.4955  0.1970 -0.8520
  766MPD2    H311368   2.618   0.938  15.099 -0.5582 -1.8821  0.2290
  766MPD2     N11369   2.981   0.668  15.124 -0.5223  0.0184  0.5737
  766MPD2    H511370   2.974   0.665  15.023 -0.9787 -1.0353  0.6349
  766MPD2    N111371   2.779   0.883  15.525 -0.9798  0.0349  0.3657
  766MPD2    H711372   2.695   0.931  15.556 -1.5096 -0.3922 -0.4230
  767MPD2     C11373   2.406   0.651  14.889 -1.1485  0.2154 -0.0696
  767MPD2    C111374   2.450   0.729  14.780  0.0691  0.2428  0.5173
  767MPD2    C211375   2.522   0.679  14.675  0.1194 -0.1871  0.2095
  767MPD2    C311376   2.552   0.545  14.672 -0.6074  0.1884 -0.5167
  767MPD2    C411377   2.516   0.473  14.784  0.2871  0.1803  0.2699
  767MPD2    C511378   2.441   0.524  14.888 -0.8115  0.2362  0.5727
  767MPD2     H11379   2.575   0.742  14.604 -0.8141  1.1468  0.6908
  767MPD2    H111380   2.542   0.369  14.798 -1.2954 -0.3923 -1.0098
  767MPD2    H211381   2.339   0.693  14.964 -0.7688 -0.2828  0.5474
  767MPD2    H311382   2.406   0.465  14.971 -0.6563 -0.5601  0.0692
  767MPD2     N11383   2.634   0.502  14.559  0.3409 -0.0544 -0.2590
  767MPD2    H511384   2.645   0.561  14.478  2.6796  1.5196  1.2418
  767MPD2    N111385   2.430   0.870  14.794 -1.2808  0.5204  0.3652
  767MPD2    H711386   2.372   0.899  14.873  0.2045  0.9354  1.3074
  768MPD2     C11387   3.679   3.821  10.767 -0.1288 -0.5060  0.4023
  768MPD2    C111388   3.636   3.779  10.886 -0.3539 -0.2624 -0.3902
  768MPD2    C211389   3.725   3.723  10.987  0.1922  0.0505 -0.2813
  768MPD2    C311390   3.857   3.703  10.953  0.0843 -0.1101  0.1598
  768MPD2    C411391   3.895   3.726  10.820  0.9893  0.1314  0.4690
  768MPD2    C511392   3.810   3.790  10.735 -0.1344 -0.1525 -0.0566
  768MPD2     H11393   3.685   3.715  11.088  0.7079  0.6539 -0.0278
  768MPD2    H111394   3.997   3.712  10.788  1.6130 -0.1688  2.5441
  768MPD2    H211395   3.628   3.873  10.687 -1.4997 -2.7076 -0.1539
  768MPD2    H311396   3.849   3.815  10.637 -0.6962  0.2313 -0.1794
  768MPD2     N11397   3.960   3.664  11.046  0.1448  0.1131  0.0933
  768MPD2    H511398   4.055   3.652  11.013  0.3061  0.6999  0.3502
  768MPD2    N111399   3.502   3.809  10.928 -0.2693  0.4965  0.4816
  768MPD2    H711400   3.481   3.797  11.027  0.1836 -2.9895  0.1642
  769MPD2     C11401   4.464   2.527  14.547 -0.3853 -0.5175 -0.0877
  769MPD2    C111402   4.386   2.438  14.624 -0.0892 -0.4782 -0.2485
  769MPD2    C211403   4.435   2.415  14.754  0.0093 -0.4812  0.0163
  769MPD2    C311404   4.545   2.483  14.807 -0.8798 -0.3951  0.4706
  769MPD2    C411405   4.614   2.572  14.725  0.0911  0.1575 -0.6726
  769MPD2    C511406   4.578   2.588  14.598  0.3437 -0.1570  0.8326
  769MPD2     H11407   4.387   2.336  14.809  1.2283 -0.9150  0.4496
  769MPD2    H111408   4.694   2.631  14.768 -0.1163  1.8917 -2.6734
  769MPD2    H211409   4.446   2.544  14.441  1.5452  1.5247 -0.0861
  769MPD2    H311410   4.641   2.657  14.542  1.8667  0.7794  3.6428
  769MPD2     N11411   4.579   2.451  14.937  0.5348 -0.8650 -0.1712
  769MPD2    H511412   4.534   2.373  14.985 -3.4969  1.0164 -0.9156
  769MPD2    N111413   4.272   2.382  14.571  0.1058  0.1331 -0.4127
  769MPD2    H711414   4.248   2.415  14.478  1.3934  1.7119 -0.1892
  770MPD2     C11415   3.323   1.867  14.705 -0.0076  0.3839 -0.0007
  770MPD2    C111416   3.438   1.792  14.742 -0.9121 -0.1888  0.3306
  770MPD2    C211417   3.557   1.862  14.750 -0.8698  0.1567 -0.2479
  770MPD2    C311418   3.565   1.995  14.703 -0.2800  0.1042 -0.5907
  770MPD2    C411419   3.450   2.065  14.661  0.3731  0.6092 -0.3039
  770MPD2    C511420   3.331   1.996  14.662 -0.0219  0.4241  0.6314
  770MPD2     H11421   3.640   1.821  14.805 -1.5514 -2.6584 -1.3085
  770MPD2    H111422   3.458   2.165  14.619  2.5906  0.9960  1.0387
  770MPD2    H211423   3.225   1.821  14.696  0.4508 -0.8566  1.2594
  770MPD2    H311424   3.244   2.054  14.632 -0.1800  0.8104  1.8360
  770MPD2     N11425   3.698   2.048  14.689  0.5073 -0.2199  0.5702
  770MPD2    H511426   3.782   2.005  14.727  0.6118 -2.6872 -2.4455
  770MPD2    N111427   3.427   1.658  14.783  0.1671 -0.3959 -0.5390
  770MPD2    H711428   3.338   1.609  14.774 -1.0487  1.5403  0.8649
  771MPD2     C11429   0.474   4.547  13.858  0.1665  0.4256  0.2739
  771MPD2    C111430   0.363   4.628  13.855  0.1111  0.2542  0.1738
  771MPD2    C211431   0.242   4.574  13.820 -0.1392 -0.2191  0.5486
  771MPD2    C311432   0.230   4.441  13.788  0.5012 -0.9926  0.1208
  771MPD2    C411433   0.343   4.357  13.808  0.1425 -0.0916  0.8301
  771MPD2    C511434   0.464   4.414  13.846 -0.7904  0.0207  0.2315
  771MPD2     H11435   0.164   4.648  13.823 -0.2777 -0.2477 -2.7849
  771MPD2    H111436   0.345   4.252  13.784 -1.4550  0.4394 -1.6641
  771MPD2    H211437   0.573   4.587  13.881 -0.3023  0.2614  2.6215
  771MPD2    H311438   0.552   4.353  13.838 -0.4769  0.5428 -0.2815
  771MPD2     N11439   0.108   4.396  13.739  0.2537  0.5676  0.4368
  771MPD2    H511440   0.040   4.470  13.728  1.8567  2.2141  1.6020
  771MPD2    N111441   0.375   0.027  13.877  0.2524  0.6870 -0.0788
  771MPD2    H711442   0.285   0.072  13.882  0.4159  1.0793 -0.6492
  772MPD2     C11443   4.671   0.580  14.082  0.3568 -1.1661  0.3038
  772MPD2    C111444   4.699   0.443  14.044  0.7287  0.2917  0.2932
  772MPD2    C211445   4.601   0.343  14.075 -0.5216 -0.4293  0.1329
  772MPD2    C311446   4.475   0.388  14.125 -0.0410  0.3580  0.3668
  772MPD2    C411447   4.452   0.524  14.156 -0.4559 -0.4134  0.1195
  772MPD2    C511448   4.548   0.618  14.135  0.3187  0.4493 -0.1195
  772MPD2     H11449   4.611   0.239  14.044 -0.6871 -0.3192 -0.2866
  772MPD2    H111450   4.368   0.567  14.209  0.2487 -0.2158  1.0744
  772MPD2    H211451   4.738   0.665  14.077 -0.2337 -0.8522 -2.4283
  772MPD2    H311452   4.531   0.723  14.157 -0.1995  0.7376 -1.9359
  772MPD2     N11453   4.378   0.294  14.172  0.1771  0.5456  0.4170
  772MPD2    H511454   4.294   0.340  14.206  0.8689 -0.4953  3.5470
  772MPD2    N111455   0.081   0.393  13.983 -0.1216 -0.4055  0.0174
  772MPD2    H711456   0.091   0.294  13.963 -0.5549 -0.7956  1.7546
  773MPD2     C11457   4.510   1.626  17.584 -0.2063 -0.2169 -0.3290
  773MPD2    C111458   4.476   1.526  17.495  1.1692  0.2406 -0.1535
  773MPD2    C211459   4.524   1.400  17.514  0.0077 -0.3459  0.1791
  773MPD2    C311460   4.601   1.366  17.626  0.0397 -0.5201  0.1093
  773MPD2    C411461   4.629   1.463  17.720 -0.6271  0.5151  0.2627
  773MPD2    C511462   4.583   1.592  17.702  0.3517  0.1304  0.0323
  773MPD2     H11463   4.493   1.327  17.440 -0.6512 -0.9993  1.1095
  773MPD2    H111464   4.700   1.441   0.042  0.5084 -0.5255 -1.0530
  773MPD2    H211465   4.460   1.722  17.588 -0.4939 -0.3899  0.3059
  773MPD2    H311466   4.595   1.668   0.020  0.5696 -2.1545  2.2878
  773MPD2     N11467   4.644   1.235  17.635  0.4516 -0.2465 -0.4807
  773MPD2    H511468   4.644   1.178  17.551  1.2497 -2.5574  1.0817
  773MPD2    N111469   4.379   1.539  17.393  0.4741  0.2741 -0.4151
  773MPD2    H711470   4.360   1.458  17.334  3.0938 -1.3133  0.9263
  774MPD2     C11471   3.854   0.030  13.241  0.5570 -0.4748  0.1763
  774MPD2    C111472   3.727   0.088  13.263  0.5517 -0.1022 -0.2065
  774MPD2    C211473   3.724   0.225  13.249  0.2276  0.2864 -0.4689
  774MPD2    C311474   3.837   0.302  13.230  0.4897 -0.0058 -0.4085
  774MPD2    C411475   3.956   0.242  13.219 -0.0480 -0.5845 -0.4368
  774MPD2    C511476   3.966   0.106  13.217  1.1126  0.0477  0.5992
  774MPD2     H11477   3.631   0.280  13.260  2.0246  2.7713  2.3826
  774MPD2    H111478   4.047   0.297  13.197 -1.1544  0.5264 -2.2033
  774MPD2    H211479   3.869   4.664  13.255 -2.5870 -1.1222 -1.2404
  774MPD2    H311480   4.063   0.079  13.177  1.0298 -0.0259  0.4465
  774MPD2     N11481   3.825   0.446  13.230  0.2410  0.2137 -0.0136
  774MPD2    H511482   3.733   0.484  13.252 -0.3059  0.0387 -2.0463
  774MPD2    N111483   3.621   0.010  13.326  0.1238  0.5952  0.5703
  774MPD2    H711484   3.642   4.654  13.353 -2.0330  0.6534  2.4961
  775MPD2     C11485   4.733   1.622  15.346  0.1789 -0.3256  0.3152
  775MPD2    C111486   4.694   1.744  15.404  0.2483 -0.2616  0.0968
  775MPD2    C211487   0.001   1.864  15.341 -0.1945  0.3956 -0.2498
  775MPD2    C311488   0.078   1.867  15.226  0.0245 -0.2191 -0.4757
  775MPD2    C411489   0.116   1.745  15.172  1.2144 -0.7837  0.2920
  775MPD2    C511490   0.072   1.630  15.236 -1.0351  0.1612 -0.2632
  775MPD2     H11491   4.704   1.962  15.371 -2.8224 -0.7454  0.2791
  775MPD2    H111492   0.176   1.738  15.082  0.1304  4.7777 -0.8712
  775MPD2    H211493   4.715   1.526  15.393 -2.3145  1.5182  3.0957
  775MPD2    H311494   0.100   1.530  15.203  2.9466  0.8997  0.8973
  775MPD2     N11495   0.127   1.986  15.167  0.3545 -0.0046  0.3630
  775MPD2    H511496   0.195   1.978  15.093  1.1705 -0.3928  1.1524
  775MPD2    N111497   4.604   1.753  15.511  0.3027  0.3489 -0.6881
  775MPD2    H711498   4.548   1.671  15.532  1.0783  0.3187  1.2870
  776MPD2     C11499   3.165   2.153  11.326 -0.4733 -0.5385  0.8152
  776MPD2    C111500   3.304   2.153  11.329  0.3227  0.0565 -0.2424
  776MPD2    C211501   3.365   2.267  11.377 -0.4106  0.3587 -0.3250
  776MPD2    C311502   3.294   2.383  11.410 -0.3674  0.1582 -0.1661
  776MPD2    C411503   3.158   2.386  11.375  0.3007 -0.3754  0.3521
  776MPD2    C511504   3.093   2.266  11.349 -0.1333  1.0799  0.2766
  776MPD2     H11505   3.473   2.275  11.371 -0.2413 -1.3983  0.3108
  776MPD2    H111506   3.098   2.476  11.374 -0.5733 -0.9893 -0.8364
  776MPD2    H211507   3.120   2.062  11.289  0.3633  0.7760 -3.4533
  776MPD2    H311508   2.986   2.270  11.335 -0.0091  0.4403 -0.8851
  776MPD2     N11509   3.356   2.509  11.433 -0.1390 -0.0574  0.1656
  776MPD2    H511510   3.295   2.591  11.428  0.2589  0.1572 -1.1438
  776MPD2    N111511   3.371   2.037  11.279 -0.1665  0.4438  0.1058
  776MPD2    H711512   3.313   1.965  11.237 -0.4516  0.1513  1.0041
  777MPD2     C11513   4.640   4.627   0.827  0.3120 -0.0087 -0.6338
  777MPD2    C111514   4.739   4.552   0.771 -0.1217  0.3570  0.4332
  777MPD2    C211515   4.712   4.453   0.675 -0.8178  0.1594 -0.1766
  777MPD2    C311516   4.589   4.435   0.623 -0.0111  0.1966 -0.4178
  777MPD2    C411517   4.488   4.491   0.698 -0.3921  0.2075  0.6662
  777MPD2    C511518   4.517   4.595   0.787  0.1960  0.5232 -0.5789
  777MPD2     H11519   0.057   4.399   0.635  0.0750  2.0272 -0.8046
  777MPD2    H111520   4.383   4.472   0.676  0.0848 -0.8984 -0.6731
  777MPD2    H211521   4.657   4.707   0.899 -0.3147 -0.9610  0.5811
  777MPD2    H311522   4.427   4.642   0.824 -0.0220  0.4762 -1.0463
  777MPD2     N11523   4.580   4.335   0.518 -0.3391 -0.0282 -0.5078
  777MPD2    H511524   4.665   4.287   0.493 -0.9381 -1.3878  0.0838
  777MPD2    N111525   0.130   4.578   0.822  0.5427 -0.1811 -0.4131
  777MPD2    H711526   0.138   4.633   0.907 -1.8373 -0.1507 -0.2210
  778MPD2     C11527   0.608   0.017  14.657 -0.6274  0.2276 -0.6221
  778MPD2    C111528   0.688   4.647  14.632  0.1370 -0.1792  0.3267
  778MPD2    C211529   0.816   4.670  14.587  0.0995 -0.9437  0.0814
  778MPD2    C311530   0.873   0.054  14.573  0.0890 -0.4151  0.3564
  778MPD2    C411531   0.788   0.162  14.591  0.0648  0.7247 -0.3146
  778MPD2    C511532   0.667   0.138  14.639  0.0462 -0.0053 -0.5152
  778MPD2     H11533   0.881   4.587  14.562  2.3449  0.9798 -0.4708
  778MPD2    H111534   0.815   0.265  14.570  1.1460  0.2342 -1.3305
  778MPD2    H211535   0.507   0.019  14.696  0.6372  2.5949  2.4575
  778MPD2    H311536   0.602   0.222  14.655 -0.6580 -0.3957 -1.3293
  778MPD2     N11537   1.012   0.072  14.531  0.3522  0.0850  0.2577
  778MPD2    H511538   1.062   4.727  14.510 -2.0653 -1.0311 -0.9983
  778MPD2    N111539   0.654   4.517  14.660  0.6109  0.0339 -0.5644
  778MPD2    H711540   0.723   4.443  14.645  0.8233 -0.1509  1.3657
  779MPD2     C11541   0.012   3.416  14.052  0.0522  0.0761  0.1782
  779MPD2    C111542   0.151   3.430  14.052 -0.1851  0.4982 -0.4855
  779MPD2    C211543   0.210   3.557  14.032 -0.1910  0.0478  0.3998
  779MPD2    C311544   0.133   3.667  14.023 -0.4874  0.2877  0.0234
  779MPD2    C411545   4.731   3.654  14.025  0.0575 -1.2411  0.2009
  779MPD2    C511546   4.680   3.530  14.046  0.6616 -0.0137 -0.7119
  779MPD2     H11547   0.318   3.566  14.024 -0.3168  1.1979 -0.1227
  779MPD2    H111548   4.660   3.736  14.026  1.0171 -0.4184  0.0853
  779MPD2    H211549   4.712   3.318  14.075 -0.7853  0.1584 -0.9160
  779MPD2    H311550   4.572   3.523  14.051  0.5365  2.2855 -0.0042
  779MPD2     N11551   0.193   3.793  14.040  0.4573 -0.1857  0.2528
  779MPD2    H511552   0.294   3.800  14.037  0.2598  2.4431 -0.1830
  779MPD2    N111553   0.235   3.316  14.067 -0.3848 -0.0830  0.5523
  779MPD2    H711554   0.178   3.236  14.091  1.3731 -0.6137  2.9382
  780MPD2     C11555   0.555   3.057   0.636  0.4716 -0.2410  0.0870
  780MPD2    C111556   0.426   3.050   0.596  0.2121  0.2871  0.0687
  780MPD2    C211557   0.392   3.129   0.482  0.6697  0.2870 -0.2042
  780MPD2    C311558   0.480   3.231   0.440 -0.1700  0.2080  0.4316
  780MPD2    C411559   0.604   3.248   0.496 -0.0016 -0.3133 -0.0317
  780MPD2    C511560   0.639   3.154   0.590 -0.3900 -1.0659  0.3412
  780MPD2     H11561   0.297   3.115   0.433 -0.6795 -0.0636  2.5533
  780MPD2    H111562   0.668   3.330   0.468 -1.7055  0.7269 -0.8490
  780MPD2    H211563   0.587   2.990   0.714 -0.1006  2.8309  2.9384
  780MPD2    H311564   0.730   3.161   0.648 -1.3871  0.6599  1.7356
  780MPD2     N11565   0.441   3.309   0.326  0.0216  0.1102  0.2099
  780MPD2    H511566   0.346   3.294   0.294  0.9126 -3.8209 -0.5606
  780MPD2    N111567   0.348   2.945   0.650 -0.2925 -0.5588 -0.4774
  780MPD2    H711568   0.397   2.894   0.724  0.8412 -0.9449 -1.4835
  781MPD2     C11569   1.543   0.865  12.394  0.6964  0.1704  0.2167
  781MPD2    C111570   1.597   0.754  12.325 -0.4357 -0.6559 -0.4487
  781MPD2    C211571   1.648   0.769  12.197 -0.3625  0.4120 -0.1525
  781MPD2    C311572   1.660   0.893  12.140  0.2834  0.3759  0.0749
  781MPD2    C411573   1.601   1.003  12.203 -0.0184 -0.1950  0.9290
  781MPD2    C511574   1.541   0.988  12.329  0.6479  0.4352  0.1198
  781MPD2     H11575   1.690   0.681  12.149  0.3357  0.8580 -0.3591
  781MPD2    H111576   1.607   1.106  12.168 -0.6609 -0.4111  0.1820
  781MPD2    H211577   1.500   0.870  12.494  1.7706  3.3669  0.5246
  781MPD2    H311578   1.497   1.074  12.379 -0.8557 -0.4807  0.3739
  781MPD2     N11579   1.725   0.908  12.012  0.5170 -0.1991  0.2946
  781MPD2    H511580   1.741   1.002  11.976  1.0582 -0.3564  0.1178
  781MPD2    N111581   1.622   0.633  12.387 -0.6744 -0.3256  0.8652
  781MPD2    H711582   1.662   0.560  12.330 -3.5143 -0.1619 -1.3483
  782MPD2     C11583   0.226   1.339  10.081  0.0798 -0.2460 -0.5812
  782MPD2    C111584   0.248   1.262  10.198 -0.2529  0.2276  0.2751
  782MPD2    C211585   0.307   1.316  10.306 -0.5984 -0.5656 -0.5630
  782MPD2    C311586   0.331   1.451  10.305  0.0887 -0.1501  0.9160
  782MPD2    C411587   0.301   1.529  10.196  0.4107 -0.6702 -0.0053
  782MPD2    C511588   0.256   1.475  10.079 -0.0828  0.2402 -0.1569
  782MPD2     H11589   0.341   1.254  10.388 -2.2560 -2.2309 -1.1182
  782MPD2    H111590   0.323   1.635  10.205 -2.0904 -0.2595  1.2774
  782MPD2    H211591   0.182   1.311   9.986  0.8975  0.1015 -1.0598
  782MPD2    H311592   0.217   1.541  10.002 -0.5691 -0.6402 -0.6683
  782MPD2     N11593   0.380   1.497  10.433  0.3436  0.3649 -0.3531
  782MPD2    H511594   0.401   1.424  10.500  0.8315  0.3205 -0.5505
  782MPD2    N111595   0.221   1.123  10.201 -0.1543  0.6834 -0.3829
  782MPD2    H711596   0.230   1.080  10.292  0.4837  1.2669 -0.1731
  783MPD2     C11597   4.295   1.116  10.546 -0.9364 -0.9568 -0.0391
  783MPD2    C111598   4.419   1.113  10.600 -0.1001  0.3689 -0.4249
  783MPD2    C211599   4.513   1.041  10.536 -0.6051  0.1286  0.7071
  783MPD2    C311600   4.480   0.952  10.437 -0.1965  0.2309  0.1055
  783MPD2    C411601   4.345   0.945  10.391  0.1003 -0.0934 -0.0137
  783MPD2    C511602   4.257   1.030  10.450 -0.0193  0.1786  0.4573
  783MPD2     H11603   4.616   1.046  10.570  0.0780  0.0523 -1.3294
  783MPD2    H111604   4.316   0.873  10.315  0.4530 -0.7848  0.5095
  783MPD2    H211605   4.218   1.183  10.581  0.5620  0.7426 -0.0230
  783MPD2    H311606   4.158   1.030  10.407  1.2125 -1.7904 -2.3437
  783MPD2     N11607   4.587   0.890  10.366  0.6310 -0.0414 -0.8055
  783MPD2    H511608   4.676   0.892  10.414 -0.2691 -0.2440  0.8741
  783MPD2    N111609   4.453   1.203  10.706  0.2876 -0.3256 -0.4085
  783MPD2    H711610   4.375   1.260  10.736  1.8777  2.3738 -1.4196
  784MPD2     C11611   2.449   1.675   0.431  0.4461  0.3037 -0.9350
  784MPD2    C111612   2.415   1.724   0.553  0.3287  0.2904 -0.3394
  784MPD2    C211613   2.280   1.763   0.574  0.6545  0.2994 -0.0212
  784MPD2    C311614   2.189   1.747   0.473  0.9331  0.0179 -0.1127
  784MPD2    C411615   2.228   1.698   0.348  0.3674 -0.1615 -0.0238
  784MPD2    C511616   2.358   1.668   0.332 -0.0627 -0.7074 -0.1633
  784MPD2     H11617   2.256   1.810   0.669 -4.7496  1.1940 -1.8242
  784MPD2    H111618   2.162   1.670   0.267  1.5662 -0.9475 -0.7266
  784MPD2    H211619   2.549   1.642   0.406  0.3139 -0.2158 -0.7771
  784MPD2    H311620   2.386   1.618   0.240  3.1213 -0.1044  0.4773
  784MPD2     N11621   2.049   1.766   0.507 -0.2306  0.2963 -0.2793
  784MPD2    H511622   2.025   1.798   0.600 -0.8264  0.9831 -0.6708
  784MPD2    N111623   2.504   1.729   0.663 -0.5659  0.4624  0.7853
  784MPD2    H711624   2.478   1.786   0.742 -1.3192  3.0159 -1.2886
  785MPD2     C11625   2.629   4.583  10.799  0.6275 -0.4972 -0.5012
  785MPD2    C111626   2.552   4.645  10.906 -0.2029 -0.0423  0.0596
  785MPD2    C211627   2.419   4.635  10.912 -0.4555 -0.6905 -0.4255
  785MPD2    C311628   2.352   4.560  10.823  0.5579  0.1531  0.4609
  785MPD2    C411629   2.411   4.498  10.715  0.1279 -0.0024  0.2847
  785MPD2    C511630   2.551   4.519  10.710  0.2533  0.1970 -0.5317
  785MPD2     H11631   2.369   4.697  10.985  1.9215  0.1139  0.5137
  785MPD2    H111632   2.364   4.452  10.629  0.1122 -0.9860  0.8235
  785MPD2    H211633   2.736   4.596  10.782  1.1091  1.7092  3.9739
  785MPD2    H311634   2.601   4.481  10.622  3.2997 -1.9146  2.1089
  785MPD2     N11635   2.212   4.561  10.838  0.9743 -0.2021  0.6226
  785MPD2    H511636   2.174   4.619  10.912  1.5106  1.0015 -0.0477
  785MPD2    N111637   2.613   4.721  11.005  0.2561  0.1459 -0.1903
  785MPD2    H711638   2.561   0.019  11.083 -1.0092  0.2626 -1.0990
  786MPD2     C11639   1.435   3.099  14.404 -0.8818 -0.1185 -0.0261
  786MPD2    C111640   1.363   3.058  14.513  0.1916  0.1168 -0.0010
  786MPD2    C211641   1.404   3.102  14.638  0.3973 -0.4101 -0.3333
  786MPD2    C311642   1.520   3.177  14.658 -0.4234  0.5426  0.3628
  786MPD2    C411643   1.589   3.216  14.541 -0.1043  0.4138  0.5869
  786MPD2    C511644   1.538   3.186  14.413 -0.4825 -0.1921 -0.3292
  786MPD2     H11645   1.343   3.078  14.724  1.5197 -0.2341  0.5162
  786MPD2    H111646   1.680   3.274  14.551  0.7279 -0.7975  0.0889
  786MPD2    H211647   1.404   3.075  14.303  0.6892 -1.3148 -0.2190
  786MPD2    H311648   1.587   3.213  14.320  1.0599 -3.0099 -0.3421
  786MPD2     N11649   1.594   3.183  14.776  0.3998 -0.2730 -0.1177
  786MPD2    H511650   1.689   3.218  14.779  0.3098  0.0615 -1.1590
  786MPD2    N111651   1.259   2.962  14.502 -0.2942 -0.2907  0.5798
  786MPD2    H711652   1.231   2.910  14.584 -0.4117  0.0710  0.7673
  787MPD2     C11653   0.929   2.504  14.883 -0.3338  0.0589 -0.0750
  787MPD2    C111654   1.015   2.474  14.778  0.0508 -0.3871  0.1920
  787MPD2    C211655   1.079   2.354  14.793  0.0268 -0.1664 -0.2093
  787MPD2    C311656   1.062   2.271  14.904  0.3635  0.0501  0.6832
  787MPD2    C411657   0.977   2.304  15.001  0.3123  0.1029  0.8150
  787MPD2    C511658   0.908   2.418  14.985  0.1332 -0.4452  0.2233
  787MPD2     H11659   1.159   2.337  14.722  1.5005  1.1463  1.1326
  787MPD2    H111660   0.956   2.241  15.086 -0.2622  0.3271  0.8420
  787MPD2    H211661   0.891   2.605  14.889  3.0384  1.2025  2.4191
  787MPD2    H311662   0.830   2.440  15.056 -0.0535 -0.3155 -0.0236
  787MPD2     N11663   1.145   2.158  14.912  0.5867 -0.1473 -0.4721
  787MPD2    H511664   1.205   2.151  14.830  0.4084  1.5132 -0.7510
  787MPD2    N111665   1.017   2.557  14.667  0.1237 -0.3450 -0.7491
  787MPD2    H711666   0.979   2.651  14.668  1.9914  0.4138 -0.7760
  788MPD2     C11667   3.077   1.669   0.843  0.1603 -0.0513 -0.1986
  788MPD2    C111668   3.080   1.559   0.757  0.1731 -0.3080  0.0481
  788MPD2    C211669   3.038   1.572   0.626 -0.4158 -0.2835 -0.7154
  788MPD2    C311670   2.983   1.688   0.583 -0.2507  0.7698  0.9961
  788MPD2    C411671   2.965   1.794   0.672  0.2220  0.0233  0.5221
  788MPD2    C511672   3.023   1.787   0.803 -0.0189  0.3136 -0.1151
  788MPD2     H11673   3.067   1.498   0.552 -2.0720  0.6234 -2.2603
  788MPD2    H111674   2.936   1.890   0.632 -0.4518 -1.4154 -2.4396
  788MPD2    H211675   3.113   1.663   0.945 -1.1514  1.2224  0.3380
  788MPD2    H311676   3.014   1.876   0.865  1.0811 -1.0787  2.0545
  788MPD2     N11677   2.952   1.708   0.448 -0.1910  0.1353 -0.1023
  788MPD2    H511678   2.893   1.788   0.427 -0.2143  0.7778  2.3415
  788MPD2    N111679   3.126   1.432   0.804  1.1158  0.3774  0.2942
  788MPD2    H711680   3.107   1.348   0.751  1.7705 -0.2114  1.0042
  789MPD2     C11681   3.293   0.548  16.109 -0.7256  0.4014  0.2718
  789MPD2    C111682   3.244   0.522  16.234  0.2282 -0.1836  0.9618
  789MPD2    C211683   3.149   0.607  16.285 -0.2021 -0.3943  0.2489
  789MPD2    C311684   3.089   0.703  16.203 -0.1153  0.3812 -0.6336
  789MPD2    C411685   3.130   0.706  16.066  1.1072 -0.5392 -0.0428
  789MPD2    C511686   3.237   0.640  16.025  0.3909 -0.0499 -0.0345
  789MPD2     H11687   3.102   0.584  16.380  1.4739 -1.8451  0.7185
  789MPD2    H111688   3.095   0.775  15.991  0.3045 -1.4255 -0.4846
  789MPD2    H211689   3.383   0.505  16.066 -0.3192  0.1536  1.3737
  789MPD2    H311690   3.269   0.654  15.922  0.3706  3.5643  0.4396
  789MPD2     N11691   2.981   0.789  16.234  0.4935  0.5906  0.1924
  789MPD2    H511692   2.952   0.842  16.153 -0.8500  1.7618  1.4508
  789MPD2    N111693   3.295   0.411  16.315  0.1309 -0.3562  0.3353
  789MPD2    H711694   3.252   0.415  16.408  0.8472  0.7421  0.6187
  790MPD2     C11695   4.091   2.561  13.446  0.0135  0.3513 -0.3598
  790MPD2    C111696   4.091   2.420  13.428 -0.5658 -0.4676  0.4604
  790MPD2    C211697   4.045   2.368  13.311 -0.0589 -0.4257 -0.1031
  790MPD2    C311698   4.005   2.455  13.215 -0.4508  0.0415 -0.1857
  790MPD2    C411699   4.003   2.590  13.229 -0.7341 -0.5070 -0.0320
  790MPD2    C511700   4.042   2.638  13.351 -0.0634  0.8057 -0.1874
  790MPD2     H11701   4.054   2.261  13.296  0.2484 -0.2866 -0.9338
  790MPD2    H111702   3.964   2.653  13.150  1.7893  0.4755 -0.5101
  790MPD2    H211703   4.112   2.612  13.539 -1.9667 -0.4293  0.5327
  790MPD2    H311704   4.049   2.745  13.368  0.3723  0.9041 -0.9722
  790MPD2     N11705   3.968   2.393  13.095 -0.3577 -0.0692  0.1364
  790MPD2    H511706   3.980   2.292  13.090 -1.2290 -0.1538 -0.1768
  790MPD2    N111707   4.137   2.335  13.531  0.1649 -0.0895 -0.1450
  790MPD2    H711708   4.118   2.235  13.523  0.3191 -0.0596 -0.9319
  791MPD2     C11709   3.308   2.288  12.872 -0.8941  0.0833  0.2038
  791MPD2    C111710   3.388   2.179  12.843 -0.2526 -0.0276  0.1424
  791MPD2    C211711   3.335   2.068  12.784  0.6206 -0.2172 -0.0820
  791MPD2    C311712   3.200   2.061  12.758 -0.8158 -0.6522 -0.5822
  791MPD2    C411713   3.116   2.170  12.778 -0.3354 -0.0643  0.3740
  791MPD2    C511714   3.174   2.283  12.834 -0.2441 -0.6265  0.0329
  791MPD2     H11715   3.397   1.981  12.767 -0.5092 -0.9802 -0.3303
  791MPD2    H111716   3.010   2.164  12.758 -0.2758  1.0528 -0.2778
  791MPD2    H211717   3.357   2.372  12.920  3.2303 -0.8777 -2.2426
  791MPD2    H311718   3.108   2.367  12.853 -1.8901 -2.0069  0.4321
  791MPD2     N11719   3.161   1.933  12.716 -0.6135  0.5178  0.6117
  791MPD2    H511720   3.234   1.867  12.690 -2.1247 -1.4003  1.2411
  791MPD2    N111721   3.522   2.207  12.865 -0.2216  1.1409 -0.5183
  791MPD2    H711722   3.551   2.302  12.885  0.2486  1.0518 -0.7776
  792MPD2     C11723   0.044   2.191  11.282  0.2898 -0.3232 -0.1442
  792MPD2    C111724   4.669   2.219  11.224  0.1208  0.5180  0.0015
  792MPD2    C211725   4.619   2.143  11.113 -0.0514  0.3848  0.2460
  792MPD2    C311726   4.700   2.034  11.066 -0.6345  0.1476 -0.6635
  792MPD2    C411727   0.086   2.012  11.120 -0.7683 -0.4226 -0.5821
  792MPD2    C511728   0.121   2.081  11.229  0.7268  0.6301 -0.9979
  792MPD2     H11729   4.521   2.162  11.070  0.3131 -2.3675 -1.7872
  792MPD2    H111730   0.140   1.923  11.089 -2.0085 -0.8113 -1.6412
  792MPD2    H211731   0.095   2.252  11.355  1.8813 -0.8546 -0.8153
  792MPD2    H311732   0.217   2.055  11.273  0.5588 -1.0180 -1.6048
  792MPD2     N11733   4.662   1.962  10.950  0.1656 -0.9333 -0.1519
  792MPD2    H511734   4.720   1.882  10.927  0.4787 -0.2131 -1.9113
  792MPD2    N111735   4.601   2.336  11.264 -0.4669 -0.6071  0.3141
  792MPD2    H711736   4.656   2.380  11.337 -1.4616 -0.8732  1.2215
  793MPD2     C11737   3.935   2.321  10.506  0.0487  0.2020  0.5412
  793MPD2    C111738   4.066   2.350  10.551 -0.2261  0.3793  0.8435
  793MPD2    C211739   4.142   2.242  10.586  0.4314 -0.1196  0.0195
  793MPD2    C311740   4.098   2.116  10.590 -0.4948  0.7086 -0.3692
  793MPD2    C411741   3.964   2.090  10.572  0.9947  1.3394  0.1722
  793MPD2    C511742   3.890   2.189  10.519  0.1243  0.0108 -0.6731
  793MPD2     H11743   4.245   2.264  10.612 -0.1518  2.5642  0.0984
  793MPD2    H111744   3.911   1.999  10.598  0.3596  2.2183  2.0041
  793MPD2    H211745   3.859   2.387  10.464 -2.6782 -2.3526  1.4055
  793MPD2    H311746   3.786   2.171  10.493 -0.1456  3.0915 -1.7432
  793MPD2     N11747   4.186   2.024  10.647  0.0915  0.0086  0.2257
  793MPD2    H511748   4.275   2.071  10.662 -1.9058  3.9544 -0.4210
  793MPD2    N111749   4.120   2.478  10.550  0.0160 -0.2747 -0.1076
  793MPD2    H711750   4.210   2.488  10.596 -0.6308 -0.0007  1.1001
  794MPD2     C11751   3.789   1.960  16.906 -0.5348 -0.1698  0.1628
  794MPD2    C111752   3.761   1.839  16.955  0.1257  0.0848  0.6232
  794MPD2    C211753   3.675   1.762  16.876  0.5427 -0.2459 -0.6817
  794MPD2    C311754   3.613   1.812  16.763  1.0314  0.5597 -0.3183
  794MPD2    C411755   3.662   1.932  16.706 -0.3199 -0.0768  0.1042
  794MPD2    C511756   3.744   2.008  16.787  0.0435 -0.2603 -0.1723
  794MPD2     H11757   3.648   1.665  16.917  0.5379  0.4788  1.0010
  794MPD2    H111758   3.619   1.982  16.621 -1.1760  0.7046  0.9882
  794MPD2    H211759   3.858   2.028  16.954 -1.0891  0.7177 -0.2986
  794MPD2    H311760   3.776   2.104  16.746 -3.6736  0.4241 -1.4406
  794MPD2     N11761   3.509   1.758  16.692 -0.0306  0.1749  0.0096
  794MPD2    H511762   3.471   1.817  16.619  1.6081 -0.1244 -1.0755
  794MPD2    N111763   3.808   1.778  17.077  0.1610 -0.2205  0.6914
  794MPD2    H711764   3.758   1.701  17.119 -0.6208  0.6855  1.4106
  795MPD2     C11765   1.678   3.653  13.799 -0.2316 -0.0063 -0.1076
  795MPD2    C111766   1.703   3.624  13.669 -0.9092 -0.4065  0.7057
  795MPD2    C211767   1.812   3.542  13.641  0.3451 -0.7599  0.5252
  795MPD2    C311768   1.895   3.500  13.746 -0.3059 -0.5214 -0.4590
  795MPD2    C411769   1.879   3.549  13.877 -0.2155 -0.2167  0.1687
  795MPD2    C511770   1.767   3.619  13.894 -0.5902  0.1186 -0.0081
  795MPD2     H11771   1.822   3.504  13.539  2.3806  1.5090 -0.1216
  795MPD2    H111772   1.938   3.512  13.960 -0.2840 -0.3315  0.1664
  795MPD2    H211773   1.592   3.713  13.824 -0.7060 -1.0777  0.8196
  795MPD2    H311774   1.743   3.651  13.995  1.0938  0.6815  0.2122
  795MPD2     N11775   1.998   3.408  13.735 -0.3583  0.0626  0.2730
  795MPD2    H511776   2.054   3.380  13.816 -1.4253 -0.9666  0.6617
  795MPD2    N111777   1.608   3.655  13.567 -0.3458  0.0487  0.3557
  795MPD2    H711778   1.638   3.626  13.474 -3.9242 -1.4702 -0.3242
  796MPD2     C11779   0.915   0.400  15.777 -0.2259 -0.3213  0.3546
  796MPD2    C111780   0.976   0.512  15.822  0.3351 -0.2773 -0.2624
  796MPD2    C211781   0.938   0.638  15.766 -0.4444 -0.9736  0.2842
  796MPD2    C311782   0.856   0.640  15.651 -0.2799  0.0724 -0.5209
  796MPD2    C411783   0.804   0.523  15.595 -0.2494 -0.6669 -0.6652
  796MPD2    C511784   0.827   0.408  15.668 -0.1299 -0.4407 -0.6423
  796MPD2     H11785   0.983   0.731  15.802 -0.0011 -0.7353 -0.8955
  796MPD2    H111786   0.739   0.520  15.509  1.1527  0.9354 -1.7753
  796MPD2    H211787   0.943   0.299  15.806 -1.4973 -0.8379 -0.2261
  796MPD2    H311788   0.791   0.318  15.619  0.1876 -1.4615  1.0166
  796MPD2     N11789   0.858   0.763  15.585 -0.4596  0.1445  0.2159
  796MPD2    H511790   0.907   0.844  15.620  0.7317 -2.0071  3.6320
  796MPD2    N111791   1.070   0.493  15.923  0.0395 -0.1851 -0.1170
  796MPD2    H711792   1.092   0.400  15.956 -0.6822 -0.5974 -0.8110
  797MPD2     C11793   2.194   0.202  17.290 -0.0537  0.2549 -0.0921
  797MPD2    C111794   2.286   0.304  17.290 -0.0310 -0.5517  0.0949
  797MPD2    C211795   2.228   0.425  17.238  0.1659  0.1178 -0.1832
  797MPD2    C311796   2.115   0.422  17.158 -0.1580 -1.0667  0.8673
  797MPD2    C411797   2.035   0.306  17.148  0.1675 -0.2110 -0.3478
  797MPD2    C511798   2.070   0.204  17.225  0.1532 -0.1997 -0.1217
  797MPD2     H11799   2.295   0.510  17.235 -1.3235  1.2347 -1.4102
  797MPD2    H111800   1.942   0.300  17.094 -1.3806 -2.6261  2.5936
  797MPD2    H211801   2.207   0.109  17.345  1.6219 -1.4407 -3.3126
  797MPD2    H311802   2.001   0.121  17.238 -0.8330  0.7288  0.5969
  797MPD2     N11803   2.091   0.543  17.094 -0.1799  0.5122 -0.0221
  797MPD2    H511804   2.156   0.618  17.113 -0.2101  0.5793 -0.1821
  797MPD2    N111805   2.420   0.308  17.338 -0.0333 -0.2244 -0.1445
  797MPD2    H711806   2.455   0.403  17.334 -1.8834  0.5122  1.4489
  798MPD2     C11807   2.684   0.820  16.865 -0.0585  0.1593 -0.4201
  798MPD2    C111808   2.572   0.764  16.925 -0.0620  0.3873  0.1817
  798MPD2    C211809   2.601   0.666  17.026 -0.2420 -0.1771  0.3705
  798MPD2    C311810   2.732   0.638  17.066  0.1641 -0.2798 -0.1232
  798MPD2    C411811   2.839   0.708  17.015 -1.0086 -0.0310 -0.4169
  798MPD2    C511812   2.808   0.790  16.909 -0.0299  0.0645  0.1087
  798MPD2     H11813   2.522   0.606  17.070 -1.4521  0.7901 -0.5084
  798MPD2    H111814   2.942   0.697  17.048 -1.0941  0.8675  0.1323
  798MPD2    H211815   2.680   0.895  16.787 -4.0290 -0.1179 -0.4661
  798MPD2    H311816   2.894   0.838  16.862 -0.3545 -1.1514 -1.7180
  798MPD2     N11817   2.736   0.521  17.146  0.2104  0.2823 -0.0272
  798MPD2    H511818   2.650   0.482  17.184  1.1728 -3.0418 -1.2784
  798MPD2    N111819   2.439   0.805  16.885  0.4520 -0.4122 -0.2061
  798MPD2    H711820   2.426   0.871  16.809  1.4686  1.1234  0.9381
  799MPD2     C11821   0.944   1.842  14.807  0.5264  0.1715 -0.2467
  799MPD2    C111822   0.948   1.768  14.692 -0.6831 -0.2347  0.3040
  799MPD2    C211823   0.923   1.830  14.570  0.3225 -0.3576 -0.1126
  799MPD2    C311824   0.875   1.960  14.570  0.3860  0.2593 -0.3308
  799MPD2    C411825   0.878   2.038  14.682  0.6623  0.6726  0.8653
  799MPD2    C511826   0.914   1.980  14.800  0.4315  0.1178  0.8974
  799MPD2     H11827   0.937   1.768  14.483 -1.2711  0.4620 -0.9534
  799MPD2    H111828   0.853   2.143  14.673  2.1645  1.0797  1.4078
  799MPD2    H211829   0.971   1.807  14.906 -0.3649  0.5634  0.1404
  799MPD2    H311830   0.915   2.041  14.890 -0.7596 -0.5514  1.3733
  799MPD2     N11831   0.835   2.014  14.449  0.1101 -0.0641 -0.0195
  799MPD2    H511832   0.816   2.114  14.450 -0.9956 -0.2880  1.8382
  799MPD2    N111833   0.989   1.632  14.679  0.7432 -0.2856  0.1298
  799MPD2    H711834   0.956   1.590  14.592  3.9074 -1.0195 -0.7215
  800MPD2     C11835   1.818   2.967  14.522 -0.0681 -0.3490  0.3470
  800MPD2    C111836   1.919   2.936  14.433 -0.5229  0.2631  0.0984
  800MPD2    C211837   1.908   2.830  14.343  0.1402  0.0363  0.9291
  800MPD2    C311838   1.791   2.768  14.332 -0.3973 -0.3927 -0.1087
  800MPD2    C411839   1.699   2.791  14.433 -1.2430 -0.1032  0.1150
  800MPD2    C511840   1.708   2.887  14.526 -0.1844 -0.0828 -0.2305
  800MPD2     H11841   1.976   2.806  14.262  1.3256 -0.1492  1.9979
  800MPD2    H111842   1.611   2.728  14.438 -1.1525 -0.3382 -1.4291
  800MPD2    H211843   1.814   3.056  14.584 -0.0435 -0.5077  0.5768
  800MPD2    H311844   1.610   2.902  14.569 -0.5838 -0.6178 -0.9468
  800MPD2     N11845   1.784   2.662  14.237 -0.4807 -0.6956 -0.3489
  800MPD2    H511846   1.872   2.635  14.195 -0.2748  1.5009 -1.3376
  800MPD2    N111847   2.027   3.026  14.434  0.3934 -0.2833 -0.2008
  800MPD2    H711848   2.025   3.098  14.506 -4.2664 -0.0763 -0.5688
  801MPD2     C11849   1.935   3.685  14.276  0.7621 -0.9030 -0.8470
  801MPD2    C111850   1.933   3.581  14.372  0.0814  0.3292  0.1107
  801MPD2    C211851   1.813   3.554  14.429 -0.0196  0.0308 -0.0534
  801MPD2    C311852   1.705   3.638  14.403 -0.1860  0.1332  0.2857
  801MPD2    C411853   1.713   3.745  14.316  0.1081 -0.4039 -0.1336
  801MPD2    C511854   1.829   3.771  14.258 -0.2813  0.0404  0.1396
  801MPD2     H11855   1.809   3.473  14.500  2.0267 -0.5355 -0.6059
  801MPD2    H111856   1.629   3.811  14.297 -0.0605 -0.4676  0.3935
  801MPD2    H211857   2.027   3.716  14.227  0.5434  3.4712  1.4547
  801MPD2    H311858   1.835   3.841  14.176  0.3680 -0.9301 -0.6382
  801MPD2     N11859   1.577   3.624  14.463 -0.1690  0.0029 -0.1158
  801MPD2    H511860   1.509   3.684  14.418  0.7441  1.1461  0.0261
  801MPD2    N111861   2.034   3.485  14.389  0.3744 -0.2348  0.6647
  801MPD2    H711862   2.006   3.410  14.452  0.4550  0.5281  1.6211
  802MPD2     C11863   1.646   3.608  17.745  0.4196 -0.7472  0.3901
  802MPD2    C111864   1.538   3.683  17.690  0.0905  0.4831 -0.5662
  802MPD2    C211865   1.478   3.633  17.570  0.1987 -0.1613 -0.0746
  802MPD2    C311866   1.529   3.520  17.505  0.8068  0.0142 -0.5756
  802MPD2    C411867   1.638   3.453  17.558 -0.5011 -0.2249  0.0712
  802MPD2    C511868   1.692   3.498  17.680  0.0849 -0.4067 -0.3895
  802MPD2     H11869   1.397   3.684  17.520  3.3853  3.2661 -1.7672
  802MPD2    H111870   1.683   3.366  17.512 -2.8573 -1.1629 -0.4572
  802MPD2    H211871   1.700   3.641   0.076 -2.2146  2.0320  0.9876
  802MPD2    H311872   1.769   3.426  17.704 -1.9260 -2.4187  0.0107
  802MPD2     N11873   1.484   3.484  17.375  0.4023 -0.1260 -0.5657
  802MPD2    H511874   1.409   3.546  17.346  0.1829  0.0391  0.3834
  802MPD2    N111875   1.475   3.800  17.739  0.1747  0.2661 -0.1604
  802MPD2    H711876   1.392   3.838  17.693 -1.0592 -0.0179  1.8523
  803MPD2     C11877   2.204   1.608  11.803 -1.0477 -0.4457  0.4105
  803MPD2    C111878   2.169   1.704  11.897 -0.4787  0.3391  0.4813
  803MPD2    C211879   2.118   1.669  12.019 -0.2064  0.3373  0.4566
  803MPD2    C311880   2.119   1.534  12.055 -0.4608 -0.5414 -0.0251
  803MPD2    C411881   2.169   1.433  11.964 -0.2975  0.4289  0.1597
  803MPD2    C511882   2.199   1.474  11.837 -0.3061 -0.6280 -0.2419
  803MPD2     H11883   2.089   1.752  12.082 -0.7050  1.0241 -0.6808
  803MPD2    H111884   2.168   1.327  11.988 -1.3367  0.6211  0.9834
  803MPD2    H211885   2.251   1.628  11.708 -4.3496  0.3215 -1.0396
  803MPD2    H311886   2.225   1.401  11.761  0.7589 -0.3578 -0.1385
  803MPD2     N11887   2.085   1.486  12.186 -0.0620  0.2607  0.1914
  803MPD2    H511888   2.094   1.390  12.216  0.5661  0.1307 -0.4168
  803MPD2    N111889   2.180   1.838  11.856  0.2559  0.3838 -0.5285
  803MPD2    H711890   2.233   1.855  11.771  0.5563  1.6625 -0.0941
  804MPD2     C11891   1.928   3.387  17.039  0.5482 -0.0566 -0.2955
  804MPD2    C111892   1.889   3.349  17.169  0.1560  0.5637  0.3135
  804MPD2    C211893   1.944   3.411  17.280  0.5645 -0.2908  0.4818
  804MPD2    C311894   2.041   3.509  17.262  0.0716 -0.3515 -0.3004
  804MPD2    C411895   2.082   3.546  17.140  0.3850 -0.3690 -0.9420
  804MPD2    C511896   2.028   3.479  17.031 -0.0081 -0.9429  0.2279
  804MPD2     H11897   1.900   3.378  17.374  0.1706 -2.8353 -0.5942
  804MPD2    H111898   2.144   3.632  17.120  1.0929 -0.7174 -0.2785
  804MPD2    H211899   1.894   3.345  16.945  1.9722  1.3792 -1.4452
  804MPD2    H311900   2.063   3.516  16.936  1.1457 -0.8545  0.6788
  804MPD2     N11901   2.093   3.569  17.382 -0.5290 -0.2806 -0.0824
  804MPD2    H511902   2.058   3.531  17.469 -0.4863  1.7396  0.8188
  804MPD2    N111903   1.797   3.244  17.196  0.0993 -0.4280  0.4004
  804MPD2    H711904   1.778   3.231  17.295 -0.7038 -0.6351  0.2118
  805MPD2     C11905   0.523   2.023  15.212 -0.0815  0.0969  0.1055
  805MPD2    C111906   0.630   1.976  15.139  0.3056  0.0796 -0.2432
  805MPD2    C211907   0.761   2.016  15.174  0.4790 -0.5425 -0.3499
  805MPD2    C311908   0.787   2.103  15.282 -1.1356 -0.3530 -0.8732
  805MPD2    C411909   0.676   2.145  15.348  0.4194  0.4031  0.6601
  805MPD2    C511910   0.548   2.105  15.317  0.4597  0.8381 -0.6340
  805MPD2     H11911   0.839   1.978  15.109  0.3514  0.6941 -1.2187
  805MPD2    H111912   0.671   2.223  15.422 -1.1230  0.3391  0.6290
  805MPD2    H211913   0.420   1.990  15.199  0.8863 -3.0285  0.3609
  805MPD2    H311914   0.464   2.142  15.376  0.8610  0.7997 -0.0362
  805MPD2     N11915   0.922   2.133  15.325  0.7286  0.1051 -0.5998
  805MPD2    H511916   1.001   2.098  15.272 -0.0323 -1.2742 -0.8170
  805MPD2    N111917   0.609   1.901  15.021 -0.3888 -0.2827 -0.4167
  805MPD2    H711918   0.690   1.858  14.978 -0.1694 -0.3268  0.0401
  806MPD2     C11919   1.194   1.245   0.186 -0.0729  0.3028 -0.5979
  806MPD2    C111920   1.229   1.347   0.270  0.5831  0.4260 -0.3941
  806MPD2    C211921   1.293   1.452   0.202  0.7290 -0.1265 -0.9040
  806MPD2    C311922   1.318   1.454   0.064 -0.2690 -0.6573 -0.3949
  806MPD2    C411923   1.291   1.345  17.751 -0.2943 -0.6156 -0.3826
  806MPD2    C511924   1.228   1.237   0.055 -0.0858  0.1348 -0.3461
  806MPD2     H11925   1.328   1.531   0.267  3.2881 -2.3123  0.4008
  806MPD2    H111926   1.313   1.345  17.645 -0.3793  0.2272 -0.3978
  806MPD2    H211927   1.139   1.161   0.227 -3.5891  2.0180 -1.7588
  806MPD2    H311928   1.189   1.148   0.008 -2.9477  0.4305  1.4871
  806MPD2     N11929   1.391   1.572   0.015 -0.1656 -0.6113  0.5316
  806MPD2    H511930   1.420   1.641   0.084  1.2845  2.2024 -2.9066
  806MPD2    N111931   1.217   1.339   0.410  0.0523 -0.5057 -0.0527
  806MPD2    H711932   1.168   1.257   0.445 -0.3662  0.4934  1.7200
  807MPD2     C11933   1.360   0.758   0.813  0.4900  0.5947 -0.5307
  807MPD2    C111934   1.310   0.837   0.915 -0.2426  0.7648 -0.1147
  807MPD2    C211935   1.304   0.789   1.042  0.3517 -0.1091 -0.0854
  807MPD2    C311936   1.360   0.663   1.070 -0.2597 -0.2628  0.2093
  807MPD2    C411937   1.397   0.586   0.963 -0.5725  0.4287 -0.2393
  807MPD2    C511938   1.406   0.635   0.835 -0.6619  0.3405  0.3306
  807MPD2     H11939   1.247   0.843   1.117 -0.2430  1.7576 -1.8733
  807MPD2    H111940   1.428   0.483   0.974 -0.3552  0.6604  1.2938
  807MPD2    H211941   1.376   0.791   0.710  0.4367  1.4174 -0.2766
  807MPD2    H311942   1.444   0.572   0.755 -0.1894  1.5012 -0.3572
  807MPD2     N11943   1.328   0.609   1.193 -0.1198 -0.2425  0.3871
  807MPD2    H511944   1.275   0.674   1.251 -0.7241  0.8217 -1.3736
  807MPD2    N111945   1.273   0.972   0.897  0.0837  0.1060 -0.0814
  807MPD2    H711946   1.255   1.038   0.972 -1.6984 -1.5600  0.9623
  808MPD2     C11947   1.007   2.370   9.557  0.1248 -0.1842  0.4786
  808MPD2    C111948   1.096   2.335   9.658  0.2309 -0.1145 -0.2828
  808MPD2    C211949   1.205   2.411   9.687 -0.6950  0.1145  0.1317
  808MPD2    C311950   1.228   2.531   9.620 -0.1453  0.2871 -0.1536
  808MPD2    C411951   1.143   2.567   9.516  0.3256  0.1779 -0.9143
  808MPD2    C511952   1.033   2.483   9.493 -0.8780  0.1925 -0.9320
  808MPD2     H11953   1.283   2.367   9.748 -1.6217 -0.6762  0.7614
  808MPD2    H111954   1.155   2.658   9.458  1.3124  0.5533 -0.1198
  808MPD2    H211955   0.918   2.312   9.538 -0.8547  1.6233 -0.5280
  808MPD2    H311956   0.966   2.518   9.415 -2.6953 -0.2704  0.4146
  808MPD2     N11957   1.339   2.609   9.657  0.2502  0.4035 -0.0409
  808MPD2    H511958   1.404   2.558   9.717 -0.4812  1.3433  1.5498
  808MPD2    N111959   1.090   2.217   9.732 -0.2420 -0.2820 -0.2509
  808MPD2    H711960   1.156   2.210   9.809  0.4266  1.6901 -0.6579
  809MPD2     C11961   1.944   2.256  10.109  0.4406  0.4750  0.4424
  809MPD2    C111962   2.029   2.334  10.027 -0.0487 -0.1449 -0.1304
  809MPD2    C211963   1.978   2.448   9.967  0.3371  0.0217 -0.1084
  809MPD2    C311964   1.845   2.480   9.977 -0.1322 -0.3650 -0.3933
  809MPD2    C411965   1.766   2.404  10.051  0.1917  1.1641  0.7887
  809MPD2    C511966   1.814   2.297  10.121 -0.2111  0.3113 -0.5730
  809MPD2     H11967   2.037   2.512   9.903  0.8143  1.0336  1.3525
  809MPD2    H111968   1.661   2.429  10.063 -0.4788 -2.4722  2.4265
  809MPD2    H211969   1.976   2.168  10.163  0.9398  0.8734  0.8029
  809MPD2    H311970   1.739   2.245  10.179 -1.5152  1.4493 -1.2465
  809MPD2     N11971   1.775   2.578   9.911 -0.3539  0.3030  0.0492
  809MPD2    H511972   1.680   2.588   9.945 -0.0122  0.4620  0.9480
  809MPD2    N111973   2.167   2.299  10.026  0.2959  0.2044 -0.1432
  809MPD2    H711974   2.228   2.360   9.972  0.3006  0.4845  0.1788
  810MPD2     C11975   1.524   2.201  10.695 -0.2086 -0.0200 -1.7767
  810MPD2    C111976   1.472   2.120  10.790  0.0397  0.0644  0.1968
  810MPD2    C211977   1.513   2.145  10.921  0.7376  0.7505  0.3035
  810MPD2    C311978   1.585   2.256  10.952  0.6770  1.2554 -0.2514
  810MPD2    C411979   1.638   2.330  10.854  0.1022 -0.3166 -0.5107
  810MPD2    C511980   1.612   2.306  10.721  0.5114  0.1660 -0.6563
  810MPD2     H11981   1.483   2.077  11.000  0.3877  0.9999  0.3868
  810MPD2    H111982   1.707   2.409  10.883 -0.3331 -0.0552 -0.1935
  810MPD2    H211983   1.502   2.189  10.589 -4.4261 -1.9452 -0.6635
  810MPD2    H311984   1.659   2.362  10.641  0.9621 -0.5133 -0.8667
  810MPD2     N11985   1.617   2.293  11.085 -1.0330  0.1717 -0.1134
  810MPD2    H511986   1.667   2.380  11.101 -3.4544  1.4977  0.1918
  810MPD2    N111987   1.365   2.029  10.748  0.1588 -0.6134  0.0646
  810MPD2    H711988   1.332   2.039  10.653  0.5084 -1.6252 -0.1670
  811MPD2     C11989   0.667   1.855  10.312  0.1501  0.6266  0.5215
  811MPD2    C111990   0.753   1.934  10.390  0.1282 -0.6251  0.2478
  811MPD2    C211991   0.769   2.069  10.365 -0.5553 -0.1335  0.6789
  811MPD2    C311992   0.715   2.129  10.256  0.1843 -0.7504  0.5300
  811MPD2    C411993   0.642   2.055  10.165 -0.2811  0.1300 -0.2874
  811MPD2    C511994   0.610   1.920  10.199 -0.1220  0.0551  0.8749
  811MPD2     H11995   0.840   2.128  10.422  0.8481 -0.1197 -1.0618
  811MPD2    H111996   0.597   2.094  10.074  0.6336 -0.3926 -0.9637
  811MPD2    H211997   0.650   1.749  10.331 -1.2935  0.9126  0.8755
  811MPD2    H311998   0.529   1.868  10.149  0.1545 -0.2708  0.7564
  811MPD2     N11999   0.740   2.270  10.235 -1.0958 -0.1148 -0.1753
  811MPD2    H512000   0.782   2.312  10.317 -2.6555  0.0464  0.5230
  811MPD2    N112001   0.832   1.861  10.484 -0.4153  0.0807 -0.0542
  811MPD2    H712002   0.826   1.760  10.488 -1.8282  0.2297  1.9361
  812MPD2     C12003   4.421   1.840  12.116  0.4958  0.3000  0.0285
  812MPD2    C112004   4.509   1.945  12.139  0.9590 -0.0925 -0.1793
  812MPD2    C212005   4.619   1.921  12.226  0.7976 -0.2515 -0.2462
  812MPD2    C312006   4.640   1.795  12.284 -0.6376 -0.0827  0.3557
  812MPD2    C412007   4.541   1.697  12.272  0.0539  0.1645 -0.3239
  812MPD2    C512008   4.437   1.717  12.182 -0.1890 -0.0111  0.6839
  812MPD2     H12009   4.692   2.000  12.238  0.8587 -0.3808  0.2185
  812MPD2    H112010   4.559   1.601  12.319  2.1843  0.8040  0.1704
  812MPD2    H212011   4.325   1.851  12.068  0.1998  1.6437  0.9074
  812MPD2    H312012   4.363   1.639  12.171 -0.9590  1.0143 -1.4996
  812MPD2     N12013   0.021   1.786  12.349 -0.0813 -0.1916  0.5005
  812MPD2    H512014   0.070   1.874  12.362 -0.0656 -0.1110 -0.1376
  812MPD2    N112015   4.490   2.074  12.082  0.3191  0.0246 -0.2520
  812MPD2    H712016   4.545   2.156  12.107 -1.2108  0.9010  0.1880
  813MPD2     C12017   4.239   3.613  12.859 -0.6154  0.5067 -0.3911
  813MPD2    C112018   4.228   3.752  12.865  0.5164 -0.9657  0.1776
  813MPD2    C212019   4.173   3.826  12.971 -0.2216 -0.7129  0.2787
  813MPD2    C312020   4.140   3.759  13.086 -0.4480  0.5083  0.8370
  813MPD2    C412021   4.158   3.618  13.084 -0.4984  0.2177  0.0663
  813MPD2    C512022   4.199   3.550  12.976  0.1108  0.0089  0.0435
  813MPD2     H12023   4.160   3.933  12.957  1.7826 -0.5380 -0.2460
  813MPD2    H112024   4.132   3.562  13.173  0.6485  1.5162  1.2054
  813MPD2    H212025   4.291   3.561  12.780 -2.6091 -2.5179  0.2510
  813MPD2    H312026   4.200   3.443  12.990 -1.0396  0.0627  0.5259
  813MPD2     N12027   4.100   3.837  13.196  0.5991 -0.1566  0.5027
  813MPD2    H512028   4.111   3.938  13.195  0.8906 -0.1620  3.6036
  813MPD2    N112029   4.286   3.814  12.753 -0.5291  0.7149  0.2389
  813MPD2    H712030   4.348   3.756  12.699 -2.9619 -1.6104 -0.0395
  814MPD2     C12031   4.527   0.374  12.691  0.9686  0.0144 -0.3944
  814MPD2    C112032   4.588   0.382  12.572 -0.1851  0.6820 -0.6729
  814MPD2    C212033   4.660   0.501  12.538  0.5424  0.9440 -0.3634
  814MPD2    C312034   4.663   0.609  12.625 -0.7731 -0.5925  0.2642
  814MPD2    C412035   4.599   0.587  12.748 -0.8376 -0.2453 -0.3440
  814MPD2    C512036   4.532   0.473  12.780 -0.2942  0.1012 -0.0153
  814MPD2     H12037   4.720   0.504  12.448  0.7629  0.2730 -0.2398
  814MPD2    H112038   4.609   0.659  12.828 -1.6201 -0.1797 -0.3083
  814MPD2    H212039   4.472   0.286  12.721 -2.9556  2.1160 -1.4661
  814MPD2    H312040   4.487   0.454  12.877  0.4291 -0.2885  0.2463
  814MPD2     N12041   4.717   0.734  12.596 -0.5730  0.4213 -0.2997
  814MPD2    H512042   4.715   0.796  12.676 -0.8116  0.0568 -0.0219
  814MPD2    N112043   4.572   0.284  12.471  0.4965 -0.3592  0.4430
  814MPD2    H712044   4.623   0.310  12.387  1.3712  0.5694  1.2600
  815MPD2     C12045   0.104   2.795  11.889 -0.6516  0.3384  0.0518
  815MPD2    C112046   0.032   2.896  11.831 -0.1075  0.1185  0.6219
  815MPD2    C212047   4.673   2.946  11.900  0.5806 -0.3999 -0.8485
  815MPD2    C312048   4.626   2.889  12.013  0.4664 -0.9543 -0.1699
  815MPD2    C412049   4.688   2.783  12.071 -0.5516  0.9396  0.8718
  815MPD2    C512050   0.064   2.736  12.008 -0.9527  0.5676  0.3200
  815MPD2     H12051   4.628   3.039  11.867 -0.5241 -0.5606  0.2037
  815MPD2    H112052   4.650   2.733  12.160 -0.4090  0.6578  0.7765
  815MPD2    H212053   0.198   2.755  11.854  0.2043  3.8031 -1.6362
  815MPD2    H312054   0.111   2.649  12.052 -2.7620 -0.6114 -0.0856
  815MPD2     N12055   4.506   2.947  12.064  0.7791  0.2296 -0.0463
  815MPD2    H512056   4.458   3.014  12.005 -0.5486  1.3238  2.2721
  815MPD2    N112057   0.078   2.950  11.710  0.2062 -0.7340 -0.3127
  815MPD2    H712058   0.172   2.927  11.681 -0.7308 -4.0441 -0.7093
  816MPD2     C12059   0.644   3.283  17.158 -0.5567 -0.1463 -0.4182
  816MPD2    C112060   0.513   3.260  17.142 -0.0497 -0.4243  0.4244
  816MPD2    C212061   0.470   3.144  17.076 -0.0060 -0.6387  0.5556
  816MPD2    C312062   0.567   3.072  17.010 -0.5840  0.1311 -0.1898
  816MPD2    C412063   0.700   3.099  17.034 -1.0321  0.7400  0.5632
  816MPD2    C512064   0.743   3.192  17.121  0.0710 -0.6973 -0.1079
  816MPD2     H12065   0.367   3.111  17.067  0.1085 -0.8576  0.0761
  816MPD2    H112066   0.778   3.035  16.993  2.0839  2.9701  3.0076
  816MPD2    H212067   0.673   3.379  17.200 -0.9915 -0.6900  1.1227
  816MPD2    H312068   0.844   3.226  17.140 -1.2465  3.1952 -0.1043
  816MPD2     N12069   0.530   2.966  16.922  0.4673  0.0503  0.5237
  816MPD2    H512070   0.433   2.963  16.890  0.7898 -1.9717 -0.2719
  816MPD2    N112071   0.426   3.355  17.190  0.1309 -0.5384 -0.0640
  816MPD2    H712072   0.468   3.428  17.246  1.4321 -1.0072 -0.4270
  817MPD2     C12073   4.246   4.367   9.964 -0.2257  0.3394  0.1944
  817MPD2    C112074   4.248   4.345   9.830  0.1601  0.5852  0.3683
  817MPD2    C212075   4.133   4.364   9.754  0.1995 -0.6491 -0.1322
  817MPD2    C312076   4.015   4.413   9.817  0.0705  0.0293  0.2323
  817MPD2    C412077   4.016   4.430   9.951 -0.5166  0.4321  0.1113
  817MPD2    C512078   4.131   4.409  10.024  0.5537 -0.1329  0.9593
  817MPD2     H12079   4.143   4.356   9.646 -1.8162  2.4647 -0.5614
  817MPD2    H112080   3.926   4.463  10.001 -1.0810  0.0237 -0.6459
  817MPD2    H212081   4.335   4.363  10.025 -2.1428 -1.5337  2.8463
  817MPD2    H312082   4.137   4.430  10.130  0.9162  0.8246  0.7485
  817MPD2     N12083   3.901   4.442   9.740 -0.1747 -0.2434 -0.6154
  817MPD2    H512084   3.916   4.429   9.641 -4.5645 -1.0252 -1.1747
  817MPD2    N112085   4.365   4.295   9.769 -0.2462  0.1808 -0.1623
  817MPD2    H712086   4.372   4.273   9.670  0.9406 -0.4846  0.0635
  818MPD2     C12087   3.118   4.313  10.053  0.5176  0.3059 -0.3397
  818MPD2    C112088   3.047   4.395  10.133 -0.1690 -0.1882  0.0788
  818MPD2    C212089   2.912   4.375  10.151 -0.4178 -0.3311 -0.1160
  818MPD2    C312090   2.848   4.275  10.088  0.0358 -0.2535  0.6198
  818MPD2    C412091   2.925   4.196  10.003 -0.0007 -0.5990 -0.5519
  818MPD2    C512092   3.060   4.211   9.985  0.7451 -0.6426  0.3157
  818MPD2     H12093   2.855   4.445  10.212 -1.1357  0.6580 -1.9085
  818MPD2    H112094   2.869   4.121   9.949  0.5041 -2.1236  1.0532
  818MPD2    H212095   3.221   4.340  10.033  1.4274 -1.3832  2.0349
  818MPD2    H312096   3.112   4.149   9.913 -2.6242 -2.7643 -0.2853
  818MPD2     N12097   2.718   4.225  10.119 -0.0722 -0.2739  0.6656
  818MPD2    H512098   2.697   4.134  10.080 -0.2809 -0.8309  2.0533
  818MPD2    N112099   3.115   4.498  10.215 -0.3822 -0.0827  0.0879
  818MPD2    H712100   3.052   4.547  10.277 -1.4130 -0.4645 -0.6621
  819MPD2     C12101   1.472   1.609  15.475 -0.3021 -0.4552 -0.9663
  819MPD2    C112102   1.525   1.491  15.459 -0.3215  0.1793  0.5810
  819MPD2    C212103   1.655   1.472  15.500 -0.3890 -0.2178 -0.1102
  819MPD2    C312104   1.735   1.569  15.564  0.6664  0.1738  0.5436
  819MPD2    C412105   1.669   1.688  15.593  0.2999  0.2568 -0.3377
  819MPD2    C512106   1.536   1.700  15.550 -0.5695 -0.4930  0.2738
  819MPD2     H12107   1.717   1.389  15.466  0.4303  0.7977 -1.1054
  819MPD2    H112108   1.716   1.766  15.652  0.9936 -0.7419  0.4385
  819MPD2    H212109   1.366   1.625  15.456 -0.3900 -0.5536 -0.5552
  819MPD2    H312110   1.480   1.788  15.579 -0.9964 -1.6617  2.9821
  819MPD2     N12111   1.866   1.536  15.608 -0.2647 -0.1486 -0.0327
  819MPD2    H512112   1.908   1.445  15.590 -1.1005 -0.3359 -0.9932
  819MPD2    N112113   1.464   1.392  15.369 -0.1884 -0.1184 -0.2646
  819MPD2    H712114   1.391   1.428  15.308 -1.5255  0.2991  1.5677
  820MPD2     C12115   0.667   1.063  14.918  0.1550 -0.5866 -0.0313
  820MPD2    C112116   0.716   1.194  14.930  1.0552  0.1583  0.0676
  820MPD2    C212117   0.848   1.205  14.973 -0.0719  0.0190 -0.3768
  820MPD2    C312118   0.922   1.091  14.991  0.4092  0.3198  0.1374
  820MPD2    C412119   0.867   0.964  14.974  0.2813 -0.2788  0.7492
  820MPD2    C512120   0.738   0.949  14.942  0.4355 -0.9276  0.6116
  820MPD2     H12121   0.898   1.301  14.979 -1.2545  0.6514 -0.5423
  820MPD2    H112122   0.920   0.873  15.000  1.3372 -0.5462 -2.3473
  820MPD2    H212123   0.564   1.047  14.888  0.3877  1.1758 -1.8165
  820MPD2    H312124   0.696   0.850  14.930  0.4494 -0.8376 -0.1433
  820MPD2     N12125   1.054   1.087  15.027  0.3026  0.4857 -0.5913
  820MPD2    H512126   1.103   0.998  15.029 -4.2701 -1.9880 -0.6043
  820MPD2    N112127   0.623   1.300  14.897  0.4460  0.2609 -0.0401
  820MPD2    H712128   0.543   1.269  14.843 -1.1952  0.2864  2.3346
  821MPD2     C12129   1.702   2.522  13.442 -0.1401 -0.5808 -0.1156
  821MPD2    C112130   1.820   2.536  13.525 -0.0533 -0.4857  0.5048
  821MPD2    C212131   1.946   2.549  13.466 -0.4297  0.4722  0.5614
  821MPD2    C312132   1.958   2.538  13.328 -0.0441  0.0043  0.4984
  821MPD2    C412133   1.847   2.537  13.247 -0.0748  0.1573 -0.3915
  821MPD2    C512134   1.717   2.526  13.306 -0.4206 -0.3649 -0.1903
  821MPD2     H12135   2.031   2.577  13.526 -1.4085  0.2374  2.0487
  821MPD2    H112136   1.854   2.522  13.139 -0.9717  2.0151 -0.7045
  821MPD2    H212137   1.602   2.509  13.482 -0.5162 -0.2055 -0.9465
  821MPD2    H312138   1.631   2.526  13.240  1.8348 -1.9859 -3.1284
  821MPD2     N12139   2.083   2.562  13.263  0.8473  0.4119 -0.4570
  821MPD2    H512140   2.090   2.572  13.162  0.5337  2.0849 -0.3192
  821MPD2    N112141   1.815   2.517  13.671 -0.7579 -0.6036  0.4532
  821MPD2    H712142   1.896   2.491  13.726 -0.5932 -1.1007 -0.0297
  822MPD2     C12143   2.570   2.891  15.774 -0.0804  0.3973 -0.0490
  822MPD2    C112144   2.533   2.847  15.901  0.0159 -0.7307 -0.0248
  822MPD2    C212145   2.483   2.943  15.987 -0.3687  0.4084  0.3974
  822MPD2    C312146   2.475   3.077  15.963 -0.0918  0.4640  0.1015
  822MPD2    C412147   2.487   3.117  15.830 -0.5965 -0.0422  0.4838
  822MPD2    C512148   2.555   3.025  15.739  0.2491 -0.1317  0.6043
  822MPD2     H12149   2.468   2.908  16.088 -2.3848  0.6345  0.1711
  822MPD2    H112150   2.461   3.218  15.802  0.6705  0.6370  1.8018
  822MPD2    H212151   2.628   2.831  15.706  0.0192 -1.8440  2.0313
  822MPD2    H312152   2.591   3.063  15.644  1.6028 -2.2275  0.2829
  822MPD2     N12153   2.407   3.144  16.070  0.2669 -0.0603  0.8474
  822MPD2    H512154   2.393   3.095  16.158  1.1602  1.6074  1.9402
  822MPD2    N112155   2.531   2.715  15.943 -0.2405 -0.5299 -0.1657
  822MPD2    H712156   2.498   2.686  16.034 -1.6340  0.7240 -0.2761
  823MPD2     C12157   2.094   3.152  16.844  0.3464 -0.3622  1.4079
  823MPD2    C112158   2.118   3.094  16.721  0.0093  0.1803 -0.5470
  823MPD2    C212159   2.087   2.958  16.697  0.0508  0.1604 -0.2599
  823MPD2    C312160   2.031   2.885  16.798 -0.1229 -0.4302  0.4538
  823MPD2    C412161   2.015   2.940  16.922 -0.2650  0.1552  0.3712
  823MPD2    C512162   2.051   3.066  16.946  1.2036 -0.0856  0.0939
  823MPD2     H12163   2.102   2.910  16.601  2.2106  1.2044 -0.4599
  823MPD2    H112164   1.990   2.874  17.004 -2.6047 -0.8975 -1.2081
  823MPD2    H212165   2.110   3.258  16.861  0.2494 -0.0698 -0.3028
  823MPD2    H312166   2.037   3.117  17.040  2.6485 -1.8092  1.2249
  823MPD2     N12167   2.009   2.743  16.787  0.0604 -0.0966  0.4573
  823MPD2    H512168   1.963   2.696  16.864  2.0859 -2.3660  0.2765
  823MPD2    N112169   2.176   3.177  16.625  0.2769  0.4358 -0.3481
  823MPD2    H712170   2.195   3.273  16.650 -1.9830  0.8503 -0.2573
  824MPD2     C12171   3.102   2.109  16.024 -0.3792 -0.0308 -0.4785
  824MPD2    C112172   3.035   2.145  15.908 -0.8564 -0.4425 -0.4889
  824MPD2    C212173   3.088   2.105  15.786 -0.5704  0.1062 -0.6236
  824MPD2    C312174   3.203   2.030  15.779 -0.5665  0.4197 -0.1310
  824MPD2    C412175   3.265   1.986  15.897  0.4990 -0.1986  0.2100
  824MPD2    C512176   3.214   2.025  16.017  1.2189 -0.3447 -0.5925
  824MPD2     H12177   3.024   2.134  15.703  1.7139 -1.6372 -2.9894
  824MPD2    H112178   3.341   1.908  15.892 -0.6721 -1.2383 -1.0891
  824MPD2    H212179   3.073   2.155  16.118 -0.2291  0.8044 -0.8438
  824MPD2    H312180   3.263   2.000  16.111 -1.7393  0.4441  1.1795
  824MPD2     N12181   3.234   1.989  15.646 -0.1043  0.0130  0.1528
  824MPD2    H512182   3.185   2.026  15.565 -0.2265  1.4194  0.8677
  824MPD2    N112183   2.910   2.211  15.914 -0.5463 -0.1597 -0.4972
  824MPD2    H712184   2.878   2.252  15.827 -1.7007 -0.9611 -0.4429
  825MPD2     C12185   3.778   2.169  14.995  0.6539  0.0538  0.4661
  825MPD2    C112186   3.708   2.207  15.114 -0.5311 -0.4714 -0.0288
  825MPD2    C212187   3.747   2.326  15.171  0.9047  0.4629  0.4687
  825MPD2    C312188   3.864   2.395  15.129  0.3152  0.0436  0.0994
  825MPD2    C412189   3.938   2.336  15.029  0.0496 -0.5570  0.3276
  825MPD2    C512190   3.895   2.227  14.958  0.8017  0.3646  0.5022
  825MPD2     H12191   3.684   2.369  15.248  0.5800  0.9859 -0.0861
  825MPD2    H112192   4.032   2.381  15.000 -0.6321  2.0117  2.1105
  825MPD2    H212193   3.752   2.068  14.967  1.6372 -0.2078  0.5275
  825MPD2    H312194   3.950   2.193  14.871 -1.0247  0.5325 -0.7177
  825MPD2     N12195   3.908   2.518  15.177  0.0807  0.1894 -0.3182
  825MPD2    H512196   3.989   2.558  15.131  1.3664  1.5646  3.1324
  825MPD2    N112197   3.596   2.126  15.153 -0.0189 -0.0967 -0.3103
  825MPD2    H712198   3.587   2.033  15.113  0.3430 -0.1632 -0.2396
  826MPD2     C12199   2.658   1.680  13.409 -0.1289 -0.3180 -0.0935
  826MPD2    C112200   2.766   1.746  13.455 -0.2032  0.8884 -0.0731
  826MPD2    C212201   2.741   1.838  13.555 -0.6725  0.4585  0.2851
  826MPD2    C312202   2.615   1.859  13.611 -0.2030 -0.0736  0.1386
  826MPD2    C412203   2.508   1.795  13.556  0.2049 -0.5867  0.1098
  826MPD2    C512204   2.532   1.705  13.462  0.0337  0.1191  0.6677
  826MPD2     H12205   2.819   1.906  13.586 -0.7400  0.9071 -0.5333
  826MPD2    H112206   2.405   1.809  13.585  0.5073  2.9266 -0.5849
  826MPD2    H212207   2.663   1.604  13.332 -0.9889 -0.2997 -0.1753
  826MPD2    H312208   2.451   1.659  13.407  0.8674 -0.5201 -0.0276
  826MPD2     N12209   2.589   1.954  13.709  0.0515 -0.3433  0.0496
  826MPD2    H512210   2.491   1.978  13.719  0.0254 -0.6247  0.4654
  826MPD2    N112211   2.892   1.718  13.397  0.2627 -0.0936  0.2869
  826MPD2    H712212   2.889   1.638  13.334  0.8364  0.1336 -0.0255
  827MPD2     C12213   3.347   3.605  10.392 -0.4937  0.4339  0.0313
  827MPD2    C112214   3.458   3.571  10.321 -0.0012 -0.3889  0.1414
  827MPD2    C212215   3.464   3.550  10.182 -0.7892  0.3585 -0.3120
  827MPD2    C312216   3.347   3.575  10.119  0.6826  0.4499 -0.1379
  827MPD2    C412217   3.236   3.610  10.185  0.1170  0.4027 -0.3776
  827MPD2    C512218   3.233   3.612  10.323 -0.0284  0.0410 -0.2317
  827MPD2     H12219   3.550   3.509  10.130 -0.8482  1.3607 -1.2052
  827MPD2    H112220   3.142   3.648  10.147  0.7033  0.5423 -1.6756
  827MPD2    H212221   3.361   3.615  10.499 -0.8218  3.6418 -0.2562
  827MPD2    H312222   3.139   3.641  10.369 -0.6137 -2.8739  0.3941
  827MPD2     N12223   3.355   3.574   9.979 -0.4492 -0.5879 -0.2384
  827MPD2    H512224   3.445   3.557   9.935  1.0661 -0.3464  2.8034
  827MPD2    N112225   3.570   3.552  10.397  0.3593 -0.1735 -0.4406
  827MPD2    H712226   3.563   3.579  10.495  1.2116 -0.0743 -0.4066
  828MPD2     C12227   2.480   2.911  12.466  0.2247 -0.0454 -0.0444
  828MPD2    C112228   2.392   2.972  12.375 -1.0710  0.6116  0.6138
  828MPD2    C212229   2.449   3.015  12.252 -0.2137  1.1115  0.1522
  828MPD2    C312230   2.577   2.977  12.211 -0.1707  0.0110 -0.1117
  828MPD2    C412231   2.659   2.913  12.304 -0.2838 -0.1303 -0.0487
  828MPD2    C512232   2.615   2.889  12.435 -0.2944 -0.1556  0.2171
  828MPD2     H12233   2.387   3.064  12.177 -1.4390 -0.9986 -0.2223
  828MPD2    H112234   2.756   2.875  12.272  0.8350  1.5086  1.3571
  828MPD2    H212235   2.447   2.880  12.565 -1.1932  2.3529  0.2485
  828MPD2    H312236   2.678   2.845  12.512  0.0172  1.5104  0.9174
  828MPD2     N12237   2.624   2.997  12.080 -0.0117  0.7205  0.0330
  828MPD2    H512238   2.720   2.977  12.053 -0.3072  0.7426 -1.0121
  828MPD2    N112239   2.255   2.999  12.406  0.2258  0.8758  0.2239
  828MPD2    H712240   2.211   3.063  12.341  0.6024 -1.8683 -2.7241
  829MPD2     C12241   1.668   3.404  11.947 -0.7908 -0.2701 -0.0722
  829MPD2    C112242   1.585   3.386  12.056 -0.4640 -0.2728  1.0360
  829MPD2    C212243   1.648   3.330  12.170 -0.6326 -0.6487 -0.3674
  829MPD2    C312244   1.778   3.284  12.166  0.0370  0.9590 -0.3053
  829MPD2    C412245   1.850   3.292  12.048  0.6350 -0.0771  0.0095
  829MPD2    C512246   1.796   3.358  11.941 -0.0867  0.4827 -0.3278
  829MPD2     H12247   1.599   3.317  12.265  2.9950 -0.7343  1.5023
  829MPD2    H112248   1.953   3.257  12.044  0.0899 -1.3970 -2.5156
  829MPD2    H212249   1.637   3.457  11.858  0.5276  0.6718  0.0450
  829MPD2    H312250   1.853   3.371  11.850  0.4673 -1.0897 -0.2120
  829MPD2     N12251   1.835   3.207  12.270  0.2630 -0.0311  0.6497
  829MPD2    H512252   1.933   3.186  12.258  0.3591  0.8624 -0.1650
  829MPD2    N112253   1.454   3.430  12.045  0.5241  0.0079  0.0266
  829MPD2    H712254   1.429   3.476  11.958  0.5546 -0.3631 -0.1750
  830MPD2     C12255   2.693   1.570  15.295  0.2223 -0.1279  0.3842
  830MPD2    C112256   2.560   1.616  15.291 -0.5638  0.5187 -0.3889
  830MPD2    C212257   2.504   1.663  15.173  0.5110 -0.2720  0.1138
  830MPD2    C312258   2.589   1.675  15.064 -0.7987  0.0901  0.3728
  830MPD2    C412259   2.722   1.646  15.081  0.3224  0.3505  0.3320
  830MPD2    C512260   2.778   1.586  15.191  0.2686  0.0629 -0.2150
  830MPD2     H12261   2.403   1.703  15.172  1.5160  2.2136 -0.8727
  830MPD2    H112262   2.786   1.673  14.998 -0.5633 -1.1763 -0.8414
  830MPD2    H212263   2.741   1.524  15.380 -0.2880 -1.7680 -0.2290
  830MPD2    H312264   2.883   1.563  15.202  0.2114  0.2446  0.6661
  830MPD2     N12265   2.545   1.742  14.944  0.0044  0.7439 -0.3140
  830MPD2    H512266   2.620   1.786  14.891  0.2465 -0.8415 -1.2877
  830MPD2    N112267   2.489   1.600  15.408 -0.1826  0.7706  0.7665
  830MPD2    H712268   2.534   1.550  15.484 -0.9348  1.2939  1.5634
  831MPD2     C12269   2.692   2.929  16.476 -0.5791  0.1080 -0.0016
  831MPD2    C112270   2.684   2.860  16.360 -0.2111  0.6681 -0.5519
  831MPD2    C212271   2.562   2.821  16.316  0.1252  0.4791  0.0152
  831MPD2    C312272   2.445   2.850  16.390  1.0295 -0.2401  0.7638
  831MPD2    C412273   2.456   2.925  16.503  1.0922 -0.1327  1.0596
  831MPD2    C512274   2.580   2.962  16.551  0.4302 -0.1660 -0.6162
  831MPD2     H12275   2.543   2.769  16.223  0.1976 -0.5716  0.5924
  831MPD2    H112276   2.374   2.959  16.565 -0.9037 -0.8318 -1.2073
  831MPD2    H212277   2.791   2.961  16.509 -0.6720 -0.8604  1.2082
  831MPD2    H312278   2.597   3.021  16.640  0.8648  0.2663 -0.9908
  831MPD2     N12279   2.312   2.812  16.353 -0.2630  0.1449  0.5441
  831MPD2    H512280   2.236   2.864  16.396  0.1648 -0.2869  1.8160
  831MPD2    N112281   2.796   2.841  16.267  0.7800  0.1404 -0.1411
  831MPD2    H712282   2.874   2.904  16.281  1.4792 -0.7193 -0.1337
  832MPD2     C12283   0.757   4.021  17.060  0.0363 -0.1119  0.3493
  832MPD2    C112284   0.795   4.145  17.040 -0.0281 -0.3670 -0.1137
  832MPD2    C212285   0.716   4.240  16.974 -0.3360 -1.0431  1.0690
  832MPD2    C312286   0.581   4.215  16.963  0.2179 -0.4811  0.2850
  832MPD2    C412287   0.533   4.092  17.011  0.1334 -0.0245  0.0884
  832MPD2    C512288   0.623   4.000  17.062  0.3840 -0.1513  0.6064
  832MPD2     H12289   0.750   4.340  16.948 -3.2911  0.4667  3.0310
  832MPD2    H112290   0.430   4.058  17.002  0.1328 -1.0191  3.8826
  832MPD2    H212291   0.823   3.939  17.085  0.1742 -0.6266 -1.6969
  832MPD2    H312292   0.587   3.902  17.089 -0.6901 -0.1102 -0.6830
  832MPD2     N12293   0.484   4.305  16.914  0.7990 -0.4157 -0.3004
  832MPD2    H512294   0.385   4.283  16.921  0.9344 -0.7891  0.4367
  832MPD2    N112295   0.931   4.157  17.067  0.2836 -0.1866 -0.3268
  832MPD2    H712296   0.985   4.073  17.085 -0.8795 -0.5352  1.5155
  833MPD2     C12297   3.119   0.467  12.804  0.1333 -0.5917  0.0776
  833MPD2    C112298   3.108   0.579  12.725 -0.1132  0.9208  0.3937
  833MPD2    C212299   3.191   0.597  12.617  0.5970  0.1111 -0.2822
  833MPD2    C312300   3.294   0.497  12.593  0.3958 -0.6134 -0.3126
  833MPD2    C412301   3.299   0.382  12.680 -0.0255  0.7187 -0.4073
  833MPD2    C512302   3.208   0.366  12.782  0.0417 -0.1039  0.0585
  833MPD2     H12303   3.185   0.680  12.547 -0.8056  0.7737  0.6251
  833MPD2    H112304   3.381   0.311  12.681 -0.8098 -0.2033 -1.0906
  833MPD2    H212305   3.058   0.457  12.892  0.6201 -0.4162  0.4339
  833MPD2    H312306   3.210   0.296  12.865  1.6833  0.9900  0.9273
  833MPD2     N12307   3.371   0.519  12.477 -0.1832  0.3095 -0.0644
  833MPD2    H512308   3.340   0.591  12.412 -2.7108 -0.3117  0.4427
  833MPD2    N112309   3.005   0.669  12.753 -0.3201 -0.4415 -0.5384
  833MPD2    H712310   2.932   0.634  12.814  1.4896 -1.1463  1.2585
  834MPD2     C12311   3.142   4.665  11.770 -1.0011 -0.3361 -0.2672
  834MPD2    C112312   3.278   4.681  11.775 -0.9070  0.4915 -0.2066
  834MPD2    C212313   3.334   0.034  11.867 -0.4085 -0.4171 -0.7296
  834MPD2    C312314   3.251   0.113  11.939  0.0358 -0.0431  0.0033
  834MPD2    C412315   3.111   0.099  11.934 -0.1969 -0.5588  0.8922
  834MPD2    C512316   3.063   4.739  11.856 -0.1420  0.8598 -0.7093
  834MPD2     H12317   3.439   0.060  11.858 -0.0173 -1.3252  1.1731
  834MPD2    H112318   3.049   0.159  12.000  1.1467  0.7409  0.9767
  834MPD2    H212319   3.087   4.603  11.700  0.9217 -0.4846 -1.6347
  834MPD2    H312320   2.955   4.730  11.863 -0.3189  1.4857 -2.5674
  834MPD2     N12321   3.297   0.230  12.017 -0.3611 -0.0166  0.0221
  834MPD2    H512322   3.226   0.274  12.074  1.0519  0.4381  1.4272
  834MPD2    N112323   3.355   4.599  11.688 -0.2017 -0.2974  0.1044
  834MPD2    H712324   3.306   4.555  11.610 -0.1045  0.9791 -0.6773
  835MPD2     C12325   3.081   3.213  10.941  0.1961  0.2920 -0.0275
  835MPD2    C112326   2.972   3.247  11.001  0.4062  0.0282 -0.6640
  835MPD2    C212327   2.961   3.240  11.139  0.1554 -0.8290 -0.7145
  835MPD2    C312328   3.067   3.173  11.207 -0.2092 -0.6233  0.1969
  835MPD2    C412329   3.171   3.120  11.142  0.5180  0.0905 -0.0548
  835MPD2    C512330   3.183   3.151  11.009 -0.6172  0.2306 -0.0666
  835MPD2     H12331   2.873   3.267  11.196 -0.0916  0.3263 -1.6381
  835MPD2    H112332   3.254   3.069  11.189 -0.8700  0.2697  2.5896
  835MPD2    H212333   3.092   3.231  10.835 -1.5820 -1.6980 -0.5473
  835MPD2    H312334   3.276   3.128  10.958 -0.9274  0.9948 -0.9887
  835MPD2     N12335   3.064   3.165  11.351  0.0342  1.1985  0.6263
  835MPD2    H512336   3.143   3.114  11.388 -0.7779 -0.0049  0.6802
  835MPD2    N112337   2.861   3.287  10.924 -0.3771  0.1766 -0.0211
  835MPD2    H712338   2.871   3.266  10.825  0.2107 -0.9815  0.2869
  836MPD2     C12339   2.592   3.509  11.765  0.4794  0.2246 -0.1404
  836MPD2    C112340   2.657   3.437  11.858 -0.1193 -0.3728  0.2528
  836MPD2    C212341   2.601   3.406  11.983 -0.4428 -0.4659 -0.3447
  836MPD2    C312342   2.481   3.472  12.012 -0.0762 -0.5372  0.1835
  836MPD2    C412343   2.413   3.539  11.917 -0.6964 -0.1259 -0.2118
  836MPD2    C512344   2.471   3.566  11.798 -0.3619  0.4079 -0.3391
  836MPD2     H12345   2.655   3.349  12.057 -1.1250 -0.9769 -0.2428
  836MPD2    H112346   2.312   3.579  11.917 -0.4538  0.5001  0.1713
  836MPD2    H212347   2.634   3.531  11.668 -3.3631 -0.9077 -2.0832
  836MPD2    H312348   2.417   3.625  11.725 -2.2062  1.5034  1.9328
  836MPD2     N12349   2.411   3.464  12.133  0.4197 -0.6191  0.5639
  836MPD2    H512350   2.314   3.494  12.129  0.8179  0.9607  2.2193
  836MPD2    N112351   2.780   3.404  11.818  0.0095  0.1509  0.2382
  836MPD2    H712352   2.808   3.449  11.731 -0.9726 -0.7097 -0.5208
  837MPD2     C12353   1.270   2.804  10.449 -0.1184 -0.2900 -0.1543
  837MPD2    C112354   1.207   2.838  10.327 -0.5557  0.4989  0.0822
  837MPD2    C212355   1.222   2.959  10.271  0.1288  0.4251  0.0412
  837MPD2    C312356   1.319   3.044  10.326 -0.1048 -0.2584 -0.0804
  837MPD2    C412357   1.389   3.009  10.441 -0.4468 -0.0749 -1.0503
  837MPD2    C512358   1.365   2.887  10.503  0.4792 -0.1607  0.1977
  837MPD2     H12359   1.161   2.989  10.186  1.1180  1.5418 -0.2718
  837MPD2    H112360   1.459   3.075  10.492  0.3763 -3.1194  1.6979
  837MPD2    H212361   1.238   2.719  10.509 -0.7395  0.6163  0.7973
  837MPD2    H312362   1.407   2.871  10.601  1.6346 -0.2422 -0.3042
  837MPD2     N12363   1.338   3.168  10.257  0.3487 -0.5756 -0.1221
  837MPD2    H512364   1.295   3.181  10.165  0.9202 -2.8421 -0.7004
  837MPD2    N112365   1.103   2.759  10.280 -0.5189  0.0393 -0.2997
  837MPD2    H712366   1.047   2.803  10.207 -0.0707 -0.3675 -0.8980
  838MPD2     C12367   4.453   1.542  11.824  0.4797 -0.1951 -0.0539
  838MPD2    C112368   4.471   1.405  11.857  0.6307 -0.3048  0.0583
  838MPD2    C212369   4.373   1.333  11.920 -0.1161  0.1391 -0.6709
  838MPD2    C312370   4.250   1.386  11.943 -0.2084 -0.2762  1.4094
  838MPD2    C412371   4.232   1.523  11.913 -0.0768  1.1157  0.7118
  838MPD2    C512372   4.334   1.606  11.862  0.3327  0.5932 -0.1023
  838MPD2     H12373   4.387   1.227  11.940  0.9614  0.6749  1.3992
  838MPD2    H112374   4.140   1.578  11.930  0.0523  1.3205  0.7500
  838MPD2    H212375   4.531   1.597  11.772  0.7417 -0.2843  0.2472
  838MPD2    H312376   4.319   1.712  11.845 -1.1711  0.0907 -1.8735
  838MPD2     N12377   4.143   1.292  11.981 -0.5138  0.2045 -0.6515
  838MPD2    H512378   4.159   1.194  12.003 -0.1955  0.9072  2.2862
  838MPD2    N112379   4.587   1.334  11.826 -0.2545  0.2105  0.1018
  838MPD2    H712380   4.596   1.238  11.859  0.4265 -0.3656 -1.7859
  839MPD2     C12381   4.162   0.774  11.785  0.1439  0.2349  0.7106
  839MPD2    C112382   4.257   0.722  11.698  0.0497 -0.7485 -0.4786
  839MPD2    C212383   4.385   0.775  11.680 -0.1782 -0.6894 -0.1914
  839MPD2    C312384   4.406   0.905  11.730 -0.3624  0.6570  0.6137
  839MPD2    C412385   4.307   0.966  11.810  0.8594  0.5149 -0.2614
  839MPD2    C512386   4.193   0.896  11.840 -0.2384  0.1751  0.0682
  839MPD2     H12387   4.456   0.718  11.621 -0.9306 -2.1366  0.3086
  839MPD2    H112388   4.317   1.062  11.858 -0.2199  0.1197  0.7693
  839MPD2    H212389   4.066   0.731  11.810  0.7519 -1.6697 -0.2779
  839MPD2    H312390   4.124   0.938  11.913  1.3558  0.9076  1.1604
  839MPD2     N12391   4.532   0.964  11.712 -0.0303 -0.5141 -0.4194
  839MPD2    H512392   4.546   1.052  11.762  2.6848 -0.9134 -0.4860
  839MPD2    N112393   4.244   0.592  11.645 -0.2821  0.0139  0.4864
  839MPD2    H712394   4.318   0.555  11.586 -0.1357  0.3008  0.4935
  840MPD2     C12395   4.357   3.649  10.244 -0.4049 -0.0505  0.2151
  840MPD2    C112396   4.324   3.610  10.372  0.3198 -0.3361  0.0924
  840MPD2    C212397   4.414   3.627  10.478 -0.3384  0.0343 -0.7426
  840MPD2    C312398   4.538   3.686  10.451  0.1751  1.0425  0.5899
  840MPD2    C412399   4.565   3.734  10.326  0.3286  0.8929  0.2185
  840MPD2    C512400   4.475   3.717  10.222 -0.0853 -0.0927 -0.2344
  840MPD2     H12401   4.395   3.568  10.567  2.1206 -2.7671 -2.0893
  840MPD2    H112402   4.661   3.775  10.300 -0.1609  1.3817 -0.8418
  840MPD2    H212403   4.288   3.635  10.162 -0.4625 -0.2832  0.3033
  840MPD2    H312404   4.499   3.768  10.130  0.4802  1.0516  0.5481
  840MPD2     N12405   4.639   3.696  10.554  0.4126 -0.3562  0.0860
  840MPD2    H512406   4.727   3.740  10.532  0.5663 -0.1371  1.1678
  840MPD2    N112407   4.207   3.540  10.399 -0.1412  0.1303  0.1212
  840MPD2    H712408   4.157   3.493  10.325  1.2674 -0.1185 -0.6862
  841MPD2     C12409   4.638   2.808  14.254  0.0444  0.1923  0.2022
  841MPD2    C112410   4.543   2.874  14.333 -0.3514  0.2189 -0.1881
  841MPD2    C212411   4.589   2.938  14.445 -0.2659 -0.7750  0.4195
  841MPD2    C312412   4.724   2.928  14.483  0.0383 -0.4066  0.6168
  841MPD2    C412413   0.070   2.868  14.399  0.6074 -0.6129 -0.3117
  841MPD2    C512414   0.036   2.816  14.281  0.1153  0.3108 -0.5375
  841MPD2     H12415   4.528   2.999  14.511 -1.2670 -1.6515  0.3031
  841MPD2    H112416   0.170   2.849  14.434 -0.1249 -1.1675  1.5003
  841MPD2    H212417   4.609   2.774  14.156 -0.5705  1.9115 -0.2142
  841MPD2    H312418   0.105   2.771  14.210 -0.8740 -0.7180 -0.8444
  841MPD2     N12419   0.024   2.967  14.614  0.3817 -0.0404 -0.1148
  841MPD2    H512420   4.687   2.995  14.675  0.7449  0.7335 -0.0083
  841MPD2    N112421   4.410   2.903  14.299  0.1291 -0.2290 -0.2555
  841MPD2    H712422   4.357   2.952  14.370  0.6916 -2.1302  1.4850
  842MPD2     C12423   0.398   0.113  16.926 -0.5833 -0.7869 -0.0512
  842MPD2    C112424   0.266   0.132  16.894  0.2240 -0.0341 -1.0633
  842MPD2    C212425   0.184   0.180  16.992 -0.7881  0.1212  0.5516
  842MPD2    C312426   0.229   0.205  17.120 -0.2580 -0.3084 -0.1619
  842MPD2    C412427   0.359   0.193  17.147 -0.2607 -0.1674  0.1492
  842MPD2    C512428   0.442   0.150  17.047  0.0773  0.5811  0.0742
  842MPD2     H12429   0.077   0.180  16.976 -0.6120  0.2906 -0.6012
  842MPD2    H112430   0.391   0.196  17.251  0.5060  1.5572 -0.1454
  842MPD2    H212431   0.467   0.063  16.859  1.9636  1.9150  0.5332
  842MPD2    H312432   0.545   0.123  17.067  0.7636  3.2217  0.1602
  842MPD2     N12433   0.139   0.245  17.220  0.0218  0.2819 -0.1882
  842MPD2    H512434   0.044   0.240  17.185 -0.5662  0.1062  1.4120
  842MPD2    N112435   0.219   0.078  16.770 -0.2741 -0.2352  0.6946
  842MPD2    H712436   0.285   0.064  16.695 -2.1787 -1.5541 -0.7247
  843MPD2     C12437   2.135   0.179  17.620 -0.2794 -0.0531  0.0944
  843MPD2    C112438   2.269   0.154  17.636 -0.8409  0.2401  0.1204
  843MPD2    C212439   2.351   0.259  17.662  0.2333  0.5876 -0.1051
  843MPD2    C312440   2.306   0.390  17.669  0.8173  0.1436 -0.5682
  843MPD2    C412441   2.171   0.416  17.650  0.2884  0.0442  0.0062
  843MPD2    C512442   2.087   0.307  17.629 -0.1213 -0.3510  0.0054
  843MPD2     H12443   2.455   0.229  17.665  0.4236  1.4521  2.3341
  843MPD2    H112444   2.138   0.519  17.659 -0.8597 -0.1241 -2.3797
  843MPD2    H212445   2.060   0.101  17.614  1.5296 -1.5972 -2.1560
  843MPD2    H312446   1.979   0.318  17.625 -0.3364 -2.6330 -0.2660
  843MPD2     N12447   2.380   0.505  17.699 -0.0574 -0.3884  0.5232
  843MPD2    H512448   2.329   0.592  17.713 -1.5378 -0.7577 -2.5306
  843MPD2    N112449   2.308   0.021  17.604  0.2150 -0.7237  0.1671
  843MPD2    H712450   2.230   4.696  17.594  0.8312 -1.8454  2.7552
  844MPD2     C12451   0.343   3.344  16.517  1.0076 -0.6772  0.0672
  844MPD2    C112452   0.353   3.456  16.436  0.2305  0.4878  0.2081
  844MPD2    C212453   0.407   3.565  16.479  0.4509 -0.2413  0.0733
  844MPD2    C312454   0.449   3.586  16.608  1.0864  0.7148  0.3898
  844MPD2    C412455   0.441   3.477  16.687  1.4390  0.1669  0.4633
  844MPD2    C512456   0.385   3.355  16.645  0.1616  0.3701 -0.0309
  844MPD2     H12457   0.416   3.646  16.408  0.8948 -0.7484 -0.4492
  844MPD2    H112458   0.479   3.483  16.788  2.9008  0.2832 -0.0829
  844MPD2    H212459   0.306   3.247  16.487  0.1654 -0.8489  1.6133
  844MPD2    H312460   0.395   3.263  16.701  2.8317 -0.7233 -2.3741
  844MPD2     N12461   0.508   3.706  16.660 -0.2458  0.6253  0.9853
  844MPD2    H512462   0.544   3.692  16.754  1.2306  0.4460  0.3961
  844MPD2    N112463   0.294   3.450  16.308  0.2708 -0.2635 -0.3546
  844MPD2    H712464   0.278   3.540  16.264  1.9185 -0.6358 -1.7065
  845MPD2     C12465   0.877   4.713  16.461  0.2586  0.1663 -0.0003
  845MPD2    C112466   0.943   4.659  16.569 -0.5425  0.1845 -0.5722
  845MPD2    C212467   0.904   4.539  16.622 -0.5397  0.1393  0.4929
  845MPD2    C312468   0.806   4.471  16.558  0.2666 -0.2660 -0.3182
  845MPD2    C412469   0.734   4.530  16.456 -0.2121  0.1299  0.2559
  845MPD2    C512470   0.768   4.652  16.410  0.8312  0.0256 -0.1099
  845MPD2     H12471   0.954   4.497  16.708  0.4377 -3.1866 -1.6780
  845MPD2    H112472   0.649   4.480  16.409 -1.0352  1.9237 -0.1480
  845MPD2    H212473   0.900   0.077  16.439 -1.4519 -0.0682 -2.8715
  845MPD2    H312474   0.726   4.693  16.319  1.9639  1.1957 -0.0952
  845MPD2     N12475   0.784   4.341  16.606  0.0283 -0.7356  0.2607
  845MPD2    H512476   0.862   4.311  16.663  0.9512  0.2825 -0.4867
  845MPD2    N112477   1.042   4.731  16.641  0.0577 -0.0393 -0.2214
  845MPD2    H712478   1.065   0.083  16.603 -1.5063 -0.2264 -1.5962
  846MPD2     C12479   2.303   0.254  13.949  0.0341  0.2558  0.0456
  846MPD2    C112480   2.184   0.328  13.966  0.2454  0.3314 -0.1413
  846MPD2    C212481   2.164   0.395  14.084  0.3498 -0.4348  0.2465
  846MPD2    C312482   2.249   0.381  14.194 -0.1417 -0.7288  0.5943
  846MPD2    C412483   2.361   0.305  14.180 -0.3884  0.0781 -0.1037
  846MPD2    C512484   2.389   0.250  14.057 -0.2520  0.6519 -0.0831
  846MPD2     H12485   2.078   0.458  14.102  1.3057  0.6278  1.0958
  846MPD2    H112486   2.437   0.292  14.256  0.3635 -1.2414 -1.0834
  846MPD2    H212487   2.340   0.193  13.868 -2.0818 -0.2934 -0.5196
  846MPD2    H312488   2.485   0.200  14.051 -1.0733 -1.1591  2.1227
  846MPD2     N12489   2.201   0.426  14.320 -0.1000  0.9843  0.5311
  846MPD2    H512490   2.103   0.448  14.332 -0.2110 -0.1347  1.6916
  846MPD2    N112491   2.094   0.333  13.859  0.2173 -0.5692  0.4037
  846MPD2    H712492   2.023   0.406  13.856  2.3713  1.5288 -0.1913
  847MPD2     C12493   1.962   1.130  13.654  0.2198  0.2478  1.4486
  847MPD2    C112494   2.023   1.190  13.758  0.2364  0.0136 -0.0527
  847MPD2    C212495   2.164   1.178  13.781 -0.5861 -0.1984  0.0857
  847MPD2    C312496   2.242   1.085  13.713  0.0951  0.2433 -0.2898
  847MPD2    C412497   2.178   1.021  13.612 -0.0972  0.1317 -0.3172
  847MPD2    C512498   2.047   1.045  13.579 -0.0493  0.9173  0.5316
  847MPD2     H12499   2.215   1.235  13.858  0.5634 -1.2803  0.1189
  847MPD2    H112500   2.228   0.948  13.551 -0.2455 -1.3997  1.3912
  847MPD2    H212501   1.859   1.148  13.628  0.8563 -0.1973 -1.4230
  847MPD2    H312502   2.002   0.983  13.501  0.3386  2.1673 -0.6869
  847MPD2     N12503   2.371   1.059  13.760 -0.0729 -0.5615  0.2997
  847MPD2    H512504   2.399   1.125  13.832  0.3478 -0.5800  0.1486
  847MPD2    N112505   1.959   1.283  13.844 -0.0351  0.6166  0.4517
  847MPD2    H712506   2.001   1.291  13.936 -1.4344  0.7081  1.0751
  848MPD2     C12507   0.376   4.455  16.176 -0.1150 -0.4833  0.5409
  848MPD2    C112508   0.403   4.555  16.266 -0.3853 -0.4296 -0.1131
  848MPD2    C212509   0.476   4.670  16.232  0.1370  0.5874  0.1591
  848MPD2    C312510   0.523   4.687  16.102  0.1033  0.1799 -0.6400
  848MPD2    C412511   0.507   4.576  16.016 -0.7249  0.3032  0.3627
  848MPD2    C512512   0.437   4.466  16.055  0.1008 -0.4705 -0.2238
  848MPD2     H12513   0.508   4.736  16.312 -0.0607  0.2614  0.5070
  848MPD2    H112514   0.542   4.587  15.914  1.3610  1.9093  1.2421
  848MPD2    H212515   0.346   4.355  16.207  2.2070 -1.6331 -0.9258
  848MPD2    H312516   0.421   4.384  15.985 -0.5940 -1.6707  1.3272
  848MPD2     N12517   0.594   0.064  16.052  0.5083 -0.6752  0.7545
  848MPD2    H512518   0.605   0.072  15.951 -1.2459 -3.5836  0.3368
  848MPD2    N112519   0.361   4.553  16.402  0.0536  0.1197 -0.0143
  848MPD2    H712520   0.377   4.634  16.461 -0.5985  1.0206 -1.0675
  849MPD2     C12521   4.184   4.100  14.286 -0.6387  0.1947  0.9107
  849MPD2    C112522   4.202   3.965  14.265 -0.0017  0.2533 -0.3829
  849MPD2    C212523   4.245   3.883  14.365  0.3853  0.0634 -0.2084
  849MPD2    C312524   4.251   3.927  14.502 -0.7371 -0.5597 -0.6803
  849MPD2    C412525   4.228   4.067  14.524  0.1083  0.2022 -0.8018
  849MPD2    C512526   4.205   4.150  14.412 -0.3462 -0.0737  0.4682
  849MPD2     H12527   4.253   3.778  14.339  1.4717 -0.0676  0.6781
  849MPD2    H112528   4.245   4.118  14.618  1.2401  1.3459 -1.6100
  849MPD2    H212529   4.177   4.170  14.203  0.8817  0.8463  1.3395
  849MPD2    H312530   4.202   4.258  14.411 -2.5007 -0.1595 -1.7363
  849MPD2     N12531   4.294   3.847  14.608  0.1981 -0.1300  0.0507
  849MPD2    H512532   4.313   3.893  14.697 -1.3369  0.8837 -0.1403
  849MPD2    N112533   4.170   3.895  14.144 -0.1786  0.3445 -0.7811
  849MPD2    H712534   4.183   3.794  14.143  2.0704  0.5997  1.3272
  850MPD2     C12535   3.076   3.294  15.104 -0.1198 -0.5231  0.1970
  850MPD2    C112536   3.094   3.192  15.020 -0.6864 -0.1717  0.0675
  850MPD2    C212537   3.218   3.145  14.998 -0.5756 -0.3171  0.2138
  850MPD2    C312538   3.319   3.198  15.073  0.2258  0.3153 -0.3079
  850MPD2    C412539   3.302   3.302  15.165 -0.0691 -0.1915 -0.9448
  850MPD2    C512540   3.176   3.352  15.172 -0.1323  0.3587  0.0166
  850MPD2     H12541   3.235   3.066  14.926 -1.4351  0.5714 -0.9613
  850MPD2    H112542   3.379   3.342  15.229 -0.0083 -2.1841  0.2099
  850MPD2    H212543   2.979   3.339  15.121  0.0500 -0.5725  1.2462
  850MPD2    H312544   3.158   3.431  15.244 -2.1661 -0.0747 -0.0288
  850MPD2     N12545   3.445   3.132  15.085  0.6813 -0.0302 -0.0497
  850MPD2    H512546   3.507   3.157  15.161 -0.1703 -0.3358  0.7459
  850MPD2    N112547   2.980   3.139  14.946 -0.5446  0.6125  0.4264
  850MPD2    H712548   2.895   3.175  14.987 -1.6286 -1.3077 -0.1469
  851MPD2     C12549   2.969   2.427  14.575 -0.3190  0.9219 -0.4587
  851MPD2    C112550   2.849   2.482  14.615  0.0022  0.0592  0.0894
  851MPD2    C212551   2.744   2.389  14.635  0.7881 -0.5507  0.5327
  851MPD2    C312552   2.761   2.257  14.625  0.1434 -1.1484  0.1898
  851MPD2    C412553   2.878   2.204  14.572  0.4396  0.1557 -0.0573
  851MPD2    C512554   2.980   2.293  14.557  0.7826  0.8426 -0.6405
  851MPD2     H12555   2.648   2.422  14.675  0.5745 -1.1450  0.5050
  851MPD2    H112556   2.893   2.100  14.548  1.0191  0.1609  0.2944
  851MPD2    H212557   3.053   2.491  14.549  0.1218 -0.5035 -2.5074
  851MPD2    H312558   3.075   2.254  14.521  0.5512 -1.4095  1.2057
  851MPD2     N12559   2.646   2.172  14.648  0.4257 -0.6645  0.3785
  851MPD2    H512560   2.560   2.219  14.674 -1.1239 -2.0655 -2.1858
  851MPD2    N112561   2.836   2.625  14.627  0.1246  0.0724  0.1756
  851MPD2    H712562   2.923   2.677  14.622  0.6030 -0.7021  0.5064
  852MPD2     C12563   1.754   0.268  10.444 -0.0901  0.4378  0.3358
  852MPD2    C112564   1.864   0.268  10.524  0.1087 -0.2911  0.1296
  852MPD2    C212565   1.957   0.374  10.527 -0.2413  0.0838  0.4361
  852MPD2    C312566   1.947   0.481  10.445 -1.0366  0.3685  0.1524
  852MPD2    C412567   1.826   0.485  10.370  0.1088  0.5161 -1.0172
  852MPD2    C512568   1.733   0.382  10.375 -0.4851 -0.3203 -0.9451
  852MPD2     H12569   2.028   0.372  10.608  1.4004 -0.0846 -0.9991
  852MPD2    H112570   1.799   0.574  10.313 -2.3784 -0.4658 -1.3533
  852MPD2    H212571   1.677   0.191  10.442 -0.3848  0.7069  1.1986
  852MPD2    H312572   1.637   0.397  10.328 -1.0985  1.6743  0.9300
  852MPD2     N12573   2.033   0.589  10.461  0.5511  0.0730  0.6027
  852MPD2    H512574   2.109   0.569  10.527 -0.0726 -1.4047  0.8560
  852MPD2    N112575   1.884   0.163  10.615 -0.1716 -0.5022  0.7805
  852MPD2    H712576   1.947   0.176  10.693  3.2810 -0.5971 -1.9862
  853MPD2     C12577   4.105   4.241  12.477 -0.0579 -0.3280  0.1320
  853MPD2    C112578   3.993   4.304  12.429 -0.4499  0.1341  0.4407
  853MPD2    C212579   3.980   4.332  12.291  0.2865  0.8191 -0.4126
  853MPD2    C312580   4.082   4.291  12.205  0.3678  0.2539  0.3187
  853MPD2    C412581   4.191   4.225  12.258  0.4942 -0.8314  0.4944
  853MPD2    C512582   4.197   4.198  12.391  0.1643 -0.0089  0.3456
  853MPD2     H12583   3.899   4.392  12.251 -0.1912 -0.5609 -1.5349
  853MPD2    H112584   4.262   4.182  12.187  0.3068  0.6244 -0.5854
  853MPD2    H212585   4.118   4.215  12.581  0.3000 -2.0904 -0.3478
  853MPD2    H312586   4.276   4.128  12.417  1.5389  1.1630 -0.6881
  853MPD2     N12587   4.075   4.325  12.067  0.3922  0.1089  0.2095
  853MPD2    H512588   4.159   4.317  12.010  0.3425  0.9374  0.0133
  853MPD2    N112589   3.899   4.348  12.528  0.1880 -0.0568 -0.5875
  853MPD2    H712590   3.919   4.325  12.625  3.1026  0.9443 -0.9446
  854MPD2     C12591   1.097   0.442  12.669 -0.0171 -0.5791  0.0076
  854MPD2    C112592   1.182   0.396  12.574  0.2805  0.6507 -0.6310
  854MPD2    C212593   1.230   0.268  12.580  0.6876  0.3096  0.0960
  854MPD2    C312594   1.194   0.188  12.685 -0.2435 -0.4298 -0.4071
  854MPD2    C412595   1.114   0.237  12.783  0.2124 -0.1576  0.6058
  854MPD2    C512596   1.069   0.367  12.782 -0.2224 -0.5372 -0.7757
  854MPD2     H12597   1.303   0.234  12.507 -0.7237 -1.3413 -0.5550
  854MPD2    H112598   1.095   0.178  12.872  1.6529  0.8664  1.5803
  854MPD2    H212599   1.074   0.548  12.660  1.6764 -0.3028 -0.9899
  854MPD2    H312600   1.012   0.414  12.861  0.8516  0.5198 -0.6241
  854MPD2     N12601   1.242   0.064  12.715  0.0723  0.0840  0.7702
  854MPD2    H512602   1.217   0.021  12.804  1.0783  0.2141  1.1204
  854MPD2    N112603   1.207   0.481  12.458 -0.5625 -0.2864 -0.5216
  854MPD2    H712604   1.161   0.571  12.451 -2.9946 -1.4963 -0.0451
  855MPD2     C12605   1.400   4.561  13.527 -0.2976  0.0945  0.6184
  855MPD2    C112606   1.381   4.444  13.457  0.4140 -0.1796 -0.3909
  855MPD2    C212607   1.392   4.446  13.321  0.9505  0.4986 -0.1993
  855MPD2    C312608   1.398   4.560  13.247  0.2464 -0.2043  0.5452
  855MPD2    C412609   1.414   4.678  13.318 -0.6062  0.2557  0.0361
  855MPD2    C512610   1.421   4.681  13.452  0.1486  0.2878  0.1582
  855MPD2     H12611   1.390   4.352  13.266 -0.4584  1.9171 -2.5878
  855MPD2    H112612   1.418   0.033  13.266 -2.3661 -0.6607 -1.7817
  855MPD2    H212613   1.417   4.563  13.634 -1.9634  1.4933  0.8562
  855MPD2    H312614   1.430   0.029  13.514 -0.7585 -0.0402  0.7657
  855MPD2     N12615   1.390   4.558  13.106 -0.4266 -0.7019 -0.5718
  855MPD2    H512616   1.377   4.647  13.057  2.6111 -0.2551 -0.5685
  855MPD2    N112617   1.357   4.322  13.524 -0.0882 -0.9625 -0.3209
  855MPD2    H712618   1.342   4.238  13.469 -0.8254 -0.8580 -0.2761
  856MPD2     C12619   2.863   0.370  13.508 -0.9335 -0.1559  0.5193
  856MPD2    C112620   2.930   0.486  13.491  0.5922  0.3664  0.5072
  856MPD2    C212621   2.870   0.597  13.436 -0.1358  0.1574 -0.5438
  856MPD2    C312622   2.740   0.588  13.392  0.3553  0.3320  0.0570
  856MPD2    C412623   2.681   0.465  13.375  0.8150 -0.0315 -0.5668
  856MPD2    C512624   2.748   0.359  13.434  0.1798  0.2051 -0.2715
  856MPD2     H12625   2.926   0.688  13.419  1.6424 -0.9912 -0.8532
  856MPD2    H112626   2.584   0.449  13.330  0.6463 -0.9708  0.1284
  856MPD2    H212627   2.917   0.284  13.545  1.7855  2.1451  1.8840
  856MPD2    H312628   2.692   0.267  13.443  0.0646  0.3091  0.0696
  856MPD2     N12629   2.661   0.699  13.349 -0.5264 -0.3005 -0.1210
  856MPD2    H512630   2.565   0.679  13.322 -0.0920  0.1282 -1.9946
  856MPD2    N112631   3.060   0.513  13.537 -0.2954  0.3143  0.4865
  856MPD2    H712632   3.093   0.608  13.526 -0.1958  0.4589  2.1490
  857MPD2     C12633   4.623   2.812  12.905  0.5620 -0.6316  0.2795
  857MPD2    C112634   0.015   2.783  12.940 -0.2458  0.1293  0.0864
  857MPD2    C212635   0.095   2.878  12.999  0.4160  0.1165 -0.7548
  857MPD2    C312636   0.044   3.003  13.028  0.2986 -0.2326 -0.6492
  857MPD2    C412637   4.655   3.033  12.988 -0.6706  0.0521  0.0204
  857MPD2    C512638   4.574   2.940  12.928 -0.4539  0.3920 -0.1735
  857MPD2     H12639   0.196   2.848  13.027  0.7514  3.0320  1.1490
  857MPD2    H112640   4.614   3.131  13.009  1.3670  0.9022  0.0497
  857MPD2    H212641   4.558   2.737  12.861 -0.6024  1.1727 -1.0589
  857MPD2    H312642   4.473   2.966  12.898 -0.5445  2.0092  1.5057
  857MPD2     N12643   0.131   3.100  13.082 -0.3273 -0.3946  0.2307
  857MPD2    H512644   0.229   3.074  13.087 -0.3521 -0.5682 -0.2294
  857MPD2    N112645   0.056   2.659  12.893 -0.6016 -0.2996  0.2376
  857MPD2    H712646   4.728   2.611  12.835 -0.1695  0.5566 -0.9769
  858MPD2     C12647   0.777   2.155  16.174  0.6701 -0.3860 -0.4775
  858MPD2    C112648   0.674   2.060  16.157 -0.1812 -0.0617 -0.0414
  858MPD2    C212649   0.583   2.039  16.263  0.3469 -0.3726  0.4218
  858MPD2    C312650   0.597   2.114  16.377  0.5087 -0.1251  0.1079
  858MPD2    C412651   0.691   2.217  16.382 -0.6884  0.1270  0.1331
  858MPD2    C512652   0.777   2.235  16.280 -0.6455 -0.5410  0.4759
  858MPD2     H12653   0.514   1.955  16.259  0.9503 -0.9330  1.6835
  858MPD2    H112654   0.695   2.285  16.466  1.1774  1.1118 -0.7563
  858MPD2    H212655   0.844   2.183  16.094  0.6775  0.1238 -0.2883
  858MPD2    H312656   0.850   2.311  16.303 -1.4697 -0.0322  1.4057
  858MPD2     N12657   0.517   2.093  16.495  0.0535  0.1709 -0.3591
  858MPD2    H512658   0.519   2.162  16.570 -0.8451 -0.5118  0.2963
  858MPD2    N112659   0.657   1.981  16.044 -0.3861 -0.2878  0.0302
  858MPD2    H712660   0.570   1.930  16.038  0.5448 -1.6790 -1.4652
  859MPD2     C12661   4.490   3.953  15.825 -0.3153  0.0574 -0.0426
  859MPD2    C112662   4.419   3.927  15.712 -0.5083  0.7739 -0.2280
  859MPD2    C212663   4.352   3.809  15.697  0.4216  0.0498  0.6490
  859MPD2    C312664   4.341   3.716  15.801 -0.2925  0.3466 -0.2197
  859MPD2    C412665   4.385   3.760  15.927  0.8291  0.3781 -0.2918
  859MPD2    C512666   4.459   3.876  15.940  0.0354  0.6328 -0.2926
  859MPD2     H12667   4.306   3.789  15.601 -0.4493  0.5430  0.9586
  859MPD2    H112668   4.383   3.701  16.018 -0.4074  1.7820  0.5862
  859MPD2    H212669   4.557   4.036  15.839 -0.1639 -0.6479  3.4368
  859MPD2    H312670   4.498   3.895  16.039  0.4030 -2.3255  0.1300
  859MPD2     N12671   4.289   3.586  15.790  0.0628 -0.1165  0.6845
  859MPD2    H512672   4.295   3.531  15.875  0.1407 -1.4590 -0.1887
  859MPD2    N112673   4.440   4.020  15.618  0.5109 -0.3092 -0.0756
  859MPD2    H712674   4.485   4.106  15.646 -0.8820  0.2141  0.5514
  860MPD2     C12675   2.470   4.127  11.634 -0.7359 -0.4273  1.0618
  860MPD2    C112676   2.402   4.092  11.748  0.0801 -0.0691 -0.5724
  860MPD2    C212677   2.280   4.153  11.771  0.2463 -0.6023 -0.6186
  860MPD2    C312678   2.229   4.252  11.689 -0.0724 -0.2247  0.4535
  860MPD2    C412679   2.297   4.286  11.576 -0.0218 -0.2799 -0.3712
  860MPD2    C512680   2.419   4.220  11.554 -0.1335  0.0666  0.2098
  860MPD2     H12681   2.220   4.125  11.857 -2.7244  0.4382 -2.3201
  860MPD2    H112682   2.248   4.347  11.501 -2.0956 -2.5281 -0.8632
  860MPD2    H212683   2.563   4.077  11.609 -0.6523  0.1917  0.1279
  860MPD2    H312684   2.473   4.234  11.460  2.4405  1.2639  1.8791
  860MPD2     N12685   2.103   4.309  11.722  0.1382 -0.2796 -0.1421
  860MPD2    H512686   2.040   4.262  11.786 -0.8451 -0.1865 -1.0401
  860MPD2    N112687   2.453   4.010  11.852  0.0786 -0.3854 -0.1002
  860MPD2    H712688   2.394   4.013  11.934 -1.5085 -1.3446 -1.2146
  861MPD2     C12689   0.837   2.457  11.119  0.5472  0.5145  0.2356
  861MPD2    C112690   0.829   2.591  11.152  0.0362 -0.2400  0.3494
  861MPD2    C212691   0.762   2.666  11.058  0.1796  0.7268 -0.2369
  861MPD2    C312692   0.684   2.608  10.962 -0.5324  0.0127 -0.6852
  861MPD2    C412693   0.689   2.476  10.937  0.9994  0.1169  0.3029
  861MPD2    C512694   0.766   2.401  11.020  0.8537 -0.5004 -0.2449
  861MPD2     H12695   0.771   2.773  11.077  1.2317  0.3938  1.1284
  861MPD2    H112696   0.635   2.420  10.862 -0.6110  1.4380  0.5000
  861MPD2    H212697   0.894   2.385  11.177  0.0075 -0.6929 -0.7313
  861MPD2    H312698   0.777   2.294  11.000 -0.0248 -1.0667  2.4029
  861MPD2     N12699   0.604   2.682  10.874 -0.3933  0.0374  0.0814
  861MPD2    H512700   0.550   2.636  10.802 -0.0323  0.4439 -0.4515
  861MPD2    N112701   0.886   2.643  11.269  0.2481 -0.6344 -0.4460
  861MPD2    H712702   0.864   2.740  11.287  0.7914 -0.5942 -0.0057
  862MPD2     C12703   4.719   2.552  10.560  0.2227  0.1382 -0.1552
  862MPD2    C112704   0.101   2.518  10.597 -0.3537  0.0980  0.5746
  862MPD2    C212705   0.132   2.381  10.611  0.1395  0.1934 -0.3082
  862MPD2    C312706   0.037   2.284  10.597  0.4987  0.7561 -0.4687
  862MPD2    C412707   4.662   2.322  10.542  0.0691 -0.3733  0.2073
  862MPD2    C512708   4.634   2.456  10.521  0.0804 -0.4168 -0.4960
  862MPD2     H12709   0.232   2.356  10.644  0.1812  1.9486  0.8357
  862MPD2    H112710   4.588   2.247  10.515  1.7377 -1.9531 -0.0338
  862MPD2    H212711   4.682   2.653  10.542  1.1865  0.3852 -0.7569
  862MPD2    H312712   4.544   2.488  10.470  0.5911 -0.8016 -1.6430
  862MPD2     N12713   0.043   2.150  10.630 -1.1882 -0.0641  0.2948
  862MPD2    H512714   4.722   2.095  10.571 -0.0175  0.1173 -1.0845
  862MPD2    N112715   0.195   2.619  10.630  0.6299 -0.0588  0.5113
  862MPD2    H712716   0.286   2.584  10.660  0.6736  0.5396  1.0735
  863MPD2     C12717   4.041   0.553  16.936  0.6751  0.0899 -0.0388
  863MPD2    C112718   4.091   0.655  16.852  0.2103  0.0454 -0.0473
  863MPD2    C212719   4.230   0.664  16.841  0.3961  0.0638  0.2282
  863MPD2    C312720   4.314   0.593  16.924 -0.0598  0.6142 -0.4472
  863MPD2    C412721   4.258   0.495  17.007  0.5625  0.0289  0.3115
  863MPD2    C512722   4.123   0.474  17.007 -0.5504 -0.6730  0.4550
  863MPD2     H12723   4.263   0.754  16.790  0.1609 -0.2477 -0.4723
  863MPD2    H112724   4.320   0.436  17.074  1.7489  0.7857 -0.1341
  863MPD2    H212725   3.934   0.545  16.949  0.6095  1.6172  0.3729
  863MPD2    H312726   4.082   0.407  17.082  0.2896 -0.5317  1.0407
  863MPD2     N12727   4.455   0.626  16.933 -0.4215 -0.4384 -0.2460
  863MPD2    H512728   4.503   0.588  17.013 -0.3522 -0.2674 -0.2054
  863MPD2    N112729   3.998   0.731  16.773  0.4557 -0.8133 -1.0171
  863MPD2    H712730   3.903   0.726  16.808  0.3816  0.3709 -1.0241
  864MPD2     C12731   4.093   2.148  16.906  0.7025 -0.4471 -0.0129
  864MPD2    C112732   4.153   2.055  16.823 -0.6125 -0.3796  0.1054
  864MPD2    C212733   4.247   2.088  16.732 -0.6162 -0.5407  0.3149
  864MPD2    C312734   4.270   2.216  16.709 -0.1648  0.4118  0.1556
  864MPD2    C412735   4.227   2.315  16.800  0.3960  0.4621  0.5948
  864MPD2    C512736   4.132   2.277  16.891  0.0449 -0.0392 -0.5596
  864MPD2     H12737   4.287   2.017  16.660 -0.4995 -0.3019  0.1438
  864MPD2    H112738   4.236   2.422  16.787  1.2331  0.1997 -0.9831
  864MPD2    H212739   4.016   2.130  16.980  1.5212  0.8322  1.1456
  864MPD2    H312740   4.080   2.348  16.955 -1.5458 -0.2387 -1.6262
  864MPD2     N12741   4.346   2.271  16.597  0.2781 -0.2645 -0.3754
  864MPD2    H512742   4.349   2.371  16.585 -1.4738  0.0911  2.0204
  864MPD2    N112743   4.102   1.923  16.834  0.0688 -0.3708 -0.2546
  864MPD2    H712744   4.046   1.896  16.914 -0.2279 -1.3364 -0.7917
  865MPD2     C12745   4.342   2.425  15.736 -0.0571 -0.0436 -0.2207
  865MPD2    C112746   4.341   2.352  15.851 -1.0148 -0.8228  0.0231
  865MPD2    C212747   4.311   2.418  15.972  0.6516  0.6275  0.0979
  865MPD2    C312748   4.317   2.555  15.979  0.0394 -0.7110  0.7461
  865MPD2    C412749   4.325   2.623  15.862  0.2567 -0.0315  0.1428
  865MPD2    C512750   4.335   2.561  15.744 -0.6791  0.1450  0.6156
  865MPD2     H12751   4.276   2.364  16.059 -1.2356 -1.9588 -2.2875
  865MPD2    H112752   4.315   2.731  15.852 -0.6983 -0.1468 -0.1849
  865MPD2    H212753   4.347   2.377  15.639  1.0905  0.2884 -0.3280
  865MPD2    H312754   4.338   2.616  15.651 -0.4384 -0.7276  0.1109
  865MPD2     N12755   4.309   2.632  16.098  0.1109 -0.7754 -0.2158
  865MPD2    H512756   4.296   2.732  16.086 -3.7342 -1.3995 -1.3716
  865MPD2    N112757   4.369   2.211  15.838  0.3148 -0.6402  0.0922
  865MPD2    H712758   4.385   2.168  15.747 -0.2140  0.4837 -0.5281
  866MPD2     C12759   1.413   3.073  11.642  0.1390 -0.3782 -0.1123
  866MPD2    C112760   1.444   3.105  11.518 -0.8025  0.2088  0.1936
  866MPD2    C212761   1.356   3.168  11.432 -0.2121  0.4780  0.2112
  866MPD2    C312762   1.233   3.212  11.487 -0.7159  0.6265 -0.2962
  866MPD2    C412763   1.213   3.198  11.622 -0.3018 -0.3720 -0.4961
  866MPD2    C512764   1.301   3.124  11.698 -0.4077 -0.2489 -0.7248
  866MPD2     H12765   1.368   3.180  11.325 -1.0849  0.3621  0.0954
  866MPD2    H112766   1.126   3.235  11.676 -0.8537 -1.2699 -0.7826
  866MPD2    H212767   1.478   3.018  11.709 -2.4620 -1.2249  1.7333
  866MPD2    H312768   1.278   3.105  11.802 -0.4660  4.8862  0.2179
  866MPD2     N12769   1.122   3.243  11.410 -0.2859  0.3298  0.6951
  866MPD2    H512770   1.034   3.261  11.459 -0.3783  1.1608  0.2338
  866MPD2    N112771   1.567   3.059  11.464  1.1286  0.8665  0.2489
  866MPD2    H712772   1.605   2.985  11.521  1.6200 -0.9556 -2.4719
  867MPD2     C12773   2.886   2.213  16.787  0.2583  0.4656  0.1137
  867MPD2    C112774   2.993   2.137  16.823 -0.1140  0.4376  0.6723
  867MPD2    C212775   3.079   2.189  16.921 -0.4728 -0.4371  0.2848
  867MPD2    C312776   3.075   2.316  16.963 -0.4164 -0.0025  0.7331
  867MPD2    C412777   2.965   2.392  16.921  0.4912  0.3617  0.5528
  867MPD2    C512778   2.871   2.341  16.837  0.0972  0.0173 -0.3913
  867MPD2     H12779   3.170   2.135  16.941  0.1277  0.3818 -0.2654
  867MPD2    H112780   2.966   2.499  16.941  0.4525  0.3290  0.7259
  867MPD2    H212781   2.808   2.175  16.721  0.8776 -1.4854  0.5129
  867MPD2    H312782   2.795   2.409  16.801  1.5764  0.9271 -1.8273
  867MPD2     N12783   3.181   2.385  17.026  0.7412  0.0017 -0.7023
  867MPD2    H512784   3.159   2.480  17.052 -1.0373 -0.6158  0.0715
  867MPD2    N112785   3.012   2.006  16.763 -0.2923  0.4033  0.2430
  867MPD2    H712786   2.949   1.973  16.690 -0.1463  0.7763 -0.0517
  868MPD2     C12787   4.668   1.597  13.061  0.0467 -0.0037  0.3653
  868MPD2    C112788   4.713   1.517  13.171 -0.3985 -0.2581 -0.3298
  868MPD2    C212789   4.624   1.501  13.278 -0.4808 -0.1075  0.0956
  868MPD2    C312790   4.501   1.565  13.284  0.7905 -0.1394 -0.4232
  868MPD2    C412791   4.467   1.651  13.177  0.2585 -0.1065 -0.0291
  868MPD2    C512792   4.546   1.658  13.067 -0.2182 -0.5677  0.3899
  868MPD2     H12793   4.659   1.439  13.360  0.6327  0.5326  0.1128
  868MPD2    H112794   4.379   1.714  13.177  0.5015  0.2283  1.0035
  868MPD2    H212795   0.003   1.615  12.985  0.2202 -2.0600  0.0544
  868MPD2    H312796   4.508   1.722  12.988 -0.0214 -0.0739  0.6943
  868MPD2     N12797   4.423   1.562  13.397  0.2452 -0.0940 -0.4271
  868MPD2    H512798   4.456   1.501  13.471  0.0620  0.4864  0.1265
  868MPD2    N112799   0.102   1.460  13.167 -0.0119 -0.2354  0.7220
  868MPD2    H712800   0.162   1.489  13.090 -1.0635  0.8706  0.3169
  869MPD2     C12801   1.206   4.339   0.729 -0.7267 -0.0850 -0.1327
  869MPD2    C112802   1.203   4.233   0.643 -0.7332 -0.1766  0.0335
  869MPD2    C212803   1.311   4.146   0.628  0.0835 -0.4915  0.2228
  869MPD2    C312804   1.430   4.191   0.674  0.2405  0.4449 -0.3696
  869MPD2    C412805   1.436   4.301   0.757  0.1222  0.0518 -0.0343
  869MPD2    C512806   1.325   4.374   0.789  0.6805  0.2537  0.2882
  869MPD2     H12807   1.317   4.063   0.559  3.2026  0.2371 -0.3995
  869MPD2    H112808   1.528   4.345   0.796 -0.1801 -0.3985  1.1620
  869MPD2    H212809   1.123   4.403   0.757 -0.2502  1.2604 -1.7811
  869MPD2    H312810   1.328   4.455   0.860  0.5427  1.3090 -0.8997
  869MPD2     N12811   1.544   4.125   0.653  0.2466 -0.0457 -0.4262
  869MPD2    H512812   1.622   4.163   0.706 -1.2027  0.7444  1.1361
  869MPD2    N112813   1.076   4.211   0.583  0.4800 -0.4984 -0.0949
  869MPD2    H712814   1.003   4.279   0.600  0.4360 -1.1430  2.2956
  870MPD2     C12815   2.129   2.582   1.730  0.2695  1.0829 -0.2178
  870MPD2    C112816   2.070   2.499   1.635  0.4610  0.0450 -1.1421
  870MPD2    C212817   1.968   2.553   1.557 -0.3050  0.4487 -0.4505
  870MPD2    C312818   1.892   2.665   1.605  0.0604  0.9300 -0.1942
  870MPD2    C412819   1.939   2.727   1.722  0.8495  0.0240 -0.2986
  870MPD2    C512820   2.060   2.695   1.770  0.4089 -0.0291  0.4718
  870MPD2     H12821   1.929   2.495   1.475 -0.1676  1.4894 -1.2525
  870MPD2    H112822   1.895   2.820   1.755 -1.8096 -0.9798 -1.0044
  870MPD2    H212823   2.223   2.550   1.775  0.5867 -1.3950 -2.6066
  870MPD2    H312824   2.082   2.754   1.858 -4.0279  0.2969  1.3692
  870MPD2     N12825   1.779   2.708   1.526  0.1959 -0.0550 -0.1882
  870MPD2    H512826   1.767   2.653   1.442  2.5718 -0.1727 -0.4394
  870MPD2    N112827   2.129   2.375   1.608 -0.1745  0.3138 -0.5136
  870MPD2    H712828   2.206   2.346   1.667 -0.9619  0.0423  0.3831
  871MPD2     C12829   2.130   2.374  16.087 -0.4854  0.4034 -0.0707
  871MPD2    C112830   2.091   2.286  16.183 -0.4053 -0.2117 -0.6637
  871MPD2    C212831   2.089   2.152  16.156  0.7417 -0.2442 -0.7199
  871MPD2    C312832   2.124   2.103  16.029 -0.1532  0.3948  0.3646
  871MPD2    C412833   2.160   2.191  15.929 -0.4426  0.0555 -0.3806
  871MPD2    C512834   2.157   2.326  15.963  0.5716  0.1652  0.2539
  871MPD2     H12835   2.057   2.084  16.234  0.7561  1.8803  1.1183
  871MPD2    H112836   2.193   2.157  15.831  2.2422  0.5501  0.3541
  871MPD2    H212837   2.119   2.481  16.102 -0.4615  0.3673  0.2067
  871MPD2    H312838   2.183   2.397  15.885  2.6900  0.7431  1.4661
  871MPD2     N12839   2.135   1.959  16.011  0.5472 -0.7900  0.0687
  871MPD2    H512840   2.123   1.907  16.097  1.3873 -1.3842 -0.1774
  871MPD2    N112841   2.075   2.329  16.312  0.4320 -0.6677  0.4418
  871MPD2    H712842   2.101   2.424  16.336 -0.6146 -0.0523 -0.8633
  872MPD2     C12843   2.812   0.047  13.669 -0.2969  0.6785  0.7695
  872MPD2    C112844   2.915   0.031  13.756 -0.3342 -0.0653  0.5267
  872MPD2    C212845   2.874   0.032  13.888 -0.6514 -0.0305 -0.2748
  872MPD2    C312846   2.742   0.027  13.929  0.4664 -0.1393 -1.0819
  872MPD2    C412847   2.645   0.044  13.837 -0.0829  0.2847  0.4679
  872MPD2    C512848   2.678   0.055  13.707 -0.4909 -0.4155  0.6636
  872MPD2     H12849   2.950   0.041  13.964 -2.0677  1.6519  0.9412
  872MPD2    H112850   2.543   0.046  13.872 -0.7589 -0.0152 -1.5095
  872MPD2    H212851   2.831   0.063  13.563 -0.7777 -1.1832  0.4042
  872MPD2    H312852   2.604   0.061  13.628 -1.7099 -1.0672  1.7612
  872MPD2     N12853   2.706   0.022  14.066 -0.5063 -0.4388 -0.0203
  872MPD2    H512854   2.606   0.012  14.082 -0.5995 -0.3551 -0.5259
  872MPD2    N112855   3.055   0.028  13.725  1.1925  0.3357  0.2735
  872MPD2    H712856   3.127   0.029  13.797  2.1589  2.0765 -0.7053
  873MPD2     C12857   0.007   0.314   0.838 -0.2911  0.2953 -0.3748
  873MPD2    C112858   0.146   0.310   0.826  0.3999 -0.1801 -0.6239
  873MPD2    C212859   0.199   0.239   0.722  0.7709 -0.3090  0.7092
  873MPD2    C312860   0.117   0.163   0.637 -0.1908  0.4298  0.6996
  873MPD2    C412861   4.721   0.166   0.653 -1.1232  0.1021  0.0958
  873MPD2    C512862   4.669   0.247   0.748  0.2901  0.3859 -0.3396
  873MPD2     H12863   0.307   0.232   0.728  0.7748 -0.5059  0.4220
  873MPD2    H112864   4.654   0.127   0.577 -2.6213 -1.2194  2.0794
  873MPD2    H212865   4.693   0.373   0.911 -0.0727  0.9933 -0.7794
  873MPD2    H312866   4.562   0.240   0.755  0.3156  0.3579 -0.0137
  873MPD2     N12867   0.168   0.071   0.545  0.2089  0.4031 -0.0554
  873MPD2    H512868   0.101   0.007   0.503 -0.0962  0.3187  0.5693
  873MPD2    N112869   0.216   0.394   0.922  0.3987  0.5908 -0.2034
  873MPD2    H712870   0.155   0.444   0.986  2.8719 -1.4430  3.6847
  874MPD2     C12871   4.673   0.191  15.957  0.0334  0.4182  0.5615
  874MPD2    C112872   0.025   0.200  16.058  0.2393 -0.0545 -1.0585
  874MPD2    C212873   0.142   0.278  16.044  0.5530 -0.0812 -0.4650
  874MPD2    C312874   0.168   0.348  15.925 -0.2039  0.1893  0.2740
  874MPD2    C412875   0.084   0.331  15.820 -0.0363 -0.5772  0.2045
  874MPD2    C512876   4.710   0.251  15.839  0.2854  0.1352 -0.8659
  874MPD2     H12877   0.217   0.279  16.122  0.1178  1.7871 -0.0717
  874MPD2    H112878   0.101   0.377  15.723 -2.7923 -0.5599 -0.2809
  874MPD2    H212879   4.588   0.124  15.956 -0.9264  1.6624 -0.8710
  874MPD2    H312880   4.643   0.235  15.755  1.0383  0.3081 -1.4963
  874MPD2     N12881   0.298   0.412  15.901  0.4274  0.8473  0.3272
  874MPD2    H512882   0.333   0.403  15.807 -0.7056  0.3778 -0.0528
  874MPD2    N112883   0.002   0.129  16.182  0.2808 -0.5042  0.2643
  874MPD2    H712884   4.648   0.091  16.188  0.2645 -0.1562  2.2320
  875MPD2     C12885   0.934   3.155  14.453 -0.7168 -0.1589  0.4239
  875MPD2    C112886   0.809   3.141  14.512  0.6030  0.5736  0.0641
  875MPD2    C212887   0.788   3.185  14.640 -0.4949  0.9185  0.9544
  875MPD2    C312888   0.895   3.233  14.713  0.2457  0.3781  0.0120
  875MPD2    C412889   1.023   3.230  14.658 -0.1381 -0.0825  0.4133
  875MPD2    C512890   1.037   3.208  14.525  0.3136 -0.2134 -0.8435
  875MPD2     H12891   0.687   3.196  14.678 -0.6403 -1.4804  1.2604
  875MPD2    H112892   1.105   3.266  14.720  0.5809  2.5217 -2.0641
  875MPD2    H212893   0.957   3.131  14.350  2.0041 -0.7878  1.1800
  875MPD2    H312894   1.131   3.215  14.471 -0.2403 -0.1865 -1.8017
  875MPD2     N12895   0.885   3.277  14.852 -0.2391  0.5275 -0.1064
  875MPD2    H512896   0.968   3.322  14.889  0.4342 -0.5437 -0.2830
  875MPD2    N112897   0.699   3.111  14.423  0.0137 -0.6837 -0.1971
  875MPD2    H712898   0.603   3.123  14.452  0.3016 -1.8044  1.1911
  876MPD2     C12899   4.419   4.442  16.071 -0.7054  0.0207 -0.5336
  876MPD2    C112900   4.552   4.453  16.052  0.3395  0.4618 -0.5910
  876MPD2    C212901   4.637   4.379  16.136 -0.1602  0.3674  0.9465
  876MPD2    C312902   4.583   4.299  16.235  0.3377 -1.1206 -0.9613
  876MPD2    C412903   4.449   4.286  16.244  0.2825  0.2496  0.5392
  876MPD2    C512904   4.370   4.354  16.161 -0.0579  0.5601 -0.1490
  876MPD2     H12905   0.004   4.389  16.128 -0.3169  1.4666  0.2279
  876MPD2    H112906   4.390   4.223  16.310  2.2781 -1.8698  0.3216
  876MPD2    H212907   4.340   4.496  16.021 -1.3638 -2.8883 -2.6727
  876MPD2    H312908   4.265   4.325  16.161  0.5116 -1.4873  3.8536
  876MPD2     N12909   4.670   4.228  16.318 -0.3765 -0.3060 -0.3764
  876MPD2    H512910   0.029   4.245  16.301 -0.4685  0.8920  0.3152
  876MPD2    N112911   4.593   4.540  15.946 -0.4753  0.8300 -0.1088
  876MPD2    H712912   4.521   4.571  15.881 -0.6488  0.6395 -0.0076
  877MPD2     C12913   4.396   4.675  15.253 -0.4106 -0.2891 -0.2774
  877MPD2    C112914   4.531   4.687  15.251  0.1624  0.5341 -0.7481
  877MPD2    C212915   4.588   4.669  15.129 -0.2804  0.1617  0.7078
  877MPD2    C312916   4.517   4.647  15.012  0.4221 -0.1263 -0.3766
  877MPD2    C412917   4.382   4.631  15.020 -0.2420  0.3149 -0.3123
  877MPD2    C512918   4.324   4.653  15.138  0.1277  0.4086  0.8502
  877MPD2     H12919   4.697   4.670  15.127 -0.3590 -1.6373 -4.0904
  877MPD2    H112920   4.327   4.598  14.933 -0.6793 -1.4421  0.6321
  877MPD2    H212921   4.335   4.689  15.341  2.3286  0.8903  1.4439
  877MPD2    H312922   4.217   4.649  15.158  0.1988 -1.1734  0.8894
  877MPD2     N12923   4.581   4.645  14.885  0.2016 -0.3557  0.1689
  877MPD2    H512924   4.528   4.617  14.803  0.5340  0.0361 -0.1760
  877MPD2    N112925   4.605   4.705  15.368 -0.0790 -0.1741  0.5219
  877MPD2    H712926   4.705   4.720  15.359  0.0447 -1.0397  0.5481
  878MPD2     C12927   4.548   3.614  13.192  0.0048 -0.0136  0.6787
  878MPD2    C112928   4.493   3.739  13.222  0.2901  0.3668  0.2395
  878MPD2    C212929   4.425   3.755  13.345 -0.0262  0.3020 -0.4526
  878MPD2    C312930   4.428   3.658  13.440  0.8496  0.3000  0.9025
  878MPD2    C412931   4.489   3.542  13.407 -0.0805  0.1459  0.3376
  878MPD2    C512932   4.540   3.511  13.282 -0.2055  0.3342  0.6345
  878MPD2     H12933   4.371   3.846  13.366 -0.4092 -0.1105  0.3337
  878MPD2    H112934   4.485   3.462  13.479 -2.0803 -1.0561 -1.1330
  878MPD2    H212935   4.600   3.588  13.101 -2.3864  0.7795 -0.9154
  878MPD2    H312936   4.575   3.411  13.258 -3.8404 -0.4690 -1.3695
  878MPD2     N12937   4.366   3.664  13.570  0.5275  0.2594 -0.1924
  878MPD2    H512938   4.357   3.580  13.626 -1.0762  1.8574  1.9305
  878MPD2    N112939   4.488   3.833  13.115 -0.2001  0.0627  0.2752
  878MPD2    H712940   4.535   3.807  13.029 -0.0131  4.0358 -0.8479
  879MPD2     C12941   4.585   1.244  16.474  0.2854 -0.2731  0.2817
  879MPD2    C112942   4.680   1.167  16.537  0.4243 -0.4941  0.0292
  879MPD2    C212943   4.666   1.028  16.517  0.3757  0.4997 -0.1366
  879MPD2    C312944   4.565   0.973  16.437 -0.1087  0.1233 -0.0828
  879MPD2    C412945   4.471   1.053  16.383  0.7492 -0.2286 -0.2707
  879MPD2    C512946   4.481   1.191  16.405  0.5277  0.1797 -0.1571
  879MPD2     H12947   0.004   0.960  16.551 -1.9548 -0.2126  3.8348
  879MPD2    H112948   4.398   1.002  16.321  1.8238 -2.0154 -0.0545
  879MPD2    H212949   4.589   1.352  16.481  2.9396 -0.2905 -0.8381
  879MPD2    H312950   4.404   1.258  16.370 -1.0738 -0.9704  1.1454
  879MPD2     N12951   4.570   0.835  16.402  0.4447  0.1175 -0.8204
  879MPD2    H512952   4.510   0.798  16.329  2.3202 -0.6396 -1.9925
  879MPD2    N112953   0.055   1.216  16.612  0.5196  0.2162  0.6072
  879MPD2    H712954   0.125   1.143  16.619  1.3568  0.8487 -1.0043
  880MPD2     C12955   1.151   2.122   0.201 -0.4527  0.4789 -0.0439
  880MPD2    C112956   1.204   2.168   0.314 -0.1553  0.5874 -0.4368
  880MPD2    C212957   1.290   2.078   0.385  0.2625 -0.4811  0.1596
  880MPD2    C312958   1.313   1.944   0.354  0.2708 -0.7605  0.8599
  880MPD2    C412959   1.247   1.901   0.242  0.1547 -0.4215  0.1399
  880MPD2    C512960   1.174   1.988   0.156 -0.0426 -0.2081  0.7158
  880MPD2     H12961   1.342   2.106   0.476  0.0946 -0.3085  0.2040
  880MPD2    H112962   1.250   1.795   0.218  1.2746 -0.2002 -0.6857
  880MPD2    H212963   1.093   2.188   0.137  0.6000  1.2748 -0.1802
  880MPD2    H312964   1.123   1.955   0.066 -0.4859  1.4418  0.3604
  880MPD2     N12965   1.399   1.868   0.426  0.5724 -0.1565  0.6603
  880MPD2    H512966   1.428   1.897   0.519  0.0830 -0.7476  0.9963
  880MPD2    N112967   1.189   2.303   0.337 -0.4466 -0.3648 -0.2291
  880MPD2    H712968   1.127   2.356   0.277 -0.3313  0.1796  0.1331
  881MPD2     C12969   1.471   3.159  17.656 -0.0608 -0.5657 -0.0779
  881MPD2    C112970   1.514   3.029  17.625 -0.0385 -0.2136 -0.6222
  881MPD2    C212971   1.479   2.928  17.712  0.5609 -0.6202  0.4469
  881MPD2    C312972   1.409   2.966   0.075  0.2645  0.5494 -0.6021
  881MPD2    C412973   1.390   3.096   0.108 -1.2103 -0.2467 -0.5193
  881MPD2    C512974   1.419   3.194   0.018 -0.4234  0.6911 -0.2654
  881MPD2     H12975   1.483   2.823  17.684 -0.1246 -0.5511  0.0910
  881MPD2    H112976   1.347   3.123   0.204 -0.3599  3.2722 -1.1309
  881MPD2    H212977   1.510   3.238  17.593 -0.4592  0.3918  0.8690
  881MPD2    H312978   1.407   3.296   0.055 -0.5944 -0.2806  2.3492
  881MPD2     N12979   1.376   2.874   0.175 -0.2743 -0.0090  0.0870
  881MPD2    H512980   1.334   2.907   0.262  0.9908  1.1531  0.2635
  881MPD2    N112981   1.568   3.000  17.501  0.1423 -0.0542  0.8236
  881MPD2    H712982   1.568   3.082  17.441  0.0961  0.2307  1.2156
  882MPD2     C12983   4.467   4.429  14.098  0.6835 -0.3051  0.3980
  882MPD2    C112984   4.443   4.453  14.232  0.2580  0.4048 -0.4783
  882MPD2    C212985   4.308   4.458  14.275  0.3462 -0.2026 -0.5887
  882MPD2    C312986   4.204   4.479  14.184 -0.6044 -0.0441 -0.1009
  882MPD2    C412987   4.228   4.451  14.045 -0.4449  0.2182 -0.2643
  882MPD2    C512988   4.359   4.418  14.014  0.8345 -0.1507 -0.6734
  882MPD2     H12989   4.292   4.463  14.382 -1.1279  2.7423 -0.9611
  882MPD2    H112990   4.153   4.454  13.967 -0.6007  1.1021 -0.0814
  882MPD2    H212991   4.567   4.413  14.060  1.7384  1.9294  2.2075
  882MPD2    H312992   4.385   4.410  13.909 -0.9355 -0.4764 -1.0805
  882MPD2     N12993   4.076   4.510  14.233  0.3083 -0.2496 -0.1415
  882MPD2    H512994   3.998   4.493  14.171  0.0914 -2.1307  0.6533
  882MPD2    N112995   4.549   4.472  14.325 -0.4059  0.2395 -0.4805
  882MPD2    H712996   4.641   4.436  14.301 -0.1140 -0.7884  2.0957
  883MPD2     C12997   1.768   0.344  16.393 -0.1843  0.5053  0.3641
  883MPD2    C112998   1.875   0.388  16.318 -0.1213  0.6692 -0.4213
  883MPD2    C212999   1.997   0.412  16.374  0.3855  0.2208  0.5102
  883MPD2    C313000   2.022   0.394  16.501  0.6237  0.5492  0.7636
  883MPD2    C413001   1.923   0.345  16.580  0.2572 -0.1153  0.3049
  883MPD2    C513002   1.801   0.321  16.526  0.5939  0.0269 -0.5133
  883MPD2     H13003   2.076   0.432  16.302  0.9084  1.9388  1.5609
  883MPD2    H113004   1.930   0.337  16.688 -0.4493  1.8315  0.4902
  883MPD2    H213005   1.668   0.320  16.358 -0.5330  1.9827  0.3478
  883MPD2    H313006   1.716   0.279  16.580  1.5122 -2.2032 -0.7864
  883MPD2     N13007   2.154   0.423  16.555  0.1255  0.0409  0.1671
  883MPD2    H513008   2.225   0.464  16.496 -1.2346 -1.6897 -2.6937
  883MPD2    N113009   1.873   0.403  16.182 -0.0569  0.7931 -0.2712
  883MPD2    H713010   1.955   0.445  16.139 -0.7163  1.6715 -0.6733
  884MPD2     C13011   3.017   1.197  15.199  0.0427 -0.5981 -0.4045
  884MPD2    C113012   3.020   1.265  15.080 -0.2632 -0.0891  0.2644
  884MPD2    C213013   2.903   1.308  15.021  0.2101  0.1783  0.0406
  884MPD2    C313014   2.781   1.282  15.082  0.9041 -0.5572 -0.1839
  884MPD2    C413015   2.782   1.215  15.210  0.1575  0.2337 -0.3039
  884MPD2    C513016   2.903   1.177  15.258  0.3280 -0.0155  1.0549
  884MPD2     H13017   2.899   1.347  14.920  0.1165  0.6322  0.2166
  884MPD2    H113018   2.694   1.180  15.263  0.0436 -3.1586 -2.7458
  884MPD2    H213019   3.106   1.158  15.248  0.3642  0.5483 -0.0824
  884MPD2    H313020   2.910   1.104  15.339  3.4147  0.3076  1.0718
  884MPD2     N13021   2.664   1.310  15.010  0.5212 -0.0917 -0.1723
  884MPD2    H513022   2.677   1.344  14.915 -0.2404  1.0503  0.1346
  884MPD2    N113023   3.139   1.286  15.009 -0.4710  0.0358 -0.7506
  884MPD2    H713024   3.131   1.341  14.924  0.2332 -1.2002 -1.6042
  885MPD2     C13025   1.959   1.586   0.007  0.0177  0.2942 -0.4633
  885MPD2    C113026   2.012   1.460   0.006  0.9442  0.2476 -0.5151
  885MPD2    C213027   2.012   1.394  17.639 -0.2935 -0.1123 -0.2256
  885MPD2    C313028   1.951   1.442  17.527  0.0387  0.2703 -0.1419
  885MPD2    C413029   1.898   1.573  17.528 -0.7411 -0.2449 -0.6191
  885MPD2    C513030   1.902   1.633  17.652  0.4275  0.2585  0.5717
  885MPD2     H13031   2.069   1.303  17.621 -0.9949 -0.6331  0.1654
  885MPD2    H113032   1.859   1.622  17.440  3.3935  3.3672 -0.3988
  885MPD2    H213033   1.943   1.641   0.099 -1.2585  1.7494 -1.5582
  885MPD2    H313034   1.866   1.735  17.659 -1.6273 -0.4403  0.1432
  885MPD2     N13035   1.954   1.356  17.409 -0.0552  0.0890 -0.8525
  885MPD2    H513036   1.976   1.258  17.423 -1.4531  0.2649  2.4116
  885MPD2    N113037   2.057   1.401   0.125 -0.4128 -0.4646 -0.1678
  885MPD2    H713038   2.050   1.461   0.207 -0.7966  0.2106 -0.6991
  886MPD2     C13039   3.059   4.210  15.700 -0.1903 -0.2648  0.5963
  886MPD2    C113040   3.193   4.237  15.734  1.0013 -0.6652  0.2864
  886MPD2    C213041   3.273   4.304  15.641 -0.5085  1.1007 -0.4370
  886MPD2    C313042   3.224   4.357  15.522  0.1538  0.3181 -0.2282
  886MPD2    C413043   3.085   4.344  15.497  0.3289  0.0973 -0.6839
  886MPD2    C513044   3.005   4.274  15.593  0.5775 -0.0887 -0.2594
  886MPD2     H13045   3.379   4.316  15.663 -0.1360  1.6008 -2.5199
  886MPD2    H113046   3.038   4.403  15.419  1.4690  2.8747  0.7313
  886MPD2    H213047   2.990   4.173  15.775 -0.3561  0.0754  0.6145
  886MPD2    H313048   2.898   4.274  15.577  0.3326  0.6531  1.3640
  886MPD2     N13049   3.316   4.426  15.441  0.1204  0.1604  1.1510
  886MPD2    H513050   3.415   4.417  15.463  0.3012  0.2878  0.3897
  886MPD2    N113051   3.251   4.198  15.852  0.5545 -0.0220  1.2438
  886MPD2    H713052   3.350   4.213  15.866  1.3107 -4.2541  0.3834
  887MPD2     C13053   3.882   4.264  16.157  1.1494  0.6966  0.2836
  887MPD2    C113054   3.784   4.273  16.058  0.0490 -0.0642 -0.6034
  887MPD2    C213055   3.809   4.364  15.956  0.8932 -0.0694 -0.2967
  887MPD2    C313056   3.921   4.440  15.942  0.2051  0.5157  0.3346
  887MPD2    C413057   4.014   4.431  16.040  0.3626  0.6337 -0.6239
  887MPD2    C513058   3.987   4.349  16.151  0.3705 -0.3960  0.3959
  887MPD2     H13059   3.736   4.359  15.877  0.2115  1.0037  0.2684
  887MPD2    H113060   4.105   4.490  16.047  1.6980 -1.4896  0.0417
  887MPD2    H213061   3.878   4.205  16.248 -0.5898  0.0280 -0.2181
  887MPD2    H313062   4.058   4.346  16.233  1.1742 -0.2296 -0.2931
  887MPD2     N13063   3.922   4.534  15.836  0.3588  1.3232  0.8816
  887MPD2    H513064   3.859   4.528  15.757  0.6868  0.9063  0.6493
  887MPD2    N113065   3.662   4.207  16.064 -0.2884  0.0479  0.2040
  887MPD2    H713066   3.594   4.230  15.992 -0.4468 -2.8999 -0.5919
  888MPD2     C13067   0.855   4.116  14.895  0.4670 -0.9773 -0.5328
  888MPD2    C113068   0.824   4.174  15.013  0.2218 -0.6044 -0.3479
  888MPD2    C213069   0.848   4.311  15.023  0.1716 -0.2363  0.3640
  888MPD2    C313070   0.877   4.388  14.912 -0.4617  0.1096  0.2725
  888MPD2    C413071   0.893   4.326  14.788 -0.4168  0.0926  0.0424
  888MPD2    C513072   0.872   4.194  14.781 -0.2207  0.1577 -0.5431
  888MPD2     H13073   0.819   4.355  15.118  0.3239 -1.2032  0.8638
  888MPD2    H113074   0.932   4.380  14.702  1.3178  1.2815  1.5864
  888MPD2    H213075   0.827   4.012  14.881 -2.5161 -0.3347  0.6341
  888MPD2    H313076   0.878   4.146  14.684 -3.0077  2.0301 -1.6378
  888MPD2     N13077   0.903   4.525  14.921 -0.0724  0.0140  0.2847
  888MPD2    H513078   0.882   4.574  15.007  1.3463 -0.7794  1.0883
  888MPD2    N113079   0.767   4.100  15.122  0.1818  0.0959  0.2909
  888MPD2    H713080   0.752   4.148  15.210  2.5699 -0.1922  0.8573
  889MPD2     C13081   0.132   3.920  12.909  0.0475  0.3209  0.0105
  889MPD2    C113082   0.150   3.871  13.039 -0.0689  0.1582 -0.0794
  889MPD2    C213083   0.089   3.937  13.145 -0.0443 -0.2529 -0.2983
  889MPD2    C313084   0.030   4.057  13.127  0.4558 -0.5285 -0.2441
  889MPD2    C413085   0.019   4.112  12.996 -0.2896 -1.0619 -0.0257
  889MPD2    C513086   0.066   4.040  12.891  0.3912 -0.5620 -0.0693
  889MPD2     H13087   0.103   3.903  13.247  0.1009 -0.2876 -0.3294
  889MPD2    H113088   4.723   4.212  12.974 -1.9591 -1.7375 -0.4257
  889MPD2    H213089   0.178   3.881  12.819 -0.9529  0.0642 -0.3862
  889MPD2    H313090   0.067   4.088  12.794  0.3794 -0.4002  0.0093
  889MPD2     N13091   4.718   4.124  13.246 -0.7606  0.6852  0.0591
  889MPD2    H513092   4.725   4.075  13.334 -0.1838 -0.2570 -0.5025
  889MPD2    N113093   0.200   3.739  13.064 -0.5751  0.0271 -0.5140
  889MPD2    H713094   0.196   3.705  13.159 -3.8380 -0.8141 -0.9531
  890MPD2     C13095   4.085   0.781  14.329  0.0762  0.3056  0.0501
  890MPD2    C113096   4.213   0.815  14.358 -0.5650 -0.4336  0.6953
  890MPD2    C213097   4.297   0.731  14.427  0.1824 -0.5402  0.2673
  890MPD2    C313098   4.247   0.615  14.477 -0.3919  0.4632  0.1303
  890MPD2    C413099   4.112   0.592  14.467  0.0590  0.2183  0.4934
  890MPD2    C513100   4.026   0.674  14.392 -0.6479  0.3523  0.0153
  890MPD2     H13101   4.401   0.759  14.443  0.9043 -2.7421 -0.5185
  890MPD2    H113102   4.062   0.507  14.513  1.3137 -1.0448 -0.4757
  890MPD2    H213103   4.028   0.845  14.262  1.3597  0.7670 -0.5873
  890MPD2    H313104   3.923   0.646  14.377 -1.5408  2.0664  2.9013
  890MPD2     N13105   4.337   0.532  14.549  0.3871 -0.3139 -0.3509
  890MPD2    H513106   4.435   0.552  14.534 -0.1031  1.6101 -0.8765
  890MPD2    N113107   4.247   0.946  14.325 -0.5508  0.4227  0.7796
  890MPD2    H713108   4.175   1.004  14.284 -0.7361 -0.5071 -0.2211
  891MPD2     C13109   2.734   4.299  16.766  0.9703  0.1109  0.7277
  891MPD2    C113110   2.703   4.388  16.871 -0.0760  0.0140 -0.3306
  891MPD2    C213111   2.758   4.373  17.002 -0.5683 -0.1466  0.8318
  891MPD2    C313112   2.850   4.271  17.020  0.5112 -0.5778  0.7994
  891MPD2    C413113   2.882   4.184  16.914  0.7178 -0.9596  1.2582
  891MPD2    C513114   2.823   4.203  16.788 -0.2727 -0.2095  0.7741
  891MPD2     H13115   2.726   4.441  17.080 -3.0539  0.6567 -0.8618
  891MPD2    H113116   2.963   4.112  16.916  0.1371 -1.6362  0.7122
  891MPD2    H213117   2.697   4.311  16.665  1.6950 -4.0711 -0.0558
  891MPD2    H313118   2.850   4.133  16.711 -0.0604  1.4665 -0.6773
  891MPD2     N13119   2.929   4.276  17.140 -0.2564  0.3467  0.0758
  891MPD2    H513120   2.909   4.352  17.204 -0.7478 -0.4048  0.8227
  891MPD2    N113121   2.621   4.497  16.841  0.5816 -0.0043 -0.0618
  891MPD2    H713122   2.587   4.506  16.746  1.2789 -1.8421 -0.4803
  892MPD2     C13123   3.715   0.148  15.133  0.3005 -0.1640 -0.3681
  892MPD2    C113124   3.623   0.136  15.026 -0.1530  0.1073  0.8017
  892MPD2    C213125   3.645   0.049  14.922  0.0242  0.2526  0.7688
  892MPD2    C313126   3.761   4.719  14.913  0.4158  0.3717 -0.7026
  892MPD2    C413127   3.851   4.726  15.019 -0.0838  1.0338  0.0037
  892MPD2    C513128   3.828   0.066  15.126 -0.6862  0.6037  0.1584
  892MPD2     H13129   3.564   0.033  14.852  0.7414  1.2157 -0.2812
  892MPD2    H113130   3.937   4.661  15.016 -0.6838  0.3048 -1.5683
  892MPD2    H213131   3.685   0.203  15.222  0.2583 -0.2422 -0.3337
  892MPD2    H313132   3.892   0.062  15.214  0.6263 -1.4145 -0.9132
  892MPD2     N13133   3.793   4.640  14.800 -0.1581  0.7643 -0.2149
  892MPD2    H513134   3.886   4.602  14.793 -0.1410  0.8545 -0.4770
  892MPD2    N113135   3.501   0.207  15.026  0.0282 -0.4558 -0.3019
  892MPD2    H713136   3.424   0.161  14.978 -0.7629 -0.2024  0.7193
  893MPD2     C13137   0.144   2.795   1.189 -0.4109  0.2618  0.4330
  893MPD2    C113138   0.120   2.888   1.091 -0.5540  0.3897  0.2256
  893MPD2    C213139   4.728   2.890   1.032  1.1111  0.2697  0.5055
  893MPD2    C313140   4.638   2.794   1.056 -0.0302 -0.2385 -0.1386
  893MPD2    C413141   4.669   2.694   1.144 -0.4710  0.1743  0.6642
  893MPD2    C513142   0.054   2.694   1.203 -0.3923 -0.0982 -0.1866
  893MPD2     H13143   4.700   2.975   0.971  0.7184 -1.6409 -1.9800
  893MPD2    H113144   4.599   2.612   1.158 -0.1579 -0.2790 -0.4467
  893MPD2    H213145   0.233   2.785   1.250 -0.5389  1.7056  0.8486
  893MPD2    H313146   0.076   2.624   1.282 -0.9688  0.1900  0.2306
  893MPD2     N13147   4.504   2.803   1.012  0.3401 -0.6300  0.4418
  893MPD2    H513148   4.441   2.736   1.054 -0.0126 -3.4548 -4.5754
  893MPD2    N113149   0.212   2.989   1.052 -0.4465 -0.1178 -0.2309
  893MPD2    H713150   0.301   2.988   1.101 -0.4311 -0.3369 -0.2590
  894MPD2     C13151   3.872   0.757   1.083  0.4825  0.1692 -0.0808
  894MPD2    C113152   3.793   0.862   1.118  0.6061 -0.6400  0.4661
  894MPD2    C213153   3.832   0.993   1.118  0.7888 -0.4602  0.5452
  894MPD2    C313154   3.966   1.023   1.096  0.3943  0.3982 -0.1778
  894MPD2    C413155   4.048   0.912   1.062  0.3515 -0.0391 -0.0553
  894MPD2    C513156   4.002   0.778   1.057 -0.0182  0.3665  0.2925
  894MPD2     H13157   3.767   1.075   1.148  2.3505  0.9922 -0.0357
  894MPD2    H113158   4.151   0.929   1.033 -0.2066  1.3691 -1.2133
  894MPD2    H213159   3.827   0.658   1.083  1.3687 -0.2348  0.5901
  894MPD2    H313160   4.070   0.700   1.023 -0.6924  0.1395 -0.5196
  894MPD2     N13161   4.007   1.155   1.097 -0.8420 -0.7024  0.2039
  894MPD2    H513162   3.932   1.221   1.114 -0.4472 -0.6858  1.8634
  894MPD2    N113163   3.654   0.851   1.124  0.0834 -0.0534 -0.1234
  894MPD2    H713164   3.606   0.941   1.125  0.6421  0.2378  0.6403
  895MPD2     C13165   2.696   4.429  14.072  0.5152 -0.3780  0.0757
  895MPD2    C113166   2.632   4.407  13.954 -0.3481  0.5092 -0.3978
  895MPD2    C213167   2.696   4.320  13.863 -0.5832 -0.6314  0.4500
  895MPD2    C313168   2.823   4.272  13.881 -0.1743 -0.4354 -0.1142
  895MPD2    C413169   2.894   4.311  13.990  0.2228  0.3573  0.4461
  895MPD2    C513170   2.827   4.384  14.087  0.6949  0.0193  0.2886
  895MPD2     H13171   2.647   4.321  13.767  0.0661 -1.0270  0.1104
  895MPD2    H113172   2.998   4.292  14.014  0.2150 -0.2570 -0.0192
  895MPD2    H213173   2.652   4.499  14.142  1.5758  1.6806 -1.3151
  895MPD2    H313174   2.889   4.420  14.169 -2.1321  1.8986  1.6060
  895MPD2     N13175   2.873   4.194  13.778  0.3874 -0.1431  0.2656
  895MPD2    H513176   2.807   4.164  13.707 -1.4287 -2.7222  2.9991
  895MPD2    N113177   2.504   4.448  13.919 -0.4743  0.4900 -0.1356
  895MPD2    H713178   2.468   4.399  13.837  1.2360 -2.6396  0.9745
  896MPD2     C13179   1.039   1.701   1.524  0.4880  0.7548 -0.4612
  896MPD2    C113180   1.005   1.669   1.392  0.1144  0.4060 -0.0100
  896MPD2    C213181   0.875   1.665   1.358  0.1700 -0.2728 -0.3001
  896MPD2    C313182   0.775   1.696   1.447 -0.3319  0.5620  0.4796
  896MPD2    C413183   0.808   1.732   1.579  0.5501  0.0851 -0.4684
  896MPD2    C513184   0.942   1.740   1.614  0.5797  0.0616 -0.2749
  896MPD2     H13185   0.834   1.638   1.261 -0.1880  0.6474 -0.4138
  896MPD2    H113186   0.728   1.766   1.644 -0.0516  0.3445 -1.3458
  896MPD2    H213187   1.144   1.702   1.552  0.3486  2.2424 -0.0113
  896MPD2    H313188   0.966   1.776   1.713  1.5923 -3.4967  0.7506
  896MPD2     N13189   0.640   1.693   1.401  0.2153  0.0836 -0.3296
  896MPD2    H513190   0.620   1.646   1.313  0.6501 -0.6297 -0.0459
  896MPD2    N113191   1.106   1.649   1.296 -0.5147 -0.3786  0.5977
  896MPD2    H713192   1.204   1.656   1.323 -0.9913 -0.4199  2.3850
  897MPD2     C13193   1.604   3.528  10.729  0.2762 -0.4650  0.2117
  897MPD2    C113194   1.577   3.665  10.704 -0.4283  0.3493  0.0985
  897MPD2    C213195   1.462   3.718  10.762 -0.7748  0.0948  0.3907
  897MPD2    C313196   1.380   3.641  10.839 -0.5599  0.3696 -0.7438
  897MPD2    C413197   1.415   3.509  10.871 -0.0937  0.0391 -0.5454
  897MPD2    C513198   1.533   3.458  10.824 -0.2295 -0.0642 -0.5397
  897MPD2     H13199   1.426   3.815  10.730  2.0481  0.5188 -1.4986
  897MPD2    H113200   1.361   3.450  10.944 -0.7612  3.5038  1.7440
  897MPD2    H213201   1.687   3.476  10.684 -0.1369 -0.8655 -0.0975
  897MPD2    H313202   1.566   3.360  10.857  0.2852 -0.1032 -1.1882
  897MPD2     N13203   1.265   3.705  10.893 -0.7918 -0.5365 -1.0367
  897MPD2    H513204   1.253   3.803  10.868  1.2403  0.3572  1.4698
  897MPD2    N113205   1.663   3.740  10.628 -0.2165 -0.2482  0.2842
  897MPD2    H713206   1.747   3.701  10.586  0.7967  0.3305  1.7713
  898MPD2     C13207   3.989   4.038   0.151  0.5649 -0.0689  0.4003
  898MPD2    C113208   4.020   4.115   0.261 -0.8762  0.6047  0.7687
  898MPD2    C213209   4.012   4.251   0.254 -0.2893 -0.3591 -0.7298
  898MPD2    C313210   4.004   4.312   0.132 -0.5774 -0.0219 -0.4102
  898MPD2    C413211   3.960   4.236   0.022 -0.0119 -0.7824 -0.0559
  898MPD2    C513212   3.956   4.104   0.034  0.0149 -0.2790 -0.1855
  898MPD2     H13213   4.039   4.308   0.342  0.4945 -1.8800  0.0239
  898MPD2    H113214   3.944   4.281  17.682 -1.7281 -0.2369  0.4727
  898MPD2    H213215   3.982   3.930   0.144  1.7795 -0.3128  3.0545
  898MPD2    H313216   3.924   4.044  17.707 -0.2080 -0.2598 -0.1141
  898MPD2     N13217   4.015   4.454   0.131 -0.4991  0.1884  0.1771
  898MPD2    H513218   4.062   4.493   0.212 -0.4461 -0.4770  0.4638
  898MPD2    N113219   4.056   4.057   0.385  0.3887 -0.6239 -0.6581
  898MPD2    H713220   4.081   4.120   0.461 -3.6702  0.1308  0.0320
  899MPD2     C13221   0.066   0.613  17.512 -0.9534 -0.3960 -0.2857
  899MPD2    C113222   4.704   0.706  17.478  0.0451  0.2778  0.1045
  899MPD2    C213223   4.622   0.741  17.580  0.2925 -0.1711  1.1265
  899MPD2    C313224   4.622   0.683  17.709 -0.5044  0.1504  1.1105
  899MPD2    C413225   4.723   0.599  17.740 -0.4210  0.1199 -0.6951
  899MPD2    C513226   0.074   0.562  17.640 -0.0671 -0.0745 -0.3594
  899MPD2     H13227   4.545   0.812  17.553  2.0317  1.3102  0.0502
  899MPD2    H113228   0.000   0.546   0.076 -3.1260 -0.9203 -0.7860
  899MPD2    H213229   0.140   0.585  17.438 -0.5959  0.7095 -0.3366
  899MPD2    H313230   0.154   0.493  17.665  1.1360  0.9691 -1.2881
  899MPD2     N13231   4.532   0.715   0.056  0.8219  0.2185  0.0756
  899MPD2    H513232   4.549   0.665   0.143 -0.1709 -0.6695 -0.2403
  899MPD2    N113233   4.676   0.752  17.347  0.2217  0.3599  0.1028
  899MPD2    H713234   4.593   0.808  17.331 -0.6280 -1.3161 -1.3910
  900MPD2     C13235   3.560   1.860  12.549 -1.1645  1.0301  0.5483
  900MPD2    C113236   3.532   1.728  12.512 -0.2023  0.0023 -0.8656
  900MPD2    C213237   3.423   1.710  12.432 -0.1888  0.4369  0.5793
  900MPD2    C313238   3.337   1.811  12.405 -0.4280 -0.2864  0.3084
  900MPD2    C413239   3.362   1.941  12.439  0.2072  0.0297 -0.0959
  900MPD2    C513240   3.478   1.964  12.513 -0.6060 -0.3747  0.4062
  900MPD2     H13241   3.394   1.608  12.407  0.8320  0.3338 -0.1927
  900MPD2    H113242   3.301   2.026  12.411 -1.2291 -1.1085 -0.4446
  900MPD2    H213243   3.647   1.890  12.606  1.2211 -0.3013 -2.3382
  900MPD2    H313244   3.505   2.064  12.547 -2.2459  0.3264 -0.3821
  900MPD2     N13245   3.224   1.777  12.334  0.5890 -0.0924 -0.4510
  900MPD2    H513246   3.212   1.682  12.299 -0.4369  0.1717 -0.8121
  900MPD2    N113247   3.614   1.619  12.542 -0.6184  0.4309 -0.3036
  900MPD2    H713248   3.590   1.522  12.521 -1.1715  0.7379 -1.0537
  901MPD2     C13249   3.566   0.686  12.752 -0.7749  0.5093 -0.2709
  901MPD2    C113250   3.698   0.705  12.789  0.0568 -0.3710  0.5662
  901MPD2    C213251   3.755   0.829  12.781  0.2594  0.7326 -0.4476
  901MPD2    C313252   3.678   0.937  12.751 -0.5000 -0.4387 -0.3869
  901MPD2    C413253   3.543   0.916  12.701 -0.3667 -0.2002 -0.4332
  901MPD2    C513254   3.494   0.787  12.696 -1.0206 -0.3530 -0.5094
  901MPD2     H13255   3.860   0.846  12.804  0.5302  1.2181 -2.0443
  901MPD2    H113256   3.474   0.990  12.660  1.7834  0.7770 -2.2772
  901MPD2    H213257   3.521   0.588  12.746 -0.4864  0.2690  1.4331
  901MPD2    H313258   3.397   0.769  12.651 -1.4330 -2.1534  1.1164
  901MPD2     N13259   3.749   1.063  12.734 -0.1160  0.9967  0.8862
  901MPD2    H513260   3.843   1.067  12.771 -0.4826 -0.2764  1.9809
  901MPD2    N113261   3.770   0.589  12.832 -0.2602 -0.5031 -0.1679
  901MPD2    H713262   3.721   0.500  12.832 -1.2993  0.0661 -0.5960
  902MPD2     C13263   2.424   4.473  12.949  0.5845  0.1006 -0.1888
  902MPD2    C113264   2.535   4.544  12.986 -0.4516 -0.2287  0.2940
  902MPD2    C213265   2.654   4.482  12.981  0.1031  0.2670 -0.4912
  902MPD2    C313266   2.667   4.350  12.933 -0.0344  0.0681 -0.1228
  902MPD2    C413267   2.554   4.281  12.889  0.9903  0.4310 -0.3157
  902MPD2    C513268   2.436   4.347  12.908  0.2878 -0.2906  1.0242
  902MPD2     H13269   2.750   4.530  13.002  1.1833 -2.5385  1.0202
  902MPD2    H113270   2.559   4.183  12.844 -0.2690  0.8360 -1.3403
  902MPD2    H213271   2.325   4.516  12.955 -0.5342 -2.7458  1.7805
  902MPD2    H313272   2.341   4.297  12.891  0.7244 -0.9534  0.5123
  902MPD2     N13273   2.792   4.280  12.919  0.0081 -1.0169 -0.2356
  902MPD2    H513274   2.790   4.188  12.877 -0.1341 -0.6463 -1.0324
  902MPD2    N113275   2.520   4.677  13.030 -0.2445  0.5564  0.4616
  902MPD2    H713276   2.432   4.723  13.008 -1.1025 -1.9310 -1.2018
  903MPD2     C13277   3.286   3.881  12.349 -0.2935  0.5530 -0.2212
  903MPD2    C113278   3.175   3.918  12.418 -0.3197 -0.0074  1.0682
  903MPD2    C213279   3.057   3.879  12.367  0.3401 -0.5571  0.1088
  903MPD2    C313280   3.050   3.806  12.246 -0.3737  0.1446 -0.0399
  903MPD2    C413281   3.164   3.761  12.188 -0.1443 -0.2891 -0.1727
  903MPD2    C513282   3.279   3.804  12.239  0.4793 -0.0240  0.2149
  903MPD2     H13283   2.967   3.913  12.417  0.4299 -0.5978  0.3011
  903MPD2    H113284   3.169   3.705  12.095 -1.9910 -0.6507 -0.0495
  903MPD2    H213285   3.385   3.905  12.387  0.0346  1.0208 -1.3951
  903MPD2    H313286   3.366   3.772  12.185 -0.2909  0.4942 -1.3277
  903MPD2     N13287   2.923   3.772  12.198  0.3986  1.1350  0.3574
  903MPD2    H513288   2.839   3.790  12.252 -1.0209  0.4417 -1.6132
  903MPD2    N113289   3.189   3.991  12.545  0.0876  0.1714 -0.0899
  903MPD2    H713290   3.281   4.024  12.570  0.6867 -2.1475  0.7767
  904MPD2     C13291   2.578   3.739  14.578  0.3373  0.1436  0.8584
  904MPD2    C113292   2.576   3.722  14.445  0.1404 -0.2678  0.0564
  904MPD2    C213293   2.688   3.688  14.374  0.7994 -0.1004  0.3831
  904MPD2    C313294   2.805   3.662  14.445 -0.1191  0.2958 -0.3749
  904MPD2    C413295   2.807   3.678  14.586 -0.3735  0.9973 -0.1182
  904MPD2    C513296   2.684   3.701  14.646  0.0301 -0.6742  0.2550
  904MPD2     H13297   2.679   3.665  14.269  1.4335  1.5875 -0.0400
  904MPD2    H113298   2.890   3.645  14.648 -2.4874 -0.1405  2.1109
  904MPD2    H213299   2.490   3.767  14.635 -1.4739 -0.9078 -1.4335
  904MPD2    H313300   2.675   3.691  14.754 -3.3877  1.5803  0.1764
  904MPD2     N13301   2.922   3.625  14.385  0.0115 -0.0916  0.0796
  904MPD2    H513302   2.911   3.586  14.292  4.3635 -1.3279  0.0827
  904MPD2    N113303   2.454   3.756  14.374 -0.2267  0.4000  0.1659
  904MPD2    H713304   2.454   3.742  14.273  1.6064  0.4901  0.1551
  905MPD2     C13305   2.295   3.710  13.702  0.7414  0.9450  0.3223
  905MPD2    C113306   2.362   3.822  13.749  0.5293  0.4765 -0.7963
  905MPD2    C213307   2.454   3.888  13.671  0.8844 -0.2671  0.1500
  905MPD2    C313308   2.501   3.835  13.551  0.8957 -0.0793 -0.6476
  905MPD2    C413309   2.445   3.717  13.513 -0.4227 -0.1278  0.9316
  905MPD2    C513310   2.342   3.659  13.581 -0.3862 -0.3790 -0.0682
  905MPD2     H13311   2.501   3.976  13.714  0.1582  1.5502 -2.8400
  905MPD2    H113312   2.479   3.658  13.428  0.8730 -0.8894  1.9724
  905MPD2    H213313   2.207   3.666  13.745  0.3506  0.5703 -0.8566
  905MPD2    H313314   2.290   3.571  13.542 -1.9797 -0.1055  1.4583
  905MPD2     N13315   2.618   3.881  13.488 -1.0176  0.5107 -0.0058
  905MPD2    H513316   2.660   3.829  13.411  1.9780  2.2766  0.4418
  905MPD2    N113317   2.326   3.852  13.885  0.1291 -0.1534  0.3635
  905MPD2    H713318   2.270   3.778  13.928 -1.0578  0.8682  0.5618
  906MPD2     C13319   4.735   3.617  11.406  0.3130  0.5147 -0.1897
  906MPD2    C113320   4.662   3.570  11.297  0.2343  0.7622  0.2930
  906MPD2    C213321   4.549   3.495  11.327 -0.5063  0.4951 -0.0329
  906MPD2    C313322   4.515   3.455  11.456  0.0543 -0.4644 -0.2189
  906MPD2    C413323   4.592   3.500  11.559 -0.1774 -0.2224  0.4526
  906MPD2    C513324   4.697   3.588  11.536 -0.8148  0.1385  0.2165
  906MPD2     H13325   4.500   3.459  11.238  0.6175 -0.6402 -0.1914
  906MPD2    H113326   4.562   3.471  11.659 -1.3227  2.3784  0.8549
  906MPD2    H213327   0.085   3.677  11.401  0.1676  0.6948 -0.7251
  906MPD2    H313328   0.012   3.630  11.620  1.2330 -2.0679  0.0071
  906MPD2     N13329   4.398   3.382  11.468  0.3554 -0.2561 -0.4328
  906MPD2    H513330   4.366   3.342  11.380  1.8523 -0.7398 -0.7720
  906MPD2    N113331   4.693   3.579  11.160  0.0724 -0.4992 -1.0153
  906MPD2    H713332   4.619   3.545  11.099  0.4042 -0.2766 -1.5453
  907MPD2     C13333   3.704   3.154  15.729 -0.1399  0.1169  0.4199
  907MPD2    C113334   3.751   3.020  15.729 -0.6430 -0.7904  0.0625
  907MPD2    C213335   3.724   2.942  15.841  0.3963  1.2029  0.6773
  907MPD2    C313336   3.674   2.997  15.965 -0.1752  0.1407  0.0886
  907MPD2    C413337   3.649   3.131  15.968  0.1424  0.1661 -0.1805
  907MPD2    C513338   3.661   3.204  15.851 -0.1000  0.3474  0.2404
  907MPD2     H13339   3.752   2.838  15.827 -1.1212  0.9548 -0.4963
  907MPD2    H113340   3.614   3.177  16.059 -1.7305 -1.9378  0.1737
  907MPD2    H213341   3.697   3.222  15.645 -0.4760 -1.3943 -0.7949
  907MPD2    H313342   3.622   3.306  15.848 -0.1432  0.3007 -0.6287
  907MPD2     N13343   3.673   2.916  16.087 -0.0719  0.7643 -0.4209
  907MPD2    H513344   3.680   2.815  16.088 -2.2787  0.6065 -0.5933
  907MPD2    N113345   3.790   2.953  15.611  0.1079 -0.1586 -0.3450
  907MPD2    H713346   3.814   2.856  15.625 -0.0413 -0.0940  0.3423
  908MPD2     C13347   1.546   3.881   9.763 -0.2928  0.0369 -0.4381
  908MPD2    C113348   1.524   3.790   9.860  0.6384  0.1791 -0.8570
  908MPD2    C213349   1.589   3.800   9.979  0.4090 -0.6974  0.7078
  908MPD2    C313350   1.649   3.916  10.018  0.2413  0.3107 -0.0580
  908MPD2    C413351   1.660   4.013   9.923 -0.0189 -0.0795  0.1905
  908MPD2    C513352   1.616   3.998   9.799  0.9051 -0.4464  0.6829
  908MPD2     H13353   1.565   3.724  10.054 -2.5114 -0.0456  0.4308
  908MPD2    H113354   1.709   4.108   9.940 -1.2012  0.6823 -0.7103
  908MPD2    H213355   1.508   3.872   9.662 -0.1368 -2.2796 -0.2912
  908MPD2    H313356   1.621   4.076   9.724 -0.6125 -0.9723  0.0358
  908MPD2     N13357   1.709   3.916  10.147 -0.1122 -0.0351  0.1296
  908MPD2    H513358   1.698   3.832  10.203 -2.3445  0.0631 -0.1529
  908MPD2    N113359   1.454   3.673   9.818  0.0056 -0.6014  0.2874
  908MPD2    H713360   1.419   3.673   9.723 -2.5927 -2.9140  1.2468
  909MPD2     C13361   1.773   1.510  11.979  0.2062 -0.3061  0.4772
  909MPD2    C113362   1.769   1.638  11.929  0.6045  0.1554  0.6507
  909MPD2    C213363   1.686   1.729  11.992 -0.0713 -0.4395 -0.5232
  909MPD2    C313364   1.610   1.697  12.098 -0.5223  0.3799  0.7562
  909MPD2    C413365   1.605   1.565  12.138 -0.6331  0.2692  0.0551
  909MPD2    C513366   1.705   1.477  12.095 -0.0934  0.1190 -0.3888
  909MPD2     H13367   1.672   1.828  11.949 -1.2746 -0.3577  0.0671
  909MPD2    H113368   1.552   1.527  12.225 -1.7040 -0.1808 -0.8086
  909MPD2    H213369   1.834   1.432  11.935 -1.2408  0.3662 -2.7110
  909MPD2    H313370   1.711   1.376  12.133 -3.5456 -0.0975 -0.4175
  909MPD2     N13371   1.518   1.796  12.142  0.1472  0.4614 -0.3194
  909MPD2    H513372   1.519   1.883  12.091 -0.5203  1.5148  1.4583
  909MPD2    N113373   1.824   1.673  11.805 -0.0370 -1.2835 -0.1676
  909MPD2    H713374   1.816   1.769  11.775 -1.6799 -1.2729  0.2608
  910MPD2     C13375   2.982   3.737  16.645  0.6328 -0.8226 -0.1033
  910MPD2    C113376   3.053   3.677  16.543 -0.1419  0.1947 -0.3389
  910MPD2    C213377   3.024   3.710  16.411 -0.4827  0.9742 -0.1946
  910MPD2    C313378   2.933   3.801  16.380  0.5114 -0.8255  0.3546
  910MPD2    C413379   2.871   3.869  16.483 -1.6959 -0.5373 -0.0193
  910MPD2    C513380   2.889   3.838  16.612 -0.8517 -0.8530  0.1188
  910MPD2     H13381   3.070   3.652  16.332 -0.6047  0.0555  0.4114
  910MPD2    H113382   2.806   3.955  16.470 -0.0009  0.7530  0.0720
  910MPD2    H213383   3.006   3.716  16.748 -0.8478  0.4667  0.5214
  910MPD2    H313384   2.834   3.889  16.690 -0.9941  0.1345 -0.6201
  910MPD2     N13385   2.899   3.843  16.250 -0.2882  0.5025  0.2291
  910MPD2    H513386   2.825   3.912  16.250  0.6630  1.5208 -2.5106
  910MPD2    N113387   3.146   3.572  16.563 -0.0934 -0.3111 -0.5304
  910MPD2    H713388   3.179   3.530  16.476  1.2288 -0.5906  0.1091
  911MPD2     C13389   1.159   3.932  16.450 -0.2707  0.4135 -0.3109
  911MPD2    C113390   1.181   4.064  16.447 -0.4490  0.5339 -0.4394
  911MPD2    C213391   1.092   4.148  16.388  0.0030  0.6079 -0.2126
  911MPD2    C313392   0.969   4.097  16.346 -0.8051 -0.2297 -0.5289
  911MPD2    C413393   0.934   3.966  16.367 -0.0593 -0.6176 -0.9803
  911MPD2    C513394   1.034   3.887  16.409  0.5086 -0.7563  0.0241
  911MPD2     H13395   1.114   4.254  16.387 -1.4347  0.9047  0.0522
  911MPD2    H113396   0.836   3.923  16.352  0.1559 -1.4754  0.0809
  911MPD2    H213397   1.233   3.863  16.489 -2.6950 -1.7165  0.5281
  911MPD2    H313398   1.013   3.781  16.420  1.2834 -0.8682  0.4428
  911MPD2     N13399   0.876   4.179  16.288 -0.3033  0.3811  0.7543
  911MPD2    H513400   0.786   4.133  16.278 -1.4289  2.2800  2.2711
  911MPD2    N113401   1.305   4.109  16.486  0.1384 -0.1043 -0.5089
  911MPD2    H713402   1.370   4.038  16.518 -1.0443 -1.0418 -0.1674
  912MPD2     C13403   0.467   3.953  15.607 -0.5016 -0.0429  0.4934
  912MPD2    C113404   0.514   3.935  15.740 -0.2085 -0.8029 -0.6616
  912MPD2    C213405   0.480   3.822  15.809  0.5683  0.6655 -0.3229
  912MPD2    C313406   0.389   3.726  15.757  0.5045  0.0086  0.6918
  912MPD2    C413407   0.333   3.755  15.633  0.2166  0.3583 -0.2815
  912MPD2    C513408   0.382   3.859  15.556  0.5927 -0.8050  0.2272
  912MPD2     H13409   0.522   3.806  15.908 -0.7688 -0.3268  0.0860
  912MPD2    H113410   0.263   3.689  15.584 -1.3109  1.6790  0.1298
  912MPD2    H213411   0.509   4.029  15.542  0.4108  1.0134  2.3189
  912MPD2    H313412   0.337   3.873  15.458 -0.2934 -1.0467  0.6011
  912MPD2     N13413   0.360   3.605  15.835  0.0725  0.6628 -0.4004
  912MPD2    H513414   0.403   3.604  15.926  0.5375  2.7865 -0.5851
  912MPD2    N113415   0.586   4.043  15.793  0.5852 -0.3456  0.1546
  912MPD2    H713416   0.562   4.131  15.748  0.7784 -0.1964  0.3434
  913MPD2     C13417   1.207   4.716  10.449 -0.5228  0.0508 -0.3147
  913MPD2    C113418   1.242   0.109  10.459  0.0130  0.8170 -0.1166
  913MPD2    C213419   1.237   0.186  10.342 -1.0371  0.2922  0.6014
  913MPD2    C313420   1.180   0.134  10.223 -0.4958 -0.4617 -0.1392
  913MPD2    C413421   1.132   0.002  10.226  0.1068 -0.7198 -0.0306
  913MPD2    C513422   1.155   4.667  10.335 -0.0944  0.1821 -0.1921
  913MPD2     H13423   1.283   0.284  10.336  1.2256 -0.9062 -1.5890
  913MPD2    H113424   1.100   4.696  10.133  1.3552 -0.4541 -0.5914
  913MPD2    H213425   1.222   4.644  10.529 -0.3491  0.1353 -0.2708
  913MPD2    H313426   1.119   4.564  10.334 -0.6221  0.3678 -0.8807
  913MPD2     N13427   1.175   0.218  10.110  0.3535  0.3950 -0.6253
  913MPD2    H513428   1.211   0.312  10.120  0.7614  0.1948 -0.2100
  913MPD2    N113429   1.273   0.168  10.589 -0.1994 -0.0547 -0.0697
  913MPD2    H713430   1.283   0.102  10.665 -0.4736 -0.5974 -0.5071
  914MPD2     C13431   3.851   0.534  12.026  0.2520  0.1605  0.0185
  914MPD2    C113432   3.872   0.635  12.114 -0.1224  0.5911 -0.6127
  914MPD2    C213433   3.898   0.608  12.249 -0.7467 -0.4676 -0.9663
  914MPD2    C313434   3.921   0.480  12.285 -0.3922  0.5780 -0.1431
  914MPD2    C413435   3.916   0.377  12.195 -0.1121 -0.1277 -0.1298
  914MPD2    C513436   3.865   0.406  12.066 -0.5489  0.5155 -0.4304
  914MPD2     H13437   3.897   0.689  12.320  1.1405 -1.4946  0.2466
  914MPD2    H113438   3.915   0.272  12.221 -0.2128 -0.5979 -2.0141
  914MPD2    H213439   3.820   0.546  11.923 -0.0568 -1.1535 -0.0406
  914MPD2    H313440   3.845   0.328  11.994 -0.7449 -0.0587  0.2396
  914MPD2     N13441   3.948   0.461  12.421 -0.1755 -0.2848 -0.6661
  914MPD2    H513442   3.956   0.542  12.481  0.3740 -0.7274 -0.1442
  914MPD2    N113443   3.851   0.765  12.065 -0.0095 -0.3891  0.1646
  914MPD2    H713444   3.815   0.782  11.972 -0.2900  2.1857  0.7619
  915MPD2     C13445   2.092   1.005  15.737 -0.1415  1.2592 -0.2516
  915MPD2    C113446   2.016   1.092  15.661  0.1079  0.4709 -0.2004
  915MPD2    C213447   1.915   1.164  15.722 -0.1899  0.9946 -0.1405
  915MPD2    C313448   1.879   1.145  15.856 -0.4083  0.5417 -0.3251
  915MPD2    C413449   1.961   1.061  15.928  0.2748  0.3732 -0.1673
  915MPD2    C513450   2.067   0.995  15.868 -0.2398  0.1604  0.3666
  915MPD2     H13451   1.857   1.238  15.667 -0.2041  2.0847  1.3525
  915MPD2    H113452   1.944   1.028  16.029 -0.6663  1.9998  0.2025
  915MPD2    H213453   2.169   0.950  15.685 -1.3106 -1.7611  1.2341
  915MPD2    H313454   2.124   0.926  15.929  2.6221  2.9363  0.8579
  915MPD2     N13455   1.762   1.195  15.908  0.4655 -0.6594 -0.1216
  915MPD2    H513456   1.702   1.232  15.835  0.7324 -0.5315 -0.2769
  915MPD2    N113457   2.056   1.109  15.524  0.4859  0.2538  0.1087
  915MPD2    H713458   2.120   1.039  15.490  1.3528  1.3777 -0.5749
  916MPD2     C13459   0.240   4.035  15.975 -0.3355 -0.1991  0.0605
  916MPD2    C113460   0.199   3.932  16.063 -0.3568 -0.7498 -0.3741
  916MPD2    C213461   0.135   3.825  16.000  0.9083  0.4056 -0.0755
  916MPD2    C313462   0.098   3.821  15.859 -0.1237 -0.6209  0.1541
  916MPD2    C413463   0.130   3.932  15.784 -0.8383  0.7789 -0.4404
  916MPD2    C513464   0.205   4.038  15.841 -0.3442  0.4904  0.4889
  916MPD2     H13465   0.105   3.747  16.069  0.6680  0.7371  0.1925
  916MPD2    H113466   0.119   3.947  15.677 -0.2790  1.0079 -0.4662
  916MPD2    H213467   0.287   4.120  16.023 -0.5232  0.2874 -0.6140
  916MPD2    H313468   0.228   4.130  15.789  0.5314 -0.6263 -1.0865
  916MPD2     N13469   0.037   3.707  15.805 -0.3009 -0.4532 -0.0555
  916MPD2    H513470   0.024   3.625  15.864  1.1271 -2.7991 -3.0231
  916MPD2    N113471   0.224   3.958  16.199 -0.4632 -0.0912 -0.2133
  916MPD2    H713472   0.263   4.048  16.224 -0.3442 -0.0282 -0.6244
  917MPD2     C13473   0.420   0.883  11.328 -0.3397  0.2654  0.2007
  917MPD2    C113474   0.465   0.951  11.439 -0.2834 -0.1270  0.3409
  917MPD2    C213475   0.560   1.054  11.421 -0.1331 -0.2169 -0.5555
  917MPD2    C313476   0.604   1.092  11.294 -0.2145  0.0899 -0.0330
  917MPD2    C413477   0.563   1.017  11.185  0.5139 -0.0409 -0.0136
  917MPD2    C513478   0.463   0.921  11.204 -0.2874  0.5479  0.1975
  917MPD2     H13479   0.610   1.089  11.510  2.7516 -1.0271 -1.8594
  917MPD2    H113480   0.600   1.031  11.084  2.2106 -0.5514  0.5303
  917MPD2    H213481   0.345   0.808  11.349 -1.2633  0.9151 -0.7578
  917MPD2    H313482   0.432   0.870  11.113  0.4566  0.0832  0.1944
  917MPD2     N13483   0.703   1.186  11.265  0.2885  0.3021 -0.0783
  917MPD2    H513484   0.733   1.210  11.170 -0.2496 -0.4987 -0.4499
  917MPD2    N113485   0.404   0.934  11.567  0.4485  0.2156  0.7964
  917MPD2    H713486   0.337   0.859  11.566 -1.8694  2.3017 -1.1281
  918MPD2     C13487   0.276   1.677  12.149  0.8465  0.1898  0.0102
  918MPD2    C113488   0.379   1.595  12.197  0.0133  0.8020 -0.0201
  918MPD2    C213489   0.372   1.462  12.184 -0.0785  0.1378 -0.2482
  918MPD2    C313490   0.270   1.398  12.112  0.5189 -0.5320 -0.2770
  918MPD2    C413491   0.169   1.481  12.057  0.0641 -0.6019  0.1278
  918MPD2    C513492   0.176   1.616  12.071 -0.1116 -0.7149 -0.1786
  918MPD2     H13493   0.451   1.397  12.220 -1.0022 -0.3302  0.9399
  918MPD2    H113494   0.083   1.442  12.004 -0.3497  0.7395 -0.1844
  918MPD2    H213495   0.287   1.784  12.139  1.6055  0.2992  1.9621
  918MPD2    H313496   0.096   1.679  12.034  0.9078 -0.3637 -1.7731
  918MPD2     N13497   0.272   1.256  12.093  0.5541  0.2668  0.1157
  918MPD2    H513498   0.360   1.206  12.108 -0.3041 -1.0890  0.6509
  918MPD2    N113499   0.491   1.652  12.264 -0.8356 -0.4158 -0.3774
  918MPD2    H713500   0.556   1.583  12.299 -2.1526 -1.1326  0.6786
  919MPD2     C13501   0.957   0.479  12.093  0.5141  0.0112  0.0619
  919MPD2    C113502   0.913   0.353  12.055  0.3304  0.5559  0.4322
  919MPD2    C213503   0.884   0.318  11.929  0.3538  0.3416 -0.2280
  919MPD2    C313504   0.908   0.404  11.822  0.0369  0.1801 -0.2655
  919MPD2    C413505   0.956   0.530  11.851  0.0347 -0.1054 -0.6586
  919MPD2    C513506   0.972   0.564  11.982  0.0496  0.3222 -0.3408
  919MPD2     H13507   0.839   0.220  11.915 -0.0940  0.3956  0.8329
  919MPD2    H113508   0.962   0.604  11.772 -0.4366  1.2980  0.6198
  919MPD2    H213509   0.976   0.508  12.195 -0.0977  2.0495 -0.4147
  919MPD2    H313510   1.007   0.662  12.012  1.6091 -0.6860  1.1434
  919MPD2     N13511   0.890   0.363  11.685  0.3883 -0.1306  0.0800
  919MPD2    H513512   0.915   0.439  11.622  0.8930  1.8988  2.7044
  919MPD2    N113513   0.912   0.248  12.148 -0.3772 -0.0614  0.1723
  919MPD2    H713514   0.907   0.152  12.117  1.6299 -0.1123 -0.0008
  920MPD2     C13515   1.070   0.670  10.786  0.0953 -0.7940 -0.1145
  920MPD2    C113516   0.957   0.596  10.772 -0.1978  1.1756  0.3004
  920MPD2    C213517   0.927   0.493  10.861  0.5313 -0.1653  0.8521
  920MPD2    C313518   1.006   0.467  10.974 -0.3734  0.0187  0.0249
  920MPD2    C413519   1.114   0.551  10.986 -0.7627 -0.1378  0.5102
  920MPD2    C513520   1.146   0.652  10.902 -0.0865  0.4155 -0.2563
  920MPD2     H13521   0.836   0.434  10.850 -0.1162  1.3131 -1.7172
  920MPD2    H113522   1.176   0.551  11.075 -2.7317 -0.8172  1.8929
  920MPD2    H213523   1.093   0.754  10.721 -2.9962 -0.8826 -1.3250
  920MPD2    H313524   1.236   0.712  10.911  1.9740 -2.9187  1.1436
  920MPD2     N13525   0.972   0.371  11.077 -0.1617  0.5319  0.1282
  920MPD2    H513526   0.892   0.309  11.067 -0.0954  0.1444  1.9052
  920MPD2    N113527   0.876   0.606  10.652  0.2434 -0.3700  0.1209
  920MPD2    H713528   0.802   0.536  10.650  1.4778 -1.7158  1.3390
  921MPD2     C13529   1.798   0.137  16.887 -0.5939 -0.0671  0.1109
  921MPD2    C113530   1.894   0.038  16.847 -0.5099 -0.4938  0.7715
  921MPD2    C213531   1.846   4.647  16.832 -0.3312  0.4082  0.1381
  921MPD2    C313532   1.705   4.620  16.844  0.4122 -0.5433  0.2760
  921MPD2    C413533   1.619   4.722  16.881 -0.8463 -0.5622  0.3960
  921MPD2    C513534   1.668   0.109  16.904  0.3600 -0.2137  0.0485
  921MPD2     H13535   1.921   4.578  16.796 -0.0954 -0.7129  2.7593
  921MPD2    H113536   1.512   4.709  16.895 -1.0696  0.3250 -0.4614
  921MPD2    H213537   1.841   0.235  16.904 -1.5974  0.3194  0.4023
  921MPD2    H313538   1.599   0.185  16.939 -3.3258 -2.8122 -1.6006
  921MPD2     N13539   1.651   4.496  16.811  0.3286 -0.4895  0.0139
  921MPD2    H513540   1.551   4.486  16.825  0.1545  0.5222 -0.4805
  921MPD2    N113541   2.025   0.066  16.855  0.3046 -0.9630 -0.4904
  921MPD2    H713542   2.056   0.161  16.842  2.7271 -1.7738 -0.6720
  922MPD2     C13543   2.643   2.079  17.009 -0.1974  0.0614 -0.6928
  922MPD2    C113544   2.638   1.984  17.116  0.5817 -0.8827 -0.6729
  922MPD2    C213545   2.563   1.865  17.106  0.0445 -0.1442 -0.3039
  922MPD2    C313546   2.497   1.845  16.978 -0.4712  0.4954 -0.2023
  922MPD2    C413547   2.505   1.937  16.875 -0.1781  0.4563 -0.1869
  922MPD2    C513548   2.579   2.053  16.889  0.0594  0.6060 -0.2052
  922MPD2     H13549   2.552   1.790  17.183 -0.3888 -1.0740 -1.2656
  922MPD2    H113550   2.445   1.928  16.785  0.3731 -2.5294 -0.2676
  922MPD2    H213551   2.696   2.173  17.018  1.1845 -0.8952  1.1194
  922MPD2    H313552   2.581   2.126  16.809  1.5280  2.1322  1.1926
  922MPD2     N13553   2.415   1.733  16.955 -0.1310  0.0071  0.5166
  922MPD2    H513554   2.357   1.726  16.872  0.3444  0.4152  0.1586
  922MPD2    N113555   2.704   2.022  17.240  0.4704  0.7573  0.0990
  922MPD2    H713556   2.769   2.099  17.240 -1.2919  2.2285  1.1912
  923MPD2     C13557   4.001   3.562   9.114  0.7739  0.4198  0.4311
  923MPD2    C113558   3.917   3.656   9.167  1.0651 -0.2279 -0.4692
  923MPD2    C213559   3.953   3.725   9.287 -0.1600  0.6916 -0.4242
  923MPD2    C313560   4.078   3.701   9.345 -0.0253 -0.6610  0.3375
  923MPD2    C413561   4.162   3.607   9.288  0.0249 -0.1766  0.0032
  923MPD2    C513562   4.126   3.545   9.173 -0.1798  0.4037  0.3697
  923MPD2     H13563   3.884   3.799   9.326 -1.0873 -0.5254  0.2395
  923MPD2    H113564   4.257   3.594   9.339 -0.0616  0.6497  0.3656
  923MPD2    H213565   3.974   3.502   9.028  2.9758  0.6161 -0.4106
  923MPD2    H313566   4.194   3.472   9.130 -0.3304  0.4824  0.0045
  923MPD2     N13567   4.124   3.767   9.454  0.1684 -0.1194 -0.4852
  923MPD2    H513568   4.211   3.727   9.487 -0.6828 -0.7495  0.9429
  923MPD2    N113569   3.786   3.669   9.112 -0.3094  0.0841 -0.5197
  923MPD2    H713570   3.725   3.733   9.161  0.5650  0.2150  0.3932
  924MPD2     C13571   3.578   2.078  16.042 -0.1000  0.0464  0.1042
  924MPD2    C113572   3.553   2.109  16.177  0.1835  0.8753 -0.1116
  924MPD2    C213573   3.588   2.231  16.226 -0.0655  0.3786 -0.5853
  924MPD2    C313574   3.641   2.327  16.142 -0.0726  0.3067  0.0791
  924MPD2    C413575   3.668   2.293  16.014 -0.0535  0.3222  0.4926
  924MPD2    C513576   3.627   2.173  15.960  0.0282  0.8819  0.0008
  924MPD2     H13577   3.577   2.251  16.332 -0.6239 -1.2960 -0.3198
  924MPD2    H113578   3.719   2.367  15.953  0.8417  1.5314  2.7211
  924MPD2    H213579   3.551   1.980  16.006  0.9907  0.1295 -0.9648
  924MPD2    H313580   3.645   2.160  15.854  1.3506  2.5576  0.0213
  924MPD2     N13581   3.682   2.458  16.192 -0.0713 -0.4924 -0.3826
  924MPD2    H513582   3.717   2.521  16.121  0.3462 -0.8616 -0.5037
  924MPD2    N113583   3.483   2.003  16.244 -0.5218  0.5193  0.0460
  924MPD2    H713584   3.490   1.915  16.194 -1.0576  1.0361 -0.9488
  925MPD2     C13585   2.971   4.704  14.928  0.5272 -0.2671  0.4612
  925MPD2    C113586   2.886   0.063  14.884 -0.1102  0.0300  0.3697
  925MPD2    C213587   2.845   0.163  14.969  0.0473  0.5414 -0.1140
  925MPD2    C313588   2.866   0.158  15.103  0.4462  0.2465 -0.1050
  925MPD2    C413589   2.951   0.057  15.146 -0.1258  0.1127  0.3381
  925MPD2    C513590   2.999   4.702  15.057 -0.1993  0.3032  0.0187
  925MPD2     H13591   2.770   0.232  14.932 -0.2722 -0.0185 -0.5132
  925MPD2    H113592   2.986   0.054  15.249 -2.3858  1.5553  1.1382
  925MPD2    H213593   3.023   4.633  14.865 -1.5830 -1.4934  0.1210
  925MPD2    H313594   3.066   4.629  15.102  0.4800  1.3046  0.6423
  925MPD2     N13595   2.812   0.246  15.198  0.3746  0.6820  0.4940
  925MPD2    H513596   2.830   0.230  15.296 -0.2610  1.6053  0.7666
  925MPD2    N113597   2.838   0.064  14.742  0.6225 -0.5027 -0.5099
  925MPD2    H713598   2.774   0.138  14.713  0.6109  0.1843  1.2414
  926MPD2     C13599   1.568   3.184  13.606 -0.1278 -0.3481 -0.0850
  926MPD2    C113600   1.464   3.217  13.512 -0.3712 -0.0825  0.6610
  926MPD2    C213601   1.497   3.263  13.393 -0.5852  0.6546 -0.3263
  926MPD2    C313602   1.635   3.280  13.358 -0.7417 -0.1610 -0.6351
  926MPD2    C413603   1.733   3.245  13.447 -0.3134 -0.0585  0.2636
  926MPD2    C513604   1.694   3.206  13.572  0.0547 -0.6007 -0.1813
  926MPD2     H13605   1.420   3.286  13.320 -1.0867 -0.2519 -0.0742
  926MPD2    H113606   1.836   3.265  13.421 -0.7859  0.1706 -1.4704
  926MPD2    H213607   1.548   3.153  13.708 -2.1836 -0.5397 -0.5405
  926MPD2    H313608   1.776   3.204  13.643 -3.0212  1.4981  3.4260
  926MPD2     N13609   1.675   3.315  13.230  0.1951 -0.4863 -1.0191
  926MPD2    H513610   1.773   3.328  13.209  0.6623 -0.2225  1.3236
  926MPD2    N113611   1.325   3.218  13.540  0.6822 -0.5335 -0.0250
  926MPD2    H713612   1.264   3.273  13.480 -1.0336 -1.7710  0.5603
  927MPD2     C13613   0.877   0.724  17.314  0.3769 -0.4359  0.0261
  927MPD2    C113614   0.971   0.656  17.386  0.9017  0.1220 -0.2542
  927MPD2    C213615   1.092   0.620  17.323  0.4465 -0.9196  0.0149
  927MPD2    C313616   1.118   0.632  17.191 -0.0579 -0.6148  0.8043
  927MPD2    C413617   1.017   0.693  17.115 -0.0032  0.2028  0.5563
  927MPD2    C513618   0.901   0.745  17.179 -0.7241 -0.1077 -0.1309
  927MPD2     H13619   1.182   0.593  17.377  0.1710 -0.3278  0.7625
  927MPD2    H113620   1.027   0.728  17.013 -0.0240 -0.9765  0.1411
  927MPD2    H213621   0.784   0.762  17.355 -0.3005 -1.9058 -0.1058
  927MPD2    H313622   0.824   0.798  17.123  0.2792  0.5948 -0.8433
  927MPD2     N13623   1.245   0.598  17.135  0.1102 -0.3495 -0.6362
  927MPD2    H513624   1.320   0.579  17.200 -0.0217  1.1938 -0.0343
  927MPD2    N113625   0.936   0.636  17.519 -0.1034  0.0669  0.2946
  927MPD2    H713626   0.844   0.665  17.548 -0.9448 -2.4966  0.2329
  928MPD2     C13627   4.179   3.411   0.400  0.6797  0.2200  0.1354
  928MPD2    C113628   4.260   3.470   0.495  0.4176  1.0111  0.0873
  928MPD2    C213629   4.326   3.587   0.461 -0.0294 -0.1971 -0.2232
  928MPD2    C313630   4.287   3.659   0.348 -0.4152  0.2297  1.1100
  928MPD2    C413631   4.210   3.597   0.256 -0.8112 -0.9299  0.0874
  928MPD2    C513632   4.155   3.473   0.276 -0.1568  0.2133  0.4537
  928MPD2     H13633   4.386   3.637   0.536 -1.0548  2.1628 -0.9747
  928MPD2    H113634   4.176   3.643   0.163  0.4550 -0.0800  0.0360
  928MPD2    H213635   4.134   3.315   0.419  2.3125 -0.8020 -1.0781
  928MPD2    H313636   4.087   3.440   0.198 -0.0320  2.6486 -0.6837
  928MPD2     N13637   4.330   3.797   0.328 -0.0272 -0.4072  0.1500
  928MPD2    H513638   4.273   3.846   0.259  0.4909  0.8529  0.6078
  928MPD2    N113639   4.279   3.411   0.620 -0.3869 -0.2596  0.5914
  928MPD2    H713640   4.219   3.331   0.636 -0.4497 -0.7141 -1.8826
  929MPD2     C13641   2.508   3.514   9.858  0.2511 -1.0565  0.3339
  929MPD2    C113642   2.590   3.524   9.970 -0.1866 -0.1361 -0.2236
  929MPD2    C213643   2.556   3.625  10.051 -0.0251  0.2896 -0.6105
  929MPD2    C313644   2.441   3.703  10.030 -0.0868 -0.0814 -0.0142
  929MPD2    C413645   2.354   3.682   9.919  0.6863  0.1675 -0.3034
  929MPD2    C513646   2.393   3.589   9.829  0.1139  0.5342  0.5330
  929MPD2     H13647   2.634   3.645  10.123  0.3893  3.6280 -1.9648
  929MPD2    H113648   2.267   3.740   9.891 -0.4147 -0.9076  0.9949
  929MPD2    H213649   2.526   3.439   9.781 -1.5927 -2.7951  1.5806
  929MPD2    H313650   2.346   3.568   9.734  1.2624  1.0748 -0.1520
  929MPD2     N13651   2.419   3.815  10.112  0.6553 -0.2104 -0.2522
  929MPD2    H513652   2.362   3.892  10.079  3.9378  1.5408 -1.7841
  929MPD2    N113653   2.709   3.442   9.981  0.5061 -0.8861  0.4792
  929MPD2    H713654   2.712   3.379   9.901 -0.6021 -0.8744  0.4250
  930MPD2     C13655   0.702   1.344  14.238 -0.0544 -0.2744 -0.3655
  930MPD2    C113656   0.830   1.304  14.211 -0.2343  0.3800 -0.8546
  930MPD2    C213657   0.865   1.219  14.108  0.3100 -0.1428 -0.5119
  930MPD2    C313658   0.770   1.176  14.022  1.0206  0.7185  0.0582
  930MPD2    C413659   0.643   1.223  14.047  0.6263  0.1709 -0.0209
  930MPD2    C513660   0.609   1.304  14.149  0.5565 -0.6024  0.0931
  930MPD2     H13661   0.970   1.214  14.083  0.6757 -0.8304  1.2225
  930MPD2    H113662   0.571   1.203  13.968 -1.1171  2.4516  0.9958
  930MPD2    H213663   0.676   1.414  14.316 -0.9567 -0.4481 -0.5193
  930MPD2    H313664   0.512   1.350  14.162  0.2753 -0.9562 -0.7700
  930MPD2     N13665   0.804   1.121  13.899  0.5809 -0.5042  0.0883
  930MPD2    H513666   0.735   1.118  13.825  1.3805  1.1345 -0.7206
  930MPD2    N113667   0.920   1.364  14.294  0.1637  0.1710  0.2896
  930MPD2    H713668   0.896   1.448  14.346 -0.4950 -0.6144  1.2480
  931MPD2     C13669   1.368   0.172   0.194  0.6759 -0.2624  0.1707
  931MPD2    C113670   1.284   0.245   0.283 -0.1929  0.7417  0.3418
  931MPD2    C213671   1.306   0.241   0.424 -0.6960  0.4440 -0.1622
  931MPD2    C313672   1.417   0.160   0.473 -0.6994  0.3073 -0.3746
  931MPD2    C413673   1.504   0.098   0.382  0.2151  0.3999 -0.0468
  931MPD2    C513674   1.476   0.104   0.250  0.4046 -0.6116 -0.3191
  931MPD2     H13675   1.254   0.293   0.504  0.1820  0.7883  0.1882
  931MPD2    H113676   1.590   0.050   0.427  1.9014  2.1932 -1.4176
  931MPD2    H213677   1.370   0.178   0.086  0.2749 -0.6637  0.1410
  931MPD2    H313678   1.538   0.048   0.180  2.1713  2.1348 -0.9573
  931MPD2     N13679   1.454   0.153   0.609 -0.1024  0.1962 -0.3865
  931MPD2    H513680   1.523   0.083   0.635  0.4628  0.6036 -0.7964
  931MPD2    N113681   1.182   0.328   0.226 -0.1471 -0.1810 -0.0259
  931MPD2    H713682   1.178   0.324   0.125 -2.2978 -1.6705  0.1328
  932MPD2     C13683   4.014   4.037  11.653 -0.5859 -0.1079 -0.4470
  932MPD2    C113684   3.905   4.071  11.725  0.1659 -0.8695 -0.5157
  932MPD2    C213685   3.904   4.009  11.843  1.0857 -0.2223  0.4883
  932MPD2    C313686   4.006   3.930  11.892 -0.4254 -0.9392  0.1126
  932MPD2    C413687   4.099   3.883  11.802 -0.3712  0.0900  0.3126
  932MPD2    C513688   4.108   3.935  11.679  0.1070  0.4531 -0.6047
  932MPD2     H13689   3.822   4.047  11.903  2.1343  3.8602 -0.6767
  932MPD2    H113690   4.170   3.804  11.825  0.2148  1.0397  1.8090
  932MPD2    H213691   4.031   4.087  11.558  1.1093 -1.7710 -1.0198
  932MPD2    H313692   4.194   3.914  11.617  0.7644 -0.6817  0.6769
  932MPD2     N13693   4.020   3.880  12.032  0.3912  0.2318 -0.1252
  932MPD2    H513694   4.095   3.818  12.058  1.3113  0.6760 -1.6807
  932MPD2    N113695   3.803   4.157  11.686 -0.2503 -0.0318  0.7637
  932MPD2    H713696   3.719   4.163  11.742  0.5898  2.5034  1.7609
  933MPD2     C13697   3.893   3.347   1.254  0.0106  0.6965 -0.2662
  933MPD2    C113698   3.997   3.434   1.217  0.0994 -0.5860 -0.2964
  933MPD2    C213699   4.003   3.563   1.272 -0.6961  0.6290 -0.2534
  933MPD2    C313700   3.895   3.612   1.351 -0.5884  0.0439 -0.3251
  933MPD2    C413701   3.792   3.526   1.378 -0.3601 -0.0043  0.2527
  933MPD2    C513702   3.800   3.398   1.337  0.3151  0.2052  0.0344
  933MPD2     H13703   4.079   3.634   1.240  0.0671 -0.2126 -0.3196
  933MPD2    H113704   3.710   3.549   1.444 -1.4684 -0.3409 -1.0015
  933MPD2    H213705   3.871   3.250   1.211  0.9019  1.0331 -1.4747
  933MPD2    H313706   3.720   3.330   1.362  0.8330 -1.3455 -2.5097
  933MPD2     N13707   3.908   3.737   1.411 -0.4439 -0.2985  0.2580
  933MPD2    H513708   3.995   3.785   1.391 -0.3644  0.2136  1.7991
  933MPD2    N113709   4.107   3.395   1.144  0.3921  0.4439 -0.4646
  933MPD2    H713710   4.167   3.467   1.106 -0.0972  0.8982 -0.3710
  934MPD2     C13711   0.771   1.706   2.053  0.9278 -1.0620 -0.2181
  934MPD2    C113712   0.847   1.630   1.967 -0.2519  0.7130 -0.4457
  934MPD2    C213713   0.770   1.547   1.884 -0.1010 -0.4510 -0.1334
  934MPD2    C313714   0.631   1.544   1.870  0.3266 -0.3277 -0.5360
  934MPD2    C413715   0.565   1.636   1.947 -0.2411 -0.1792  0.3720
  934MPD2    C513716   0.632   1.708   2.037  0.5513 -0.1784 -0.0245
  934MPD2     H13717   0.829   1.486   1.817  0.6794  2.0182 -1.7100
  934MPD2    H113718   0.456   1.636   1.951 -0.1609  0.1114  2.3422
  934MPD2    H213719   0.823   1.772   2.122  0.3862 -0.6787 -0.1790
  934MPD2    H313720   0.572   1.771   2.101  1.3672 -1.7163  2.2618
  934MPD2     N13721   0.561   1.462   1.775  0.8288  0.3019 -0.8170
  934MPD2    H513722   0.463   1.487   1.767  0.5458 -1.5512 -3.2189
  934MPD2    N113723   0.988   1.637   1.952 -0.4746  0.4604  0.2385
  934MPD2    H713724   1.027   1.579   1.879  1.2112  0.4431  1.1505
  935MPD2     C13725   0.874   0.770   1.155  1.1708  0.2445 -0.9389
  935MPD2    C113726   0.750   0.798   1.109  0.1392 -0.3269  0.3070
  935MPD2    C213727   0.669   0.877   1.185 -0.4557 -0.4022 -0.3697
  935MPD2    C313728   0.710   0.922   1.305  0.0453  0.5025  0.2417
  935MPD2    C413729   0.837   0.899   1.341  0.2798 -1.0570  0.7848
  935MPD2    C513730   0.920   0.821   1.274 -0.2677  0.7443 -1.3696
  935MPD2     H13731   0.581   0.921   1.140  0.7606 -0.3603 -2.6991
  935MPD2    H113732   0.875   0.953   1.427  0.3189 -1.1273  0.8115
  935MPD2    H213733   0.943   0.711   1.095  0.5211  0.1778 -1.6129
  935MPD2    H313734   1.023   0.800   1.301 -0.6221 -0.5155 -0.9796
  935MPD2     N13735   0.630   1.000   1.389  0.3005  0.5034  0.1658
  935MPD2    H513736   0.677   1.027   1.475  0.9479 -0.7771  0.2188
  935MPD2    N113737   0.704   0.756   0.984  0.0760 -0.0532 -0.1386
  935MPD2    H713738   0.619   0.794   0.943  0.4637  0.4727 -0.4501
  936MPD2     C13739   2.846   2.751  12.930 -0.1022  0.2551  1.1077
  936MPD2    C113740   2.977   2.759  12.879 -0.2504 -0.3963  0.6156
  936MPD2    C213741   2.993   2.835  12.765  0.1868  0.0888  0.3529
  936MPD2    C313742   2.890   2.907  12.710  0.2435 -0.1770 -0.1713
  936MPD2    C413743   2.765   2.898  12.760 -0.0241 -0.9337  0.4593
  936MPD2    C513744   2.749   2.826  12.875  1.0341 -0.5742  0.3591
  936MPD2     H13745   3.095   2.858  12.735  0.7025 -0.4301  1.7043
  936MPD2    H113746   2.682   2.949  12.713 -0.4040 -1.9206  0.0540
  936MPD2    H213747   2.829   2.705  13.026  0.4514 -3.3719 -0.5227
  936MPD2    H313748   2.651   2.831  12.921  1.4326 -0.0738  1.1473
  936MPD2     N13749   2.912   3.000  12.605  0.2478  0.0841 -0.2294
  936MPD2    H513750   2.840   3.070  12.593 -1.1889 -1.3292  0.2459
  936MPD2    N113751   3.099   2.720  12.940  0.1141  0.6235  0.1545
  936MPD2    H713752   3.190   2.746  12.904  1.3660 -0.4384  2.5482
  937MPD2     C13753   1.235   4.372  12.047  0.1495 -0.5666 -0.4528
  937MPD2    C113754   1.248   4.512  12.039  0.0038  0.2615 -0.4056
  937MPD2    C213755   1.296   4.567  11.921  0.3968  0.2371 -0.0642
  937MPD2    C313756   1.328   4.493  11.808  0.3293  0.1286 -0.3380
  937MPD2    C413757   1.308   4.354  11.817 -0.0703  0.7022 -0.4296
  937MPD2    C513758   1.269   4.298  11.936 -0.1610 -0.9087 -0.4503
  937MPD2     H13759   1.307   4.674  11.912  1.8033  0.3047  2.2704
  937MPD2    H113760   1.355   4.291  11.743  0.1438  1.4866 -0.9573
  937MPD2    H213761   1.186   4.327  12.133 -1.0038 -0.3064 -0.9836
  937MPD2    H313762   1.257   4.190  11.931 -2.3753 -0.6997  0.4760
  937MPD2     N13763   1.384   4.553  11.687  0.0692 -0.1838 -0.0741
  937MPD2    H513764   1.386   4.654  11.692 -0.0975 -0.1215 -1.3829
  937MPD2    N113765   1.188   4.590  12.137 -0.3255  0.1751  0.4451
  937MPD2    H713766   1.189   4.690  12.121 -1.2744 -0.3594 -2.8693
  938MPD2     C13767   4.174   0.583   0.769 -0.1440 -0.0833 -0.2270
  938MPD2    C113768   4.263   0.669   0.832 -0.2539  0.0000  0.3620
  938MPD2    C213769   4.339   0.612   0.936  0.8504 -0.4313  0.2766
  938MPD2    C313770   4.306   0.490   0.997  0.1288  0.5000  0.2847
  938MPD2    C413771   4.201   0.416   0.938 -0.2700 -0.2170  0.8247
  938MPD2    C513772   4.143   0.458   0.825  1.2923 -0.1863 -0.0797
  938MPD2     H13773   4.421   0.669   0.977  0.6270 -0.0848  0.2356
  938MPD2    H113774   4.169   0.322   0.981  1.4830 -0.9518  0.5365
  938MPD2    H213775   4.117   0.609   0.681 -2.1481  1.5188  1.5319
  938MPD2    H313776   4.079   0.384   0.778 -0.4283  1.0390  0.3280
  938MPD2     N13777   4.367   0.438   1.106  0.2050 -0.5539 -0.7428
  938MPD2    H513778   4.324   0.350   1.132  0.2187  0.1332  1.6625
  938MPD2    N113779   4.275   0.805   0.797  0.8069  0.1840 -0.3478
  938MPD2    H713780   4.333   0.859   0.860  1.8567 -0.9208 -0.3623
  939MPD2     C13781   0.910   1.484   0.775 -0.4717  0.0743  0.4760
  939MPD2    C113782   0.822   1.592   0.759 -0.6038  0.4732 -0.1192
  939MPD2    C213783   0.733   1.588   0.657  0.4596 -0.1746 -0.3046
  939MPD2    C313784   0.738   1.493   0.556  0.2483  0.7604  0.6682
  939MPD2    C413785   0.827   1.390   0.573 -0.0813 -0.1886  0.2995
  939MPD2    C513786   0.911   1.383   0.683  0.3017 -0.0411  0.2774
  939MPD2     H13787   0.653   1.661   0.653 -0.1119 -0.9022 -2.4022
  939MPD2    H113788   0.828   1.306   0.505 -0.7922 -0.4323  0.5900
  939MPD2    H213789   0.978   1.479   0.859  0.0343  0.2988  0.0759
  939MPD2    H313790   0.970   1.294   0.700  0.8722  0.8217  2.7978
  939MPD2     N13791   0.650   1.507   0.452 -0.1612 -0.8003  0.1417
  939MPD2    H513792   0.591   1.590   0.445  0.9498 -0.1114 -0.9940
  939MPD2    N113793   0.821   1.687   0.858  0.1590 -0.5158 -0.1401
  939MPD2    H713794   0.857   1.664   0.950  2.7688  2.5055 -0.4066
  940MPD2     C13795   3.422   2.505  12.659 -0.1726 -0.7296 -0.6179
  940MPD2    C113796   3.557   2.514  12.692 -0.0957 -0.4830 -0.2319
  940MPD2    C213797   3.643   2.437  12.617 -0.0540  0.5769 -0.5481
  940MPD2    C313798   3.591   2.349  12.522 -0.0593  0.6214 -0.1946
  940MPD2    C413799   3.457   2.348  12.483 -0.7793  0.4881 -0.3489
  940MPD2    C513800   3.375   2.439  12.544 -0.0442  0.4231 -0.0879
  940MPD2     H13801   3.747   2.419  12.643  0.2178 -0.2916 -2.2079
  940MPD2    H113802   3.422   2.288  12.400 -0.0102 -2.0853  1.1887
  940MPD2    H213803   3.350   2.562  12.717  0.2371  1.1980 -1.9740
  940MPD2    H313804   3.268   2.444  12.523  0.1854  0.2550 -1.2999
  940MPD2     N13805   3.666   2.252  12.451  0.0267  0.7615 -0.1305
  940MPD2    H513806   3.607   2.194  12.393 -1.4946  1.4028  0.7703
  940MPD2    N113807   3.606   2.600  12.798  0.6869  0.0111 -0.0150
  940MPD2    H713808   3.706   2.617  12.802  0.8199 -0.9046  0.4956
  941MPD2     C13809   3.296   2.343  10.229  0.1576 -0.3954 -0.1946
  941MPD2    C113810   3.430   2.365  10.244  0.5069  0.1606 -0.3735
  941MPD2    C213811   3.523   2.262  10.253 -0.0824 -0.1633 -0.5014
  941MPD2    C313812   3.486   2.127  10.245 -0.2324 -0.3159 -0.1225
  941MPD2    C413813   3.349   2.101  10.231 -0.6996  0.3006 -0.5081
  941MPD2    C513814   3.257   2.206  10.229 -0.0668 -0.4205  0.0003
  941MPD2     H13815   3.630   2.278  10.257  0.1044 -1.0232 -1.7597
  941MPD2    H113816   3.313   1.998  10.233 -1.0286  0.4470  0.9843
  941MPD2    H213817   3.223   2.423  10.222 -0.2297 -0.7009  0.3808
  941MPD2    H313818   3.153   2.186  10.206  0.4172 -2.1192 -0.6827
  941MPD2     N13819   3.575   2.016  10.276 -0.6742  0.4804  0.6034
  941MPD2    H513820   3.536   1.923  10.290  1.0055 -0.3780 -0.5025
  941MPD2    N113821   3.480   2.503  10.223 -0.6138 -0.0321 -0.5835
  941MPD2    H713822   3.417   2.575  10.189 -0.9594 -0.1255 -0.1302
  942MPD2     C13823   2.869   3.922  10.183 -0.0317 -0.1841 -0.1090
  942MPD2    C113824   2.927   3.881  10.063  0.0653 -0.3605 -0.1601
  942MPD2    C213825   3.068   3.882  10.048 -0.2296 -1.4003 -0.1886
  942MPD2    C313826   3.144   3.944  10.147  0.1777 -0.2594 -0.0121
  942MPD2    C413827   3.081   3.994  10.262 -0.1434 -0.5067  0.0386
  942MPD2    C513828   2.946   3.985  10.278 -0.1218  0.4955  0.0499
  942MPD2     H13829   3.109   3.849   9.954 -0.7022  0.3238 -0.9897
  942MPD2    H113830   3.133   4.031  10.350  2.8794  0.8082 -2.2907
  942MPD2    H213831   2.762   3.915  10.199  0.0488 -1.1176  0.0236
  942MPD2    H313832   2.904   4.017  10.372  2.4722  0.4279  1.2290
  942MPD2     N13833   3.288   3.962  10.144  0.6938 -0.1476 -0.6315
  942MPD2    H513834   3.323   3.990  10.236  0.6932  0.8107 -0.9181
  942MPD2    N113835   2.857   3.831   9.957  0.3289 -0.1661 -0.2564
  942MPD2    H713836   2.908   3.781   9.885  2.4970  1.1283  0.3902
  943MPD2     C13837   1.363   1.971   9.871 -0.2483 -0.1643  0.4814
  943MPD2    C113838   1.359   1.846   9.924 -0.1427 -0.6269  0.4965
  943MPD2    C213839   1.384   1.827  10.057 -0.6235  0.4651  0.6412
  943MPD2    C313840   1.415   1.938  10.138  0.2995  0.2936 -0.3488
  943MPD2    C413841   1.412   2.066  10.083  0.5966 -0.7441 -0.6389
  943MPD2    C513842   1.385   2.078   9.950  0.3525  1.1313 -0.1801
  943MPD2     H13843   1.404   1.726  10.091  0.6179  0.0143 -1.4196
  943MPD2    H113844   1.447   2.159  10.126 -0.9339  0.4527 -1.9923
  943MPD2    H213845   1.359   1.987   9.764 -0.7951  3.4637  1.0484
  943MPD2    H313846   1.393   2.179   9.911  1.2558  1.2298  0.2680
  943MPD2     N13847   1.433   1.929  10.278  0.2895 -0.5445 -0.0277
  943MPD2    H513848   1.444   2.011  10.336  0.2815 -0.1352 -0.6133
  943MPD2    N113849   1.327   1.738   9.837 -0.2332 -0.3916 -0.0844
  943MPD2    H713850   1.303   1.758   9.741 -3.1814 -1.5411  0.4268
  944MPD2     C13851   1.863   1.805  11.112  0.4298  0.4719 -0.8374
  944MPD2    C113852   1.827   1.673  11.128  1.0273 -0.3283 -0.2549
  944MPD2    C213853   1.742   1.642  11.239 -0.2784 -0.6987 -0.1930
  944MPD2    C313854   1.684   1.745  11.314  0.5044  0.4144  0.7549
  944MPD2    C413855   1.712   1.876  11.281 -0.3813  0.3150 -0.7808
  944MPD2    C513856   1.810   1.904  11.191  0.8317 -0.7506 -1.1537
  944MPD2     H13857   1.712   1.541  11.264  1.9982 -1.1283  0.7166
  944MPD2    H113858   1.663   1.956  11.334  0.3489  0.6954 -0.6795
  944MPD2    H213859   1.918   1.831  11.022 -0.4696 -0.9798 -1.7999
  944MPD2    H313860   1.840   2.004  11.162  1.3694 -0.5127  0.2415
  944MPD2     N13861   1.588   1.704  11.410  0.2327  0.5568 -0.4762
  944MPD2    H513862   1.550   1.610  11.411  1.9306 -0.0830  1.6605
  944MPD2    N113863   1.883   1.575  11.041  0.4342  0.6250  0.3183
  944MPD2    H713864   1.954   1.612  10.978 -1.2397 -1.1332 -2.5923
    1TMC1    C113865   4.219   1.658  14.881 -0.0552  0.2357 -0.2344
    1TMC1    C213866   4.122   1.750  14.878 -0.3117  0.0741 -0.3467
    1TMC1    C313867   3.991   1.714  14.891 -0.1639  0.1068 -0.6602
    1TMC1    C413868   4.183   1.528  14.910 -1.1465  0.5172 -0.5071
    1TMC1    C513869   4.049   1.495  14.923  0.3515  0.5361 -0.0025
    1TMC1    C613870   3.948   1.590  14.914  0.8915  0.1578  0.4787
    1TMC1     C13871   4.360   1.697  14.878  0.2063 -0.7940 -1.2626
    1TMC1     O13872   4.438   1.625  14.937 -0.4242  0.0165  0.5205
    1TMC1     H13873   4.152   1.855  14.878  2.3107 -0.6606 -0.6195
    1TMC1    H113874   4.262   1.454  14.925 -0.1198  1.8676  0.8182
    1TMC1    H213875   3.843   1.571  14.933  0.7562  1.1807  0.7398
    1TMC1    C713876   4.011   1.354  14.949 -0.1229  1.0982 -1.1946
    1TMC1    C813877   3.899   1.820  14.901  0.0768 -0.3074 -0.5901
    1TMC1    O113878   4.097   1.273  14.922  0.0099  0.1014  0.4487
    1TMC1    O213879   3.914   1.914  14.822 -0.4256  0.1061 -0.9471
    1TMC1    O313880   3.905   1.339  15.028  0.2149  0.4610 -0.5831
    1TMC1    H313881   3.882   1.422  15.074 -1.0576  0.7303 -1.7172
    1TMC1    O513882   3.845   1.813  15.023 -0.1070  0.4320  0.3720
    1TMC1    H513883   3.864   1.722  15.057  0.7938  1.1290  1.7562
    2MPD2     C13884   0.002   2.011  14.753 -0.0517 -0.2101  0.2475
    2MPD2    C113885   4.631   2.043  14.679 -0.4837 -0.1807  0.9525
    2MPD2    C213886   4.514   1.969  14.690 -0.3930  0.7926  0.1721
    2MPD2    C313887   4.503   1.871  14.782  0.4777  0.6526 -0.4260
    2MPD2    C413888   4.616   1.828  14.841  0.1967  0.0388  0.1898
    2MPD2    C513889   4.737   1.901  14.827 -0.5440 -0.2973 -0.0973
    2MPD2     H13890   4.420   1.990  14.641 -0.3678  0.2109 -0.1180
    2MPD2    H113891   4.612   1.754  14.920  0.2784 -1.1332 -0.9078
    2MPD2    H213892   0.091   2.068  14.732 -1.9075  1.1841 -3.7350
    2MPD2    H313893   0.083   1.873  14.887  1.9625  0.4272 -3.3553
    2MPD2     N13894   4.379   1.809  14.806  0.5207 -0.2555 -0.7920
    2MPD2    H513895   4.294   1.847  14.766  1.0154  1.7856  0.0417
    2MPD2    N113896   4.659   2.134  14.577 -0.2192  0.4810  0.0696
    2MPD2    H713897   4.740   2.195  14.586 -0.4050  0.9532 -1.4247
    3TMC2    C113898   4.641   2.229  14.355  0.5288 -0.0862  0.6469
    3TMC2    C213899   4.733   2.317  14.398  0.0892  0.7088 -0.4788
    3TMC2    C313900   0.054   2.387  14.304 -0.7256 -0.3185 -0.1999
    3TMC2    C413901   4.607   2.208  14.223  1.0288 -0.0765  0.0219
    3TMC2    C513902   4.688   2.265  14.132  0.2379  0.0681 -1.2919
    3TMC2    C613903   0.044   2.357  14.173 -0.1657  0.4203 -0.3747
    3TMC2     C13904   4.595   2.133  14.456  0.4572  0.2290 -0.1576
    3TMC2     O13905   4.501   2.060  14.418 -0.5865  0.2769 -0.1657
    3TMC2     H13906   4.736   2.365  14.496 -0.3437 -2.0386  0.8793
    3TMC2    H113907   4.531   2.138  14.192  0.6880 -0.0086  0.6881
    3TMC2    H213908   0.107   2.406  14.100  0.5464  0.4475  0.2604
    3TMC2    C713909   4.678   2.216  13.999 -0.4848 -0.6351 -0.4574
    3TMC2    C813910   0.155   2.479  14.345 -0.0130 -0.6799  0.6131
    3TMC2    O113911   4.603   2.119  13.987  0.0669  0.1370  0.3187
    3TMC2    O213912   0.148   2.548  14.449 -0.5661  0.0244 -0.0661
    3TMC2    O513913   0.266   2.419  14.307 -0.6239 -0.5711  0.1630
    3TMC2    H513914   0.243   2.341  14.252 -0.2708  0.7488 -1.8509
    4TMC2    C113915   4.291   2.889  13.436  0.0080  0.0587 -0.8178
    4TMC2    C213916   4.266   2.872  13.305 -0.4977  0.0115  0.5124
    4TMC2    C313917   4.343   2.783  13.236 -0.1359  0.0892 -0.6051
    4TMC2    C413918   4.393   2.835  13.502  0.7605  1.2117 -0.1262
    4TMC2    C513919   4.457   2.736  13.434  0.0530 -0.2079  0.1397
    4TMC2    C613920   4.434   2.705  13.302  0.2361 -0.0347  0.3825
    4TMC2     C13921   4.184   2.947  13.523  0.3836  0.1687 -0.4897
    4TMC2     O13922   4.195   2.925  13.644  0.2489 -0.5424 -0.0034
    4TMC2     H13923   4.187   2.921  13.250 -0.8486  1.4566  2.3148
    4TMC2    H113924   4.409   2.856  13.607  0.1785 -0.2421  0.2426
    4TMC2    H213925   4.490   2.628  13.250  2.7186  0.5422  2.1906
    4TMC2    C713926   4.532   2.644  13.524  0.1713 -0.2904 -0.5410
    4TMC2    C813927   4.279   2.728  13.111 -0.5495  0.1053  0.4028
    4TMC2    O113928   4.577   2.689  13.629  0.2029 -0.1794 -0.2169
    4TMC2    O213929   4.298   2.607  13.078 -0.0612  0.0719 -0.0032
    4TMC2    O513930   4.260   2.833  13.024 -0.0117 -0.3545 -0.1826
    4TMC2    H513931   4.255   2.916  13.076  0.8486 -0.7060  0.4365
    5MPD2     C13932   3.782   3.248  13.607  0.4863 -0.2404 -0.8094
    5MPD2    C113933   3.814   3.264  13.471 -0.4992 -0.4189 -0.6962
    5MPD2    C213934   3.922   3.186  13.419 -0.6377 -0.3436 -0.0905
    5MPD2    C313935   3.979   3.097  13.506  0.0035  0.2958 -0.1734
    5MPD2    C413936   3.943   3.084  13.638 -0.2425  0.5626  0.6950
    5MPD2    C513937   3.843   3.153  13.687  0.4411 -0.0359  0.2897
    5MPD2     H13938   3.959   3.196  13.317 -0.4969  2.2191  0.2041
    5MPD2    H113939   3.994   3.018  13.707  0.6015  1.5540  1.0065
    5MPD2    H213940   3.708   3.302  13.665  0.8138 -1.1909  0.4828
    5MPD2    H313941   3.823   3.137  13.793  1.5380  1.0041  0.6541
    5MPD2     N13942   4.088   3.021  13.455  0.0600 -0.5778 -1.4603
    5MPD2    H513943   4.106   3.032  13.356  2.2376  0.0085 -1.0024
    5MPD2    N113944   3.742   3.366  13.405 -0.3177 -0.7700 -0.2544
    5MPD2    H713945   3.676   3.423  13.459  0.7704 -0.6969  1.0019
    6MPD1     C13946   2.527   4.273  12.365  0.5108  0.0666  0.8700
    6MPD1    C113947   2.444   4.222  12.457  0.2951 -0.0563 -0.2954
    6MPD1    C213948   2.495   4.122  12.539 -0.4339  0.3393 -0.2361
    6MPD1    C313949   2.627   4.090  12.538 -0.1797 -0.0429  0.0070
    6MPD1    C413950   2.716   4.159  12.457  0.5320 -0.0379 -0.3223
    6MPD1    C513951   2.659   4.241  12.361  0.3768  0.3625  0.1238
    6MPD1     H13952   2.425   4.064  12.598 -0.8125  0.1398 -0.8759
    6MPD1    H113953   2.822   4.145  12.472  0.2788 -1.8871 -0.2658
    6MPD1    H213954   2.493   4.353  12.300  1.5326  0.3191  0.6603
    6MPD1    H313955   2.726   4.283  12.286  0.4380  1.3874  0.7499
    6MPD1     N13956   2.682   4.000  12.630  0.2828 -0.4481 -0.3631
    6MPD1    H513957   2.783   3.992  12.628  0.2893 -0.7720  1.0367
    6MPD1    N113958   2.309   4.241  12.440  0.4027 -0.1956  0.4285
    6MPD1    H613959   2.258   4.210  12.522  0.4985 -4.5880 -1.1954
    6MPD1    H713960   2.280   4.334  12.408 -1.4110 -0.5849  0.9151
    7MPD2     C13961   3.081   4.065  13.253 -0.2688 -0.2056  0.1430
    7MPD2    C113962   3.099   3.933  13.222 -0.3694  0.1737 -0.0541
    7MPD2    C213963   3.227   3.885  13.246  0.2337  0.1705 -0.5223
    7MPD2    C313964   3.325   3.958  13.306  0.6482 -0.3038  0.2702
    7MPD2    C413965   3.299   4.090  13.341 -0.3049 -0.4464  0.3754
    7MPD2    C513966   3.177   4.142  13.310 -0.3506  0.2675  1.2535
    7MPD2     H13967   3.245   3.783  13.214  1.0724 -0.5451  2.2005
    7MPD2    H113968   3.378   4.154  13.380 -1.0732  1.2818 -0.8969
    7MPD2    H213969   2.983   4.110  13.238 -1.0341 -0.9142  3.0468
    7MPD2    H313970   3.159   4.246  13.334 -0.7097  0.2097  1.2348
    7MPD2     N13971   3.460   3.912  13.325  0.7664  0.4698 -0.3381
    7MPD2    H513972   3.525   3.987  13.347  1.8549 -1.2862  2.4245
    7MPD2    N113973   3.010   3.852  13.143  0.5187 -0.1491 -0.0337
    7MPD2    H713974   3.037   3.755  13.134  1.7442  0.4003 -2.1713
    8TMC3    C113975   3.629   3.750  13.323 -0.1895  0.5939 -0.3993
    8TMC3    C213976   3.658   3.617  13.350  0.6315  0.1126 -0.4439
    8TMC3    C313977   3.725   3.546  13.252  0.1949  0.4415 -0.2739
    8TMC3    C413978   3.662   3.799  13.199  0.0164 -0.0100  0.5706
    8TMC3    C513979   3.737   3.725  13.113 -0.0087  0.0178  0.2192
    8TMC3    C613980   3.770   3.596  13.136 -0.8625  0.1311  0.2295
    8TMC3     C13981   3.491   3.780  13.358 -0.0798  0.2068  0.1582
    8TMC3     O13982   3.418   3.704  13.409  0.0999 -0.2808  0.5724
    8TMC3     H13983   3.629   3.571  13.443 -2.6368  0.1582 -1.4595
    8TMC3    H113984   3.631   3.894  13.159  1.4900 -0.4170 -1.4996
    8TMC3    H213985   3.838   3.547  13.067 -0.8516  0.2093  0.1844
    8TMC3    C713986   3.699   3.731  12.977 -0.6740  0.4780  0.1983
    8TMC3    C813987   3.785   3.428  13.290 -0.4036  0.2133  0.6430
    8TMC3    O113988   3.788   3.718  12.893 -0.1932  0.5551 -1.0404
    8TMC3    O213989   3.891   3.399  13.232 -0.3259 -0.0314 -0.0749
    9TMC3    C113990   2.714   3.828  12.797  0.3787 -0.3070 -0.0087
    9TMC3    C213991   2.802   3.750  12.728  0.9419 -0.5360  0.6666
    9TMC3    C313992   2.900   3.694  12.804 -0.2332 -0.3688 -0.1620
    9TMC3    C413993   2.716   3.848  12.931  0.0275  0.3550  0.1714
    9TMC3    C513994   2.818   3.788  13.005  0.2635 -0.6165 -0.1574
    9TMC3    C613995   2.903   3.705  12.940  0.8985  0.0622 -0.7176
    9TMC3     C13996   2.617   3.922  12.722  0.6818  0.1186  0.7149
    9TMC3     O13997   2.499   3.920  12.763 -0.4998  0.1478  0.6907
    9TMC3     H13998   2.791   3.754  12.620  0.2082  2.9976  0.8666
    9TMC3    H113999   2.667   3.930  12.982  0.7562  0.6893  0.3375
    9TMC3    H214000   2.971   3.639  12.993  0.2423  0.5315  0.7259
    9TMC3    C714001   2.892   3.893  13.079 -0.5816  0.0614 -0.5948
    9TMC3    C814002   3.019   3.672  12.733  0.1244 -0.4712 -0.0780
    9TMC3    O114003   2.846   4.009  13.075 -0.1051 -0.4961  0.4050
    9TMC3    O214004   3.016   3.638  12.617 -0.3365  0.0825 -0.3647
   10MPD2     C14005   3.533   3.701  12.721  0.3962  0.5531  0.4623
   10MPD2    C114006   3.489   3.692  12.848 -0.4515  0.2891  0.7164
   10MPD2    C214007   3.355   3.683  12.875  0.2522 -0.2327  0.2105
   10MPD2    C314008   3.266   3.677  12.774  0.0010  0.4636 -0.8288
   10MPD2    C414009   3.311   3.687  12.646  0.3590 -0.2555 -0.5355
   10MPD2    C514010   3.443   3.688  12.622  0.1992 -0.1921  0.4245
   10MPD2     H14011   3.332   3.687  12.981 -2.6229  1.7641 -0.4966
   10MPD2    H114012   3.253   3.668  12.556 -1.0543 -0.5385  0.4281
   10MPD2    H214013   3.639   3.706  12.703  0.6567  0.1232  1.8675
   10MPD2    H314014   3.478   3.697  12.520  1.9327 -2.3005  0.8105
   10MPD2     N14015   3.131   3.677  12.813 -0.4410  0.0014  0.2487
   10MPD2    H514016   3.113   3.684  12.913 -1.9939  1.6500 -0.1466
   10MPD2    N114017   3.567   3.714  12.961 -0.3900 -0.7223  0.0560
   10MPD2    H714018   3.514   3.703  13.047 -1.4665 -0.8956 -0.6329
   11MPD2     C14019   4.690   2.173  13.693 -0.0656 -0.0396  0.9094
   11MPD2    C114020   4.681   2.295  13.764  0.1473  0.8110 -0.1260
   11MPD2    C214021   4.633   2.408  13.701 -0.8533 -0.5564  0.6539
   11MPD2    C314022   4.595   2.403  13.563  1.0864  0.2965  1.2587
   11MPD2    C414023   4.601   2.283  13.496 -0.4828 -0.1342  0.0123
   11MPD2    C514024   4.646   2.179  13.564  0.9601 -0.3771 -0.4697
   11MPD2     H14025   4.615   2.491  13.768  0.6522  0.0981  0.2401
   11MPD2    H114026   4.577   2.266  13.392  1.4507  0.1786 -0.4810
   11MPD2    H214027   4.721   2.078  13.735  0.0506 -1.7527 -3.0133
   11MPD2    H314028   4.638   2.083  13.513  0.7383 -0.4186 -0.3532
   11MPD2     N14029   4.546   2.512  13.481 -0.6333 -0.1823  0.1995
   11MPD2    H514030   4.493   2.486  13.399 -1.1057  1.2028  0.0653
   11MPD2    N114031   4.713   2.312  13.902  0.1247  0.4176  0.0531
   11MPD2    H714032   4.718   2.410  13.931  1.5220  0.0785  0.9137
    1MPD1     C14033   3.863   4.053  16.956 -0.2636 -0.0033  0.1123
    1MPD1    C114034   3.974   4.096  17.035 -0.4498  0.7645  0.2953
    1MPD1    C214035   3.973   4.216  17.099  0.4264 -0.0629 -0.5462
    1MPD1    C314036   3.862   4.297  17.085  0.4489  0.0975 -0.6526
    1MPD1    C414037   3.754   4.261  17.012 -0.0150 -0.2469  0.1453
    1MPD1    C514038   3.759   4.142  16.946 -0.4128 -0.2553 -0.3248
    1MPD1     H14039   4.058   4.256  17.153  0.1046  1.3001 -1.0540
    1MPD1    H114040   3.672   4.332  17.009 -0.0480 -0.2616  0.6965
    1MPD1    H214041   3.861   3.959  16.902 -0.4493  0.7984 -1.2838
    1MPD1    H314042   3.674   4.108  16.887 -1.3006  1.9206 -0.3111
    1MPD1     N14043   3.845   4.413  17.162  0.0527 -0.6866  0.6213
    1MPD1    H514044   3.756   4.462  17.159  1.5290  1.9143 -1.5378
    1MPD1    N114045   4.075   4.007  17.058  0.1615 -0.1306 -0.1584
    1MPD1    H614046   4.161   4.047  17.094 -1.6392  0.1982  3.7454
    1MPD1    H714047   4.092   3.924  17.001  1.3698 -1.0354  1.5152
    2MPD1     C14048   3.068   4.637  17.419  0.5568 -0.3321 -0.2216
    2MPD1    C114049   3.131   4.650  17.294 -0.4828 -1.0843 -0.7608
    2MPD1    C214050   3.271   4.656  17.281  0.8506 -0.2651  0.4010
    2MPD1    C314051   3.345   4.668  17.390 -0.2586 -0.7457 -0.0504
    2MPD1    C414052   3.288   4.654  17.516 -0.2147 -0.4471  0.3720
    2MPD1    C514053   3.146   4.651  17.528  0.3735 -0.0335  0.3374
    2MPD1     H14054   3.314   4.639  17.183  0.4747  0.5180  0.0983
    2MPD1    H114055   3.347   4.660  17.606 -1.2867  2.2209  0.9098
    2MPD1    H214056   2.963   4.611  17.420  0.7191 -1.0299 -0.8307
    2MPD1    H314057   3.103   4.641  17.627 -1.3967  2.5974 -0.1808
    2MPD1     N14058   3.484   4.663  17.375  0.6138  0.3546 -0.2488
    2MPD1    H514059   3.525   4.653  17.283 -1.5127 -1.9234 -0.9619
    2MPD1    N114060   3.056   4.612  17.179  0.1914 -0.1747  0.4493
    2MPD1    H614061   2.960   4.644  17.189  0.8271  1.4265  1.4718
    2MPD1    H714062   3.093   4.639  17.088 -0.9505 -0.6886 -0.1492
    3TMC3    C114063   3.710   4.693  17.436 -0.0453 -0.5760 -0.1829
    3TMC3    C214064   3.798   0.034  17.490 -0.3015  0.3280 -0.0408
    3TMC3    C314065   3.931   0.009  17.471 -0.6125 -0.0629  0.1799
    3TMC3    C414066   3.749   4.582  17.359  0.1953 -0.1400  0.4254
    3TMC3    C514067   3.884   4.565  17.343  0.0103 -0.6753 -0.8276
    3TMC3    C614068   3.975   4.650  17.397  0.7091  0.0253 -0.2010
    3TMC3     C14069   3.573   4.697  17.475 -0.8649  0.3664 -0.4509
    3TMC3     O14070   3.554   4.737  17.588  0.2410 -0.4130  0.5867
    3TMC3     H14071   3.761   0.109  17.558 -4.0071  0.4871 -2.2135
    3TMC3    H114072   3.670   4.513  17.330  0.9080 -0.5685 -0.4792
    3TMC3    H214073   4.081   4.631  17.384  0.5871  0.7444 -2.3030
    3TMC3    C714074   3.945   4.471  17.244 -0.2201  0.0726  0.2538
    3TMC3    C814075   4.033   0.107  17.504  0.0380  0.1315  0.3979
    3TMC3    O114076   4.066   4.472  17.224 -0.2434  0.1210 -0.5648
    3TMC3    O214077   4.146   0.099  17.463 -0.2427  0.5023  0.0443
    4MPD1     C14078   4.178   0.480   0.059  0.1621  0.5767 -0.4600
    4MPD1    C114079   4.038   0.477   0.062  0.0121  0.1838  0.5767
    4MPD1    C214080   3.968   0.394  17.737  0.6901 -0.6296  0.0120
    4MPD1    C314081   4.043   0.307  17.655  0.0163 -0.5998 -0.1684
    4MPD1    C414082   4.179   0.306  17.654 -0.0973 -0.2333  0.0827
    4MPD1    C514083   4.246   0.392  17.737  0.0117  0.3808 -1.3053
    4MPD1     H14084   3.860   0.390  17.740  0.5757  2.5019 -0.2719
    4MPD1    H114085   4.241   0.250  17.585 -2.1201 -1.7052 -0.5528
    4MPD1    H214086   4.233   0.552   0.117  1.2447 -1.0469  0.5270
    4MPD1    H314087   4.355   0.396  17.742 -0.0632 -0.2859  0.8639
    4MPD1     N14088   3.974   0.209  17.582  0.1534 -0.1898 -0.1420
    4MPD1    H514089   3.873   0.218  17.585  0.3297  0.8337  2.5080
    4MPD1    N114090   3.981   0.572   0.147 -0.1251  0.1566 -0.4987
    4MPD1    H614091   4.033   0.582   0.234 -3.5472 -2.3131  1.8353
    4MPD1    H714092   3.885   0.553   0.172  0.1611  2.9756  2.6773
    1TCq1    O114093   3.018   4.366  11.860  0.2857 -0.2320  0.6130
    1TCq1    C114094   3.141   4.336  11.892 -0.3922  0.6490  0.1986
    1TCq1    O214095   3.193   4.376  11.998 -0.1040  0.6982 -0.7187
    1TCq1    C214096   3.193   4.260  11.780  0.0630 -0.9720 -0.8033
    1TCq1    C314097   3.328   4.230  11.791  0.4809  0.4163 -0.0356
    1TCq1    C414098   3.378   4.129  11.712  0.5060  1.1626  0.2573
    1TCq1    C514099   3.307   4.057  11.627  0.3527 -0.2728  0.2818
    1TCq1    C614100   3.172   4.083  11.616 -0.2377 -0.0646  0.1211
    1TCq1    C714101   3.117   4.183  11.693 -0.0757  0.1255  0.2615
    1TCq1    C814102   3.082   3.995  11.540 -0.0524  0.1761 -0.3837
    1TCq1    O414103   2.965   4.014  11.558  0.0462 -0.3390 -0.2244
    1TCq1    C914104   3.507   4.074  11.751 -0.1144 -0.2099 -0.8132
    1TCq1    O514105   3.581   4.149  11.822  0.0130  0.0169  0.1374
    1TCq1    O614106   3.505   3.947  11.773 -0.5038 -0.0969  0.0166
    1TCq1    H114107   2.996   4.353  11.765  1.7936 -1.1150  0.3820
    1TCq1    H214108   3.377   4.271  11.879 -0.6225  0.7422  0.4257
    1TCq1    H314109   3.358   3.969  11.589 -0.5200 -0.5239 -0.3255
    1TCq1    H414110   3.009   4.184  11.705 -0.1840 -1.2990 -0.6217
    2MPD1     C14111   2.998   3.576  11.265  0.6498  0.1439  0.4983
    2MPD1    C114112   3.125   3.574  11.313 -0.1716  0.5167 -0.1612
    2MPD1    C214113   3.179   3.691  11.379  0.1809 -0.7523 -0.0151
    2MPD1    C314114   3.093   3.795  11.404  0.2307  0.3156  0.3206
    2MPD1    C414115   2.962   3.779  11.381 -0.9983 -0.1545  0.3118
    2MPD1    C514116   2.911   3.671  11.312  0.6994  0.2664  0.2299
    2MPD1     H14117   3.280   3.692  11.417  0.1538 -3.1148  0.1181
    2MPD1    H114118   2.899   3.864  11.406 -0.7759  0.2884 -0.6114
    2MPD1    H214119   2.955   3.498  11.203 -0.6610  1.1846  0.0958
    2MPD1    H314120   2.811   3.647  11.278  0.4177 -1.3535  2.1823
    2MPD1     N14121   3.151   3.894  11.477 -0.1508  0.0560 -0.3562
    2MPD1    H514122   3.252   3.904  11.486 -0.1997  0.5381 -0.3184
    2MPD1    N114123   3.207   3.472  11.273 -0.2539  0.1274  0.7812
    2MPD1    H614124   3.165   3.380  11.277  2.7279 -1.2752  0.2772
    2MPD1    H714125   3.281   3.465  11.343  1.3852  2.4859 -0.6928
    1TMC1    C114126   1.390   1.089   1.772  0.3874  0.0632  0.2199
    1TMC1    C214127   1.305   1.022   1.683 -0.0545 -0.1683  0.0379
    1TMC1    C314128   1.353   0.979   1.561 -0.5431  0.3747  0.3373
    1TMC1    C414129   1.514   1.120   1.730 -0.0963 -0.5562  0.3360
    1TMC1    C514130   1.558   1.086   1.604 -0.0699 -0.0200 -0.8397
    1TMC1    C614131   1.473   1.014   1.521  1.2775 -0.2784 -0.3757
    1TMC1     C14132   1.333   1.159   1.887 -0.2012  0.6816  0.0211
    1TMC1     O14133   1.210   1.180   1.877 -0.0280  0.3409  0.2279
    1TMC1     H14134   1.216   0.987   1.733 -0.9156  0.0162 -1.3772
    1TMC1    H114135   1.577   1.188   1.786  0.5805 -1.3726  0.5652
    1TMC1    H214136   1.513   0.960   1.436 -0.3937 -0.7163 -0.8931
    1TMC1    C714137   1.694   1.099   1.572 -0.5361 -0.5626  0.1539
    1TMC1    C814138   1.274   0.895   1.471 -0.3607 -0.9481  0.4530
    1TMC1    O114139   1.744   1.062   1.467  0.2776  0.2678  0.0079
    1TMC1    O214140   1.311   0.826   1.380 -0.0227  0.4257 -0.1364
    1TMC1    O314141   1.756   1.095   1.694  0.0610  0.5306 -0.4444
    1TMC1    H314142   1.702   1.114   1.773 -1.7774 -2.8946 -0.8819
    1TMC1    O514143   1.150   0.946   1.474 -0.4310  0.1101  0.0209
    1TMC1    H514144   1.132   1.016   1.540 -3.2711 -0.2344 -0.3655
    2MPD1     C14145   1.359   1.379   2.360  0.4671  0.0050 -0.0992
    2MPD1    C114146   1.486   1.355   2.315  0.1595  0.0103 -0.2814
    2MPD1    C214147   1.501   1.284   2.198 -0.6267 -0.7855  0.7674
    2MPD1    C314148   1.397   1.257   2.112  0.1047 -0.3709 -0.1948
    2MPD1    C414149   1.272   1.301   2.142 -0.4913 -0.3644 -0.2023
    2MPD1    C514150   1.261   1.353   2.268  0.3401 -0.3341  0.1286
    2MPD1     H14151   1.594   1.233   2.177 -1.1385 -1.8429  1.0505
    2MPD1    H114152   1.183   1.296   2.081 -0.0951  1.0382 -0.8910
    2MPD1    H214153   1.334   1.435   2.450  0.8440  0.6030 -0.3673
    2MPD1    H314154   1.160   1.382   2.297  0.1805  0.0897 -0.8414
    2MPD1     N14155   1.421   1.180   1.992 -0.7406 -0.2798  0.5520
    2MPD1    H514156   1.518   1.154   1.979 -0.3067  1.5048  0.1619
    2MPD1    N114157   1.586   1.365   2.413 -0.8224 -0.3167 -0.0973
    2MPD1    H614158   1.571   1.441   2.479 -0.1750 -0.7847  0.5806
    2MPD1    H714159   1.676   1.378   2.368 -0.1909  0.1926  1.3493
    1MPD1     C14160   0.031   2.321  12.235  0.0789 -0.2474  0.1067
    1MPD1    C114161   4.648   2.362  12.296 -0.2693  0.1087  0.0529
    1MPD1    C214162   4.647   2.476  12.374 -0.3836  0.8905 -0.1432
    1MPD1    C314163   0.009   2.569  12.370 -0.9981 -0.3174 -0.3707
    1MPD1    C414164   0.123   2.530  12.299  0.4191 -0.3868  0.8036
    1MPD1    C514165   0.130   2.418  12.229  0.5320  0.3067  0.6105
    1MPD1     H14166   4.564   2.491  12.442 -1.1841  0.8074 -1.0956
    1MPD1    H114167   0.203   2.603  12.303  0.0928 -0.1590  3.5631
    1MPD1    H214168   0.050   2.231  12.178  1.9379  0.2932 -0.1053
    1MPD1    H314169   0.213   2.393  12.163 -2.4819 -1.0224 -2.6782
    1MPD1     N14170   4.728   2.687  12.444  0.0863 -0.0855  0.3880
    1MPD1    H514171   4.632   2.700  12.476 -0.4504  1.3517 -1.7844
    1MPD1    N114172   4.554   2.265  12.332 -0.2286 -0.8479 -0.1332
    1MPD1    H614173   4.590   2.211  12.410 -1.2564 -0.3303  0.6908
    1MPD1    H714174   4.463   2.300  12.361  1.2432  3.2048 -0.3818
    2MPD1     C14175   0.482   0.127  11.597  0.0330  0.2487 -0.6646
    2MPD1    C114176   0.416   0.110  11.478  0.6056  0.7447 -0.0667
    2MPD1    C214177   0.401   4.717  11.432  0.0662  0.3701  0.4726
    2MPD1    C314178   0.440   4.604  11.509  0.3591  0.0257 -0.5233
    2MPD1    C414179   0.490   4.634  11.636  0.1350 -0.4780 -0.3884
    2MPD1    C514180   0.525   0.021  11.674 -0.1829  0.8115 -0.3629
    2MPD1     H14181   0.355   4.701  11.335  2.8881 -1.2885 -0.5867
    2MPD1    H114182   0.519   4.553  11.701 -0.1068  1.2811  1.9234
    2MPD1    H214183   0.502   0.230  11.624 -1.1637  0.5196 -0.7874
    2MPD1    H314184   0.574   0.045  11.768 -1.6333  0.9306  0.3724
    2MPD1     N14185   0.425   4.465  11.471 -0.0834 -0.3024 -0.7148
    2MPD1    H514186   0.447   4.403  11.548 -0.5196  0.0874 -0.2709
    2MPD1    N114187   0.397   0.218  11.382 -0.4065 -0.3482  0.3894
    2MPD1    H614188   0.379   0.304  11.433 -0.3834 -1.6196  2.5434
    2MPD1    H714189   0.311   0.207  11.329  0.2988 -0.1415 -0.7816
    3MPD1     C14190   4.585   3.975  10.830  1.0054  0.3013 -0.5497
    3MPD1    C114191   4.688   4.059  10.796  0.4445  0.4579  0.4915
    3MPD1    C214192   0.052   4.082  10.885 -0.1648  0.2510  0.2435
    3MPD1    C314193   0.037   4.026  11.010 -0.3938  0.0488  0.0017
    3MPD1    C414194   4.667   3.948  11.051  0.1770  0.4203 -0.1036
    3MPD1    C514195   4.565   3.931  10.963  0.1208  0.5855 -0.3621
    3MPD1     H14196   0.133   4.144  10.849 -0.2213 -0.6162 -1.3632
    3MPD1    H114197   4.664   3.904  11.150 -2.3860 -2.3193 -1.3882
    3MPD1    H214198   4.513   3.947  10.754  0.4198  0.3858 -0.0257
    3MPD1    H314199   4.501   3.847  10.984  1.7189  0.1169  2.6604
    3MPD1     N14200   0.138   4.060  11.104 -0.8130 -0.5104  0.3925
    3MPD1    H514201   0.215   4.112  11.063 -0.1884 -1.9890 -0.2988
    3MPD1    N114202   4.686   4.101  10.661 -0.7647  0.6282 -0.1131
    3MPD1    H614203   4.718   4.197  10.650  1.2477 -0.1787 -1.1344
    3MPD1    H714204   4.601   4.094  10.606 -1.3996  2.4214  0.6395
    4MPD2     C14205   4.512   3.403  12.353 -0.2477  0.1088  0.2576
    4MPD2    C114206   4.631   3.384  12.423  0.1788  0.1043  0.0412
    4MPD2    C214207   4.712   3.492  12.437 -0.0096 -0.2211 -0.6254
    4MPD2    C314208   4.697   3.609  12.367 -0.5645 -0.8001  0.1078
    4MPD2    C414209   4.585   3.623  12.287  0.3953 -0.3333 -0.2271
    4MPD2    C514210   4.494   3.519  12.284 -0.1599 -0.4428  0.4388
    4MPD2     H14211   0.065   3.480  12.491 -0.8075  0.2367  0.8393
    4MPD2    H114212   4.582   3.707  12.218  1.5231  0.1634  0.3367
    4MPD2    H214213   4.433   3.329  12.345 -0.4988  0.4308 -0.2786
    4MPD2    H314214   4.405   3.529  12.223  0.1167 -2.7547 -0.3567
    4MPD2     N14215   0.065   3.703  12.367  1.1712 -0.0449  0.0105
    4MPD2    H514216   0.078   3.770  12.291  2.4982 -0.2045  0.0955
    4MPD2    N114217   4.660   3.263  12.500 -0.6165 -0.1811  0.0664
    4MPD2    H714218   0.012   3.262  12.542  0.1001 -0.9025 -1.5558
    5TMC3    C114219   4.629   3.066  12.606 -0.4768  0.4086 -0.4044
    5TMC3    C214220   4.662   2.942  12.549 -0.4570  0.6213  0.3190
    5TMC3    C314221   0.048   2.888  12.564 -0.2622  0.4038 -0.5665
    5TMC3    C414222   4.721   3.123  12.693  0.1340  0.4564 -0.3336
    5TMC3    C514223   0.109   3.070  12.698  0.1501  0.2623  0.6447
    5TMC3    C614224   0.142   2.956  12.634  0.1905 -0.1847 -0.2915
    5TMC3     C14225   4.580   3.156  12.508 -0.3380  0.1723 -0.4344
    5TMC3     O14226   4.478   3.131  12.446 -0.7731 -0.4511  0.1920
    5TMC3     H14227   4.591   2.920  12.471  0.4456 -0.0432 -0.3110
    5TMC3    H114228   4.695   3.214  12.746 -0.7878  0.5223 -0.8853
    5TMC3    H214229   0.234   2.908  12.667 -0.5098  0.6172  2.8457
    5TMC3    C714230   0.200   3.183  12.679 -0.0940 -0.2839  0.4313
    5TMC3    C814231   0.087   2.770  12.489  0.2814 -0.0001 -0.7072
    5TMC3    O114232   0.150   3.287  12.643  0.1487  0.2010 -0.4791
    5TMC3    O214233   0.208   2.760  12.474 -0.1193  0.3733 -0.6443
    6TMC3    C114234   0.361   4.272  11.374  0.5577 -0.4377 -0.9275
    6TMC3    C214235   0.281   4.209  11.279 -0.7312  0.5031  0.9742
    6TMC3    C314236   0.269   4.069  11.292 -0.2009 -0.7581  0.5681
    6TMC3    C414237   0.430   4.200  11.470  0.5366  0.4404 -0.2615
    6TMC3    C514238   0.401   4.068  11.486  0.3028 -1.1779  0.8352
    6TMC3    C614239   0.321   4.003  11.398 -0.0759 -0.3986  0.5840
    6TMC3     C14240   0.373   4.416  11.360 -0.6389  0.6391 -0.4083
    6TMC3     O14241   0.309   4.473  11.271 -0.6412  0.3636  0.2264
    6TMC3     H14242   0.230   4.269  11.205  2.6666  0.7222 -1.2035
    6TMC3    H114243   0.492   4.245  11.547  1.9663 -1.2154 -0.4459
    6TMC3    H214244   0.291   3.900  11.415 -2.6271  0.1052 -0.7740
    6TMC3    C714245   0.450   3.990  11.599 -0.6608  0.2696 -0.5881
    6TMC3    C814246   0.145   4.025  11.238  0.0278  0.6441  0.7483
    6TMC3    O114247   0.375   3.912  11.658 -0.6213  0.0408  0.1917
    6TMC3    O214248   0.068   3.967  11.309  0.3778 -0.5159 -0.0072
    7MPD2     C14249   0.667   3.402  12.655 -0.1872  0.9946 -0.1130
    7MPD2    C114250   0.540   3.449  12.626 -0.5326  0.4801  0.1403
    7MPD2    C214251   0.434   3.366  12.629 -0.2427  0.4004  0.0767
    7MPD2    C314252   0.443   3.234  12.672  0.2306  0.2225 -0.0948
    7MPD2    C414253   0.563   3.191  12.704 -0.5679 -0.3855  0.2395
    7MPD2    C514254   0.674   3.270  12.689  0.8268  0.0849 -0.1297
    7MPD2     H14255   0.337   3.404  12.598 -0.8048 -0.7447  0.4211
    7MPD2    H114256   0.581   3.086  12.722  1.4218  0.2768  2.1786
    7MPD2    H214257   0.758   3.461  12.658  0.8826 -0.5845 -2.5931
    7MPD2    H314258   0.770   3.227  12.714  1.6424  2.0119  0.0167
    7MPD2     N14259   0.331   3.155  12.693 -0.3731  0.0835  0.0830
    7MPD2    H514260   0.356   3.066  12.735  0.2730  0.0361 -0.4031
    7MPD2    N114261   0.505   3.582  12.586  0.0217  0.1197 -0.2197
    7MPD2    H714262   0.407   3.606  12.574 -0.7135 -3.2866 -0.8837
    8TMC3    C114263   0.502   3.767  12.470 -0.1234  0.0986 -0.2108
    8TMC3    C214264   0.536   3.773  12.336 -0.1001  0.8391  0.0726
    8TMC3    C314265   0.434   3.774  12.247  0.0695 -0.0210  0.6047
    8TMC3    C414266   0.372   3.779  12.516  0.2265  0.0237 -0.7524
    8TMC3    C514267   0.280   3.780  12.419 -0.9243  0.6405  0.2672
    8TMC3    C614268   0.302   3.775  12.287 -0.1636 -0.3313 -0.1870
    8TMC3     C14269   0.587   3.689  12.560 -0.2357  0.2806  0.6626
    8TMC3     O14270   0.702   3.674  12.529  0.0159 -0.1988 -0.1980
    8TMC3     H14271   0.640   3.747  12.320 -1.4116 -4.1072 -0.6264
    8TMC3    H114272   0.344   3.778  12.621 -0.5391 -0.4309 -0.9617
    8TMC3    H214273   0.228   3.773  12.208 -1.0500 -2.0081  0.6708
    8TMC3    C714274   0.167   3.711  12.463 -0.5998  0.1176 -0.5770
    8TMC3    C814275   0.465   3.808  12.110  0.1706  0.6471 -0.6922
    8TMC3    O114276   0.175   3.654  12.569 -0.3212  0.8424  0.0241
    8TMC3    O214277   0.373   3.803  12.026 -0.4209 -0.2705  0.0802
    9MPD2     C14278   0.794   3.924  11.974  0.2767  0.6576 -0.5275
    9MPD2    C114279   0.657   3.896  11.976  0.7902  0.4756 -0.2088
    9MPD2    C214280   0.580   3.924  11.862 -0.7171  0.5054 -0.0124
    9MPD2    C314281   0.642   3.980  11.750 -0.8398 -0.2039 -0.1330
    9MPD2    C414282   0.776   4.002  11.750 -0.0294 -0.1923 -0.1848
    9MPD2    C514283   0.847   3.989  11.860 -0.4204  0.3762 -0.1804
    9MPD2     H14284   0.472   3.913  11.862 -0.7738  1.0931 -0.5608
    9MPD2    H114285   0.828   4.043  11.664  0.7337  1.8342  1.2568
    9MPD2    H214286   0.866   3.905  12.053  1.4240 -1.4416 -2.0577
    9MPD2    H314287   0.952   4.015  11.848  0.1437 -2.6562 -1.7760
    9MPD2     N14288   0.576   4.023  11.632 -0.0043  0.4471 -0.5517
    9MPD2    H514289   0.627   4.081  11.566  0.0576 -1.5972 -2.2993
    9MPD2    N114290   0.595   3.842  12.095  0.3906  0.3360 -0.3283
    9MPD2    H714291   0.653   3.826  12.178 -0.7774  1.3766  0.6856
    1MPD1     C14292   0.105   3.129  16.728  0.2131 -0.4861 -0.0864
    1MPD1    C114293   0.025   3.029  16.688  0.2936 -0.4149  0.6696
    1MPD1    C214294   4.633   3.032  16.727 -0.5480  0.0572  0.4397
    1MPD1    C314295   4.580   3.131  16.810 -0.4707 -0.2873  0.6412
    1MPD1    C414296   4.670   3.223  16.856 -0.2864  0.4423 -0.3616
    1MPD1    C514297   0.058   3.231  16.808  0.4788 -0.4916  0.0352
    1MPD1     H14298   4.578   2.950  16.684 -0.3393 -1.9668  4.0532
    1MPD1    H114299   4.638   3.300  16.925 -0.2384  1.2595 -1.2422
    1MPD1    H214300   0.206   3.138  16.689 -0.1529  2.4743 -0.2830
    1MPD1    H314301   0.132   3.306  16.830 -0.4908  0.7060 -0.7668
    1MPD1     N14302   4.447   3.146  16.859  0.4766 -0.1721  0.0044
    1MPD1    H514303   4.423   3.232  16.908  2.0968  0.1746  0.1788
    1MPD1    N114304   0.066   2.952  16.573  0.0082 -0.7003 -0.1729
    1MPD1    H614305   0.030   2.857  16.568 -2.2125  0.1998 -1.0557
    1MPD1    H714306   0.167   2.944  16.561  0.1265 -3.1842  2.4071
    2TMC2    C114307   4.082   3.282  16.990  0.0224  0.1954 -0.0330
    2TMC2    C214308   3.972   3.246  16.924  0.3710  0.2166 -0.1126
    2TMC2    C314309   3.978   3.140  16.841 -0.5239  0.8307  0.1854
    2TMC2    C414310   4.201   3.225  16.963 -0.2096 -0.0060  0.2367
    2TMC2    C514311   4.215   3.123  16.874  0.0809 -0.2881 -0.7742
    2TMC2    C614312   4.099   3.083  16.804  0.2907 -0.4560  0.2954
    2TMC2     C14313   4.072   3.378  17.099 -0.4397  0.3889 -0.5884
    2TMC2     O14314   3.961   3.380  17.151 -0.2296 -0.0697 -0.1123
    2TMC2     H14315   3.879   3.288  16.961  0.0820 -0.8170  0.3300
    2TMC2    H114316   4.292   3.248  17.017  0.5230 -1.7232 -0.2727
    2TMC2    H214317   4.106   3.008  16.727  1.9943  0.4208 -0.3980
    2TMC2    C714318   4.348   3.061  16.833 -0.2849  0.1831 -0.3503
    2TMC2    C814319   3.858   3.127  16.763 -0.4429  0.2287  0.8544
    2TMC2    O114320   4.341   2.965  16.754 -0.1971 -0.0483  0.3880
    2TMC2    O214321   3.806   3.225  16.711  0.0631 -0.3109 -0.1964
    2TMC2    O514322   3.848   3.001  16.710 -0.3730  0.1861 -0.4202
    2TMC2    H514323   3.910   2.943  16.759 -1.3989  1.0358  1.8639
    3MPD1     C14324   4.213   3.799  17.352 -0.6733  1.0096  0.0484
    3MPD1    C114325   4.305   3.778  17.250 -0.2564  0.2762  0.5896
    3MPD1    C214326   4.286   3.676  17.158 -0.0745  0.7077  0.2696
    3MPD1    C314327   4.188   3.584  17.183 -0.1094  0.3297 -0.0081
    3MPD1    C414328   4.102   3.601  17.294 -0.8195 -1.0822  0.0700
    3MPD1    C514329   4.116   3.710  17.379  0.4185  0.5603 -0.2476
    3MPD1     H14330   4.358   3.670  17.077  0.6357  1.3377  0.8547
    3MPD1    H114331   4.025   3.529  17.318 -1.5826 -1.1197 -2.5893
    3MPD1    H214332   4.230   3.885  17.416 -1.0159  1.4818 -0.4992
    3MPD1    H314333   4.046   3.722  17.461 -0.5077 -0.6784 -0.8760
    3MPD1     N14334   4.170   3.471  17.094  0.8017  0.1600  0.0152
    3MPD1    H514335   4.241   3.474  17.022  0.0870 -0.7635 -0.7151
    3MPD1    N114336   4.399   3.877  17.225  0.0435  0.3469 -0.3718
    3MPD1    H614337   4.412   3.923  17.314  1.8459 -2.1186  0.6558
    3MPD1    H714338   4.482   3.831  17.187 -1.0003 -1.5128 -0.4284
    1TMC1    C114339   2.946   2.237  13.256  0.0839 -0.4336 -0.0562
    1TMC1    C214340   2.858   2.189  13.346 -0.2362 -0.4530  0.2765
    1TMC1    C314341   2.732   2.176  13.294  0.0279 -0.3840 -0.4624
    1TMC1    C414342   2.913   2.283  13.126  0.1185  0.3224  0.1996
    1TMC1    C514343   2.785   2.274  13.082  0.2514  0.3261  0.2487
    1TMC1    C614344   2.690   2.230  13.169 -0.4707 -0.3772 -0.8046
    1TMC1     C14345   3.090   2.251  13.301 -0.3553  0.1711  0.0841
    1TMC1     O14346   3.173   2.302  13.226 -0.0833 -0.2118 -0.0864
    1TMC1     H14347   2.879   2.167  13.450 -1.3891 -1.3546  0.3089
    1TMC1    H114348   2.993   2.314  13.059  0.0135  2.7350  1.1770
    1TMC1    H214349   2.584   2.240  13.149 -0.5825  1.9247  0.9701
    1TMC1    C714350   2.738   2.346  12.971  0.8855 -0.4993 -0.3905
    1TMC1    C814351   2.630   2.161  13.396 -0.3750 -0.3719 -0.4244
    1TMC1    O114352   2.633   2.333  12.908  0.4835  0.1063  0.3937
    1TMC1    O214353   2.586   2.258  13.450 -0.2655  0.0215 -0.2121
    1TMC1    O314354   2.812   2.468  12.972 -0.2181 -0.5924 -0.5254
    1TMC1    H314355   2.872   2.486  13.047 -0.0527 -1.5265 -0.4376
    1TMC1    O514356   2.561   2.069  13.320 -0.6323  0.2210 -0.4402
    1TMC1    H514357   2.621   2.002  13.281 -1.0761 -1.2112  1.3595
    2MPD2     C14358   3.352   2.278  13.458 -0.4685  0.2398 -0.8974
    2MPD2    C114359   3.247   2.195  13.490 -0.8262 -1.5971 -0.2526
    2MPD2    C214360   3.259   2.128  13.609 -0.1216  0.0940 -0.6929
    2MPD2    C314361   3.367   2.133  13.690 -0.0868 -0.3883  0.7345
    2MPD2    C414362   3.466   2.224  13.662 -0.0672  0.0010  0.1969
    2MPD2    C514363   3.453   2.294  13.548 -0.0690 -0.0454  0.1519
    2MPD2     H14364   3.171   2.071  13.637  0.3772 -0.7732 -0.8923
    2MPD2    H114365   3.555   2.233  13.723  0.4264  1.4714 -0.7517
    2MPD2    H214366   3.355   2.339  13.368  1.2804  0.4848 -0.6624
    2MPD2    H314367   3.533   2.362  13.523  0.3005 -0.4195  0.3218
    2MPD2     N14368   3.359   2.061  13.814 -0.0763 -0.5846  0.1907
    2MPD2    H514369   3.271   2.025  13.850 -0.6271  0.3671 -0.2139
    2MPD2    N114370   3.126   2.180  13.413  0.0857 -0.0875  0.3033
    2MPD2    H714371   3.051   2.116  13.438 -0.2027  0.4069  0.7103
    3TCq1    O114372   3.638   1.818  14.401  0.6244 -0.2793  0.6220
    3TCq1    C114373   3.677   1.850  14.277 -0.2073  0.0816  0.4106
    3TCq1    O214374   3.772   1.927  14.265  0.0707 -0.5659  0.2215
    3TCq1    C214375   3.562   1.849  14.185 -0.9449 -0.3777  0.3983
    3TCq1    C314376   3.448   1.781  14.211 -0.1541  0.0603 -0.1062
    3TCq1    C414377   3.341   1.798  14.132  0.0072  0.6415 -0.1691
    3TCq1    C514378   3.340   1.889  14.034  0.1618 -1.0750  0.2622
    3TCq1    C614379   3.452   1.967  14.013  0.0374  0.3988 -0.1011
    3TCq1    C714380   3.565   1.943  14.086  0.4800 -0.4318 -0.6993
    3TCq1    C814381   3.468   2.042  13.889  0.4460 -0.8435 -0.2837
    3TCq1    O414382   3.585   2.083  13.872 -0.0705  0.4887 -0.6151
    3TCq1    C914383   3.236   1.704  14.152  0.0606 -0.7705 -0.3495
    3TCq1    O514384   3.249   1.607  14.229  0.3065  0.0731  0.5341
    3TCq1    O614385   3.146   1.704  14.066  0.0230 -0.1910  0.0901
    3TCq1    H114386   3.558   1.762  14.395 -0.2823  1.0910 -0.0858
    3TCq1    H214387   3.443   1.704  14.287 -0.9585 -0.2736 -0.4913
    3TCq1    H314388   3.251   1.909  13.975  0.9878  1.4689 -0.1039
    3TCq1    H414389   3.647   2.008  14.059 -0.0645  1.7551  2.9383
    1MPD2     C14390   2.209   4.012  15.429 -0.0572  0.1591 -0.5446
    1MPD2    C114391   2.232   3.945  15.307 -0.1713 -0.1141 -0.4400
    1MPD2    C214392   2.361   3.898  15.279  0.1260 -0.1489  0.2515
    1MPD2    C314393   2.464   3.904  15.374 -0.0794 -0.0251  0.0784
    1MPD2    C414394   2.439   3.963  15.497 -0.0908  0.3921 -0.6026
    1MPD2    C514395   2.317   4.017  15.510 -0.4828 -0.5764  0.2129
    1MPD2     H14396   2.382   3.860  15.180 -2.3433 -1.1140  0.0832
    1MPD2    H114397   2.514   3.973  15.575  1.0176  0.9993 -1.7467
    1MPD2    H214398   2.116   4.059  15.460 -0.4037  0.4011 -1.9679
    1MPD2    H314399   2.310   4.057  15.611  0.2775 -1.8453  0.7783
    1MPD2     N14400   2.595   3.851  15.346  0.8015  0.1705  0.4686
    1MPD2    H514401   2.661   3.847  15.423 -1.3245  0.1240  2.2727
    1MPD2    N114402   2.129   3.921  15.223 -0.1954 -0.0361  0.5610
    1MPD2    H714403   2.038   3.958  15.248  0.6238  1.4213  1.4044
    2TMC3    C114404   2.011   3.835  15.029 -0.0240 -0.3582 -0.3662
    2TMC3    C214405   1.986   3.722  14.953  0.0685  0.0925  0.0564
    2TMC3    C314406   1.986   3.721  14.812 -0.6294 -0.0082 -0.7176
    2TMC3    C414407   2.000   3.957  14.959 -0.1282  0.1168  0.3787
    2TMC3    C514408   1.989   3.956  14.819 -0.6951 -0.1527 -0.3085
    2TMC3    C614409   1.973   3.842  14.745  0.2511  0.3355  0.4886
    2TMC3     C14410   2.132   3.823  15.121 -0.1566 -0.6737  0.8322
    2TMC3     O14411   2.210   3.741  15.083 -0.7357  0.4178 -0.7456
    2TMC3     H14412   2.010   3.628  15.002 -0.0227  0.0651  0.0490
    2TMC3    H114413   2.004   4.048  15.017  1.4898  1.9805 -2.6783
    2TMC3    H214414   1.974   3.837  14.636 -2.6161 -1.1840  0.5096
    2TMC3    C714415   2.031   4.078  14.748 -0.4505  0.4229  0.1286
    2TMC3    C814416   2.078   3.623  14.752 -0.6371  0.0701 -0.0573
    2TMC3    O114417   1.980   4.108  14.640  0.5111  0.5212 -0.3366
    2TMC3    O214418   2.024   3.530  14.690  0.0327 -0.3676 -0.5552
    3TCq1    O114419   2.804   4.122  15.369 -0.5730 -0.4877  0.0008
    3TCq1    C114420   2.721   4.217  15.326 -0.7137  0.5868 -0.4185
    3TCq1    O214421   2.621   4.257  15.390  0.0495  0.3372 -0.2615
    3TCq1    C214422   2.773   4.289  15.213  0.2745  0.1981 -0.4627
    3TCq1    C314423   2.911   4.289  15.187 -0.4274 -0.4052 -0.1736
    3TCq1    C414424   2.944   4.346  15.068  0.6685 -0.0404 -0.3117
    3TCq1    C514425   2.864   4.402  14.977  0.1543 -0.2114 -0.8715
    3TCq1    C614426   2.733   4.401  15.009  0.4130 -0.0169 -0.2033
    3TCq1    C714427   2.687   4.356  15.133 -0.1805  0.1239  0.1020
    3TCq1    C814428   2.632   4.447  14.916 -0.1038 -0.1354 -0.1109
    3TCq1    O414429   2.649   4.542  14.839  0.5456 -0.0488 -0.3081
    3TCq1    C914430   3.083   4.332  15.023 -0.2445  0.3753  0.2216
    3TCq1    O514431   3.104   4.368  14.905  0.3843  0.0124 -0.1673
    3TCq1    O614432   3.144   4.244  15.089 -0.1550  0.3889 -0.3723
    3TCq1    H114433   2.857   4.092  15.292  0.1139  1.2471 -0.1901
    3TCq1    H214434   2.977   4.233  15.251 -2.3758 -1.2314  1.1320
    3TCq1    H314435   2.886   4.428  14.874 -0.1329  2.2227 -0.3106
    3TCq1    H414436   2.583   4.350  15.162 -0.2784 -0.4530 -0.3630
    4MPD2     C14437   2.386   4.443  14.736  0.2102 -0.3908 -0.1032
    4MPD2    C114438   2.405   4.366  14.849 -0.3148  0.3330 -0.4699
    4MPD2    C214439   2.310   4.270  14.879 -0.8603  0.3275 -0.1335
    4MPD2    C314440   2.196   4.254  14.799 -0.1670 -0.3166  0.5741
    4MPD2    C414441   2.173   4.335  14.694  0.5801  0.9203  0.5165
    4MPD2    C514442   2.269   4.426  14.662  0.0254  1.2237 -0.5314
    4MPD2     H14443   2.330   4.215  14.970  2.4357  1.6773 -0.0239
    4MPD2    H114444   2.080   4.323  14.640  1.9325 -0.0276 -1.6153
    4MPD2    H214445   2.470   4.500  14.698  0.9101 -2.5810 -1.8167
    4MPD2    H314446   2.253   4.491  14.577 -1.3823 -1.1019 -2.0541
    4MPD2     N14447   2.121   4.136  14.831 -0.0616  1.0648 -0.1523
    4MPD2    H514448   2.155   4.084  14.910  2.3621  0.8417 -1.3623
    4MPD2    N114449   2.521   4.369  14.932  0.5736  0.5659  0.5019
    4MPD2    H714450   2.518   4.290  14.997  0.8186 -0.6846 -1.0180
    5TMC2    C114451   2.773   3.506  15.124 -0.0575 -0.0813 -0.6163
    5TMC2    C214452   2.769   3.424  15.232 -0.4489  0.1148  0.0608
    5TMC2    C314453   2.750   3.482  15.353  0.0065  0.2274 -0.5292
    5TMC2    C414454   2.767   3.644  15.123 -0.1532  0.1694  0.4390
    5TMC2    C514455   2.732   3.696  15.245 -0.2570 -0.6772 -0.1885
    5TMC2    C614456   2.733   3.617  15.357 -0.1687  0.2131  0.4249
    5TMC2     C14457   2.713   3.445  15.008 -0.5608 -0.3848  0.6881
    5TMC2     O14458   2.748   3.335  14.972 -0.0352 -0.0264 -0.1789
    5TMC2     H14459   2.768   3.318  15.208  1.6555  0.0252  0.3921
    5TMC2    H114460   2.791   3.689  15.027  1.3739 -0.0961  0.6975
    5TMC2    H214461   2.700   3.653  15.454 -0.7574  2.2980 -0.5501
    5TMC2    C714462   2.642   3.805  15.228  0.3147 -0.1544  0.3639
    5TMC2    C814463   2.638   3.417  15.426 -0.7519  0.4016 -0.6401
    5TMC2    O114464   2.591   3.821  15.122 -0.1041  0.4907 -0.3739
    5TMC2    O214465   2.530   3.469  15.432 -0.5559 -0.2146 -0.4145
    5TMC2    O514466   2.664   3.285  15.457  0.6431  0.0011  0.2730
    5TMC2    H514467   2.759   3.268  15.437  0.2213 -0.9939 -0.8644
    6MPD2     C14468   2.311   3.447  14.717 -0.1753 -0.2242  0.2110
    6MPD2    C114469   2.307   3.558  14.797 -0.2688 -0.1523 -0.7038
    6MPD2    C214470   2.414   3.584  14.875 -0.5002 -0.5643 -0.4618
    6MPD2    C314471   2.521   3.500  14.880 -0.3317  1.0405  0.3729
    6MPD2    C414472   2.520   3.381  14.804  0.0093  0.6406 -0.5708
    6MPD2    C514473   2.419   3.358  14.718 -0.1260  0.1889 -1.0969
    6MPD2     H14474   2.416   3.674  14.935 -1.7279 -1.6114  1.1467
    6MPD2    H114475   2.588   3.297  14.813 -1.1678  0.0833  2.8206
    6MPD2    H214476   2.229   3.414  14.655  1.2375 -1.7131 -0.8969
    6MPD2    H314477   2.417   3.261  14.670  1.9290 -0.2274 -0.3359
    6MPD2     N14478   2.623   3.535  14.964  0.1088 -0.0051  0.3304
    6MPD2    H514479   2.607   3.620  15.016  0.1562  0.7875 -0.9553
    6MPD2    N114480   2.198   3.648  14.801 -0.2242  0.3644  0.6229
    6MPD2    H714481   2.205   3.726  14.866 -0.5218 -0.1257  1.2457
  945NH4     N114482   3.623   4.150  12.077 -0.4960 -0.1569 -0.4281
  945NH4     H214483   3.724   4.127  12.081 -0.4039  0.6622  1.8305
  945NH4     H314484   3.593   4.148  11.978  0.5304  0.0892 -0.7394
  945NH4     H414485   3.599   4.247  12.107  1.3737 -0.4660  2.0486
  945NH4     H514486   3.570   4.080  12.133  0.1967  0.5475  1.0997
  946SOD     NA14487   2.859   0.006   0.868 -0.0281 -0.4855 -0.1922
  947SOD     NA14488   0.829   2.799  16.076 -0.5487 -0.9654 -0.6824
  948SOD     NA14489   1.115   1.869  13.248  0.3448 -0.3349  0.0455
  949SOD     NA14490   3.879   0.653  16.120  0.3536 -0.0886 -0.0692
  950SOD     NA14491   3.077   0.323   8.425  0.1062  0.3071 -0.3758
  951SOD     NA14492   2.938   2.681   3.325  0.0770  0.2440 -0.2602
  952SOD     NA14493   2.926   4.659  13.087  0.5417  0.2228  0.1833
  953SOL     OW14494   0.085   4.203   6.273  0.1100  0.2175  0.1254
  953SOL    HW114495   0.086   4.285   6.322 -1.6039  0.7739 -0.7574
  953SOL    HW214496   0.134   4.143   6.329  1.1156  0.0386 -0.9524
  954SOL     OW14497   2.386   2.015   9.683 -0.7194  0.0241  0.2656
  954SOL    HW114498   2.454   2.040   9.746  0.1199  0.9378 -1.0115
  954SOL    HW214499   2.330   2.092   9.671  0.1863  0.7065  0.3886
  955SOL     OW14500   0.287   4.729   7.618  0.0830  0.0957  0.4056
  955SOL    HW114501   0.339   0.015   7.542  0.6595 -1.2145  0.3452
  955SOL    HW214502   0.308   0.067   7.670  1.4170  1.0094 -1.4902
  956SOL     OW14503   3.969   0.356   7.538 -0.2515  0.0493  0.4772
  956SOL    HW114504   3.903   0.411   7.497  1.0438  1.3333  0.0864
  956SOL    HW214505   4.045   0.401   7.499  0.6421 -1.5276  0.3843
  957SOL     OW14506   1.987   4.593   8.611 -0.6476  0.5053 -0.2388
  957SOL    HW114507   2.008   4.551   8.694 -2.2497  0.3972  0.1239
  957SOL    HW214508   2.064   4.650   8.608  0.7193 -1.4318 -1.2464
  958SOL     OW14509   3.157   0.201   7.013 -0.5602 -0.1517  0.0344
  958SOL    HW114510   3.084   0.153   6.972 -0.5330 -1.6761  1.7463
  958SOL    HW214511   3.145   0.288   6.976  0.2996 -0.5859 -1.2874
  959SOL     OW14512   2.393   1.446   7.544 -0.1039  0.0983 -0.7767
  959SOL    HW114513   2.422   1.534   7.569 -0.6118  1.0974 -3.6586
  959SOL    HW214514   2.481   1.410   7.533 -0.1463 -0.0276 -0.7047
  960SOL     OW14515   4.668   2.823   2.039  0.7002 -0.0244  0.4007
  960SOL    HW114516   4.627   2.853   1.957  2.4942  1.0996 -0.0938
  960SOL    HW214517   4.720   2.754   1.999 -1.0982 -0.5668 -1.0206
  961SOL     OW14518   2.907   0.938  15.973  0.2547  0.6604 -0.0128
  961SOL    HW114519   2.996   0.966  15.952  0.7672 -1.4976 -0.6886
  961SOL    HW214520   2.868   0.923  15.887 -0.6699  0.2870  0.4763
  962SOL     OW14521   1.620   0.628   0.481 -0.5827 -0.0417 -0.2209
  962SOL    HW114522   1.575   0.597   0.402 -0.2883 -0.3415 -0.2697
  962SOL    HW214523   1.586   0.717   0.481  0.9705  0.5486 -0.5180
  963SOL     OW14524   1.259   1.360  13.827  0.4855  0.1726  0.3335
  963SOL    HW114525   1.262   1.306  13.906  0.0784 -1.4040 -0.7307
  963SOL    HW214526   1.349   1.345  13.797  0.5366  2.5068 -0.6812
  964SOL     OW14527   1.550   4.512   9.391  0.2745  0.1905 -0.3923
  964SOL    HW114528   1.534   4.509   9.297  1.9454  2.5275 -0.7421
  964SOL    HW214529   1.468   4.498   9.438  1.9303 -1.4035  2.0664
  965SOL     OW14530   1.420   3.941   4.640  0.4197 -0.1610 -0.2486
  965SOL    HW114531   1.501   3.919   4.687  0.7855  1.1737 -0.2484
  965SOL    HW214532   1.417   3.869   4.577 -0.9034 -0.7563  0.4917
  966SOL     OW14533   4.545   1.114   2.265 -0.1558 -0.2174  0.0367
  966SOL    HW114534   4.556   1.178   2.336  2.8787  1.1800 -1.6897
  966SOL    HW214535   4.450   1.121   2.253 -0.4958 -0.3174  2.6048
  967SOL     OW14536   3.211   3.492   1.469 -0.0046 -0.2902  0.0515
  967SOL    HW114537   3.241   3.511   1.558  1.5772 -0.4992 -0.4222
  967SOL    HW214538   3.231   3.399   1.456  0.6967 -0.0278 -0.7544
  968SOL     OW14539   3.319   4.041   4.635 -0.3964  0.1925 -0.3276
  968SOL    HW114540   3.269   4.009   4.710 -1.0497  1.7982 -0.0686
  968SOL    HW214541   3.359   3.968   4.588  2.0557  0.1010  1.9220
  969SOL     OW14542   2.950   0.404   2.916  0.5616  0.2301  0.4789
  969SOL    HW114543   2.896   0.327   2.897  0.1889  0.3489  1.0681
  969SOL    HW214544   2.880   0.465   2.938 -1.6101 -1.0575 -2.9736
  970SOL     OW14545   2.374   2.648  10.092 -0.1802 -0.1877 -0.6845
  970SOL    HW114546   2.314   2.594  10.144 -0.6764  0.3269 -0.7289
  970SOL    HW214547   2.460   2.610  10.110 -0.3758  0.7678  2.2410
  971SOL     OW14548   3.621   3.579   8.478  0.6416  0.0371 -0.4919
  971SOL    HW114549   3.544   3.636   8.473 -0.3700 -1.2096  0.7776
  971SOL    HW214550   3.598   3.493   8.443  0.0665  0.6811 -1.6634
  972SOL     OW14551   2.339   4.590   2.686 -0.2033 -0.4669 -0.2678
  972SOL    HW114552   2.346   4.656   2.755  1.6304  1.3390 -2.1831
  972SOL    HW214553   2.351   4.503   2.722  0.7501 -0.4893 -0.6333
  973SOL     OW14554   1.131   0.880   3.445 -0.2331  0.6315 -0.3872
  973SOL    HW114555   1.083   0.887   3.528 -2.4025 -1.0381 -1.4995
  973SOL    HW214556   1.119   0.785   3.435 -1.2115  0.6346  0.6985
  974SOL     OW14557   0.953   4.009   5.123 -0.4291 -0.0514 -0.2395
  974SOL    HW114558   0.984   3.986   5.035  1.5980 -0.5241  0.5918
  974SOL    HW214559   0.999   4.090   5.146  1.4469 -0.9633 -0.6965
  975SOL     OW14560   3.054   2.555   3.700  0.1708  0.4884  0.0905
  975SOL    HW114561   3.111   2.495   3.747  1.8821  1.7089 -0.4032
  975SOL    HW214562   2.991   2.577   3.768  1.9962  0.7389  1.6816
  976SOL     OW14563   4.302   3.057   2.188 -0.0377  0.3207 -0.2158
  976SOL    HW114564   4.216   3.038   2.151  0.0570 -0.1728 -0.1820
  976SOL    HW214565   4.274   3.076   2.278 -1.0090  3.7967 -1.2345
  977SOL     OW14566   4.194   4.419  16.934 -0.0886 -0.2859  0.0394
  977SOL    HW114567   4.138   4.403  17.010  1.3188  0.6488  1.2507
  977SOL    HW214568   4.142   4.492  16.899 -0.3546 -1.3771 -1.8588
  978SOL     OW14569   3.181   3.582  11.899 -0.4439 -0.7252  0.1808
  978SOL    HW114570   3.227   3.662  11.874  0.3727 -1.0107  0.7707
  978SOL    HW214571   3.107   3.623  11.944  1.5408  2.2729  0.7183
  979SOL     OW14572   1.190   2.385   2.974  0.1257  0.3417  0.6529
  979SOL    HW114573   1.276   2.391   2.933 -0.0573  0.5395  0.2947
  979SOL    HW214574   1.159   2.476   2.968  0.7019  0.6219  2.0988
  980SOL     OW14575   3.687   4.120   6.962 -0.3905 -0.0397 -0.5879
  980SOL    HW114576   3.770   4.085   6.928 -0.2051 -0.2240  0.0403
  980SOL    HW214577   3.626   4.058   6.923 -1.8642  0.1749  1.3516
  981SOL     OW14578   2.506   3.562   6.242  0.1072 -0.0566 -0.0111
  981SOL    HW114579   2.558   3.535   6.318 -0.3871  0.5475  0.5452
  981SOL    HW214580   2.548   3.646   6.221 -1.0752  0.2936 -0.9940
  982SOL     OW14581   3.368   3.284   6.934  0.3964 -0.3373  0.5536
  982SOL    HW114582   3.281   3.253   6.958 -0.6645  0.6863 -1.9485
  982SOL    HW214583   3.359   3.284   6.838  1.8909 -0.6174  0.4159
  983SOL     OW14584   2.264   2.509   4.436  0.3353 -0.4639 -0.1427
  983SOL    HW114585   2.337   2.570   4.429 -0.8445  1.0846  1.1728
  983SOL    HW214586   2.270   2.484   4.528 -0.8784  0.8073  0.2717
  984SOL     OW14587   1.415   2.512  14.476  0.3480  0.0814 -0.7498
  984SOL    HW114588   1.451   2.542  14.393  2.1478  0.1956  0.0717
  984SOL    HW214589   1.348   2.452  14.443 -0.4706  1.4409 -1.5220
  985SOL     OW14590   1.832   3.506   5.614 -0.0305  0.6268 -0.8871
  985SOL    HW114591   1.805   3.432   5.669  0.2121  0.1066 -1.4768
  985SOL    HW214592   1.847   3.577   5.678  1.1865 -1.4098  1.0840
  986SOL     OW14593   4.305   0.393   9.084  0.1262 -0.5578 -0.3665
  986SOL    HW114594   4.281   0.308   9.048 -3.6821  0.7638 -0.9459
  986SOL    HW214595   4.242   0.406   9.156  0.9267 -0.4595  0.3252
  987SOL     OW14596   3.499   2.824   2.795 -0.2908  0.1106  0.2987
  987SOL    HW114597   3.563   2.811   2.725  0.2375 -0.9981  0.9866
  987SOL    HW214598   3.428   2.879   2.760 -1.4505 -0.8476  1.1366
  988SOL     OW14599   4.695   1.750   4.938 -0.1397  0.5711 -0.2689
  988SOL    HW114600   4.644   1.675   4.908  1.3797 -1.6541  2.7766
  988SOL    HW214601   4.728   1.775   4.852  2.1419  0.9980  0.7353
  989SOL     OW14602   3.241   0.523  13.954 -0.3601 -0.0623 -0.0112
  989SOL    HW114603   3.187   0.460  13.907  0.3698  1.6028 -3.0921
  989SOL    HW214604   3.297   0.460  13.999 -1.8443 -2.1761 -1.1188
  990SOL     OW14605   0.726   2.418   3.023  0.0785  0.5465 -0.0955
  990SOL    HW114606   0.721   2.430   2.929  2.1072 -1.6412 -0.4853
  990SOL    HW214607   0.651   2.465   3.061  0.1146  0.6071 -0.1001
  991SOL     OW14608   0.428   1.479   4.718 -1.3189  0.0733 -0.6274
  991SOL    HW114609   0.388   1.457   4.634  1.7971 -0.8584 -1.8720
  991SOL    HW214610   0.515   1.520   4.713 -0.6707 -0.8729  2.7869
  992SOL     OW14611   3.106   4.622   6.723 -0.6133  0.1113 -0.7093
  992SOL    HW114612   3.194   4.626   6.685 -0.4680  2.8933 -0.0713
  992SOL    HW214613   3.054   4.613   6.643 -1.9813  0.1487  0.1845
  993SOL     OW14614   0.595   4.684   7.111  0.4350 -0.3545 -0.0060
  993SOL    HW114615   0.658   4.613   7.096  0.2389 -0.4029 -0.5860
  993SOL    HW214616   0.661   0.013   7.117  0.7402 -0.6994  0.5613
  994SOL     OW14617   0.978   4.066   3.017 -0.0989  0.0663 -0.1968
  994SOL    HW114618   0.988   4.161   3.025  1.8543  0.0590 -2.4981
  994SOL    HW214619   1.069   4.047   3.038 -0.7576 -0.0737  2.4837
  995SOL     OW14620   3.934   1.174  15.392 -0.2076 -0.2250 -0.4441
  995SOL    HW114621   3.928   1.111  15.321  2.6890  1.0170 -1.7863
  995SOL    HW214622   4.029   1.175  15.406 -0.1025 -1.6537 -1.0371
  996SOL     OW14623   4.197   1.113   5.330  0.4846 -0.0442 -0.0533
  996SOL    HW114624   4.177   1.055   5.255 -0.1197  1.2696 -0.9102
  996SOL    HW214625   4.284   1.082   5.353  1.1115  2.0572  0.3178
  997SOL     OW14626   3.371   4.225   2.791  0.1170  0.2005  0.4531
  997SOL    HW114627   3.412   4.246   2.707  0.7640 -0.8134  0.5177
  997SOL    HW214628   3.439   4.174   2.834  0.4393 -1.1073 -1.6237
  998SOL     OW14629   0.596   2.457   4.576  0.2488 -0.4081 -0.4826
  998SOL    HW114630   0.630   2.415   4.497  2.4423 -0.4671  0.5017
  998SOL    HW214631   0.680   2.469   4.620  0.0958 -1.4227  0.0628
  999SOL     OW14632   4.705   4.280   2.725 -0.2644  0.2362  0.3545
  999SOL    HW114633   4.661   4.323   2.652 -0.3486 -0.7453 -0.1718
  999SOL    HW214634   0.041   4.337   2.738  0.2811 -0.2033 -0.9221
 1000SOL     OW14635   1.920   2.268   7.675  0.1722 -0.0722  0.0713
 1000SOL    HW114636   1.856   2.293   7.741 -1.9279  0.9524 -2.3706
 1000SOL    HW214637   1.996   2.300   7.724 -1.7961  3.6658  0.7093
 1001SOL     OW14638   3.788   1.650  13.020  0.2008  0.2788 -0.2476
 1001SOL    HW114639   3.732   1.592  12.968 -0.3479 -0.6018  1.3020
 1001SOL    HW214640   3.874   1.609  13.029  0.4657  1.0127  0.6001
 1002SOL     OW14641   3.896   2.592  11.739 -0.1072 -0.1761 -0.4761
 1002SOL    HW114642   3.828   2.621  11.800 -1.1676  0.1727 -1.8326
 1002SOL    HW214643   3.963   2.655  11.766 -0.9445 -0.4995  2.3486
 1003SOL     OW14644   0.122   1.994   0.689 -0.2608 -0.0766 -0.1532
 1003SOL    HW114645   0.140   2.026   0.600 -1.7829 -0.7114 -0.6949
 1003SOL    HW214646   0.057   1.931   0.658 -1.2299  0.0122  1.7578
 1004SOL     OW14647   0.961   3.571  15.669 -0.0242 -0.0822  0.2017
 1004SOL    HW114648   1.056   3.584  15.668  0.2614 -1.9783  3.2498
 1004SOL    HW214649   0.956   3.557  15.574  0.8376 -0.1628  0.1712
 1005SOL     OW14650   1.062   3.058   3.185 -0.5365 -0.2976 -0.5849
 1005SOL    HW114651   0.969   3.075   3.197 -0.3892 -0.6741  1.0873
 1005SOL    HW214652   1.059   2.966   3.160  0.1134 -0.8774  1.4683
 1006SOL     OW14653   4.577   2.523   2.150 -0.3491  0.7696 -0.3783
 1006SOL    HW114654   4.646   2.481   2.202  1.1412  1.2320 -1.9794
 1006SOL    HW214655   4.606   2.614   2.146  0.9789  0.4615  1.8158
 1007SOL     OW14656   1.259   1.252   6.058  0.1978  0.3298  0.1073
 1007SOL    HW114657   1.226   1.319   5.998 -0.8476 -0.4049 -0.1193
 1007SOL    HW214658   1.329   1.307   6.096  0.6920 -0.6243  0.5784
 1008SOL     OW14659   0.301   1.551   6.736  0.3398 -0.1333  0.0989
 1008SOL    HW114660   0.357   1.578   6.809  0.2683  0.5733 -0.1117
 1008SOL    HW214661   0.345   1.473   6.702  1.1506 -0.4891  1.9202
 1009SOL     OW14662   0.957   4.419   1.685  0.6110  0.2073 -0.3479
 1009SOL    HW114663   0.877   4.384   1.645  0.2232 -0.7807  1.2765
 1009SOL    HW214664   0.936   4.429   1.778  0.0281  0.6301 -0.5261
 1010SOL     OW14665   0.591   0.713   4.631 -0.4418  0.1952 -0.1695
 1010SOL    HW114666   0.541   0.734   4.711 -0.8908 -0.8474 -0.1786
 1010SOL    HW214667   0.556   0.779   4.570 -1.6921 -0.4105 -0.1152
 1011SOL     OW14668   1.395   3.818   9.264  1.0383  0.6846 -0.5378
 1011SOL    HW114669   1.328   3.762   9.226 -0.0782  2.2326 -0.8567
 1011SOL    HW214670   1.382   3.888   9.200 -1.3578 -0.7965 -1.6760
 1012SOL     OW14671   0.524   4.729  12.377  0.1334 -0.0310  0.6111
 1012SOL    HW114672   0.434   4.719  12.345  1.2520 -1.3441 -2.1095
 1012SOL    HW214673   0.511   0.048  12.452 -2.5052  0.3058 -0.1065
 1013SOL     OW14674   4.058   4.528  14.828  0.3539 -0.1663  0.4689
 1013SOL    HW114675   4.122   4.495  14.765  0.0672  0.4769 -0.1619
 1013SOL    HW214676   4.055   4.454  14.888 -1.1944 -0.1861  0.3861
 1014SOL     OW14677   2.699   3.659   4.094  0.2446 -0.1440  0.5589
 1014SOL    HW114678   2.680   3.729   4.032 -0.4260  0.6444  1.6687
 1014SOL    HW214679   2.741   3.589   4.043  1.5525  1.8213 -1.0786
 1015SOL     OW14680   0.735   1.210   7.258  0.3717 -0.2302  0.2848
 1015SOL    HW114681   0.786   1.195   7.337  0.1262  2.1256  0.9117
 1015SOL    HW214682   0.803   1.236   7.197 -0.7005  0.1128 -0.7753
 1016SOL     OW14683   0.163   1.806  14.567  0.3893  0.1027  0.7971
 1016SOL    HW114684   0.078   1.827  14.528 -0.1054 -2.5903  0.4000
 1016SOL    HW214685   0.141   1.743  14.635  1.5759  1.3853  2.3797
 1017SOL     OW14686   2.041   4.357  12.600 -0.3881  0.0351  0.0841
 1017SOL    HW114687   2.040   4.301  12.523 -1.3319  1.8639 -1.2583
 1017SOL    HW214688   2.085   4.438  12.572  1.1209 -0.2176  1.7765
 1018SOL     OW14689   2.304   2.581   3.435 -0.7025  0.2811 -0.2005
 1018SOL    HW114690   2.217   2.612   3.409 -1.1227 -1.4309 -0.7981
 1018SOL    HW214691   2.274   2.510   3.493  1.1877 -0.2360  0.1266
 1019SOL     OW14692   4.266   0.158   1.166  0.5446  0.2667 -0.2311
 1019SOL    HW114693   4.324   0.087   1.138 -0.2055 -0.1571 -0.6937
 1019SOL    HW214694   4.189   0.104   1.185 -0.4250  2.5365  2.3785
 1020SOL     OW14695   0.337   0.536   2.007  0.8632  0.0872 -0.1360
 1020SOL    HW114696   0.265   0.479   2.035  0.2222  0.4985 -0.9275
 1020SOL    HW214697   0.310   0.553   1.917  0.9226  1.2553  0.0582
 1021SOL     OW14698   3.375   3.334   6.668  0.2188 -0.3149 -0.1346
 1021SOL    HW114699   3.441   3.398   6.693 -0.8068  1.2127 -1.3669
 1021SOL    HW214700   3.324   3.382   6.603 -0.2150  0.5112  0.8270
 1022SOL     OW14701   1.502   1.216   7.920  0.2419 -0.4983  0.2603
 1022SOL    HW114702   1.425   1.227   7.865  1.8395  0.4610 -1.7966
 1022SOL    HW214703   1.468   1.239   8.006 -2.3614 -0.4884 -0.7874
 1023SOL     OW14704   4.533   0.747   3.877  0.1781 -0.2977 -0.3031
 1023SOL    HW114705   4.625   0.722   3.871 -0.6781 -3.4019 -0.3771
 1023SOL    HW214706   4.515   0.787   3.791 -0.7831  0.1044  0.0886
 1024SOL     OW14707   4.643   1.535   5.267  0.2083  0.1404  0.4621
 1024SOL    HW114708   4.566   1.591   5.261 -0.3339 -0.6429  0.1488
 1024SOL    HW214709   4.698   1.581   5.204 -0.1787  0.5498  0.4254
 1025SOL     OW14710   4.523   2.134  14.982 -0.3582  0.0584 -0.0219
 1025SOL    HW114711   4.441   2.105  14.942 -0.4824  1.8558 -1.0741
 1025SOL    HW214712   4.585   2.093  14.922 -1.0310  0.7107 -1.1668
 1026SOL     OW14713   2.912   0.534  10.506  0.8113  0.0154 -0.6165
 1026SOL    HW114714   2.860   0.461  10.540  1.1910 -0.3666 -0.8574
 1026SOL    HW214715   2.901   0.603  10.571 -0.6475 -0.2095 -0.6093
 1027SOL     OW14716   2.507   1.287   5.412  0.0305  0.8751  0.0137
 1027SOL    HW114717   2.427   1.338   5.425 -0.2953 -0.3230  2.7811
 1027SOL    HW214718   2.553   1.342   5.349 -1.2788  1.3457 -0.5204
 1028SOL     OW14719   3.115   2.412   7.391 -0.2231 -0.3456  0.6025
 1028SOL    HW114720   3.089   2.504   7.383  0.9392  0.0059  0.8697
 1028SOL    HW214721   3.208   2.426   7.374 -0.9811  1.6148 -1.9979
 1029SOL     OW14722   4.165   0.519  13.421 -0.5699  0.4165 -0.2127
 1029SOL    HW114723   4.215   0.439  13.437  1.0883  0.9753 -2.6446
 1029SOL    HW214724   4.128   0.509  13.334  2.3209 -2.2482 -1.0919
 1030SOL     OW14725   0.849   0.204   5.899 -0.2005  0.2541 -0.5226
 1030SOL    HW114726   0.857   0.298   5.882 -0.1684  0.4270  0.4429
 1030SOL    HW214727   0.759   0.183   5.873  0.1281 -1.3869 -0.3276
 1031SOL     OW14728   1.064   0.566   2.358 -1.0006 -0.1943  0.0321
 1031SOL    HW114729   1.028   0.622   2.289  1.2492  0.2117 -0.7880
 1031SOL    HW214730   1.120   0.517   2.298 -1.9990 -2.0422  0.5818
 1032SOL     OW14731   0.206   0.724   4.497  1.1556 -0.6146 -0.1214
 1032SOL    HW114732   0.204   0.820   4.493 -2.3392 -0.6534  0.6106
 1032SOL    HW214733   0.263   0.705   4.422 -0.3928 -1.5661 -1.0602
 1033SOL     OW14734   3.185   3.089   1.977  0.2015 -0.1563  0.2016
 1033SOL    HW114735   3.215   3.110   1.889  4.8793 -0.6601  1.6824
 1033SOL    HW214736   3.223   3.003   1.993  2.5116  0.6070 -1.0799
 1034SOL     OW14737   3.167   0.668   8.752 -0.0760  0.2982  0.2021
 1034SOL    HW114738   3.254   0.653   8.791 -0.2833 -0.5197  0.3433
 1034SOL    HW214739   3.128   0.593   8.796  0.7034 -1.4338 -2.0941
 1035SOL     OW14740   3.089   2.109   9.655  0.0655 -0.2513 -0.3413
 1035SOL    HW114741   3.041   2.076   9.579 -1.4496 -2.1410  1.4200
 1035SOL    HW214742   3.163   2.154   9.615 -0.0745  0.0907 -0.2092
 1036SOL     OW14743   0.172   3.936  11.917 -0.9275 -0.1098 -0.8117
 1036SOL    HW114744   0.179   4.032  11.910 -1.0197 -0.1636 -1.7360
 1036SOL    HW214745   0.248   3.911  11.970 -1.4034 -0.2455 -0.2036
 1037SOL     OW14746   4.679   2.416   5.304 -0.3555 -0.3511  0.2938
 1037SOL    HW114747   4.669   2.400   5.211  0.1108  1.8678 -0.1377
 1037SOL    HW214748   4.592   2.404   5.341  0.1711 -0.0091  1.6818
 1038SOL     OW14749   1.018   0.711   2.097 -0.3306  0.2462 -0.5184
 1038SOL    HW114750   0.949   0.742   2.155 -0.9294  1.1816 -1.7280
 1038SOL    HW214751   1.092   0.767   2.121  1.6537 -2.7162  0.2387
 1039SOL     OW14752   0.243   3.117   1.987 -0.0402  0.2854 -0.4526
 1039SOL    HW114753   0.245   3.032   1.943  1.1457 -0.2059  0.5834
 1039SOL    HW214754   0.285   3.092   2.069 -0.8329  0.5297  0.0238
 1040SOL     OW14755   1.088   3.103  10.594  0.2108  0.2910 -0.3765
 1040SOL    HW114756   1.180   3.079  10.600  0.2244  0.9098  1.7250
 1040SOL    HW214757   1.066   3.170  10.659 -2.0655 -2.8773  2.0922
 1041SOL     OW14758   1.982   0.838   8.771 -0.3356  0.0516  0.1965
 1041SOL    HW114759   1.943   0.903   8.712 -2.0611 -1.4054 -0.2804
 1041SOL    HW214760   2.074   0.863   8.778 -0.0327 -0.7934 -0.7996
 1042SOL     OW14761   0.944   4.299  13.765 -0.5289  0.0162  0.1834
 1042SOL    HW114762   0.962   4.393  13.766  0.1346 -0.1068  0.3051
 1042SOL    HW214763   0.997   4.285  13.844 -0.7226 -0.5883  0.2017
 1043SOL     OW14764   0.510   0.197   5.250 -0.1422 -0.2483 -0.0211
 1043SOL    HW114765   0.542   0.256   5.181  2.2065 -0.8131  0.5900
 1043SOL    HW214766   0.534   0.255   5.322 -0.2190  1.8175 -1.6552
 1044SOL     OW14767   1.472   0.244   6.789  0.5145 -0.2955  0.2655
 1044SOL    HW114768   1.537   0.255   6.859  0.3794 -1.0421  0.5091
 1044SOL    HW214769   1.394   0.260   6.842  0.8032  0.2298  0.5380
 1045SOL     OW14770   3.621   3.416  14.420 -0.4479 -0.0253 -0.4575
 1045SOL    HW114771   3.681   3.453  14.354 -3.3141  0.1521 -2.9882
 1045SOL    HW214772   3.612   3.485  14.486  0.4526  1.1023 -1.5131
 1046SOL     OW14773   4.700   1.329   1.818 -1.1846 -0.1620  0.1274
 1046SOL    HW114774   4.730   1.286   1.898 -0.5124  0.3619  0.1588
 1046SOL    HW214775   0.019   1.404   1.823  1.0098 -1.8986  0.0482
 1047SOL     OW14776   4.060   3.867   2.871  0.0006  0.9569 -0.1804
 1047SOL    HW114777   4.091   3.932   2.934  0.2096  1.1306 -0.4603
 1047SOL    HW214778   4.138   3.811   2.869 -1.5082 -1.2021  0.7867
 1048SOL     OW14779   2.240   3.860   6.223  0.5242  0.0712 -0.1953
 1048SOL    HW114780   2.278   3.899   6.302 -2.1269 -0.9109  1.5667
 1048SOL    HW214781   2.244   3.765   6.234 -0.1210  0.1373  0.6251
 1049SOL     OW14782   1.046   3.917   7.644  0.2922  0.4740 -1.2371
 1049SOL    HW114783   1.083   3.984   7.701 -0.4962 -1.2239  1.2863
 1049SOL    HW214784   1.126   3.877   7.611 -1.0597 -1.2766 -2.3800
 1050SOL     OW14785   2.910   0.689   1.805  0.0244 -0.3984 -0.0085
 1050SOL    HW114786   2.990   0.719   1.761  0.8432 -1.6541  0.6144
 1050SOL    HW214787   2.915   0.595   1.787  1.8927  0.0690 -2.0196
 1051SOL     OW14788   3.932   0.789   4.884  0.4559  0.2706 -0.6718
 1051SOL    HW114789   3.998   0.855   4.903 -0.4080  1.1015 -0.5638
 1051SOL    HW214790   3.992   0.715   4.875  1.3615  0.9212  0.0352
 1052SOL     OW14791   2.553   2.495  11.628  0.5322  0.2975  0.5324
 1052SOL    HW114792   2.493   2.505  11.702  0.3798  0.5498  0.3769
 1052SOL    HW214793   2.624   2.545  11.668 -1.9785  1.3227  3.6882
 1053SOL     OW14794   4.608   0.840   1.230 -0.4126 -0.4980 -0.0828
 1053SOL    HW114795   4.697   0.804   1.237 -0.2233 -0.5887 -2.7358
 1053SOL    HW214796   4.564   0.757   1.210 -0.8832  0.2470 -2.1400
 1054SOL     OW14797   2.284   2.394   4.728 -0.6167 -0.3688  0.1882
 1054SOL    HW114798   2.253   2.323   4.671  1.3395 -1.6956  0.7629
 1054SOL    HW214799   2.370   2.361   4.755  0.4627  1.0085 -1.5691
 1055SOL     OW14800   0.722   0.398   9.103 -0.3268 -0.1198 -0.1374
 1055SOL    HW114801   0.795   0.337   9.109  1.8194  2.3290 -1.4056
 1055SOL    HW214802   0.750   0.462   9.168  1.5012 -0.9691 -0.1087
 1056SOL     OW14803   4.666   3.132  16.415 -0.3933  0.2973  0.3333
 1056SOL    HW114804   4.708   3.135  16.501  3.2116 -0.8001 -1.4050
 1056SOL    HW214805   4.684   3.042  16.389  2.8072  0.5482  1.7185
 1057SOL     OW14806   2.909   2.288   2.878 -0.1826  0.3706 -0.0593
 1057SOL    HW114807   2.993   2.332   2.894 -0.4766  0.4686  1.2378
 1057SOL    HW214808   2.862   2.278   2.960 -1.1903  0.5623 -0.6180
 1058SOL     OW14809   1.413   0.048   7.820  0.5252  0.4186 -0.1235
 1058SOL    HW114810   1.392   0.135   7.855  3.2574 -0.1902  3.0153
 1058SOL    HW214811   1.501   0.036   7.855  0.7294  0.7880 -0.5126
 1059SOL     OW14812   0.511   3.237   6.520  0.2390  0.0122  0.1941
 1059SOL    HW114813   0.491   3.194   6.437  0.8668 -1.5604  0.8607
 1059SOL    HW214814   0.442   3.208   6.580 -0.7702  2.5574  0.2965
 1060SOL     OW14815   0.833   1.581  14.439 -0.3357 -0.1222 -0.4496
 1060SOL    HW114816   0.799   1.661  14.400 -0.1428  0.3615  0.3780
 1060SOL    HW214817   0.745   1.544  14.449 -0.1258 -0.5285 -0.0883
 1061SOL     OW14818   1.144   3.592  12.824 -0.0463  0.4947  0.4234
 1061SOL    HW114819   1.064   3.583  12.772 -0.2599  1.3810  0.5891
 1061SOL    HW214820   1.172   3.503  12.842  0.5835  0.1115 -2.4096
 1062SOL     OW14821   2.565   0.391   0.450 -0.0103 -0.2895  0.0076
 1062SOL    HW114822   2.629   0.323   0.431  1.4290  1.0272  0.1446
 1062SOL    HW214823   2.526   0.409   0.365 -1.1391 -0.9723  0.3751
 1063SOL     OW14824   0.537   0.893  17.691  0.7651 -0.2096 -0.0834
 1063SOL    HW114825   0.594   0.970  17.688  0.2277  0.2283  0.8869
 1063SOL    HW214826   0.598   0.848  17.750  0.3212 -1.0459 -0.2626
 1064SOL     OW14827   0.855   1.076   5.779  0.6399  0.1015  0.4030
 1064SOL    HW114828   0.770   1.060   5.739  0.3694  0.4730  0.8351
 1064SOL    HW214829   0.896   1.111   5.700  1.2488 -1.0135  0.2273
 1065SOL     OW14830   3.237   0.857   5.517  0.2635 -0.0683  0.0361
 1065SOL    HW114831   3.144   0.852   5.540  0.2631 -2.6411 -0.5711
 1065SOL    HW214832   3.282   0.839   5.600  2.2817 -1.8673 -1.4603
 1066SOL     OW14833   3.098   3.364   0.544  0.1746  0.0232  0.5233
 1066SOL    HW114834   3.042   3.305   0.494  2.0055 -0.0595 -1.4368
 1066SOL    HW214835   3.148   3.292   0.581  0.2483  0.9127  2.1790
 1067SOL     OW14836   0.729   2.150   6.653  0.3910  0.8538 -0.0427
 1067SOL    HW114837   0.633   2.146   6.647  0.4001  2.5404 -1.5172
 1067SOL    HW214838   0.746   2.099   6.732  0.4111 -0.0013 -0.6016
 1068SOL     OW14839   1.664   3.157  10.672 -0.3876  0.0759 -0.6263
 1068SOL    HW114840   1.693   3.071  10.703  1.5478 -0.2288 -3.2134
 1068SOL    HW214841   1.734   3.215  10.702  1.4581 -2.3331 -0.3079
 1069SOL     OW14842   4.585   2.562   2.432 -0.6575  0.2088 -0.4975
 1069SOL    HW114843   4.491   2.560   2.448 -0.6359  2.0159 -0.1765
 1069SOL    HW214844   4.602   2.642   2.382  1.2806 -2.0775 -3.5644
 1070SOL     OW14845   3.068   2.754   3.996 -0.1192 -0.1998 -0.0989
 1070SOL    HW114846   3.060   2.818   4.067 -0.5969 -2.0787  1.5271
 1070SOL    HW214847   3.080   2.809   3.918  0.1797 -1.6805 -1.1052
 1071SOL     OW14848   3.945   3.823  14.697  0.7077  0.3101 -0.5679
 1071SOL    HW114849   3.910   3.868  14.774 -0.0728 -1.6805  0.2212
 1071SOL    HW214850   4.012   3.781  14.751  2.2210  3.0088 -0.3272
 1072SOL     OW14851   1.175   1.398   3.208 -0.2312 -0.5602  0.1597
 1072SOL    HW114852   1.209   1.350   3.133  1.3671 -0.1505  0.6327
 1072SOL    HW214853   1.246   1.461   3.222 -1.1481  0.4170  0.4800
 1073SOL     OW14854   4.407   1.768   2.746 -0.0438  0.4591 -0.2233
 1073SOL    HW114855   4.474   1.756   2.813  0.2813 -0.5902 -0.7403
 1073SOL    HW214856   4.404   1.684   2.700 -1.2091  0.3064  0.1433
 1074SOL     OW14857   4.243   3.142   1.431  0.6241  0.5385 -0.3183
 1074SOL    HW114858   4.151   3.162   1.449 -0.1278 -1.3717 -1.9401
 1074SOL    HW214859   4.240   3.052   1.399 -0.8715  0.9377 -1.3105
 1075SOL     OW14860   1.969   4.576  11.386  0.1740  0.2698 -0.5016
 1075SOL    HW114861   2.032   4.547  11.320 -0.0917 -0.2754 -0.5153
 1075SOL    HW214862   2.030   4.588  11.458 -0.2653 -0.7049  0.0240
 1076SOL     OW14863   1.014   4.247   9.686 -0.0537  0.4645 -0.4970
 1076SOL    HW114864   0.958   4.310   9.640 -1.5084  0.0401  0.6793
 1076SOL    HW214865   0.987   4.257   9.778  3.9375  1.4886  0.5680
 1077SOL     OW14866   1.936   3.463   3.028 -0.2686 -0.1954  0.3755
 1077SOL    HW114867   1.906   3.511   2.951 -4.6868  0.8625  2.7863
 1077SOL    HW214868   2.019   3.432   2.991  0.3597  0.3445  1.3260
 1078SOL     OW14869   3.164   0.091   3.238 -0.0788  0.1626  0.0806
 1078SOL    HW114870   3.237   0.154   3.239  0.6654 -0.6994  0.0345
 1078SOL    HW214871   3.099   0.148   3.196  0.4793  1.5251  1.0487
 1079SOL     OW14872   1.698   0.956   8.681 -0.2087  0.0658 -0.7581
 1079SOL    HW114873   1.716   1.048   8.702 -0.4799 -0.3098  1.1211
 1079SOL    HW214874   1.603   0.952   8.687 -0.3646  1.4714 -2.3944
 1080SOL     OW14875   3.681   0.482   6.545  0.4234  0.7437 -0.0378
 1080SOL    HW114876   3.720   0.466   6.631 -2.1052  2.6092  1.4461
 1080SOL    HW214877   3.610   0.540   6.573 -0.9410  0.9076 -3.7611
 1081SOL     OW14878   4.154   0.869   4.400 -0.4200 -0.0359  0.0355
 1081SOL    HW114879   4.072   0.841   4.360 -0.5689  0.3477  0.0686
 1081SOL    HW214880   4.203   0.787   4.403 -2.1822 -1.1286 -1.0641
 1082SOL     OW14881   0.666   4.608   8.376 -0.2026  0.3215 -0.0767
 1082SOL    HW114882   0.632   4.697   8.367  1.8274  1.3153  2.0908
 1082SOL    HW214883   0.585   4.558   8.364 -0.1841 -0.2384  2.1763
 1083SOL     OW14884   0.554   4.488  17.222 -0.4213  0.3767  0.3614
 1083SOL    HW114885   0.575   4.564  17.168  0.1474 -0.2837 -0.3316
 1083SOL    HW214886   0.496   4.530  17.286  1.2381  0.4705  1.8243
 1084SOL     OW14887   4.589   0.778   5.444  0.3041 -0.3965  0.2224
 1084SOL    HW114888   4.611   0.827   5.523 -1.0725  0.2439  0.2136
 1084SOL    HW214889   4.626   0.692   5.461  1.0000  0.2240  1.8343
 1085SOL     OW14890   0.985   4.554   8.089  0.5671 -0.0004  0.1878
 1085SOL    HW114891   1.045   4.489   8.125  1.1443 -0.5620 -1.8092
 1085SOL    HW214892   1.021   4.560   8.001 -4.1266  0.8614 -1.6699
 1086SOL     OW14893   4.575   3.233   7.598 -0.0704  0.0908 -0.4861
 1086SOL    HW114894   4.642   3.170   7.572  0.9655  0.8015  0.4598
 1086SOL    HW214895   4.537   3.167   7.656 -1.7920  1.3225 -0.2332
 1087SOL     OW14896   2.185   3.321  11.957 -0.5656  0.3145 -0.3372
 1087SOL    HW114897   2.210   3.257  11.891 -2.4369 -0.4372 -0.3008
 1087SOL    HW214898   2.138   3.385  11.903 -0.2375  0.3314 -0.6029
 1088SOL     OW14899   0.683   3.956   9.725 -0.2108 -0.2818  0.3762
 1088SOL    HW114900   0.612   3.893   9.734  0.2214 -0.7516  0.4827
 1088SOL    HW214901   0.652   4.012   9.653 -1.4561 -0.8072  0.5127
 1089SOL     OW14902   1.728   0.016   6.695  0.0344 -0.0887 -0.2309
 1089SOL    HW114903   1.676   0.094   6.680  1.9891  1.2350 -0.0865
 1089SOL    HW214904   1.772   0.047   6.774 -1.4893 -0.8262  0.9122
 1090SOL     OW14905   0.434   0.489  11.487 -0.1838  0.3956  0.1098
 1090SOL    HW114906   0.485   0.475  11.567 -1.7525  1.4896  1.3002
 1090SOL    HW214907   0.501   0.506  11.421 -0.4995  0.4952 -0.1847
 1091SOL     OW14908   1.594   1.837   6.072  0.6033 -0.4189 -0.0568
 1091SOL    HW114909   1.610   1.746   6.099 -2.9122 -0.7265  1.0266
 1091SOL    HW214910   1.626   1.826   5.982  0.9718 -0.5635  0.0927
 1092SOL     OW14911   0.474   1.736   2.677  0.1548  0.4083  0.1999
 1092SOL    HW114912   0.413   1.664   2.696 -1.3853  1.4262 -0.9171
 1092SOL    HW214913   0.502   1.758   2.766 -1.9580 -0.1091  1.0068
 1093SOL     OW14914   3.470   0.630   8.432 -0.3474  0.5020 -0.0430
 1093SOL    HW114915   3.431   0.590   8.354 -1.3581  1.2181  0.0856
 1093SOL    HW214916   3.554   0.585   8.429 -0.3641  0.6434 -3.1891
 1094SOL     OW14917   0.260   1.368   4.427  0.5502  0.6951 -0.2572
 1094SOL    HW114918   0.329   1.323   4.377 -0.0866  1.6538 -1.9813
 1094SOL    HW214919   0.250   1.455   4.390 -0.4303  0.6374 -0.1196
 1095SOL     OW14920   1.965   3.575   6.060  0.2156  0.5128 -0.1602
 1095SOL    HW114921   2.012   3.656   6.077 -1.4873  1.8643 -1.7990
 1095SOL    HW214922   1.911   3.569   6.139 -1.7434  0.9791 -1.4383
 1096SOL     OW14923   1.226   3.550   7.434 -0.0018  0.7056 -0.4495
 1096SOL    HW114924   1.155   3.544   7.498  0.3716  0.8732 -0.0115
 1096SOL    HW214925   1.257   3.460   7.428  1.3335  0.9871  1.9961
 1097SOL     OW14926   2.756   2.949   5.500 -0.5437 -0.0422 -0.2098
 1097SOL    HW114927   2.710   3.029   5.525 -0.4886 -0.7601  2.2118
 1097SOL    HW214928   2.777   2.964   5.408  0.9608  0.7507  0.2627
 1098SOL     OW14929   2.037   0.588   3.210  0.0644 -0.2889 -1.0387
 1098SOL    HW114930   2.051   0.625   3.122  0.1558  1.6390 -0.2057
 1098SOL    HW214931   2.102   0.637   3.260 -0.1846  0.1513 -1.1376
 1099SOL     OW14932   3.801   3.151  12.046 -0.7666  0.4741 -0.0799
 1099SOL    HW114933   3.833   3.112  11.964 -1.4592 -0.8387  0.2712
 1099SOL    HW214934   3.719   3.103  12.058 -1.6644  1.7168 -1.3753
 1100SOL     OW14935   0.061   4.236   4.274 -0.2464  0.0171  0.0160
 1100SOL    HW114936   4.729   4.227   4.337  0.2478  0.6513  0.6727
 1100SOL    HW214937   0.136   4.188   4.309 -0.4133  0.4239  0.9615
 1101SOL     OW14938   4.495   1.281   3.732  0.0427  0.1832 -0.4492
 1101SOL    HW114939   4.403   1.296   3.754 -0.0670 -1.2247  0.0238
 1101SOL    HW214940   4.502   1.190   3.760  1.2931  0.5520  0.4407
 1102SOL     OW14941   0.845   4.384   3.399  0.3037 -0.0411 -0.3697
 1102SOL    HW114942   0.831   4.293   3.425  0.1437  0.3942  1.0825
 1102SOL    HW214943   0.940   4.393   3.407  0.2914  0.0284 -0.2985
 1103SOL     OW14944   0.895   2.948   0.714 -0.3344  0.1940  0.0523
 1103SOL    HW114945   0.990   2.960   0.713 -0.3775  0.5346 -0.1143
 1103SOL    HW214946   0.881   2.863   0.673 -2.5380  0.3784  0.4325
 1104SOL     OW14947   3.165   1.640   7.268  0.2941 -0.0500 -0.2610
 1104SOL    HW114948   3.212   1.676   7.193 -0.1531  1.8373  0.3768
 1104SOL    HW214949   3.131   1.725   7.294  1.1756  0.2803 -0.1957
 1105SOL     OW14950   1.601   3.946   9.414  0.2017 -0.2730 -0.5158
 1105SOL    HW114951   1.584   4.040   9.404  0.2710 -0.0722  1.2563
 1105SOL    HW214952   1.513   3.919   9.386 -0.0186 -0.6528  0.5462
 1106SOL     OW14953   3.416   3.312   1.589  0.2502 -0.3973 -0.1589
 1106SOL    HW114954   3.365   3.247   1.636  1.6320 -1.2801  0.1160
 1106SOL    HW214955   3.485   3.345   1.647  2.5391  0.1607 -3.1681
 1107SOL     OW14956   3.367   3.211   4.910  0.4520  0.3987 -0.0773
 1107SOL    HW114957   3.378   3.128   4.955  0.0434  0.3758 -0.0192
 1107SOL    HW214958   3.282   3.203   4.866  0.1112  0.2306  0.6171
 1108SOL     OW14959   1.443   0.262   6.521  0.4945  0.2138  0.9811
 1108SOL    HW114960   1.361   0.311   6.510  1.6556  2.4207  1.9542
 1108SOL    HW214961   1.445   0.257   6.617  1.7494 -0.3860  0.9287
 1109SOL     OW14962   1.152   0.885   4.598  0.5903  0.3545  0.2676
 1109SOL    HW114963   1.224   0.841   4.555 -1.8051 -0.7941 -2.5664
 1109SOL    HW214964   1.091   0.812   4.606  3.6548 -2.1213  0.8727
 1110SOL     OW14965   2.679   4.412   4.439  0.4562 -0.3596  0.2046
 1110SOL    HW114966   2.751   4.355   4.412  0.1508 -0.8068  0.3324
 1110SOL    HW214967   2.714   4.500   4.426  2.4805 -1.2727 -0.4707
 1111SOL     OW14968   1.528   0.570   7.670  0.1328 -0.4787  1.0518
 1111SOL    HW114969   1.527   0.525   7.755 -1.0416  2.1813  2.4526
 1111SOL    HW214970   1.586   0.643   7.689  1.3906 -1.5390  1.2321
 1112SOL     OW14971   3.370   3.254  15.524  0.2746  0.5604  0.2359
 1112SOL    HW114972   3.360   3.162  15.497 -2.0065  0.6400  0.8749
 1112SOL    HW214973   3.414   3.303  15.454  1.2994  1.2204  1.3365
 1113SOL     OW14974   4.717   0.909  14.034  0.6311 -0.2127 -0.1061
 1113SOL    HW114975   4.713   0.862  13.950 -2.1034  2.2225 -1.3636
 1113SOL    HW214976   4.688   0.993  13.998  0.1445 -0.8618 -1.2504
 1114SOL     OW14977   4.232   1.858  11.641 -0.0065 -0.4555 -0.0860
 1114SOL    HW114978   4.192   1.936  11.603  0.3371 -1.2573 -2.0955
 1114SOL    HW214979   4.326   1.870  11.628  0.2701 -1.0017  1.4524
 1115SOL     OW14980   1.030   1.752  15.204  0.5544  0.1426 -0.3378
 1115SOL    HW114981   0.992   1.777  15.289  2.2665 -0.5746  0.6511
 1115SOL    HW214982   0.968   1.681  15.184  1.0514 -0.6893  1.0035
 1116SOL     OW14983   4.561   3.577   1.660  0.3105 -0.4361  0.3829
 1116SOL    HW114984   4.513   3.496   1.677  0.0412 -0.4681 -0.5612
 1116SOL    HW214985   4.646   3.536   1.648  1.2371  1.5285  0.1328
 1117SOL     OW14986   0.680   0.396   7.861 -0.3919  0.2508 -0.1447
 1117SOL    HW114987   0.586   0.394   7.880 -0.7172 -0.8271 -1.8193
 1117SOL    HW214988   0.697   0.479   7.905 -0.1262 -0.9556  2.0208
 1118SOL     OW14989   1.490   0.540   5.158  0.0037 -0.4829  0.0884
 1118SOL    HW114990   1.464   0.456   5.120 -0.8142  0.7080 -2.0245
 1118SOL    HW214991   1.405   0.562   5.196  0.4888 -1.4127  1.6911
 1119SOL     OW14992   2.797   3.341   2.294 -0.1574  0.3163 -0.7426
 1119SOL    HW114993   2.758   3.372   2.212  0.1773  0.9171 -0.6745
 1119SOL    HW214994   2.788   3.246   2.295 -3.9636  0.7185  3.4603
 1120SOL     OW14995   0.394   3.080  13.758 -0.3980  0.1638  0.0777
 1120SOL    HW114996   0.403   3.042  13.845 -0.1865  0.1940  0.0687
 1120SOL    HW214997   0.343   3.010  13.717  0.1297 -0.7791  1.0483
 1121SOL     OW14998   2.367   2.537  14.629 -0.5370  0.4433  0.1012
 1121SOL    HW114999   2.332   2.550  14.541 -0.1375  1.5253  0.0995
 1121SOL    HW215000   2.444   2.592  14.616  0.8505 -1.4303  0.5102
 1122SOL     OW15001   3.174   4.563   6.396  0.4149  0.4069 -0.3663
 1122SOL    HW115002   3.170   4.469   6.416 -1.1959  0.3764 -0.8872
 1122SOL    HW215003   3.269   4.576   6.403 -0.0910  4.6679 -1.2797
 1123SOL     OW15004   1.502   3.105   8.303  0.1463  0.1017  0.1559
 1123SOL    HW115005   1.479   3.027   8.252 -2.6143  0.9381  0.1400
 1123SOL    HW215006   1.420   3.150   8.321  0.3299  0.3527  0.3705
 1124SOL     OW15007   3.985   2.786   9.553 -0.0788 -0.1045 -0.3459
 1124SOL    HW115008   4.051   2.791   9.484 -0.5509  1.1265 -0.7169
 1124SOL    HW215009   3.909   2.811   9.499 -1.0084 -0.8927  0.5986
 1125SOL     OW15010   4.460   3.438  16.931  0.2269  0.5688 -0.6344
 1125SOL    HW115011   4.505   3.503  16.986 -2.2391  0.1070  1.9637
 1125SOL    HW215012   4.500   3.458  16.847  1.2182  0.0884 -0.2829
 1126SOL     OW15013   3.518   2.881   1.404  0.4547  0.1895  0.0281
 1126SOL    HW115014   3.481   2.798   1.434 -0.2546  0.2973 -0.5518
 1126SOL    HW215015   3.454   2.914   1.341 -0.0961  0.5799  0.7922
 1127SOL     OW15016   3.166   1.328   8.167  0.9156 -0.1700  0.4148
 1127SOL    HW115017   3.097   1.267   8.143  2.1141 -1.3627 -0.0213
 1127SOL    HW215018   3.241   1.277   8.199  0.6038 -1.6178 -1.1797
 1128SOL     OW15019   0.193   3.336   4.109  0.4631  0.0584 -0.2551
 1128SOL    HW115020   0.214   3.392   4.183  1.6969 -2.4102  1.2600
 1128SOL    HW215021   0.159   3.403   4.049 -1.2614  2.3029  3.2490
 1129SOL     OW15022   4.650   4.113   4.913  0.0346  0.1553 -0.1784
 1129SOL    HW115023   4.704   4.060   4.973  0.0744  0.9742  0.5090
 1129SOL    HW215024   4.659   4.202   4.945 -0.2171 -0.0259  0.4041
 1130SOL     OW15025   2.217   0.838   1.792  0.9779 -0.1779  0.5951
 1130SOL    HW115026   2.268   0.810   1.868  0.5854 -0.2689  0.8266
 1130SOL    HW215027   2.272   0.798   1.725 -2.0429 -0.1551 -1.8980
 1131SOL     OW15028   2.918   2.023   3.416 -0.3619 -0.1838 -0.0102
 1131SOL    HW115029   2.886   1.969   3.488  1.0325 -0.0856  0.6817
 1131SOL    HW215030   2.835   2.022   3.367 -0.7917 -0.5479  0.7238
 1132SOL     OW15031   4.023   1.166   2.857 -0.0536  0.2899  0.1155
 1132SOL    HW115032   3.963   1.130   2.792  0.0240 -0.1324  0.2746
 1132SOL    HW215033   4.080   1.089   2.850  1.8055  1.3706  3.3115
 1133SOL     OW15034   1.920   1.671  10.689  0.4591 -0.5667 -0.0275
 1133SOL    HW115035   1.951   1.716  10.610 -2.3971  0.9246 -0.3010
 1133SOL    HW215036   2.005   1.667  10.732  1.2497  0.0399 -1.5187
 1134SOL     OW15037   3.392   1.139   8.227  0.2837  0.2958 -0.0583
 1134SOL    HW115038   3.443   1.185   8.160 -0.5819  1.3228 -0.0267
 1134SOL    HW215039   3.374   1.055   8.185 -2.7372  0.0725  1.7073
 1135SOL     OW15040   3.452   2.938   1.953 -0.4469  0.0645 -0.3759
 1135SOL    HW115041   3.467   2.848   1.985  1.4499  0.6146  0.3023
 1135SOL    HW215042   3.495   2.998   2.014  0.6532 -2.7366  1.6122
 1136SOL     OW15043   2.188   1.238   3.408  0.2513  0.1926  0.0690
 1136SOL    HW115044   2.134   1.160   3.419 -0.0036  0.2129 -0.9640
 1136SOL    HW215045   2.257   1.244   3.474  0.5258 -1.5464 -0.0425
 1137SOL     OW15046   2.043   0.455  12.022 -0.1468 -0.1038 -0.3536
 1137SOL    HW115047   2.027   0.390  12.090 -1.2549 -0.3863 -0.8819
 1137SOL    HW215048   1.969   0.437  11.965 -0.3705  2.1401 -0.7574
 1138SOL     OW15049   4.012   2.581   7.124 -0.3624 -0.2758  0.0629
 1138SOL    HW115050   4.094   2.621   7.154  0.5378 -4.3125  3.0109
 1138SOL    HW215051   4.030   2.490   7.101  1.2086 -0.4859  2.1163
 1139SOL     OW15052   0.399   0.663  16.949 -0.6075  0.2821  0.4634
 1139SOL    HW115053   0.466   0.731  16.950 -0.9430  0.5989  2.8517
 1139SOL    HW215054   0.370   0.668  17.040 -1.2809  1.7877  0.1678
 1140SOL     OW15055   2.223   0.481   4.634 -0.1248  0.3664  0.1001
 1140SOL    HW115056   2.268   0.549   4.683  1.0820 -0.7181  0.4996
 1140SOL    HW215057   2.136   0.473   4.672 -1.4130  3.6426 -2.1575
 1141SOL     OW15058   0.291   4.568   8.122 -0.2276 -0.3450 -0.2271
 1141SOL    HW115059   0.229   4.514   8.074  0.7126 -0.3663 -1.4281
 1141SOL    HW215060   0.242   4.649   8.130  0.0578 -0.3288  1.3421
 1142SOL     OW15061   2.307   1.821   0.011  0.4154 -0.0130  0.8354
 1142SOL    HW115062   2.213   1.833   0.018  0.0697 -0.8286 -2.6159
 1142SOL    HW215063   2.333   1.852   0.098 -0.9523  1.5659  0.6701
 1143SOL     OW15064   1.155   3.841  12.677 -0.4257  0.2801  0.5268
 1143SOL    HW115065   1.074   3.794  12.660 -0.2185  0.1988 -0.2275
 1143SOL    HW215066   1.193   3.776  12.736  0.7523 -0.8435 -1.4690
 1144SOL     OW15067   4.667   0.386   2.490 -0.1171 -0.4142 -0.0861
 1144SOL    HW115068   4.640   0.307   2.443 -2.2141  0.5959 -0.5828
 1144SOL    HW215069   4.583   0.423   2.518  0.7407 -0.9894  3.2417
 1145SOL     OW15070   1.067   2.372   1.817 -0.4036  0.0150  0.3311
 1145SOL    HW115071   0.985   2.402   1.855 -0.5114  0.4320 -0.2284
 1145SOL    HW215072   1.119   2.453   1.807  1.0570 -1.0535 -0.7771
 1146SOL     OW15073   1.045   3.333  16.034 -0.3059  0.1099 -0.3839
 1146SOL    HW115074   1.073   3.244  16.010  0.9526  0.2912  0.4158
 1146SOL    HW215075   0.951   3.332  16.015 -0.2184 -0.7519 -0.7778
 1147SOL     OW15076   4.284   0.162   5.729  0.0573 -0.5122 -0.0515
 1147SOL    HW115077   4.263   0.248   5.692  1.1864 -0.8595 -1.4943
 1147SOL    HW215078   4.373   0.174   5.762 -0.5017  0.6927  1.0464
 1148SOL     OW15079   3.251   2.588   5.187 -0.0849 -0.2031 -0.0053
 1148SOL    HW115080   3.269   2.555   5.099 -0.1015  0.5551 -0.2932
 1148SOL    HW215081   3.327   2.645   5.196 -0.0199 -0.5342  1.4567
 1149SOL     OW15082   1.512   1.608   7.015 -0.1350  0.5858 -0.2478
 1149SOL    HW115083   1.583   1.673   7.012 -0.2985  0.7980  0.6915
 1149SOL    HW215084   1.530   1.547   6.944  0.8941 -1.7911  2.0806
 1150SOL     OW15085   0.085   2.330   9.839 -0.0045 -0.1772 -1.0281
 1150SOL    HW115086   0.173   2.311   9.807 -0.5153 -0.4542 -2.2654
 1150SOL    HW215087   0.034   2.249   9.833  1.4408 -1.2186  0.8318
 1151SOL     OW15088   3.542   2.290   5.631  0.1059  0.3466 -0.1920
 1151SOL    HW115089   3.545   2.328   5.719  0.0218 -1.3182  0.5381
 1151SOL    HW215090   3.585   2.347   5.568 -1.4853 -0.4102 -1.9430
 1152SOL     OW15091   3.711   4.023   5.624  0.0402 -0.0230  0.4706
 1152SOL    HW115092   3.731   4.108   5.663  1.6570 -1.0676  1.9339
 1152SOL    HW215093   3.786   3.978   5.661 -0.6443 -1.3339  0.2630
 1153SOL     OW15094   1.550   4.703  17.690 -0.0389  0.1065 -0.1674
 1153SOL    HW115095   1.627   4.648  17.697 -1.1951 -1.4036  0.6837
 1153SOL    HW215096   1.500   4.661   0.003  2.2874  0.5457  1.7511
 1154SOL     OW15097   2.715   4.031   8.463 -0.1703  0.3414  0.0565
 1154SOL    HW115098   2.739   3.939   8.456 -1.1139  0.2351 -1.7490
 1154SOL    HW215099   2.707   4.059   8.372 -1.1123  2.8789  0.9111
 1155SOL     OW15100   4.195   0.642   8.345  0.1862 -0.1959 -0.6006
 1155SOL    HW115101   4.175   0.633   8.252  0.6129 -0.5129 -0.6609
 1155SOL    HW215102   4.168   0.734   8.348  0.7392  0.0492 -2.8358
 1156SOL     OW15103   2.553   2.048   3.863 -0.0051  0.3591 -0.6848
 1156SOL    HW115104   2.526   2.130   3.822 -4.4796 -0.5701  0.3763
 1156SOL    HW215105   2.483   2.042   3.928  0.8369 -0.1831  0.1594
 1157SOL     OW15106   4.152   2.387   0.340  0.0016  0.6964 -0.1027
 1157SOL    HW115107   4.105   2.366   0.421 -2.9937 -1.9005 -2.5052
 1157SOL    HW215108   4.197   2.469   0.360  1.4083 -0.1706  0.2515
 1158SOL     OW15109   3.393   1.388   3.449  0.3593 -0.3376  0.5831
 1158SOL    HW115110   3.332   1.416   3.516 -1.2808 -1.1603 -0.5641
 1158SOL    HW215111   3.362   1.299   3.434 -1.8075  0.3643  0.9756
 1159SOL     OW15112   1.870   3.767   7.160 -0.6449  0.4588  0.0159
 1159SOL    HW115113   1.812   3.842   7.175 -2.5607 -0.8448 -0.8214
 1159SOL    HW215114   1.917   3.754   7.242 -1.9579  0.9180  0.8505
 1160SOL     OW15115   0.521   2.413   6.113 -0.2642  0.2006 -0.1712
 1160SOL    HW115116   0.516   2.350   6.185  2.8038 -1.7132 -1.6333
 1160SOL    HW215117   0.520   2.355   6.037 -1.5872 -0.9455  0.7155
 1161SOL     OW15118   2.772   0.883   4.701  0.4893 -0.1431 -0.0058
 1161SOL    HW115119   2.782   0.967   4.657  2.0524  0.8795  2.2475
 1161SOL    HW215120   2.765   0.913   4.792  2.0944 -0.4513  0.2352
 1162SOL     OW15121   1.455   1.714   4.397 -0.2937 -0.1803  0.3741
 1162SOL    HW115122   1.527   1.652   4.389 -0.8956 -0.7336 -0.7774
 1162SOL    HW215123   1.464   1.769   4.320 -1.8843 -1.5688 -0.8055
 1163SOL     OW15124   3.787   3.578  12.405 -0.0291 -0.6309  0.2531
 1163SOL    HW115125   3.723   3.632  12.358  1.8948  1.5460  0.1371
 1163SOL    HW215126   3.784   3.627  12.487  4.0905 -2.8179  1.7502
 1164SOL     OW15127   0.332   2.691  14.588 -0.2669 -0.1182 -0.1543
 1164SOL    HW115128   0.252   2.666  14.542  0.3036 -3.6038  0.7627
 1164SOL    HW215129   0.300   2.663  14.673 -0.9693  0.0494 -0.3604
 1165SOL     OW15130   3.444   1.779   5.320  0.5624 -0.4121 -0.0465
 1165SOL    HW115131   3.388   1.827   5.382  1.8123 -2.4958  2.7066
 1165SOL    HW215132   3.504   1.733   5.379  2.1196  2.8958  0.9167
 1166SOL     OW15133   4.455   3.104   0.612  0.5939 -0.1508 -0.2774
 1166SOL    HW115134   4.535   3.139   0.652  0.3838  1.0709 -0.9499
 1166SOL    HW215135   4.439   3.036   0.678 -1.7591 -0.1872 -0.8773
 1167SOL     OW15136   1.818   0.856  15.677  0.2852  0.0084 -0.8060
 1167SOL    HW115137   1.877   0.804  15.623 -1.0090 -0.7121 -1.5164
 1167SOL    HW215138   1.879   0.925  15.704 -1.1538  1.7045 -1.8272
 1168SOL     OW15139   4.041   2.025   9.238 -0.2041 -0.0363  0.2767
 1168SOL    HW115140   4.100   1.952   9.218  2.1493  1.7104  0.8143
 1168SOL    HW215141   4.006   1.997   9.322 -0.8277 -1.1849 -0.3684
 1169SOL     OW15142   0.809   0.734   8.555 -0.0358  0.0882 -0.7304
 1169SOL    HW115143   0.825   0.680   8.632  0.3924  1.0817 -0.1211
 1169SOL    HW215144   0.828   0.822   8.589 -0.9047 -0.7760  1.9415
 1170SOL     OW15145   1.418   4.633  14.849 -0.1667  0.8262  0.0663
 1170SOL    HW115146   1.468   4.578  14.788 -0.5016 -1.3453  1.7129
 1170SOL    HW215147   1.440   4.722  14.822 -0.5847  0.9336  0.0756
 1171SOL     OW15148   0.632   0.712   6.927 -0.3543  0.0157 -0.1440
 1171SOL    HW115149   0.671   0.640   6.977 -1.4060  0.6068  1.5098
 1171SOL    HW215150   0.553   0.668   6.896 -0.0051  0.7615 -2.0741
 1172SOL     OW15151   2.338   1.768  17.500  0.4019  0.9199 -0.0924
 1172SOL    HW115152   2.327   1.778  17.594 -0.8226 -0.9358 -0.0358
 1172SOL    HW215153   2.398   1.838  17.476  2.2179 -0.5558  0.0673
 1173SOL     OW15154   3.636   3.611   3.577 -0.5367  0.0752  0.4742
 1173SOL    HW115155   3.730   3.617   3.560 -0.6544  0.5393 -0.0074
 1173SOL    HW215156   3.613   3.704   3.580  1.0967  0.4882  0.4622
 1174SOL     OW15157   0.916   1.921   6.673  0.2651 -0.3444  0.8357
 1174SOL    HW115158   0.932   1.941   6.766 -2.7680  3.4476  0.5326
 1174SOL    HW215159   0.961   1.988   6.624 -2.0254  0.0997 -0.6680
 1175SOL     OW15160   3.428   1.282   3.105 -0.0516  0.3395  0.1777
 1175SOL    HW115161   3.332   1.279   3.108 -0.0307 -0.4741  0.0139
 1175SOL    HW215162   3.455   1.215   3.167  1.7222  0.9046  0.0203
 1176SOL     OW15163   0.089   1.047   6.259 -0.4980  0.3773 -0.2809
 1176SOL    HW115164   0.144   0.983   6.304 -1.2895  2.0855  3.1362
 1176SOL    HW215165   0.013   0.996   6.231 -0.6094 -0.9196  2.3165
 1177SOL     OW15166   1.992   2.421   5.090  0.8011 -0.3061 -0.4820
 1177SOL    HW115167   1.934   2.486   5.129  0.3666 -1.0583  0.1289
 1177SOL    HW215168   2.004   2.454   5.001 -2.7190  0.2467 -0.7407
 1178SOL     OW15169   3.753   0.740  17.173 -0.1981 -0.0180 -0.0300
 1178SOL    HW115170   3.702   0.799  17.230  3.8038  2.1167  1.3857
 1178SOL    HW215171   3.825   0.716  17.232  0.2070 -0.3126 -0.6519
 1179SOL     OW15172   2.723   4.083   4.254 -0.6527  0.0821  0.4816
 1179SOL    HW115173   2.771   4.008   4.219  1.6331  2.6609 -1.8587
 1179SOL    HW215174   2.793   4.137   4.293  0.3642 -1.0621  0.2382
 1180SOL     OW15175   2.669   0.311   4.813  0.3145  0.7704  0.0642
 1180SOL    HW115176   2.654   0.385   4.872 -1.0832 -1.2770  2.3121
 1180SOL    HW215177   2.605   0.248   4.847 -0.1344  1.1248 -0.1330
 1181SOL     OW15178   1.741   2.403   4.813 -0.2004 -0.6858 -0.5211
 1181SOL    HW115179   1.742   2.308   4.823  1.8471 -0.5106  0.7911
 1181SOL    HW215180   1.835   2.423   4.809 -0.3742  0.0827 -0.7271
 1182SOL     OW15181   1.144   0.640  13.284 -0.3795  0.0973 -0.1373
 1182SOL    HW115182   1.193   0.637  13.202  2.5277 -0.1117  1.6099
 1182SOL    HW215183   1.054   0.640  13.251 -0.1269  0.1102 -0.8229
 1183SOL     OW15184   1.819   3.305  14.192  0.3413  0.3690  0.3774
 1183SOL    HW115185   1.744   3.363  14.189  0.5917  0.6720 -0.0875
 1183SOL    HW215186   1.781   3.223  14.160  0.4653  0.4619 -0.0140
 1184SOL     OW15187   1.200   0.578   4.218 -0.0219 -0.3997  0.1069
 1184SOL    HW115188   1.181   0.540   4.303  2.7175 -3.0260 -0.4382
 1184SOL    HW215189   1.119   0.555   4.173  0.7681  0.3552 -1.7097
 1185SOL     OW15190   1.870   2.960   4.744 -0.6730 -0.0736 -0.6143
 1185SOL    HW115191   1.892   2.926   4.830  0.8777 -1.6392 -1.6065
 1185SOL    HW215192   1.804   3.029   4.752 -2.1537 -1.5737 -0.0297
 1186SOL     OW15193   4.481   2.107   9.372 -0.2685 -1.0783  0.2729
 1186SOL    HW115194   4.449   2.060   9.449 -0.1636 -2.2941 -0.4225
 1186SOL    HW215195   4.508   2.186   9.418  1.4307 -1.8450  0.5850
 1187SOL     OW15196   3.750   3.558   6.031 -0.0505 -0.1461 -0.6434
 1187SOL    HW115197   3.662   3.577   6.064 -0.1925 -2.3268  0.2465
 1187SOL    HW215198   3.739   3.586   5.941  0.0088 -0.6810 -0.8207
 1188SOL     OW15199   2.295   1.129   7.260  0.1682  0.1683 -0.3047
 1188SOL    HW115200   2.381   1.106   7.297 -0.3989 -2.5097 -0.6628
 1188SOL    HW215201   2.299   1.089   7.173  0.6345 -0.5440  0.0458
 1189SOL     OW15202   3.692   4.533  16.723 -0.5434 -0.6310  1.1570
 1189SOL    HW115203   3.740   4.485  16.655 -0.6418  2.9999 -1.4513
 1189SOL    HW215204   3.606   4.509  16.689  0.5422  1.2232 -2.9087
 1190SOL     OW15205   3.649   2.490   8.914 -0.0670  0.1129  0.0744
 1190SOL    HW115206   3.688   2.544   8.983  0.0339 -1.4631  1.2444
 1190SOL    HW215207   3.564   2.531   8.901 -0.7019 -1.8945 -2.0995
 1191SOL     OW15208   1.195   1.941  17.102 -0.4268 -0.1317  0.1282
 1191SOL    HW115209   1.138   1.959  17.176  0.3445  2.1336  0.1644
 1191SOL    HW215210   1.260   1.881  17.139 -1.5504 -0.7120  1.1526
 1192SOL     OW15211   4.006   0.038   7.310 -0.0204  0.7038  0.0153
 1192SOL    HW115212   4.043   4.722   7.242  0.4591  1.6284 -0.4834
 1192SOL    HW215213   3.939   4.726   7.356 -0.6121  1.9631  0.5865
 1193SOL     OW15214   3.424   0.191   8.996  0.2120 -0.0148 -0.4553
 1193SOL    HW115215   3.386   0.149   8.919 -1.3725  1.8786 -0.6962
 1193SOL    HW215216   3.431   0.115   9.055  0.9279  1.0734  0.8711
 1194SOL     OW15217   0.318   0.866  12.708  0.3536 -0.2557  0.2763
 1194SOL    HW115218   0.347   0.791  12.760  0.3055 -0.7037 -0.3482
 1194SOL    HW215219   0.275   0.921  12.774  0.8091 -0.2737  0.5923
 1195SOL     OW15220   4.187   2.293   7.714  0.2299 -0.0763 -0.5733
 1195SOL    HW115221   4.093   2.286   7.700  0.3357  1.2879 -2.0448
 1195SOL    HW215222   4.199   2.370   7.658 -1.9870  0.5226 -0.2490
 1196SOL     OW15223   3.255   3.132   2.939 -0.1295 -0.1110  0.2951
 1196SOL    HW115224   3.218   3.176   2.862  0.2121  0.0646  0.2305
 1196SOL    HW215225   3.320   3.075   2.898 -1.9544 -2.4615  0.6418
 1197SOL     OW15226   3.968   1.397   9.441  0.1196 -0.3872 -0.1128
 1197SOL    HW115227   3.923   1.336   9.500  1.9810 -1.1659  0.5030
 1197SOL    HW215228   4.051   1.401   9.489 -0.8292  2.2964  1.2948
 1198SOL     OW15229   1.476   3.680   5.436  0.1959  0.0330  0.6804
 1198SOL    HW115230   1.483   3.717   5.524 -0.8349 -0.0865  0.8069
 1198SOL    HW215231   1.503   3.753   5.380  0.8154 -1.0461 -0.4221
 1199SOL     OW15232   4.680   4.542   7.753  0.5132  0.2193 -0.2631
 1199SOL    HW115233   4.636   4.601   7.814  0.3712 -0.1653  0.0050
 1199SOL    HW215234   4.713   4.474   7.811 -3.7483 -2.2903 -0.8061
 1200SOL     OW15235   3.703   4.209   0.921 -0.4803  0.7861 -0.1089
 1200SOL    HW115236   3.741   4.122   0.905 -0.7756  0.7004 -0.3379
 1200SOL    HW215237   3.747   4.223   1.005  0.7428  0.0289 -0.6144
 1201SOL     OW15238   4.415   1.768   3.932 -0.2496  1.0818  0.3030
 1201SOL    HW115239   4.417   1.850   3.981 -0.4798  1.6597 -0.6657
 1201SOL    HW215240   4.510   1.760   3.924  0.0748  4.2779  0.9824
 1202SOL     OW15241   1.870   2.399   3.206 -0.1483  0.3270  0.1360
 1202SOL    HW115242   1.811   2.450   3.151 -1.4443 -1.1980  0.1088
 1202SOL    HW215243   1.947   2.383   3.153  0.1042  0.2020  0.5436
 1203SOL     OW15244   4.232   4.545   8.389 -0.2802 -0.0735  0.6191
 1203SOL    HW115245   4.322   4.577   8.396 -0.3926 -0.0647  2.1570
 1203SOL    HW215246   4.240   4.494   8.309 -1.7407  0.0713  0.3896
 1204SOL     OW15247   2.899   2.384  17.622 -0.0434 -0.4462  0.5593
 1204SOL    HW115248   2.957   2.348  17.688 -0.3415  1.6189  1.9394
 1204SOL    HW215249   2.852   2.445  17.679 -1.0866  0.5468 -1.3417
 1205SOL     OW15250   4.154   3.385  17.553 -0.3006 -0.6908 -0.2796
 1205SOL    HW115251   4.209   3.355  17.480  0.0629 -2.4713  0.7166
 1205SOL    HW215252   4.217   3.415  17.619  0.2758  1.1134 -1.6312
 1206SOL     OW15253   1.534   0.695   1.701  0.1933 -0.0300  0.4633
 1206SOL    HW115254   1.583   0.649   1.633 -0.1015  0.6043 -0.1775
 1206SOL    HW215255   1.602   0.749   1.741 -0.6297  1.0364  0.3985
 1207SOL     OW15256   1.093   4.496  14.475 -0.6203  0.1738  0.6128
 1207SOL    HW115257   1.045   4.415  14.456  1.0189 -0.7769  0.4877
 1207SOL    HW215258   1.107   4.498  14.569 -1.2781 -0.8507  0.7374
 1208SOL     OW15259   0.222   1.979   6.806 -0.4699 -0.5070 -0.3933
 1208SOL    HW115260   0.224   1.911   6.738 -2.2373 -0.4737 -0.4739
 1208SOL    HW215261   0.137   1.959   6.845 -0.1605 -1.6533 -0.2865
 1209SOL     OW15262   1.300   2.086  11.503  0.3130  0.3345  0.4246
 1209SOL    HW115263   1.282   2.037  11.423 -0.3840 -1.4168  1.6537
 1209SOL    HW215264   1.212   2.110  11.533 -0.2148 -1.8225  0.5625
 1210SOL     OW15265   4.491   0.072   6.377 -0.0389  0.0976  0.8878
 1210SOL    HW115266   4.443   0.136   6.429 -1.0006 -0.7582  1.0414
 1210SOL    HW215267   4.429   4.740   6.366 -0.0335  0.2952 -0.3831
 1211SOL     OW15268   4.331   3.811   5.798  0.8729 -0.1173 -0.2769
 1211SOL    HW115269   4.378   3.830   5.879 -0.2845 -1.0350  0.6221
 1211SOL    HW215270   4.241   3.797   5.827  0.8041  1.1819  0.1157
 1212SOL     OW15271   0.106   1.247  10.599  0.2042  0.4852 -0.3728
 1212SOL    HW115272   0.137   1.166  10.558 -0.6334  1.0403 -2.1094
 1212SOL    HW215273   0.012   1.235  10.616  0.4757  0.1495  0.8736
 1213SOL     OW15274   3.397   0.781  11.868  0.3214 -0.5359  0.0677
 1213SOL    HW115275   3.445   0.862  11.853 -0.4142 -0.0675  0.2776
 1213SOL    HW215276   3.383   0.748  11.779  0.9050 -1.7915  0.4318
 1214SOL     OW15277   3.616   3.707   9.337  0.5610  0.0505 -0.0016
 1214SOL    HW115278   3.619   3.612   9.352  0.4338  0.4193  2.3931
 1214SOL    HW215279   3.642   3.738   9.424  0.3169  1.4593 -0.4302
 1215SOL     OW15280   1.620   1.028  11.053 -0.0261 -0.4520  0.1810
 1215SOL    HW115281   1.580   1.080  11.122 -1.2014 -0.8902 -0.1794
 1215SOL    HW215282   1.695   0.984  11.093  1.2388  1.8974  0.3661
 1216SOL     OW15283   1.827   2.678   7.476  0.2538  0.0851  0.6072
 1216SOL    HW115284   1.742   2.706   7.443  0.5046  1.0510  0.7731
 1216SOL    HW215285   1.814   2.583   7.482 -2.5599  0.5692  2.2585
 1217SOL     OW15286   1.326   3.121   3.190 -0.2544  0.3130 -0.0754
 1217SOL    HW115287   1.234   3.094   3.181 -0.4669  0.9591  0.1901
 1217SOL    HW215288   1.334   3.145   3.282 -0.5909 -2.8038  0.7747
 1218SOL     OW15289   4.638   4.375   8.829  0.6042  0.2637 -0.4773
 1218SOL    HW115290   4.651   4.469   8.834  1.7954  0.1107 -0.8652
 1218SOL    HW215291   4.564   4.378   8.768  0.4181 -0.3504 -0.2893
 1219SOL     OW15292   1.056   2.522   2.212  0.6717 -0.0032 -0.2338
 1219SOL    HW115293   1.031   2.535   2.304  0.0265 -0.0340 -0.4002
 1219SOL    HW215294   1.096   2.608   2.200 -0.6301  0.9962  2.5200
 1220SOL     OW15295   1.870   0.039   9.157 -0.3864 -0.8087 -0.4262
 1220SOL    HW115296   1.881   0.026   9.063  1.2098  0.3885 -0.4079
 1220SOL    HW215297   1.958   0.030   9.194 -0.1009 -0.0561 -0.9120
 1221SOL     OW15298   4.396   3.922   4.040  0.2063 -0.1846  0.1108
 1221SOL    HW115299   4.350   3.839   4.033 -1.3382  0.8436 -1.8043
 1221SOL    HW215300   4.437   3.914   4.127  1.3504  1.8926 -0.2321
 1222SOL     OW15301   2.563   2.903   8.664  0.1718  0.0903  0.1594
 1222SOL    HW115302   2.588   2.893   8.572  0.1228 -0.4432  0.2033
 1222SOL    HW215303   2.483   2.851   8.660  0.6839 -0.6766 -0.3575
 1223SOL     OW15304   1.638   3.035   4.007  0.4711 -0.1633  0.1313
 1223SOL    HW115305   1.666   3.026   3.916  1.2623 -1.1439  0.4699
 1223SOL    HW215306   1.588   2.955   4.025 -0.4238  0.3027 -0.2824
 1224SOL     OW15307   0.715   1.370   2.747  0.3602 -0.2391  0.2867
 1224SOL    HW115308   0.719   1.325   2.832  2.7583 -0.3389  0.1147
 1224SOL    HW215309   0.629   1.412   2.738  1.3839  2.1282  1.5074
 1225SOL     OW15310   0.909   4.434  10.549  0.0678 -0.1657  0.9516
 1225SOL    HW115311   0.898   4.410  10.641 -0.5499 -1.2518  0.5970
 1225SOL    HW215312   1.000   4.460  10.539  0.0865 -0.1543  1.1424
 1226SOL     OW15313   4.011   3.805  10.191 -0.1206  0.4027 -0.1106
 1226SOL    HW115314   3.994   3.808  10.285 -0.9813 -1.3298 -0.2104
 1226SOL    HW215315   4.028   3.897  10.171  0.1351  0.6839  1.4567
 1227SOL     OW15316   2.176   0.884   8.005 -0.1324  0.0455  0.0634
 1227SOL    HW115317   2.090   0.851   8.031  0.2063  0.2294  1.4158
 1227SOL    HW215318   2.160   0.974   8.033  2.2305  0.4661  0.1079
 1228SOL     OW15319   3.851   3.616  16.300  0.1457 -0.6770  0.1551
 1228SOL    HW115320   3.828   3.680  16.233  0.5344 -0.9499 -0.2428
 1228SOL    HW215321   3.858   3.667  16.381  0.5545  1.3173 -1.1110
 1229SOL     OW15322   4.331   3.259   3.142  0.7213  0.1282 -0.2540
 1229SOL    HW115323   4.363   3.203   3.212 -1.1241  1.9555  2.0239
 1229SOL    HW215324   4.339   3.345   3.182 -0.9120  1.6280 -3.0911
 1230SOL     OW15325   4.644   2.361   5.023 -0.1803  0.0666 -0.2819
 1230SOL    HW115326   4.597   2.279   5.006  0.0927 -0.4136  1.2446
 1230SOL    HW215327   4.670   2.398   4.939 -1.0758  3.2936  0.8679
 1231SOL     OW15328   2.718   0.692   6.519  0.0940  0.3734  0.8024
 1231SOL    HW115329   2.762   0.631   6.578 -0.0311  1.5040  2.0702
 1231SOL    HW215330   2.767   0.667   6.441 -0.5714 -1.3747  0.9369
 1232SOL     OW15331   1.194   3.294   6.633  0.0564 -0.1448  0.7704
 1232SOL    HW115332   1.158   3.279   6.546  0.0157 -0.7384  0.8870
 1232SOL    HW215333   1.225   3.384   6.624 -0.0251 -0.2785 -0.7671
 1233SOL     OW15334   3.628   3.472   5.531 -0.1922 -0.0686 -0.3675
 1233SOL    HW115335   3.585   3.464   5.446  1.0979  3.7073 -1.4139
 1233SOL    HW215336   3.695   3.529   5.493 -0.5543  0.6177  0.0192
 1234SOL     OW15337   3.457   2.628   1.493 -0.7400  0.2845  0.1718
 1234SOL    HW115338   3.493   2.560   1.550 -1.2820  1.0806  1.4871
 1234SOL    HW215339   3.495   2.615   1.407  0.2771  3.3759  0.1492
 1235SOL     OW15340   3.545   3.833   4.130  0.6379  0.5835  0.3268
 1235SOL    HW115341   3.464   3.787   4.151 -0.3854  2.1177 -0.2313
 1235SOL    HW215342   3.571   3.773   4.060 -3.4230 -0.8641  0.0924
 1236SOL     OW15343   2.423   1.345  10.498  0.0621 -0.4802 -0.5511
 1236SOL    HW115344   2.399   1.418  10.440  1.2683  2.4663  2.6488
 1236SOL    HW215345   2.449   1.284  10.429 -2.4544 -0.1998 -1.7615
 1237SOL     OW15346   0.500   1.368   6.722  0.2200 -0.0277 -0.5259
 1237SOL    HW115347   0.580   1.380   6.671 -0.0439  0.8117 -0.7428
 1237SOL    HW215348   0.500   1.272   6.721 -2.0201 -0.0241  0.2402
 1238SOL     OW15349   2.491   1.761   5.626  0.5738 -0.1069 -0.0516
 1238SOL    HW115350   2.445   1.677   5.633  2.6502 -1.2066  0.3154
 1238SOL    HW215351   2.510   1.767   5.719  0.8707  1.9763 -0.2544
 1239SOL     OW15352   4.424   0.827  13.687 -0.0962 -0.7244 -0.5602
 1239SOL    HW115353   4.400   0.743  13.648 -1.4009 -1.3370  1.5123
 1239SOL    HW215354   4.457   0.793  13.771  1.0085  1.1189 -0.2685
 1240SOL     OW15355   0.691   1.756   8.557 -0.3285 -0.1247  0.1065
 1240SOL    HW115356   0.611   1.770   8.608 -1.6800  0.0517 -2.1003
 1240SOL    HW215357   0.686   1.661   8.553 -0.9129  0.0192 -2.3765
 1241SOL     OW15358   3.231   4.615  13.026 -0.2744 -0.5293 -0.1945
 1241SOL    HW115359   3.250   4.559  12.951  1.2592  2.1746 -1.8101
 1241SOL    HW215360   3.261   4.567  13.104 -2.3259  0.1573  0.9962
 1242SOL     OW15361   3.595   4.453   8.243  0.1148  0.2575  0.0462
 1242SOL    HW115362   3.565   4.453   8.152  0.9483 -3.7974 -0.2563
 1242SOL    HW215363   3.678   4.408   8.224 -0.0192 -0.5902  1.4689
 1243SOL     OW15364   1.448   2.351   2.114  0.7931 -0.6022  0.0729
 1243SOL    HW115365   1.407   2.336   2.199  0.7345 -0.6915  0.0291
 1243SOL    HW215366   1.372   2.322   2.063 -1.4185  3.1407  1.2444
 1244SOL     OW15367   4.150   2.822   4.365  0.0701 -0.4101  0.4025
 1244SOL    HW115368   4.079   2.790   4.310  2.0378 -0.8850 -1.8491
 1244SOL    HW215369   4.207   2.746   4.360  0.6431  0.0875 -0.5644
 1245SOL     OW15370   2.449   1.679   2.125 -0.4048 -0.2110  0.0323
 1245SOL    HW115371   2.418   1.628   2.200  0.5205 -1.0784 -0.1706
 1245SOL    HW215372   2.415   1.767   2.141 -0.5457  0.1161 -1.9984
 1246SOL     OW15373   1.904   1.830   1.732 -0.8005 -0.2204 -0.0327
 1246SOL    HW115374   1.851   1.845   1.654  0.7224 -1.6028 -1.3247
 1246SOL    HW215375   1.871   1.742   1.751  0.5360 -0.8290 -0.5625
 1247SOL     OW15376   3.274   0.843  10.551 -0.0153  0.4519 -0.1203
 1247SOL    HW115377   3.239   0.754  10.554  0.6372  0.1563 -1.7073
 1247SOL    HW215378   3.206   0.879  10.609  0.6694  0.7822  0.4850
 1248SOL     OW15379   1.086   0.827  14.525 -0.4214 -0.1480 -0.3614
 1248SOL    HW115380   1.112   0.851  14.436  0.5913 -0.2293 -0.0846
 1248SOL    HW215381   1.162   0.864  14.570  0.2577 -0.2982 -1.4062
 1249SOL     OW15382   1.967   1.660  14.998 -0.5211  0.6779  0.6450
 1249SOL    HW115383   1.930   1.678  14.911 -1.4580  0.0215  0.9131
 1249SOL    HW215384   1.895   1.610  15.037 -0.4327 -0.1461 -0.2463
 1250SOL     OW15385   1.605   4.053   5.781  0.2095 -0.5928  0.2532
 1250SOL    HW115386   1.563   4.112   5.844  0.9450  1.0484 -0.8009
 1250SOL    HW215387   1.693   4.084   5.761 -0.0382 -0.3700 -0.5004
 1251SOL     OW15388   1.849   2.665  10.843  0.3088  0.4611 -0.0186
 1251SOL    HW115389   1.944   2.678  10.851 -0.0106  2.6231  0.3791
 1251SOL    HW215390   1.837   2.659  10.748  3.6835  1.7514 -0.5300
 1252SOL     OW15391   0.298   3.080   4.504 -0.8302 -0.2458 -0.3326
 1252SOL    HW115392   0.330   2.992   4.524  1.6938  0.8687  0.4989
 1252SOL    HW215393   0.377   3.131   4.487 -1.7322  0.5720 -1.9913
 1253SOL     OW15394   1.659   1.780   2.974  0.1750 -0.0103  0.2434
 1253SOL    HW115395   1.657   1.848   2.907  3.0924 -2.1666 -2.0327
 1253SOL    HW215396   1.657   1.830   3.056  0.1549  2.3968 -1.2304
 1254SOL     OW15397   3.284   0.705   3.238 -0.3189 -0.7613 -0.2152
 1254SOL    HW115398   3.301   0.682   3.147  2.0247  0.6428 -0.1466
 1254SOL    HW215399   3.237   0.788   3.235 -0.3766 -0.8354 -1.3514
 1255SOL     OW15400   2.737   2.237   9.732 -0.0465  0.0087 -0.2033
 1255SOL    HW115401   2.827   2.249   9.701 -0.0109 -0.5100 -0.3115
 1255SOL    HW215402   2.710   2.174   9.665  1.4993 -0.7066 -0.1787
 1256SOL     OW15403   3.353   2.906  14.657  0.5187 -0.0701 -0.0984
 1256SOL    HW115404   3.288   2.970  14.686  1.5637  1.3897 -1.0044
 1256SOL    HW215405   3.406   2.904  14.737 -0.2644  0.6377  0.4332
 1257SOL     OW15406   4.357   4.001   4.994 -0.2986 -0.2645  0.4189
 1257SOL    HW115407   4.373   3.908   5.012 -0.4399 -0.0131  1.8544
 1257SOL    HW215408   4.442   4.034   4.966  1.1904 -1.8256  3.1387
 1258SOL     OW15409   2.308   2.187  15.164 -0.0400 -0.3088  0.8132
 1258SOL    HW115410   2.238   2.151  15.218  1.6681 -0.1765  3.1234
 1258SOL    HW215411   2.386   2.142  15.197  0.7722  0.9375  0.5761
 1259SOL     OW15412   1.877   4.315   7.454  0.3647  0.0174 -0.5656
 1259SOL    HW115413   1.905   4.263   7.379 -2.7016 -0.9495 -1.0525
 1259SOL    HW215414   1.785   4.322   7.430 -0.0070  0.3551  0.9731
 1260SOL     OW15415   2.277   0.828   9.108  0.0030  0.2750  0.2825
 1260SOL    HW115416   2.291   0.815   9.202 -1.0826 -0.0707  0.3990
 1260SOL    HW215417   2.181   0.829   9.100  0.0495  1.9640  0.0463
 1261SOL     OW15418   0.539   1.374   7.124  0.0028  0.5637  0.0729
 1261SOL    HW115419   0.570   1.462   7.146  3.2695 -1.2134  2.6238
 1261SOL    HW215420   0.598   1.315   7.170  0.5041  0.8463 -0.2087
 1262SOL     OW15421   3.576   0.745  13.064  0.1773  0.1440  0.0779
 1262SOL    HW115422   3.661   0.730  13.023 -0.2882  1.7072 -1.4239
 1262SOL    HW215423   3.567   0.839  13.048  0.3213 -0.3472 -2.9247
 1263SOL     OW15424   0.600   2.064   5.375  0.3833  0.4951 -0.0478
 1263SOL    HW115425   0.581   1.999   5.308 -0.2876 -1.0909  1.6641
 1263SOL    HW215426   0.514   2.106   5.375 -0.7455 -1.7894 -2.2692
 1264SOL     OW15427   3.264   2.360  17.515 -0.1290 -0.1217  0.2901
 1264SOL    HW115428   3.301   2.337  17.600 -0.8381 -2.5975 -0.0685
 1264SOL    HW215429   3.302   2.447  17.502  0.2937 -0.4124 -0.4180
 1265SOL     OW15430   2.344   2.687   1.945  0.0780  0.5774  0.0430
 1265SOL    HW115431   2.410   2.754   1.930  1.6483 -0.5999  1.8051
 1265SOL    HW215432   2.402   2.611   1.946  0.0051  0.5214  0.0353
 1266SOL     OW15433   0.463   2.226   5.665 -0.4562 -0.2449  0.2618
 1266SOL    HW115434   0.394   2.291   5.676 -2.1080 -2.1652  1.3537
 1266SOL    HW215435   0.431   2.178   5.589 -0.1382 -0.7179  0.4274
 1267SOL     OW15436   4.705   0.036   9.806 -0.0809  0.2295 -0.1047
 1267SOL    HW115437   0.029   0.046   9.877  0.1944  1.9494 -0.6074
 1267SOL    HW215438   4.725   0.117   9.760  0.1430  0.3248  0.1618
 1268SOL     OW15439   3.417   1.202   2.230  0.8146 -0.3952  0.2875
 1268SOL    HW115440   3.383   1.289   2.205  0.3662 -0.3243  1.1508
 1268SOL    HW215441   3.461   1.226   2.311  0.1382 -0.3252  0.6300
 1269SOL     OW15442   2.550   3.308   1.686 -0.2426 -0.2415 -0.4544
 1269SOL    HW115443   2.512   3.385   1.728  2.3939  0.5357  0.4956
 1269SOL    HW215444   2.551   3.332   1.594 -0.2001  0.3034 -0.3077
 1270SOL     OW15445   3.982   0.511   8.519 -0.1886 -0.4245  0.2415
 1270SOL    HW115446   4.064   0.526   8.472 -0.7939 -0.0672 -0.7011
 1270SOL    HW215447   4.017   0.489   8.606 -1.2713  0.1154  0.8147
 1271SOL     OW15448   3.376   0.131  13.038  0.3779 -0.0058 -0.1551
 1271SOL    HW115449   3.402   0.144  13.129 -2.0980  0.0153  0.5362
 1271SOL    HW215450   3.329   0.047  13.038 -1.1329  0.8465  0.6861
 1272SOL     OW15451   1.297   2.577   6.925  0.1632 -0.4558  0.1992
 1272SOL    HW115452   1.202   2.582   6.930  0.3572  1.4733  2.0384
 1272SOL    HW215453   1.322   2.577   6.833 -0.8073  2.1794 -0.0612
 1273SOL     OW15454   1.801   4.260   2.646 -0.3360 -0.2258 -0.1057
 1273SOL    HW115455   1.741   4.218   2.585 -1.5799  0.8502  0.3799
 1273SOL    HW215456   1.816   4.344   2.603  0.6677  0.0035  0.6862
 1274SOL     OW15457   4.148   0.850   4.020 -0.5099 -0.5914 -0.3902
 1274SOL    HW115458   4.237   0.877   4.041 -0.8520  0.4678 -0.2919
 1274SOL    HW215459   4.159   0.823   3.929  0.1159  0.2979 -0.5819
 1275SOL     OW15460   4.276   3.095   9.993  0.3731 -0.1286  0.0815
 1275SOL    HW115461   4.346   3.101   9.929  0.4957  0.2339  0.2440
 1275SOL    HW215462   4.252   3.003   9.991 -0.3777  0.1590 -2.7782
 1276SOL     OW15463   2.430   1.565   8.376  0.2436 -0.1965  0.4409
 1276SOL    HW115464   2.427   1.488   8.433 -2.4398 -0.3329  0.1162
 1276SOL    HW215465   2.426   1.518   8.292  0.7896 -0.4919  0.5786
 1277SOL     OW15466   4.138   3.388  14.530  0.5276 -0.3807  0.0320
 1277SOL    HW115467   4.107   3.369  14.441  1.0983  0.8929 -0.4283
 1277SOL    HW215468   4.138   3.483  14.531  3.0046 -0.3979  0.3258
 1278SOL     OW15469   2.626   4.094   7.801 -0.2557  0.0293  0.6028
 1278SOL    HW115470   2.678   4.048   7.868  0.7314 -0.4285 -0.4824
 1278SOL    HW215471   2.620   4.180   7.843  1.5123 -0.9819  2.9754
 1279SOL     OW15472   3.724   1.962   6.048  0.1149 -0.3517  0.3007
 1279SOL    HW115473   3.632   1.953   6.022  0.2637 -3.4608  0.9147
 1279SOL    HW215474   3.720   1.943   6.142  1.0118  2.3368  0.8899
 1280SOL     OW15475   0.967   2.043   7.375  0.0634  0.0815 -0.4813
 1280SOL    HW115476   0.890   1.988   7.391  0.6203 -0.5255  0.1622
 1280SOL    HW215477   0.951   2.121   7.428 -0.5947 -1.9550  2.3337
 1281SOL     OW15478   2.855   1.221   5.939 -0.3687  0.0533 -0.5069
 1281SOL    HW115479   2.841   1.240   6.031 -1.9094 -0.8004 -0.5644
 1281SOL    HW215480   2.823   1.131   5.933 -0.6272  0.1731 -0.9181
 1282SOL     OW15481   0.621   3.634  17.555  0.0030 -0.3751  0.2796
 1282SOL    HW115482   0.640   3.549  17.515  2.2438  0.7130 -0.9651
 1282SOL    HW215483   0.552   3.670  17.499 -0.0668 -2.2789 -0.8389
 1283SOL     OW15484   3.892   4.540   5.729  0.7385 -0.3616  0.3407
 1283SOL    HW115485   3.906   4.612   5.667  0.7653 -1.1502 -0.5796
 1283SOL    HW215486   3.967   4.556   5.786 -1.4159  0.7299  2.8964
 1284SOL     OW15487   2.582   0.064   8.147 -0.5242 -0.2637 -0.2837
 1284SOL    HW115488   2.618   0.050   8.235  1.3389  2.0437 -0.6580
 1284SOL    HW215489   2.630   0.143   8.120 -1.9860  1.0895  1.1124
 1285SOL     OW15490   4.361   3.442   3.689 -0.5666  0.5993 -0.2822
 1285SOL    HW115491   4.319   3.418   3.772  0.3142  2.3620  0.6846
 1285SOL    HW215492   4.421   3.515   3.707  0.9293  0.0045 -2.9845
 1286SOL     OW15493   3.846   1.447   7.905  0.0327  0.2704 -0.0084
 1286SOL    HW115494   3.818   1.488   7.986  0.5455 -0.0122  0.3117
 1286SOL    HW215495   3.767   1.449   7.850  1.7743  1.8482 -2.4672
 1287SOL     OW15496   4.043   1.983   6.086 -0.0076 -0.2961  0.2255
 1287SOL    HW115497   3.984   1.931   6.031 -0.7489  1.1865 -0.3593
 1287SOL    HW215498   4.124   1.943   6.053 -0.9208  1.1765 -3.8469
 1288SOL     OW15499   4.258   2.009   5.442 -0.4664 -0.3512 -0.1793
 1288SOL    HW115500   4.218   2.037   5.525  0.9733  0.8547  0.1049
 1288SOL    HW215501   4.318   1.945   5.480 -0.0290  0.1482 -0.0242
 1289SOL     OW15502   3.113   3.126   4.893  0.2643  0.0069  0.1416
 1289SOL    HW115503   3.129   3.053   4.954 -1.9408 -0.8683 -0.2971
 1289SOL    HW215504   3.044   3.177   4.936  0.8372  0.5586  0.4019
 1290SOL     OW15505   0.584   0.514   2.094  0.3319 -0.4358  0.2602
 1290SOL    HW115506   0.492   0.525   2.067  0.2006 -0.5167  0.6828
 1290SOL    HW215507   0.624   0.585   2.043 -1.4386 -1.4524 -2.5718
 1291SOL     OW15508   4.594   1.705   9.372  0.2165  0.0813  0.0727
 1291SOL    HW115509   4.510   1.741   9.345 -0.2287 -0.6977  0.4386
 1291SOL    HW215510   4.646   1.786   9.381  0.8285 -0.1744 -1.2743
 1292SOL     OW15511   1.834   3.607  11.659  0.0531 -0.7167 -0.1680
 1292SOL    HW115512   1.821   3.665  11.585  0.1567  1.5420  1.5918
 1292SOL    HW215513   1.771   3.539  11.633 -1.0082 -0.1042  0.8004
 1293SOL     OW15514   4.637   2.510   1.524  0.1656 -0.1930  0.0275
 1293SOL    HW115515   4.692   2.435   1.548  1.0463  0.4339 -0.0179
 1293SOL    HW215516   4.680   2.569   1.462  0.8796 -0.8076 -0.0656
 1294SOL     OW15517   0.514   3.252   1.641 -0.6596 -0.1297  0.0385
 1294SOL    HW115518   0.485   3.340   1.617 -0.8201 -0.0541  0.4919
 1294SOL    HW215519   0.428   3.212   1.651 -0.7594 -0.2091 -1.1454
 1295SOL     OW15520   0.613   0.338   6.691  0.3052 -0.5740 -0.8355
 1295SOL    HW115521   0.609   0.314   6.783 -0.8310 -1.5001 -1.1239
 1295SOL    HW215522   0.707   0.327   6.682  0.5308  0.4606  0.3158
 1296SOL     OW15523   3.533   2.753   4.747 -0.6685  0.1014  0.3581
 1296SOL    HW115524   3.515   2.740   4.840  0.4076 -1.4289  0.3543
 1296SOL    HW215525   3.522   2.848   4.747 -0.8606  0.0729  1.8916
 1297SOL     OW15526   0.472   3.912   3.725 -0.2525  0.8262 -0.3856
 1297SOL    HW115527   0.405   3.930   3.659  1.2428 -1.7736 -2.6000
 1297SOL    HW215528   0.541   3.887   3.663  0.1346 -0.4604  0.5751
 1298SOL     OW15529   0.461   3.877  13.232  0.0751 -0.4913  0.0629
 1298SOL    HW115530   0.518   3.880  13.308  1.6594  0.8580 -1.1560
 1298SOL    HW215531   0.392   3.816  13.258 -1.4277  1.2105  0.1005
 1299SOL     OW15532   1.958   3.141   5.920  0.3959  0.4140 -0.0475
 1299SOL    HW115533   1.924   3.122   6.007  2.5339 -0.4866  0.5732
 1299SOL    HW215534   1.937   3.063   5.868  0.7359 -0.2442  0.8051
 1300SOL     OW15535   2.149   3.263   7.635  0.0796 -0.5428 -0.2292
 1300SOL    HW115536   2.100   3.336   7.598  3.1941  0.9045 -1.4492
 1300SOL    HW215537   2.084   3.193   7.638  1.1469 -1.3775  3.8574
 1301SOL     OW15538   2.873   4.135  11.016 -0.1963 -0.1479  0.0412
 1301SOL    HW115539   2.780   4.125  11.032 -0.4830  1.8445 -0.4253
 1301SOL    HW215540   2.870   4.157  10.923  0.1231 -0.4341 -0.0393
 1302SOL     OW15541   4.605   1.697   8.843  0.0780 -0.4495  0.3527
 1302SOL    HW115542   4.619   1.791   8.850  0.8731 -0.5154 -0.3949
 1302SOL    HW215543   4.688   1.658   8.870  0.6774  1.4407  1.2207
 1303SOL     OW15544   2.785   4.651   2.383  0.2836 -0.1600 -0.3953
 1303SOL    HW115545   2.752   4.736   2.411 -0.6146 -0.6551  0.0724
 1303SOL    HW215546   2.773   4.663   2.288 -1.0790 -1.1179 -0.3555
 1304SOL     OW15547   2.796   1.360   2.317 -0.6475  0.5467  0.0065
 1304SOL    HW115548   2.875   1.374   2.264  0.3291 -0.4196  1.2176
 1304SOL    HW215549   2.789   1.265   2.321  1.2260  0.4549  1.4535
 1305SOL     OW15550   3.842   0.766  11.762 -0.2942 -0.1438  0.4634
 1305SOL    HW115551   3.830   0.690  11.705 -1.4901  1.3909 -1.3304
 1305SOL    HW215552   3.840   0.838  11.700 -0.8479 -0.4220  0.1604
 1306SOL     OW15553   3.350   3.400  11.753 -0.0368  0.5159 -0.2862
 1306SOL    HW115554   3.372   3.326  11.810 -3.4545 -1.2075 -1.1674
 1306SOL    HW215555   3.282   3.442  11.807 -2.1686 -1.8974 -1.0819
 1307SOL     OW15556   1.428   2.435   6.248  0.0062 -0.0522 -0.4092
 1307SOL    HW115557   1.458   2.344   6.250 -1.2633 -0.4706 -0.3044
 1307SOL    HW215558   1.509   2.485   6.236  1.2371 -1.7139  1.1238
 1308SOL     OW15559   2.765   2.288   9.377 -0.3390 -0.6457  0.6018
 1308SOL    HW115560   2.759   2.380   9.405  1.1131 -0.3986  0.1021
 1308SOL    HW215561   2.822   2.282   9.301 -0.4033 -2.1229  0.6730
 1309SOL     OW15562   2.049   0.239   0.672  0.1946 -0.1194 -0.6223
 1309SOL    HW115563   2.062   0.208   0.761 -1.6568 -1.4619 -0.8224
 1309SOL    HW215564   2.100   0.320   0.677  0.6120 -0.4706  0.5716
 1310SOL     OW15565   1.638   3.459   5.459  0.1895 -0.0424  0.6401
 1310SOL    HW115566   1.714   3.498   5.501  0.3916  1.3827 -1.0352
 1310SOL    HW215567   1.574   3.530   5.459 -0.5336 -0.6857  0.8214
 1311SOL     OW15568   1.725   1.232   3.329 -0.0363  0.7590  0.0640
 1311SOL    HW115569   1.659   1.185   3.278  2.3265 -2.5607  0.1336
 1311SOL    HW215570   1.767   1.277   3.256  1.8556 -0.4671  0.4188
 1312SOL     OW15571   1.968   1.401   8.827 -0.3471 -0.0736  0.5705
 1312SOL    HW115572   2.039   1.440   8.775 -0.1588 -0.1560  0.7630
 1312SOL    HW215573   1.895   1.455   8.797 -0.9627 -2.0652 -1.4156
 1313SOL     OW15574   4.474   3.504   9.281  0.3108 -0.2809  0.2283
 1313SOL    HW115575   4.565   3.490   9.255 -0.5949 -1.3555 -2.3873
 1313SOL    HW215576   4.463   3.565   9.209 -0.6520  0.0417  0.6446
 1314SOL     OW15577   3.932   2.378   7.646 -0.1042 -0.7823  0.3091
 1314SOL    HW115578   3.866   2.351   7.710  1.4874 -1.8369  1.4653
 1314SOL    HW215579   3.953   2.461   7.688  0.1455  0.7258 -2.7518
 1315SOL     OW15580   1.964   1.033   5.600  0.3353  0.5597 -0.0222
 1315SOL    HW115581   2.010   0.997   5.675  2.1304  0.3656 -1.2171
 1315SOL    HW215582   1.874   1.042   5.631  0.7419  3.0844  0.4579
 1316SOL     OW15583   3.367   0.844   6.647  0.7714  0.4318  0.7634
 1316SOL    HW115584   3.334   0.824   6.735  2.9643 -1.7864  1.0923
 1316SOL    HW215585   3.438   0.902   6.674  1.3682  0.2815 -0.4682
 1317SOL     OW15586   1.404   1.423  10.294  0.0492  0.6259  0.1770
 1317SOL    HW115587   1.497   1.405  10.305  0.0714 -0.2720 -1.4257
 1317SOL    HW215588   1.396   1.518  10.289  0.9258  0.7071  0.3112
 1318SOL     OW15589   3.260   2.774   4.401 -0.0142 -0.3944 -0.3330
 1318SOL    HW115590   3.321   2.847   4.401 -0.9157  0.3693 -0.5840
 1318SOL    HW215591   3.207   2.802   4.327  0.1177 -0.7069 -0.5430
 1319SOL     OW15592   3.557   4.689  15.916 -0.7776  0.1457  0.0629
 1319SOL    HW115593   3.620   4.690  15.988  0.3736 -2.9569 -0.9439
 1319SOL    HW215594   3.525   0.037  15.936  0.5410  0.8023 -0.7270
 1320SOL     OW15595   3.506   2.444   6.405  0.0756  0.0460  0.4666
 1320SOL    HW115596   3.562   2.419   6.331  0.9053 -2.4699  1.9441
 1320SOL    HW215597   3.456   2.364   6.419 -1.1685  0.7529  0.0850
 1321SOL     OW15598   0.842   2.708   3.601  0.5092 -0.9986  0.5560
 1321SOL    HW115599   0.776   2.740   3.540  2.7314  2.1125 -0.2360
 1321SOL    HW215600   0.814   2.617   3.613 -1.6473 -0.3581  0.3337
 1322SOL     OW15601   1.806   3.522  11.144 -0.2686 -0.9013  0.2936
 1322SOL    HW115602   1.735   3.582  11.120  1.5777  1.7434  1.4831
 1322SOL    HW215603   1.763   3.496  11.225  0.7143  1.1833  1.4551
 1323SOL     OW15604   0.789   2.569  16.498 -0.2255 -0.0941  0.0484
 1323SOL    HW115605   0.823   2.617  16.574 -2.4684  0.5968  0.6096
 1323SOL    HW215606   0.875   2.552  16.460 -0.9889  1.5654 -2.4369
 1324SOL     OW15607   4.093   0.270   7.202  0.2735 -0.7723  0.0535
 1324SOL    HW115608   4.055   0.193   7.245  1.4549 -1.7362 -0.6175
 1324SOL    HW215609   4.107   0.230   7.116  1.8292  0.9151 -0.4748
 1325SOL     OW15610   4.331   0.451   6.773 -0.8853 -0.2715 -0.0275
 1325SOL    HW115611   4.388   0.522   6.742 -0.0844 -0.9116 -0.0164
 1325SOL    HW215612   4.244   0.483   6.750  0.2206  0.9287 -2.5657
 1326SOL     OW15613   2.447   2.471   9.478  0.1494 -0.0176  0.5082
 1326SOL    HW115614   2.538   2.495   9.498 -0.6485  1.7742  2.0210
 1326SOL    HW215615   2.399   2.526   9.540 -0.4752  0.0068 -0.0031
 1327SOL     OW15616   3.905   3.605   3.524  0.3546 -0.0842  0.2178
 1327SOL    HW115617   3.939   3.534   3.577 -1.0554 -0.5346  0.5254
 1327SOL    HW215618   3.979   3.629   3.468 -0.1252  0.9151  0.0015
 1328SOL     OW15619   1.637   0.574  14.053  0.9158  0.3475  0.0139
 1328SOL    HW115620   1.565   0.632  14.027  0.5552 -0.1305 -0.0624
 1328SOL    HW215621   1.615   0.564  14.145  1.0276 -1.1506 -0.1145
 1329SOL     OW15622   1.644   0.318   2.911 -0.0380 -0.1792 -0.3283
 1329SOL    HW115623   1.655   0.231   2.873  1.1440 -0.6972  1.1869
 1329SOL    HW215624   1.717   0.371   2.880  0.0585 -0.0352  0.1432
 1330SOL     OW15625   4.478   2.948   2.533  0.0757 -0.0168 -0.1264
 1330SOL    HW115626   4.492   2.894   2.455  1.7081  0.7751 -0.3860
 1330SOL    HW215627   4.571   2.965   2.547 -0.4631  2.2591  0.6516
 1331SOL     OW15628   2.802   1.693   7.082  0.5528 -0.1994  0.1519
 1331SOL    HW115629   2.845   1.625   7.030  1.1575  0.5592 -0.3428
 1331SOL    HW215630   2.741   1.739   7.024  0.0860  1.9535  2.3732
 1332SOL     OW15631   2.603   1.601  17.446  0.3598 -0.1277  0.2457
 1332SOL    HW115632   2.598   1.616  17.540 -2.5467  0.0796  0.0832
 1332SOL    HW215633   2.564   1.677  17.403  0.6138 -0.7377 -1.0973
 1333SOL     OW15634   1.075   3.445   3.513  0.1246  0.3416  0.5196
 1333SOL    HW115635   1.023   3.404   3.444  0.6529  0.9623 -0.2608
 1333SOL    HW215636   1.163   3.429   3.478 -0.1844  1.7129 -0.9270
 1334SOL     OW15637   3.568   3.148   8.008  0.9295 -0.0776  0.5161
 1334SOL    HW115638   3.541   3.114   7.923 -0.2226  1.4950  0.2419
 1334SOL    HW215639   3.514   3.225   8.025 -1.4093 -1.5824 -0.1520
 1335SOL     OW15640   2.832   1.031   9.999 -0.0610  0.1316  0.5327
 1335SOL    HW115641   2.829   1.108   9.943 -1.5615  0.6787  1.3719
 1335SOL    HW215642   2.740   1.005   9.989  0.3268 -0.7807 -0.7057
 1336SOL     OW15643   2.121   2.669   2.759 -0.2418  0.0111 -0.0641
 1336SOL    HW115644   2.160   2.740   2.708  1.2473 -0.0247  1.0361
 1336SOL    HW215645   2.113   2.714   2.843  0.8850 -1.4861  0.8375
 1337SOL     OW15646   4.002   1.584   9.165  0.1679 -0.2060 -0.1913
 1337SOL    HW115647   3.941   1.558   9.234  0.6830  0.6993  0.6055
 1337SOL    HW215648   4.079   1.530   9.185 -0.1722 -0.5040  0.3130
 1338SOL     OW15649   2.242   1.066  14.126 -0.6591  0.1683 -0.1770
 1338SOL    HW115650   2.334   1.075  14.151 -1.1035  0.1138  1.4735
 1338SOL    HW215651   2.251   0.976  14.097  0.1982 -0.0880  0.8869
 1339SOL     OW15652   4.587   1.561  10.145 -0.1961 -0.2432  0.1623
 1339SOL    HW115653   4.552   1.520  10.224  0.1708  2.8561  1.9218
 1339SOL    HW215654   4.560   1.653  10.142  1.6012  0.3925  2.4763
 1340SOL     OW15655   2.021   0.980   4.819 -0.0785  0.1741 -0.1904
 1340SOL    HW115656   1.977   1.045   4.764 -0.8264  1.0520  1.4506
 1340SOL    HW215657   1.961   0.906   4.807  0.6164 -0.4031 -0.0921
 1341SOL     OW15658   1.110   2.970   9.499 -0.3237 -0.3246  0.0904
 1341SOL    HW115659   1.153   2.999   9.419 -1.5901 -0.4475 -0.6383
 1341SOL    HW215660   1.169   2.897   9.519 -0.7800 -0.8182 -0.3522
 1342SOL     OW15661   1.913   3.675   1.906  0.6475  0.6316 -0.1328
 1342SOL    HW115662   1.828   3.717   1.917  0.3236  0.6621 -2.8140
 1342SOL    HW215663   1.972   3.748   1.889  1.5639  0.0348  0.4620
 1343SOL     OW15664   0.828   0.971   8.316 -0.6612  0.6893  0.8077
 1343SOL    HW115665   0.768   1.016   8.376 -0.1334 -0.9537  2.5742
 1343SOL    HW215666   0.867   1.046   8.271 -0.5071 -0.6738 -1.2909
 1344SOL     OW15667   2.715   3.912  13.971 -0.6655 -0.0591 -0.3225
 1344SOL    HW115668   2.693   4.000  13.942 -0.3686  0.8990  2.3639
 1344SOL    HW215669   2.803   3.919  14.006 -1.3628  3.9746  0.6786
 1345SOL     OW15670   3.052   1.042   4.184 -0.4266 -0.2845 -0.0569
 1345SOL    HW115671   3.105   0.978   4.231  0.9638  0.7941 -0.1587
 1345SOL    HW215672   3.042   1.010   4.094 -0.4579  1.5278 -0.6973
 1346SOL     OW15673   4.679   2.075   8.274 -0.1301  0.1192  0.3410
 1346SOL    HW115674   4.655   2.138   8.206  0.7872 -0.6596 -0.7104
 1346SOL    HW215675   0.019   2.118   8.301  0.5682 -1.1241  0.2620
 1347SOL     OW15676   2.491   0.509   1.893 -0.0202 -0.7447  0.3124
 1347SOL    HW115677   2.475   0.546   1.981  1.6732 -1.5281  0.9426
 1347SOL    HW215678   2.518   0.419   1.910 -0.1684 -1.2089 -1.9954
 1348SOL     OW15679   2.032   1.513  10.213  0.1257  0.1285  0.6254
 1348SOL    HW115680   1.966   1.577  10.237  0.5079  1.2874 -1.4255
 1348SOL    HW215681   1.998   1.436  10.258  0.0555  1.1017  2.2307
 1349SOL     OW15682   1.750   0.659   5.126 -0.4652 -0.7263 -0.3994
 1349SOL    HW115683   1.666   0.614   5.131 -0.0265 -1.3506  1.2682
 1349SOL    HW215684   1.787   0.619   5.205 -3.9370 -1.5037  0.8004
 1350SOL     OW15685   3.036   2.791   5.050  0.3122  0.0630 -0.2515
 1350SOL    HW115686   2.980   2.725   5.091 -1.9580  0.9877 -1.8426
 1350SOL    HW215687   3.039   2.756   4.961  0.5000 -0.1034 -0.1790
 1351SOL     OW15688   3.975   3.839   1.111 -0.0790 -0.0971 -0.1287
 1351SOL    HW115689   3.888   3.818   1.146 -0.2956 -1.6981 -1.6003
 1351SOL    HW215690   4.000   3.760   1.062  1.7004  0.9215 -0.8505
 1352SOL     OW15691   2.725   3.534   3.728  0.3905 -0.0001  0.2968
 1352SOL    HW115692   2.763   3.480   3.797 -0.3854  0.0614  0.7840
 1352SOL    HW215693   2.708   3.622   3.763 -0.0178 -0.6109  1.6121
 1353SOL     OW15694   0.661   2.267   3.283 -0.1201 -0.5092 -0.6293
 1353SOL    HW115695   0.676   2.228   3.198 -2.2787  0.1906 -1.3324
 1353SOL    HW215696   0.745   2.307   3.307  0.5986  0.0410 -4.1095
 1354SOL     OW15697   4.444   4.485   5.525 -0.0122 -0.1407 -0.4286
 1354SOL    HW115698   4.448   4.397   5.564 -0.5668 -0.1131 -0.3187
 1354SOL    HW215699   4.352   4.508   5.512  0.3279 -0.6417 -3.6891
 1355SOL     OW15700   3.425   4.075   5.185 -0.1740 -0.3970  0.0401
 1355SOL    HW115701   3.438   4.170   5.188  0.8740 -0.5031 -1.4652
 1355SOL    HW215702   3.449   4.044   5.273  0.6323  2.2385  0.7449
 1356SOL     OW15703   3.786   0.029  11.226  0.6008  0.6188  0.7830
 1356SOL    HW115704   3.832   4.717  11.292 -1.4832 -1.5316  0.5146
 1356SOL    HW215705   3.835   4.733  11.152 -0.1808 -1.9081  1.4971
 1357SOL     OW15706   2.394   0.426   1.322  0.0421 -0.1175  1.0773
 1357SOL    HW115707   2.362   0.351   1.372 -0.4844 -0.8401 -0.3453
 1357SOL    HW215708   2.349   0.497   1.368  1.9288  1.3466  0.7080
 1358SOL     OW15709   3.273   3.857   5.117  0.2167  0.1393 -0.4601
 1358SOL    HW115710   3.338   3.915   5.157 -0.1298  0.9243 -1.0329
 1358SOL    HW215711   3.250   3.904   5.037 -0.5260 -1.6424 -1.2968
 1359SOL     OW15712   4.731   4.041   7.589 -0.3482  0.3824 -0.4598
 1359SOL    HW115713   4.699   4.006   7.506  2.3631  1.0559 -1.7779
 1359SOL    HW215714   0.028   4.124   7.560  1.4106 -1.0783 -2.3691
 1360SOL     OW15715   2.032   1.141   8.013  0.2524  0.7042  0.0379
 1360SOL    HW115716   2.017   1.209   8.078 -3.5223  0.2820 -0.4307
 1360SOL    HW215717   1.942   1.115   7.993  0.5654 -0.9431  0.7178
 1361SOL     OW15718   3.742   2.277   5.288  0.2241  0.3714  0.0987
 1361SOL    HW115719   3.746   2.214   5.360  0.3972  0.8360  0.4962
 1361SOL    HW215720   3.791   2.222   5.226 -0.1293 -1.1639  1.1912
 1362SOL     OW15721   4.364   2.644   4.338  0.5335  0.1307  0.1234
 1362SOL    HW115722   4.381   2.620   4.429  2.1072 -0.5386 -0.3285
 1362SOL    HW215723   4.417   2.724   4.333 -1.3544  1.3805  0.2342
 1363SOL     OW15724   2.676   1.700   1.542 -0.1392 -0.3244 -0.0194
 1363SOL    HW115725   2.594   1.741   1.568  0.8177  0.8480  1.1350
 1363SOL    HW215726   2.732   1.776   1.529 -1.5326  0.8659  0.9031
 1364SOL     OW15727   1.145   3.742   4.178 -0.1277  0.0291  0.1740
 1364SOL    HW115728   1.195   3.661   4.190 -1.2476 -0.4766  1.4265
 1364SOL    HW215729   1.064   3.699   4.149 -1.6168  2.2003  1.0716
 1365SOL     OW15730   4.627   0.173   6.738  0.9539 -0.0284  0.8981
 1365SOL    HW115731   4.669   0.088   6.755  0.5168 -0.3731  0.2436
 1365SOL    HW215732   4.651   0.220   6.818 -1.9598 -0.0858  1.7933
 1366SOL     OW15733   2.145   4.184   8.879 -0.3002  0.0466 -0.5656
 1366SOL    HW115734   2.189   4.176   8.794 -2.6282  0.0539 -1.7516
 1366SOL    HW215735   2.204   4.127   8.929  0.7526  0.1047 -1.7473
 1367SOL     OW15736   2.136   3.994   0.821  0.2645  0.1874 -0.5475
 1367SOL    HW115737   2.127   3.900   0.840  1.0657  0.2892  0.3058
 1367SOL    HW215738   2.099   4.029   0.902 -0.1458 -0.2424 -0.5438
 1368SOL     OW15739   1.167   1.530   6.366  0.0312 -0.4000  0.5539
 1368SOL    HW115740   1.187   1.608   6.418 -2.0294 -1.0721  2.3212
 1368SOL    HW215741   1.101   1.560   6.304  0.6504  0.5417  0.3367
 1369SOL     OW15742   1.879   0.760   7.391  0.2154  0.1132  0.2113
 1369SOL    HW115743   1.832   0.834   7.428  0.1710  0.0344  0.3117
 1369SOL    HW215744   1.823   0.756   7.314  0.4508  1.4722 -0.0221
 1370SOL     OW15745   2.570   2.053   2.930  0.3591 -0.4909 -0.4107
 1370SOL    HW115746   2.496   2.034   2.871 -0.9444 -0.8094  1.3394
 1370SOL    HW215747   2.563   2.148   2.925 -1.1536 -0.5247  1.2258
 1371SOL     OW15748   0.741   4.558   8.760  0.7059  0.0826  0.5055
 1371SOL    HW115749   0.658   4.528   8.800  0.0968 -0.3003 -1.0605
 1371SOL    HW215750   0.792   4.477   8.756 -1.0826 -1.0220 -0.3449
 1372SOL     OW15751   0.953   2.785   4.708 -0.0082 -0.3200  0.6319
 1372SOL    HW115752   0.985   2.714   4.762  1.0403 -0.8414 -0.6714
 1372SOL    HW215753   0.934   2.855   4.771  0.1510  0.4816 -0.1928
 1373SOL     OW15754   3.478   2.333   4.045  0.3685  0.0403 -0.0329
 1373SOL    HW115755   3.520   2.371   4.122  1.3368  2.2619 -1.6551
 1373SOL    HW215756   3.429   2.410   4.013  1.1975  0.8079  0.5432
 1374SOL     OW15757   2.670   0.907  17.234  0.2683 -0.2767 -0.0881
 1374SOL    HW115758   2.758   0.880  17.206 -0.1254 -1.7263  0.0967
 1374SOL    HW215759   2.619   0.858  17.170 -1.1413 -0.4713  1.1826
 1375SOL     OW15760   0.280   0.509   5.949 -0.1304  0.2854  0.6085
 1375SOL    HW115761   0.313   0.439   6.005 -0.3879 -0.5843 -0.3291
 1375SOL    HW215762   0.317   0.582   6.000  0.0395  0.5403  0.1269
 1376SOL     OW15763   1.915   4.208   1.633 -0.6530 -0.5974  0.4424
 1376SOL    HW115764   1.991   4.150   1.626  0.3759  1.2173 -2.8491
 1376SOL    HW215765   1.910   4.240   1.543 -2.4211 -0.3439  0.6317
 1377SOL     OW15766   0.235   1.094  14.452  0.1707  0.3645 -0.4358
 1377SOL    HW115767   0.187   1.044  14.386 -0.1782 -0.6047  0.5478
 1377SOL    HW215768   0.218   1.182  14.419 -0.1609  0.0377 -1.1327
 1378SOL     OW15769   3.366   3.286   8.153  0.2122  0.1857  0.4058
 1378SOL    HW115770   3.302   3.281   8.224 -0.8229 -0.0189 -0.5271
 1378SOL    HW215771   3.329   3.356   8.098 -0.3171  0.0562  0.5953
 1379SOL     OW15772   1.300   3.183   0.491 -0.5501  0.3615  0.0414
 1379SOL    HW115773   1.331   3.260   0.539 -0.3240  0.7564 -0.7336
 1379SOL    HW215774   1.215   3.212   0.458  0.3034 -0.0988 -2.5750
 1380SOL     OW15775   0.515   2.864  12.566 -0.0114  0.0947 -0.1047
 1380SOL    HW115776   0.476   2.857  12.479  0.1660  2.4603 -0.3753
 1380SOL    HW215777   0.547   2.775  12.579 -1.3188 -0.1528  1.4599
 1381SOL     OW15778   3.083   3.247   3.707  0.5759  0.1231  0.2835
 1381SOL    HW115779   3.176   3.255   3.686  0.4608 -1.4334 -0.8055
 1381SOL    HW215780   3.069   3.325   3.761  0.6789  0.9168 -0.8446
 1382SOL     OW15781   4.299   2.377  12.399  0.2003  0.0170  0.4503
 1382SOL    HW115782   4.280   2.450  12.457 -1.4899  0.6013 -0.8398
 1382SOL    HW215783   4.294   2.414  12.311  3.5169  1.9583  1.0972
 1383SOL     OW15784   3.123   1.918   3.962 -0.8090 -0.3870 -0.4163
 1383SOL    HW115785   3.062   1.960   3.900 -1.0727 -0.4818 -0.2225
 1383SOL    HW215786   3.070   1.945   4.037  0.2775  5.2267 -1.6903
 1384SOL     OW15787   4.385   0.356   0.654 -0.8252  0.1196  0.0335
 1384SOL    HW115788   4.443   0.428   0.629  0.5463  0.3692  3.8686
 1384SOL    HW215789   4.319   0.394   0.712  0.3054  1.6234  0.3527
 1385SOL     OW15790   2.214   3.576   2.382  0.1390 -0.6204 -0.2434
 1385SOL    HW115791   2.158   3.502   2.357 -0.2982 -0.9002  1.5611
 1385SOL    HW215792   2.247   3.620   2.305  0.7830  2.5227  1.8420
 1386SOL     OW15793   1.136   1.985   5.887  0.1027  0.2880 -0.0867
 1386SOL    HW115794   1.058   2.020   5.929 -0.0909  0.4143 -0.5440
 1386SOL    HW215795   1.171   1.926   5.954 -0.0742  1.6834  1.2208
 1387SOL     OW15796   3.870   4.582   5.382  0.3365 -0.0216  0.1204
 1387SOL    HW115797   3.889   4.489   5.396 -2.6419 -0.4264  1.4487
 1387SOL    HW215798   3.816   4.579   5.304 -0.6596  0.1671  0.7989
 1388SOL     OW15799   4.410   3.655   6.833 -0.2103  0.5691 -0.1297
 1388SOL    HW115800   4.354   3.732   6.836 -0.5614  0.2931  0.4093
 1388SOL    HW215801   4.485   3.692   6.787  0.7384 -0.4724  0.5654
 1389SOL     OW15802   1.619   4.062   4.047  0.1046 -0.1445  0.3511
 1389SOL    HW115803   1.575   4.041   3.965 -0.5862 -0.8391  0.8971
 1389SOL    HW215804   1.559   4.041   4.118  0.5594  0.0969  0.8123
 1390SOL     OW15805   3.887   1.650   6.429  0.1698 -0.3667  0.0006
 1390SOL    HW115806   3.888   1.690   6.516  1.2318  0.2469 -0.2844
 1390SOL    HW215807   3.797   1.618   6.429 -0.0675  0.3018  0.5771
 1391SOL     OW15808   3.648   1.018   4.408  0.5355 -0.4447 -0.1677
 1391SOL    HW115809   3.663   0.938   4.459  0.3602  0.5275  1.3976
 1391SOL    HW215810   3.677   1.083   4.472 -1.7097 -0.3910  0.8090
 1392SOL     OW15811   0.682   0.677   7.362 -0.1805 -0.8205 -0.6594
 1392SOL    HW115812   0.711   0.729   7.287  0.9788 -2.2585 -1.1948
 1392SOL    HW215813   0.685   0.731   7.441 -1.3326 -1.1995 -0.3630
 1393SOL     OW15814   0.765   1.045   2.661 -0.3382  0.1610 -0.0947
 1393SOL    HW115815   0.837   1.086   2.709 -1.5682  1.6227  0.5278
 1393SOL    HW215816   0.696   1.056   2.726 -0.5454  1.4384 -0.5176
 1394SOL     OW15817   4.603   0.854  10.846  0.2110  0.1225  0.1211
 1394SOL    HW115818   4.582   0.863  10.939  1.5040  2.2656  0.2053
 1394SOL    HW215819   4.602   0.944  10.814 -0.3820  0.4102  0.9697
 1395SOL     OW15820   4.088   1.999   4.109 -0.0090  0.2620  0.0696
 1395SOL    HW115821   4.104   2.083   4.152  0.6661 -0.1990  0.7192
 1395SOL    HW215822   4.025   2.037   4.048 -0.9368  0.1686  0.9609
 1396SOL     OW15823   4.328   3.255   9.284 -0.3685 -0.2659  0.5087
 1396SOL    HW115824   4.365   3.242   9.371 -2.0702  1.3077  1.4648
 1396SOL    HW215825   4.372   3.339   9.272  0.5149 -0.7250  0.5676
 1397SOL     OW15826   0.992   3.050   8.981 -0.1560 -0.1695  0.1127
 1397SOL    HW115827   1.013   3.143   8.968 -3.5180  0.4356 -0.7758
 1397SOL    HW215828   1.074   3.033   9.028  0.5932 -2.5083 -2.0367
 1398SOL     OW15829   3.890   1.512   5.273 -0.1851  0.8252 -0.1796
 1398SOL    HW115830   3.896   1.430   5.323 -1.2849 -0.6530 -2.4396
 1398SOL    HW215831   3.856   1.564   5.345 -3.0272  0.6372 -1.3744
 1399SOL     OW15832   4.253   1.750   6.469 -0.0960 -0.3274 -0.2723
 1399SOL    HW115833   4.265   1.785   6.381  1.1502 -2.4399 -0.9311
 1399SOL    HW215834   4.207   1.668   6.447 -1.5402  0.6217 -0.7967
 1400SOL     OW15835   0.783   4.002   2.812 -0.2725 -0.1733  0.6778
 1400SOL    HW115836   0.770   3.908   2.820  1.1749 -0.6961 -3.2885
 1400SOL    HW215837   0.858   4.019   2.870 -0.5409  1.0645  0.6526
 1401SOL     OW15838   4.334   0.102   4.710  0.1061  0.5455  0.1655
 1401SOL    HW115839   4.384   0.179   4.735 -0.4873  0.4932  1.4962
 1401SOL    HW215840   4.246   0.114   4.745 -0.2064 -1.3912  0.0676
 1402SOL     OW15841   0.454   2.330   3.461 -0.0387  0.2500 -0.0622
 1402SOL    HW115842   0.524   2.290   3.410  0.7565 -1.8229  2.6410
 1402SOL    HW215843   0.500   2.413   3.473 -0.4441  0.5474 -0.5518
 1403SOL     OW15844   1.608   4.545  10.351 -0.5818  0.4750  0.5536
 1403SOL    HW115845   1.679   4.581  10.404 -1.7532  1.6511  1.3235
 1403SOL    HW215846   1.620   4.451  10.334 -1.1059  0.7068 -1.0618
 1404SOL     OW15847   2.261   1.769  16.727  0.0315  0.1543 -0.8211
 1404SOL    HW115848   2.166   1.760  16.727 -0.0400  0.9568 -0.8603
 1404SOL    HW215849   2.273   1.746  16.635  3.3674 -0.5848 -0.2249
 1405SOL     OW15850   0.763   0.478   9.618 -0.3034 -0.1661 -0.0840
 1405SOL    HW115851   0.706   0.400   9.624 -0.6503  0.0737 -0.2885
 1405SOL    HW215852   0.791   0.485   9.527 -1.3716 -4.2716 -0.7524
 1406SOL     OW15853   0.221   3.123   5.001 -0.0562 -0.6682 -0.2416
 1406SOL    HW115854   0.215   3.208   5.045  1.5142  0.0187 -1.3782
 1406SOL    HW215855   0.315   3.107   5.010  0.1651  0.5918 -0.3159
 1407SOL     OW15856   3.137   1.347   2.937 -0.5002  0.2494  0.2294
 1407SOL    HW115857   3.170   1.417   2.993  0.7023  0.0570 -0.2398
 1407SOL    HW215858   3.094   1.405   2.875 -0.5798  3.2150  3.0372
 1408SOL     OW15859   2.759   4.009   6.524 -0.2456  0.4580 -0.4747
 1408SOL    HW115860   2.828   4.057   6.570 -0.2188 -0.1698  0.1377
 1408SOL    HW215861   2.690   4.076   6.526 -0.3199  0.4589 -3.2108
 1409SOL     OW15862   1.700   4.517   2.572 -0.1822 -0.2093  0.1824
 1409SOL    HW115863   1.721   4.611   2.568 -0.5063 -0.2411 -1.8646
 1409SOL    HW215864   1.695   4.507   2.667 -1.1190  2.4608  0.4390
 1410SOL     OW15865   1.150   4.514   2.379 -0.2221 -0.1624  0.1558
 1410SOL    HW115866   1.118   4.517   2.289 -1.9386  0.1814  0.7860
 1410SOL    HW215867   1.076   4.475   2.424 -1.5089  1.8889 -0.1587
 1411SOL     OW15868   3.550   1.273   8.054  0.5714  0.0736  0.2907
 1411SOL    HW115869   3.548   1.277   7.959  1.8044 -0.6156  0.2379
 1411SOL    HW215870   3.568   1.365   8.075 -1.0865  0.4155  0.2362
 1412SOL     OW15871   2.114   0.438   5.212  0.0077 -0.2109 -0.6986
 1412SOL    HW115872   2.173   0.362   5.212  0.0570 -0.1774 -1.4282
 1412SOL    HW215873   2.038   0.396   5.171 -0.5868  0.5225 -0.3333
 1413SOL     OW15874   1.069   1.451   7.638  0.0724 -0.0939  0.0298
 1413SOL    HW115875   1.009   1.519   7.607 -1.1545 -1.2144 -0.0274
 1413SOL    HW215876   1.020   1.372   7.617  0.9268 -0.7427  0.4867
 1414SOL     OW15877   3.919   0.844   6.684  0.2612  0.1074  0.2782
 1414SOL    HW115878   3.848   0.903   6.711  0.3176 -0.7807  2.3910
 1414SOL    HW215879   3.974   0.836   6.762 -0.3474 -0.8031  0.6065
 1415SOL     OW15880   4.488   1.119   7.747  0.4036 -0.1865 -0.4946
 1415SOL    HW115881   4.513   1.203   7.784 -0.9778 -0.3157  0.7122
 1415SOL    HW215882   4.393   1.132   7.742  0.1999 -1.3733  0.0700
 1416SOL     OW15883   2.402   4.739   2.173 -0.0482 -0.1877 -0.4938
 1416SOL    HW115884   2.394   4.738   2.268 -1.3135 -1.3845 -0.6162
 1416SOL    HW215885   2.326   0.045   2.138  0.7134  0.5234 -1.2424
 1417SOL     OW15886   2.600   3.819   6.170  0.4404  0.0224 -1.1616
 1417SOL    HW115887   2.652   3.888   6.210 -1.3921 -0.3837  1.9155
 1417SOL    HW215888   2.547   3.874   6.112 -0.6329 -0.2004 -0.3906
 1418SOL     OW15889   4.152   2.141  11.532  0.1075  0.0590  0.2891
 1418SOL    HW115890   4.210   2.217  11.538 -1.2789  1.0320  1.4072
 1418SOL    HW215891   4.073   2.184  11.499 -0.2110 -0.2057  0.7184
 1419SOL     OW15892   0.973   3.869  14.636  0.3364 -0.2641  0.7508
 1419SOL    HW115893   0.963   3.784  14.593  0.2684 -0.4554  1.1447
 1419SOL    HW215894   0.978   3.850  14.729  1.1692 -0.7442  0.6102
 1420SOL     OW15895   0.566   0.680   3.678 -0.5006 -0.0575 -0.5689
 1420SOL    HW115896   0.611   0.701   3.760  0.2874 -0.5015 -0.8900
 1420SOL    HW215897   0.642   0.705   3.625  1.3216 -0.2323  1.9445
 1421SOL     OW15898   0.406   4.710   5.385  0.4999  0.0195  0.3294
 1421SOL    HW115899   0.457   4.657   5.324  2.6149  1.4566  0.8294
 1421SOL    HW215900   0.413   0.056   5.342 -2.0022  0.3616  0.6289
 1422SOL     OW15901   1.394   1.467   5.037  0.3606 -0.2828 -0.3105
 1422SOL    HW115902   1.364   1.553   5.008 -1.0077  0.1050  2.2674
 1422SOL    HW215903   1.318   1.425   5.077  0.8051 -3.1811 -2.5088
 1423SOL     OW15904   0.699   2.759   8.416 -0.3262 -0.2382  0.0731
 1423SOL    HW115905   0.779   2.812   8.411  1.7406 -3.1698  1.9070
 1423SOL    HW215906   0.722   2.726   8.503  0.5283 -1.7050 -0.7083
 1424SOL     OW15907   1.567   3.830   3.219  0.1840 -0.3391  0.1527
 1424SOL    HW115908   1.658   3.852   3.241  0.8538 -0.8691 -2.0904
 1424SOL    HW215909   1.583   3.779   3.140  0.2540 -1.9517  1.2201
 1425SOL     OW15910   4.081   4.264   4.491 -0.4008 -0.3113  0.4076
 1425SOL    HW115911   4.125   4.256   4.575  2.5483  0.8500 -1.0118
 1425SOL    HW215912   4.084   4.358   4.469 -0.9154 -0.3534  0.1525
 1426SOL     OW15913   1.327   3.853   3.676  0.1840  0.4400  0.3232
 1426SOL    HW115914   1.271   3.776   3.677 -0.4683  0.9470  2.1127
 1426SOL    HW215915   1.382   3.827   3.602  1.1288 -1.7608  1.7716
 1427SOL     OW15916   4.194   3.657  12.028  0.6859 -0.0468 -0.6170
 1427SOL    HW115917   4.248   3.640  11.952 -1.6742  1.0401 -2.5461
 1427SOL    HW215918   4.136   3.582  12.021  0.7531 -0.1241 -0.3465
 1428SOL     OW15919   1.106   4.409   8.627  0.0408 -0.8392 -0.2413
 1428SOL    HW115920   1.048   4.466   8.577 -2.4269 -1.5309  1.8682
 1428SOL    HW215921   1.059   4.325   8.627 -2.6142  0.6397 -1.0917
 1429SOL     OW15922   4.724   1.478   7.584  0.0393 -0.5957  0.0252
 1429SOL    HW115923   0.012   1.517   7.501 -1.5596  0.1166 -0.1707
 1429SOL    HW215924   4.654   1.537   7.610  0.1958 -0.2166 -0.4177
 1430SOL     OW15925   2.498   1.392   5.744  1.1127  0.1042 -0.1561
 1430SOL    HW115926   2.505   1.355   5.657 -2.2751  0.7548 -0.7032
 1430SOL    HW215927   2.582   1.439   5.751 -1.1877  3.8899  1.9266
 1431SOL     OW15928   4.630   3.608   4.495 -0.1630  0.7125 -0.2850
 1431SOL    HW115929   4.634   3.700   4.469 -2.1694  1.5666  2.3855
 1431SOL    HW215930   4.717   3.594   4.532  0.1042  2.0101 -0.4281
 1432SOL     OW15931   3.394   0.416   7.167 -0.1538  0.3395  0.6813
 1432SOL    HW115932   3.395   0.320   7.159 -0.9314  0.4666 -0.9698
 1432SOL    HW215933   3.478   0.428   7.122 -0.1355 -1.3275  0.2434
 1433SOL     OW15934   4.045   1.978   8.493 -0.4352 -0.4358 -0.5419
 1433SOL    HW115935   4.017   1.940   8.576  0.9595  2.2868  1.1663
 1433SOL    HW215936   4.118   2.031   8.523 -0.6511 -1.7949  2.3561
 1434SOL     OW15937   4.102   2.178   8.795  0.5066  0.0034  0.3372
 1434SOL    HW115938   4.011   2.206   8.793 -0.1935 -2.4508 -2.2244
 1434SOL    HW215939   4.116   2.131   8.713  1.0257 -1.4449  1.2659
 1435SOL     OW15940   2.420   1.325   8.528  0.2441  0.1749  0.2711
 1435SOL    HW115941   2.512   1.322   8.556 -0.2129  2.7107  2.0851
 1435SOL    HW215942   2.384   1.253   8.579  0.5843 -0.7612 -0.8153
 1436SOL     OW15943   2.983   3.040   2.284 -0.6511 -0.2062  0.4970
 1436SOL    HW115944   3.052   3.100   2.256  0.9153 -1.7235  1.0784
 1436SOL    HW215945   3.033   2.965   2.316  0.2895 -0.2792 -1.1477
 1437SOL     OW15946   3.556   2.438   0.458 -0.1412 -0.3714  0.1406
 1437SOL    HW115947   3.519   2.356   0.491  0.3925 -1.5300 -2.1289
 1437SOL    HW215948   3.533   2.506   0.522 -0.0379  0.8241 -1.1002
 1438SOL     OW15949   0.503   1.863   5.212 -0.0501  0.5033  0.0321
 1438SOL    HW115950   0.555   1.896   5.138 -0.8153 -1.5191 -1.3910
 1438SOL    HW215951   0.473   1.781   5.172  0.2202  1.9049 -3.1080
 1439SOL     OW15952   3.930   2.294   8.051  0.2617  0.0266  0.2416
 1439SOL    HW115953   3.902   2.230   8.118 -0.7575 -0.6723 -0.8538
 1439SOL    HW215954   3.943   2.229   7.982 -0.2873 -1.0058  1.1151
 1440SOL     OW15955   2.870   3.227   8.581  0.7060  0.1453  0.1904
 1440SOL    HW115956   2.920   3.177   8.647  0.1676 -1.9177 -0.9672
 1440SOL    HW215957   2.870   3.163   8.510  0.6156  0.7116 -0.3090
 1441SOL     OW15958   0.791   1.561   4.710 -0.1784  0.3300 -0.5506
 1441SOL    HW115959   0.849   1.500   4.664  0.5216  0.1888  0.5148
 1441SOL    HW215960   0.787   1.512   4.793 -1.6614  0.6794 -0.4153
 1442SOL     OW15961   3.664   4.364   7.857 -0.2754 -0.5818 -0.9244
 1442SOL    HW115962   3.588   4.414   7.887  0.0212 -0.9422  0.4146
 1442SOL    HW215963   3.662   4.388   7.765  0.7384 -0.5433 -0.9403
 1443SOL     OW15964   1.645   3.714  16.691  0.3033  0.5855 -0.3533
 1443SOL    HW115965   1.638   3.654  16.616  1.4082 -0.5155  0.4297
 1443SOL    HW215966   1.605   3.671  16.766  2.4101  0.7771  0.8606
 1444SOL     OW15967   2.969   2.158   6.317  0.2566 -0.4990 -0.5456
 1444SOL    HW115968   2.898   2.094   6.321  0.6485 -0.8128  1.3908
 1444SOL    HW215969   2.950   2.205   6.235 -0.1944  1.4022  0.6574
 1445SOL     OW15970   2.555   4.240   1.655  0.0188  0.0009  0.0913
 1445SOL    HW115971   2.586   4.308   1.715  2.4665  0.7572 -2.0063
 1445SOL    HW215972   2.615   4.171   1.681  0.4176  0.5236  0.5659
 1446SOL     OW15973   1.970   1.092  17.484  0.1196  0.2196  0.2908
 1446SOL    HW115974   1.908   1.108  17.555  1.4457 -0.4972  1.6051
 1446SOL    HW215975   1.937   1.010  17.449 -0.5042  0.3607  0.5477
 1447SOL     OW15976   1.484   2.053   7.420 -1.2728  0.0098  0.5127
 1447SOL    HW115977   1.448   2.142   7.426 -1.7485 -0.0702 -1.3656
 1447SOL    HW215978   1.562   2.055   7.476  1.2927  0.0186 -3.1257
 1448SOL     OW15979   2.243   0.692   1.338  0.1402 -0.1853 -0.0719
 1448SOL    HW115980   2.235   0.773   1.389  0.3798  0.2993 -0.8073
 1448SOL    HW215981   2.195   0.720   1.260 -0.0431  1.1060  0.5002
 1449SOL     OW15982   0.640   2.037   2.307 -0.0042 -0.1979 -0.6124
 1449SOL    HW115983   0.713   2.010   2.252 -0.0938 -0.0721 -0.7917
 1449SOL    HW215984   0.560   1.996   2.272  0.1527  0.2095 -1.4296
 1450SOL     OW15985   0.356   3.344   5.128  0.0208 -0.3502  0.1136
 1450SOL    HW115986   0.299   3.421   5.138 -2.3016 -2.1848  0.9971
 1450SOL    HW215987   0.438   3.382   5.095  1.1810 -0.4264  2.8932
 1451SOL     OW15988   0.861   3.338   5.562 -0.7167 -0.2610 -0.1154
 1451SOL    HW115989   0.808   3.394   5.618 -1.3101 -0.3371 -0.5964
 1451SOL    HW215990   0.850   3.257   5.613 -0.5664 -0.4917 -0.4478
 1452SOL     OW15991   3.233   1.742   9.103 -0.0610  0.7198 -0.0180
 1452SOL    HW115992   3.312   1.795   9.092  2.2546 -2.5532  0.8458
 1452SOL    HW215993   3.163   1.807   9.110 -0.3403  0.4611 -0.3887
 1453SOL     OW15994   4.366   1.948   7.588 -0.0991 -0.1688  0.3400
 1453SOL    HW115995   4.350   2.014   7.656 -0.9373  0.4152 -0.4365
 1453SOL    HW215996   4.440   1.901   7.628  1.6868  1.0682 -1.5016
 1454SOL     OW15997   0.103   3.942  17.715  0.0023  0.9795 -0.1722
 1454SOL    HW115998   0.070   4.025  17.750 -2.0379  0.0043  0.2711
 1454SOL    HW215999   0.193   3.949  17.745  0.4828 -0.9551 -1.2179
 1455SOL     OW16000   0.245   4.469   8.790 -0.8865  0.3601  0.2373
 1455SOL    HW116001   0.204   4.555   8.778 -1.1007 -0.2595 -3.4263
 1455SOL    HW216002   0.219   4.454   8.880 -0.9786  0.6790  0.2619
 1456SOL     OW16003   2.576   4.462   8.095 -0.3072  0.3327 -0.4763
 1456SOL    HW116004   2.505   4.400   8.113  0.0210 -0.4718 -2.0216
 1456SOL    HW216005   2.556   4.531   8.159 -0.8048 -0.8473  0.6344
 1457SOL     OW16006   3.980   0.021   5.927 -0.4852  0.1356  0.9497
 1457SOL    HW116007   4.049   4.710   5.885 -2.1672  0.6217 -2.3885
 1457SOL    HW216008   3.987   4.729   6.017  0.3908 -0.2558  0.7474
 1458SOL     OW16009   0.877   1.653  16.190  0.2603 -0.1458  0.1819
 1458SOL    HW116010   0.830   1.671  16.271 -0.4748  0.1257 -0.3002
 1458SOL    HW216011   0.823   1.577  16.170 -0.8876  0.1042  2.3304
 1459SOL     OW16012   0.620   3.650   3.289  0.0830 -0.8035  0.0593
 1459SOL    HW116013   0.618   3.743   3.267  0.2765 -0.6214  0.8054
 1459SOL    HW216014   0.564   3.655   3.366 -1.0061  3.0313 -0.9955
 1460SOL     OW16015   2.597   1.496   9.717  0.3459  0.3265 -0.2108
 1460SOL    HW116016   2.621   1.589   9.723  2.7686 -0.2834 -0.4178
 1460SOL    HW216017   2.504   1.492   9.740  0.2676  2.6681 -0.1054
 1461SOL     OW16018   4.234   0.265  12.170 -0.3592 -0.0099 -0.0889
 1461SOL    HW116019   4.179   0.217  12.232 -2.8200  0.6075 -1.7762
 1461SOL    HW216020   4.271   0.330  12.229 -1.9538  0.2829  0.5781
 1462SOL     OW16021   3.290   1.498   2.760  0.2220  0.6492  0.1157
 1462SOL    HW116022   3.294   1.541   2.845 -0.6524  1.4812 -0.2737
 1462SOL    HW216023   3.271   1.565   2.695  2.0542  1.4617  0.3984
 1463SOL     OW16024   3.919   3.426   4.457  0.1850  0.5867  0.0966
 1463SOL    HW116025   3.926   3.434   4.362  3.0308 -0.0986  0.2465
 1463SOL    HW216026   4.012   3.417   4.479 -0.1470 -1.6000  0.6344
 1464SOL     OW16027   3.567   0.080   1.720 -0.0921 -0.0089  0.7257
 1464SOL    HW116028   3.480   0.118   1.734  0.6871  1.8080  0.6401
 1464SOL    HW216029   3.574   4.737   1.767  1.9754 -0.3032 -0.0654
 1465SOL     OW16030   1.334   3.504   7.996  0.8460  0.6026  0.0474
 1465SOL    HW116031   1.398   3.544   7.938  0.1207 -3.0544 -3.3186
 1465SOL    HW216032   1.322   3.571   8.063 -1.1570 -0.7621  1.0637
 1466SOL     OW16033   3.726   0.401  17.503  0.2325 -0.1711  0.1302
 1466SOL    HW116034   3.640   0.384  17.466 -0.2859  1.4949  0.5710
 1466SOL    HW216035   3.702   0.472  17.562  1.8505 -0.0230  0.6129
 1467SOL     OW16036   3.977   0.564   3.400  0.1604 -0.2989  0.2784
 1467SOL    HW116037   3.933   0.516   3.330  0.0905 -1.5493  1.1787
 1467SOL    HW216038   3.943   0.513   3.474 -1.4395  1.2283  0.5762
 1468SOL     OW16039   1.831   1.348   3.121 -0.5766  0.4692  0.0430
 1468SOL    HW116040   1.870   1.427   3.083 -0.5358  0.9225  1.0428
 1468SOL    HW216041   1.781   1.317   3.045 -1.3290 -1.6446  1.4120
 1469SOL     OW16042   3.499   2.448   9.566 -0.6287 -0.4042 -0.4140
 1469SOL    HW116043   3.571   2.458   9.504  1.7071 -1.8492  2.0433
 1469SOL    HW216044   3.547   2.447   9.649  1.1015  0.0719 -1.4058
 1470SOL     OW16045   3.953   2.954   0.457  0.3646 -0.0204 -0.4917
 1470SOL    HW116046   4.044   2.973   0.432  0.0341 -0.6964 -2.1626
 1470SOL    HW216047   3.922   2.930   0.370 -1.2245  0.6374 -0.1011
 1471SOL     OW16048   0.148   2.027  12.313 -0.2008 -0.2197  0.2897
 1471SOL    HW116049   0.110   2.087  12.377 -0.9853 -1.3970  0.9258
 1471SOL    HW216050   0.237   2.062  12.303  0.0859 -0.9404  0.2517
 1472SOL     OW16051   2.825   4.521   7.253  0.4750  0.0101 -0.2047
 1472SOL    HW116052   2.765   4.473   7.196  0.4549 -1.8465  1.3548
 1472SOL    HW216053   2.904   4.502   7.203 -0.7944  0.0630 -2.2392
 1473SOL     OW16054   3.111   4.072   4.432 -0.0682 -0.4706 -0.1491
 1473SOL    HW116055   3.135   4.058   4.523 -0.6809  1.8132  0.3776
 1473SOL    HW216056   3.191   4.080   4.381 -0.7265  0.6057 -1.0342
 1474SOL     OW16057   2.456   4.422   4.270 -0.0453 -0.1255  0.1773
 1474SOL    HW116058   2.520   4.402   4.338 -0.9207  1.2869  1.4197
 1474SOL    HW216059   2.472   4.351   4.209 -1.9555 -1.6067  1.3959
 1475SOL     OW16060   2.257   2.373   3.584  0.0261 -0.2774  0.0002
 1475SOL    HW116061   2.165   2.369   3.612 -0.9557  0.1213 -3.1842
 1475SOL    HW216062   2.281   2.282   3.603  1.3395 -0.4764 -2.5287
 1476SOL     OW16063   2.231   2.548   0.699 -0.0100  0.1994 -0.6036
 1476SOL    HW116064   2.269   2.627   0.663 -0.3390 -0.3326 -2.1145
 1476SOL    HW216065   2.146   2.555   0.656 -0.1635 -1.4802 -0.5766
 1477SOL     OW16066   3.592   2.042   5.341  0.6095  0.2342 -0.1866
 1477SOL    HW116067   3.552   1.965   5.299  0.2983 -0.6029  1.6407
 1477SOL    HW216068   3.584   2.025   5.435 -2.0947  1.0201 -0.2867
 1478SOL     OW16069   0.502   3.442   8.865 -0.5110 -0.0395  0.0797
 1478SOL    HW116070   0.423   3.416   8.817 -0.5255  0.2688 -0.0669
 1478SOL    HW216071   0.497   3.538   8.867 -0.4877 -0.0735  1.7864
 1479SOL     OW16072   2.189   2.939   3.987  0.7453 -0.7672  0.1978
 1479SOL    HW116073   2.211   2.860   4.037  1.1487  1.5614  3.7221
 1479SOL    HW216074   2.094   2.928   3.978  0.5333  1.3243 -0.0207
 1480SOL     OW16075   4.221   2.372   2.914 -0.1101 -0.0740  0.0458
 1480SOL    HW116076   4.214   2.413   3.000 -0.6254 -0.1042  0.0206
 1480SOL    HW216077   4.133   2.335   2.906  0.5023 -1.4313 -0.4151
 1481SOL     OW16078   2.290   2.754   4.645  0.4136 -0.7810 -0.1634
 1481SOL    HW116079   2.244   2.720   4.722  0.3573 -0.9665 -0.2782
 1481SOL    HW216080   2.381   2.756   4.675  0.1323 -1.5148  0.7519
 1482SOL     OW16081   2.786   1.449   0.375  0.2037 -0.6690  0.7171
 1482SOL    HW116082   2.769   1.358   0.398  0.3074 -0.8109  0.2286
 1482SOL    HW216083   2.754   1.493   0.453 -1.4387 -0.9609  0.2219
 1483SOL     OW16084   3.564   0.688   3.744 -0.0628 -0.8101  0.1631
 1483SOL    HW116085   3.656   0.716   3.741 -1.2430  2.9874  0.2322
 1483SOL    HW216086   3.559   0.593   3.731 -1.4231 -0.5413 -1.1874
 1484SOL     OW16087   1.060   2.506   6.383 -0.2019  0.3647  0.0034
 1484SOL    HW116088   1.096   2.484   6.297  0.1911 -0.6848  0.4309
 1484SOL    HW216089   1.026   2.420   6.411  0.7113 -0.3272 -1.0132
 1485SOL     OW16090   3.259   2.599  11.103  0.1826  0.1703 -0.3493
 1485SOL    HW116091   3.242   2.506  11.092 -2.4677  0.6234 -0.1134
 1485SOL    HW216092   3.174   2.624  11.140 -0.2843 -1.6173 -0.2127
 1486SOL     OW16093   1.769   3.083  14.024 -0.2278 -0.2293 -0.2820
 1486SOL    HW116094   1.702   3.029  13.984 -0.7870 -1.4500  2.3303
 1486SOL    HW216095   1.827   3.012  14.051  2.4786  1.7875 -0.6699
 1487SOL     OW16096   0.411   3.949   9.479  0.0211  0.0202  0.2651
 1487SOL    HW116097   0.488   3.998   9.508  0.3629  0.3560 -1.1943
 1487SOL    HW216098   0.342   3.992   9.529  1.4839  1.5959  0.9412
 1488SOL     OW16099   3.837   2.983   1.009  0.3712  0.0747 -0.2356
 1488SOL    HW116100   3.804   2.898   1.039 -0.0884  0.4438  0.2956
 1488SOL    HW216101   3.848   3.025   1.094 -2.0248  0.4446 -0.1257
 1489SOL     OW16102   1.675   3.355  10.140 -0.3778  0.0153  0.0022
 1489SOL    HW116103   1.715   3.307  10.068 -0.4456 -1.7832  1.1492
 1489SOL    HW216104   1.623   3.418  10.091 -0.6769  0.1399  0.4754
 1490SOL     OW16105   3.049   1.643   8.884  0.5156  0.7120 -0.0238
 1490SOL    HW116106   3.129   1.656   8.935 -1.1190  1.3392  2.4038
 1490SOL    HW216107   3.082   1.610   8.800 -1.2614 -1.0952 -0.0083
 1491SOL     OW16108   0.921   0.566   3.504  0.4821 -0.1895  0.5520
 1491SOL    HW116109   0.870   0.646   3.493 -1.1591 -1.2085  0.7444
 1491SOL    HW216110   1.007   0.593   3.473  0.7318 -0.5958  0.8857
 1492SOL     OW16111   2.307   3.113  11.113 -0.2346 -0.0958 -0.5357
 1492SOL    HW116112   2.260   3.061  11.179 -0.2650 -0.1017 -0.5618
 1492SOL    HW216113   2.330   3.196  11.155 -2.3891  0.6822 -0.8934
 1493SOL     OW16114   3.652   4.579   3.561  0.7800  0.0279  0.0760
 1493SOL    HW116115   3.665   4.649   3.625 -2.3330  0.1598  0.5590
 1493SOL    HW216116   3.698   4.617   3.486  1.4789 -0.2963  0.3372
 1494SOL     OW16117   2.461   4.510   7.854 -0.1255 -0.0775 -0.2248
 1494SOL    HW116118   2.547   4.474   7.833  0.5785 -0.3012  3.0222
 1494SOL    HW216119   2.490   4.540   7.940  1.6030  2.1897 -1.5801
 1495SOL     OW16120   3.080   1.992   4.687  0.2592  0.4192 -0.3208
 1495SOL    HW116121   3.057   1.961   4.599  0.0692  0.2365 -0.2061
 1495SOL    HW216122   3.020   2.065   4.704 -0.8121 -0.4858 -0.2217
 1496SOL     OW16123   2.957   4.208   7.495 -0.0156 -0.3391  0.2444
 1496SOL    HW116124   2.888   4.273   7.481  0.5732  0.3990  0.7229
 1496SOL    HW216125   2.911   4.132   7.461 -1.8824  1.7357 -1.8991
 1497SOL     OW16126   3.164   4.316   3.987  0.1923 -0.1435  0.1230
 1497SOL    HW116127   3.243   4.278   3.949 -0.0854 -1.7560  1.1781
 1497SOL    HW216128   3.121   4.358   3.912 -0.0184  0.0570  0.3531
 1498SOL     OW16129   2.073   0.700   2.961  0.6828 -0.1394  0.3235
 1498SOL    HW116130   2.122   0.688   2.880  2.1762 -3.4662  1.7190
 1498SOL    HW216131   2.094   0.789   2.991 -2.3304  0.3612  1.0311
 1499SOL     OW16132   0.347   2.962   5.298  0.1157  0.2148  0.1852
 1499SOL    HW116133   0.370   2.871   5.318 -1.0538  0.1094  1.0371
 1499SOL    HW216134   0.394   2.965   5.214 -0.8100 -0.7233 -0.3729
 1500SOL     OW16135   1.240   3.470   5.759 -0.1553 -0.6527 -0.4189
 1500SOL    HW116136   1.230   3.421   5.841  0.4084  0.4219  0.2847
 1500SOL    HW216137   1.268   3.556   5.791 -0.2427 -1.4695  1.8861
 1501SOL     OW16138   2.825   1.063   5.321  0.3208  0.3090 -0.1043
 1501SOL    HW116139   2.812   0.969   5.312 -0.1123  0.3239  0.3787
 1501SOL    HW216140   2.750   1.084   5.266  0.7674 -1.3233 -1.3157
 1502SOL     OW16141   4.217   0.419   9.360  0.0234  0.2392 -0.4955
 1502SOL    HW116142   4.147   0.455   9.415  0.1263  3.0469 -2.1955
 1502SOL    HW216143   4.292   0.476   9.378  1.1030 -1.6975  1.1819
 1503SOL     OW16144   1.346   4.319   2.977  0.1014  0.4582  0.1643
 1503SOL    HW116145   1.319   4.397   3.025 -2.0100  0.3314 -0.8412
 1503SOL    HW216146   1.417   4.289   3.035  0.3460  0.8653  0.0783
 1504SOL     OW16147   1.212   0.896  16.877 -0.1603  0.0773  0.2096
 1504SOL    HW116148   1.272   0.917  16.806 -0.1347  0.2163  0.2710
 1504SOL    HW216149   1.206   0.801  16.874  0.7556 -0.0386  2.2588
 1505SOL     OW16150   1.974   4.686   6.978  0.3911  0.5177  0.2686
 1505SOL    HW116151   1.975   4.600   6.936 -3.8452 -0.6646  2.5928
 1505SOL    HW216152   2.044   4.690   7.043 -1.6055 -1.1048  2.5250
 1506SOL     OW16153   3.082   3.577   5.942  0.0543 -0.1238  0.2742
 1506SOL    HW116154   3.093   3.547   5.852  1.6772  1.0979  0.0720
 1506SOL    HW216155   3.092   3.493   5.988 -0.0384  1.3777  3.0491
 1507SOL     OW16156   3.375   1.165  11.981  0.5153  0.0860  0.3533
 1507SOL    HW116157   3.438   1.134  12.047  2.4291 -0.2782 -1.6524
 1507SOL    HW216158   3.409   1.122  11.903 -3.5791 -0.0591 -1.3068
 1508SOL     OW16159   0.172   1.741   2.387  0.0307  0.1096 -0.2500
 1508SOL    HW116160   0.184   1.658   2.434  1.7895  1.2194  1.2494
 1508SOL    HW216161   0.088   1.744   2.341  1.5342  0.7523 -2.9847
 1509SOL     OW16162   3.224   4.599   8.614  0.2035 -0.1826  0.1715
 1509SOL    HW116163   3.247   4.518   8.659  1.9129 -0.7144 -1.7150
 1509SOL    HW216164   3.296   4.596   8.552  0.3059 -2.8171  0.4540
 1510SOL     OW16165   2.309   0.740   4.047  0.3894  0.8710 -0.1698
 1510SOL    HW116166   2.397   0.702   4.048 -0.5604 -1.3544  0.6781
 1510SOL    HW216167   2.282   0.745   4.139 -1.4327 -0.0945 -0.6481
 1511SOL     OW16168   4.426   1.441  15.171  0.0696 -0.3433 -0.5343
 1511SOL    HW116169   4.361   1.383  15.131  1.4062 -4.2173  2.8843
 1511SOL    HW216170   4.453   1.500  15.101  1.5772  0.4416  0.7169
 1512SOL     OW16171   2.011   3.935   2.868  0.9277 -0.2195 -0.7080
 1512SOL    HW116172   1.974   3.885   2.795  1.0378 -0.7433 -0.3981
 1512SOL    HW216173   1.930   3.977   2.898  1.2338 -0.3478  0.2935
 1513SOL     OW16174   0.182   4.528  10.665 -0.4355 -0.3211  0.6377
 1513SOL    HW116175   0.241   4.602  10.683  0.8619 -0.8819 -1.3546
 1513SOL    HW216176   0.167   4.491  10.752 -1.2569 -0.6579  0.3429
 1514SOL     OW16177   1.025   1.097   0.451  0.9754 -0.0040 -0.2686
 1514SOL    HW116178   1.010   1.002   0.453  0.3720  0.0622 -2.1723
 1514SOL    HW216179   0.968   1.115   0.377  1.8056 -1.1833 -1.1963
 1515SOL     OW16180   1.456   2.244   2.660  0.1057 -0.1606 -0.3763
 1515SOL    HW116181   1.515   2.314   2.687  0.8439 -0.7426 -0.4941
 1515SOL    HW216182   1.417   2.238   2.748 -0.0678  3.1396 -0.2382
 1516SOL     OW16183   3.839   0.329  10.751  0.4202  0.6626  0.0930
 1516SOL    HW116184   3.905   0.362  10.811  0.7742 -0.1176  0.1384
 1516SOL    HW216185   3.789   0.408  10.731  0.0712  0.6360  0.8576
 1517SOL     OW16186   3.483   3.564   6.152  0.5904  0.1897 -0.5737
 1517SOL    HW116187   3.417   3.494   6.150  0.2535  0.4782  0.6009
 1517SOL    HW216188   3.436   3.626   6.095  1.3683  1.8812  0.6271
 1518SOL     OW16189   0.200   4.056   6.485  0.9213 -0.3342 -0.7534
 1518SOL    HW116190   0.250   4.123   6.532 -1.3231  0.5408  0.3763
 1518SOL    HW216191   0.253   3.976   6.492  0.1461 -0.8008 -0.2771
 1519SOL     OW16192   4.220   1.308   3.940 -0.5998 -0.4085  0.4785
 1519SOL    HW116193   4.194   1.399   3.929  0.0434 -0.2836 -0.0204
 1519SOL    HW216194   4.263   1.306   4.025  0.1263 -1.9349  0.0764
 1520SOL     OW16195   0.332   3.138   8.264  0.3569 -0.2743  0.4137
 1520SOL    HW116196   0.240   3.161   8.275 -0.0250 -1.6637  0.1886
 1520SOL    HW216197   0.367   3.217   8.224 -0.4124  0.6528  1.5861
 1521SOL     OW16198   0.246   0.364   4.339 -0.2681 -0.6167  0.3470
 1521SOL    HW116199   0.212   0.423   4.406  0.0010  0.1601 -0.2097
 1521SOL    HW216200   0.223   0.402   4.255  1.3867 -1.5856 -0.5365
 1522SOL     OW16201   2.439   1.258  15.411 -0.5254  0.3211 -0.5224
 1522SOL    HW116202   2.466   1.235  15.323  0.2732 -0.2904 -0.1156
 1522SOL    HW216203   2.371   1.318  15.380 -1.4850 -0.6250 -0.2479
 1523SOL     OW16204   2.842   4.255  10.758  0.1123 -0.2384  0.6155
 1523SOL    HW116205   2.843   4.325  10.692 -0.5477 -0.7663  0.0496
 1523SOL    HW216206   2.766   4.200  10.741  0.0163  0.3023 -0.7288
 1524SOL     OW16207   2.271   3.485  15.438  0.4372  0.1457 -0.2591
 1524SOL    HW116208   2.295   3.480  15.346 -0.2727 -1.7822 -0.3333
 1524SOL    HW216209   2.362   3.495  15.468 -0.3363 -0.2618  2.2119
 1525SOL     OW16210   4.603   2.140   7.309  0.4416  0.3769  0.2505
 1525SOL    HW116211   4.560   2.061   7.275  1.4236 -0.6616  1.4012
 1525SOL    HW216212   4.530   2.169   7.364  2.2865 -0.8124  3.3227
 1526SOL     OW16213   3.700   3.037  17.640  0.6219  0.0527 -0.5001
 1526SOL    HW116214   3.743   2.954  17.617  0.5523 -0.1303  0.0321
 1526SOL    HW216215   3.644   3.041  17.562  0.1832  0.0644 -0.1839
 1527SOL     OW16216   0.992   0.597   5.691 -0.0235  0.5775  0.3346
 1527SOL    HW116217   1.001   0.689   5.716 -0.1828 -0.1539  3.1772
 1527SOL    HW216218   1.071   0.553   5.723 -0.8313 -0.8697  0.3252
 1528SOL     OW16219   0.808   4.684   5.253 -0.5739 -0.1214 -0.0999
 1528SOL    HW116220   0.719   4.658   5.230  0.1089 -1.7896 -0.9040
 1528SOL    HW216221   0.788   4.671   5.345  1.2774  0.2519  0.3513
 1529SOL     OW16222   2.278   1.489   4.316  0.3679  0.3692  0.6712
 1529SOL    HW116223   2.314   1.491   4.227 -0.1930  0.8887  0.4492
 1529SOL    HW216224   2.187   1.501   4.289  0.3293 -1.9151 -0.2087
 1530SOL     OW16225   0.251   1.759   6.390 -0.8446 -0.4053  0.1236
 1530SOL    HW116226   0.333   1.799   6.419 -0.8872  0.8549 -1.5335
 1530SOL    HW216227   0.285   1.707   6.317 -2.7253 -0.2969 -0.8374
 1531SOL     OW16228   1.613   0.586  11.186  0.2855 -0.3424  0.6132
 1531SOL    HW116229   1.558   0.660  11.210  1.2704 -0.3261  2.8129
 1531SOL    HW216230   1.551   0.515  11.175 -0.3881  0.1638  1.1552
 1532SOL     OW16231   3.929   1.501   7.101 -0.4517  0.7909 -0.0433
 1532SOL    HW116232   3.971   1.439   7.160 -0.6444  1.1606  0.4856
 1532SOL    HW216233   3.839   1.507   7.132 -0.9346 -0.1223 -1.2653
 1533SOL     OW16234   1.173   3.014   8.227 -0.6372 -0.4220  0.2307
 1533SOL    HW116235   1.088   3.037   8.191  1.1507  2.0976 -2.4275
 1533SOL    HW216236   1.188   3.091   8.282 -1.9334 -0.0738  0.0769
 1534SOL     OW16237   0.236   4.069   1.245 -0.5228 -0.3117 -0.6957
 1534SOL    HW116238   0.236   4.127   1.321 -1.1397  0.1226 -1.0273
 1534SOL    HW216239   0.260   3.984   1.282  1.1819 -0.9227 -3.2042
 1535SOL     OW16240   3.348   4.650   3.337 -0.6117  0.6747 -0.3402
 1535SOL    HW116241   3.420   4.633   3.276  0.2774 -0.4021  1.0107
 1535SOL    HW216242   3.300   4.727   3.308 -0.4845  0.4524 -1.1456
 1536SOL     OW16243   3.054   1.956   1.947 -0.2912  0.0250 -0.1901
 1536SOL    HW116244   2.988   1.989   1.887 -0.1658 -0.6675 -0.7010
 1536SOL    HW216245   3.051   1.862   1.930 -1.7598  0.4622 -2.2802
 1537SOL     OW16246   2.031   4.544   5.675  0.4291  0.1698  0.0085
 1537SOL    HW116247   2.125   4.538   5.693  0.1303 -2.8899  0.6052
 1537SOL    HW216248   2.004   4.592   5.753 -1.3930 -0.2348 -0.3769
 1538SOL     OW16249   2.433   1.426  12.145 -0.0050  0.3755 -0.1704
 1538SOL    HW116250   2.440   1.334  12.170  1.6190  0.6332  0.3088
 1538SOL    HW216251   2.428   1.468  12.231  1.2274  0.8870 -0.3470
 1539SOL     OW16252   4.267   4.593   9.218 -0.3035 -0.1398 -0.5420
 1539SOL    HW116253   4.275   4.512   9.167 -0.8916  0.0619 -0.9540
 1539SOL    HW216254   4.349   4.605   9.266  0.4981 -1.6458 -1.5094
 1540SOL     OW16255   4.046   4.603   5.065  0.2701  0.2389 -0.1903
 1540SOL    HW116256   4.097   4.548   5.005 -0.1233  0.5830 -0.8355
 1540SOL    HW216257   3.984   4.554   5.118  1.0816 -0.4130  0.1736
 1541SOL     OW16258   2.810   3.498  12.458  0.3631 -0.2167  0.4000
 1541SOL    HW116259   2.850   3.482  12.372  0.6239 -0.3257  0.5400
 1541SOL    HW216260   2.874   3.544  12.513  0.4551 -1.7280  1.5566
 1542SOL     OW16261   4.109   0.277   8.066  0.1115  0.2764 -0.5281
 1542SOL    HW116262   4.138   0.368   8.075  1.5885 -0.3651  1.0328
 1542SOL    HW216263   4.073   0.273   7.978  1.2648 -0.1703 -0.9660
 1543SOL     OW16264   2.061   0.881   4.234 -0.2097 -0.0312 -0.3964
 1543SOL    HW116265   2.091   0.941   4.166 -1.3727 -0.0675 -0.9467
 1543SOL    HW216266   2.147   0.847   4.258  0.8100  3.0233  0.2337
 1544SOL     OW16267   3.826   3.225   2.430 -0.5729 -0.4057 -0.1178
 1544SOL    HW116268   3.873   3.207   2.511 -1.0040 -0.1343  0.1958
 1544SOL    HW216269   3.737   3.251   2.455 -0.3106 -2.1399  2.5737
 1545SOL     OW16270   1.186   4.520   1.559 -0.8316 -0.3476 -0.0342
 1545SOL    HW116271   1.097   4.498   1.587 -1.5465  0.1538 -1.8882
 1545SOL    HW216272   1.233   4.484   1.634 -1.1102 -1.3915 -0.3537
 1546SOL     OW16273   3.853   0.185   3.077 -0.2167  0.1325  0.1788
 1546SOL    HW116274   3.946   0.190   3.056 -0.6207 -0.1987 -1.6777
 1546SOL    HW216275   3.808   0.145   3.002  2.9476 -0.8466 -1.1685
 1547SOL     OW16276   0.790   3.476   2.986 -0.2550  0.3675 -0.0658
 1547SOL    HW116277   0.764   3.389   2.957  0.2818  0.7743 -1.7448
 1547SOL    HW216278   0.802   3.456   3.079 -3.5841 -0.1417  0.2376
 1548SOL     OW16279   1.708   2.191   9.815 -0.0991  0.2120 -0.1624
 1548SOL    HW116280   1.758   2.233   9.885  0.1012  1.0620 -0.8218
 1548SOL    HW216281   1.764   2.122   9.778  0.9268  0.8120  0.2750
 1549SOL     OW16282   0.776   3.100   3.160  0.0334 -0.6886 -0.4252
 1549SOL    HW116283   0.733   3.154   3.226  1.2686 -1.6091  1.1307
 1549SOL    HW216284   0.729   3.132   3.083 -0.4617  1.2670  0.6697
 1550SOL     OW16285   1.851   3.896   8.909 -0.1100 -0.1253  0.3046
 1550SOL    HW116286   1.789   3.861   8.973  1.2489 -0.9822  1.1528
 1550SOL    HW216287   1.835   3.988   8.931 -2.2260 -0.1966 -1.0507
 1551SOL     OW16288   1.128   2.316   2.543 -0.1294 -0.7240 -0.0069
 1551SOL    HW116289   1.157   2.398   2.582  1.2633 -0.9294 -0.6310
 1551SOL    HW216290   1.039   2.304   2.578 -0.1341  1.5067  0.7239
 1552SOL     OW16291   4.531   0.410   7.637  0.2710 -0.5231 -0.2219
 1552SOL    HW116292   4.527   0.466   7.714  3.1435  1.3788 -1.4973
 1552SOL    HW216293   4.606   0.354   7.658  1.8315  0.7857 -2.2779
 1553SOL     OW16294   3.620   2.017  11.693 -0.0603 -0.1004 -0.5315
 1553SOL    HW116295   3.686   1.996  11.759  0.1857  1.7563 -0.1959
 1553SOL    HW216296   3.654   2.104  11.671 -0.4718  0.1073 -0.3414
 1554SOL     OW16297   2.764   0.406   2.225  0.4745 -0.1516 -0.2512
 1554SOL    HW116298   2.735   0.344   2.158 -2.0094  1.8630 -1.0223
 1554SOL    HW216299   2.857   0.417   2.208  0.5052  0.7010  0.4488
 1555SOL     OW16300   1.263   3.790   7.817 -0.3566  0.2258  0.1403
 1555SOL    HW116301   1.302   3.812   7.733 -0.8795 -0.6113 -0.3131
 1555SOL    HW216302   1.306   3.844   7.884  2.6437  0.0963 -1.6592
 1556SOL     OW16303   1.150   3.812  11.409  0.3060 -0.2432 -0.3047
 1556SOL    HW116304   1.215   3.857  11.356  1.2343  1.5786  2.3856
 1556SOL    HW216305   1.139   3.872  11.483 -1.7680  0.8228 -1.4860
 1557SOL     OW16306   1.132   0.432   8.693  0.2891  0.3209 -0.4194
 1557SOL    HW116307   1.056   0.402   8.643 -0.9467  1.4616  0.7581
 1557SOL    HW216308   1.195   0.361   8.679  1.5060  1.6185 -1.4263
 1558SOL     OW16309   3.938   0.586  17.366  0.7478 -0.0539 -0.3621
 1558SOL    HW116310   3.932   0.646  17.440  1.4030 -0.5105  0.0529
 1558SOL    HW216311   3.953   0.500  17.403 -0.6553  0.8970  2.4020
 1559SOL     OW16312   1.795   2.986   3.085  0.0831  0.1722 -0.7440
 1559SOL    HW116313   1.774   3.065   3.036  3.6177  0.3432 -1.9428
 1559SOL    HW216314   1.719   2.983   3.144  0.0841  0.7287 -0.7165
 1560SOL     OW16315   3.060   3.536  17.056  0.5616 -0.3292  1.2687
 1560SOL    HW116316   3.090   3.576  16.974 -0.3685 -2.5261 -0.1511
 1560SOL    HW216317   2.967   3.528  17.036  1.1511  0.1112 -1.7273
 1561SOL     OW16318   1.783   2.931   5.832  0.0241 -0.3602  0.6333
 1561SOL    HW116319   1.721   2.862   5.809 -1.8241  0.8194  2.0317
 1561SOL    HW216320   1.724   3.007   5.841  0.7233 -0.0782  2.6679
 1562SOL     OW16321   2.224   4.381   7.655  0.0309 -0.7680  0.2807
 1562SOL    HW116322   2.210   4.418   7.567 -1.7197 -0.8926  0.5153
 1562SOL    HW216323   2.266   4.455   7.698  0.0875 -1.1201  0.8280
 1563SOL     OW16324   0.175   3.265   5.318 -0.0561 -0.6656  0.3404
 1563SOL    HW116325   0.231   3.198   5.357 -0.2497 -0.2519  1.2984
 1563SOL    HW216326   0.220   3.303   5.242 -0.0604 -1.7320 -0.2039
 1564SOL     OW16327   3.989   4.065   2.710 -0.0100 -0.1111  0.1507
 1564SOL    HW116328   4.014   4.012   2.634 -0.6472  0.0766 -0.1952
 1564SOL    HW216329   4.021   4.015   2.785 -3.3793 -1.2638  0.7946
 1565SOL     OW16330   3.291   0.134   5.855 -0.0911 -0.5561  0.7094
 1565SOL    HW116331   3.302   0.088   5.938  1.8619 -1.9110 -0.3283
 1565SOL    HW216332   3.368   0.191   5.864  2.2608 -3.1613 -3.1290
 1566SOL     OW16333   2.078   2.543   7.654  0.6583 -0.3151  0.0713
 1566SOL    HW116334   2.040   2.507   7.574 -2.3308 -1.1203  1.8407
 1566SOL    HW216335   2.090   2.637   7.636 -0.0883 -0.2522 -0.0886
 1567SOL     OW16336   1.501   2.433   4.444 -0.2785  0.0012  0.1049
 1567SOL    HW116337   1.588   2.471   4.453  0.7160 -2.3070  0.1772
 1567SOL    HW216338   1.443   2.507   4.424 -0.2682 -0.5088 -1.9054
 1568SOL     OW16339   4.690   1.589   6.319  0.7640 -0.2015  0.2678
 1568SOL    HW116340   0.001   1.550   6.389 -3.1894 -0.9575  2.7459
 1568SOL    HW216341   4.671   1.673   6.362  0.0054  0.0606 -0.5674
 1569SOL     OW16342   0.413   0.687   4.296  0.6013  0.1221  0.2859
 1569SOL    HW116343   0.501   0.707   4.266  0.4621  0.6692  0.2472
 1569SOL    HW216344   0.432   0.594   4.304 -2.8097 -0.6799 -0.6331
 1570SOL     OW16345   3.031   1.870   4.443  0.1153  0.1095 -0.2468
 1570SOL    HW116346   3.052   1.777   4.433 -1.4911 -0.4123  1.3282
 1570SOL    HW216347   3.101   1.916   4.396 -1.1384  1.1429 -1.1031
 1571SOL     OW16348   3.622   1.616   5.440  0.0224 -0.3221 -0.5206
 1571SOL    HW116349   3.716   1.623   5.456 -0.2672  2.5156 -0.1186
 1571SOL    HW216350   3.585   1.611   5.528  0.1282 -0.7065 -0.4982
 1572SOL     OW16351   2.285   3.423   3.571  0.0193  0.2611 -0.2732
 1572SOL    HW116352   2.279   3.518   3.580 -0.5963  0.1165  0.9281
 1572SOL    HW216353   2.333   3.404   3.652 -1.1755 -2.1293 -0.1239
 1573SOL     OW16354   3.912   3.735   4.041  0.6391  0.6636  0.0933
 1573SOL    HW116355   3.899   3.829   4.029 -0.5239  0.2679 -1.7401
 1573SOL    HW216356   3.965   3.721   3.962 -0.1421  0.3580 -0.3806
 1574SOL     OW16357   3.042   2.778  11.093  0.2696 -0.3163 -0.0183
 1574SOL    HW116358   2.974   2.752  11.031 -1.0342  1.6755  0.5661
 1574SOL    HW216359   3.066   2.864  11.061  1.0130 -0.3208  0.5271
 1575SOL     OW16360   2.632   3.345  11.284 -0.0451 -0.0990 -0.1985
 1575SOL    HW116361   2.664   3.396  11.210 -1.4518  0.4578 -0.4127
 1575SOL    HW216362   2.713   3.327  11.333 -0.7943 -0.2988  0.9804
 1576SOL     OW16363   2.946   1.752  10.541  0.4887  0.1521 -0.1357
 1576SOL    HW116364   3.000   1.758  10.620 -1.3621  0.1352  1.1413
 1576SOL    HW216365   2.892   1.828  10.561 -0.5794 -1.0036  1.3758
 1577SOL     OW16366   1.406   0.415  11.252 -0.2647  0.1545 -0.3319
 1577SOL    HW116367   1.312   0.433  11.249 -0.3887 -0.7261 -2.0223
 1577SOL    HW216368   1.423   0.399  11.345 -0.2781  0.0627 -0.3450
 1578SOL     OW16369   2.345   4.310   2.718 -0.7544 -0.0287 -0.1584
 1578SOL    HW116370   2.283   4.240   2.699  0.8091 -1.9031  1.7069
 1578SOL    HW216371   2.429   4.285   2.679 -0.7687 -0.8442  0.3415
 1579SOL     OW16372   1.580   2.745   4.576 -0.0628  0.4106 -0.0555
 1579SOL    HW116373   1.550   2.829   4.610 -0.4337 -0.4419  1.7110
 1579SOL    HW216374   1.665   2.770   4.540  0.2106  1.4501  1.3048
 1580SOL     OW16375   1.311   3.382  12.588 -0.2405 -0.4924  0.5231
 1580SOL    HW116376   1.332   3.460  12.638  1.2919 -1.9994  2.2301
 1580SOL    HW216377   1.327   3.409  12.497 -2.3947  0.1154  0.3208
 1581SOL     OW16378   0.997   4.247   4.793 -0.3067 -0.1886 -0.2620
 1581SOL    HW116379   0.960   4.159   4.803 -1.4858  0.4994  1.3628
 1581SOL    HW216380   0.955   4.297   4.862  3.9446  2.2793  0.5830
 1582SOL     OW16381   3.144   1.528  15.283  0.0253 -0.4376 -0.4296
 1582SOL    HW116382   3.119   1.516  15.191 -1.5454  2.5379 -0.4000
 1582SOL    HW216383   3.076   1.583  15.322  0.9034 -1.0534  1.9608
 1583SOL     OW16384   3.767   3.109   8.409  0.3642 -0.0328 -0.3430
 1583SOL    HW116385   3.683   3.079   8.444 -0.9863  3.4738 -0.6184
 1583SOL    HW216386   3.787   3.048   8.338 -1.0216 -0.5840 -0.2607
 1584SOL     OW16387   2.381   3.310   7.780 -0.2727  0.1094 -0.5709
 1584SOL    HW116388   2.302   3.315   7.727  0.6222  1.1543 -1.8008
 1584SOL    HW216389   2.425   3.388   7.747  0.6207 -0.7493 -1.4059
 1585SOL     OW16390   0.239   4.540  17.230  0.0445 -0.8508  0.1915
 1585SOL    HW116391   0.264   4.447  17.227 -0.4156 -1.0060  1.1851
 1585SOL    HW216392   0.253   4.549  17.324  1.1551  0.5275 -0.1133
 1586SOL     OW16393   2.532   2.310   3.774 -0.5471  0.9346  0.2075
 1586SOL    HW116394   2.503   2.350   3.856  0.1601  0.9578  0.4477
 1586SOL    HW216395   2.625   2.335   3.771 -0.0714 -0.8919 -0.5263
 1587SOL     OW16396   3.727   3.811   9.560  0.2073  0.2288 -0.1525
 1587SOL    HW116397   3.794   3.878   9.546  1.3747 -0.9803 -0.2877
 1587SOL    HW216398   3.723   3.791   9.653 -1.4200 -1.0239 -0.4892
 1588SOL     OW16399   2.577   3.378   8.467  0.3508  0.1177  0.1128
 1588SOL    HW116400   2.544   3.462   8.435  0.6356  0.1875 -0.0005
 1588SOL    HW216401   2.644   3.394   8.533 -0.7476  1.4362  0.9096
 1589SOL     OW16402   1.178   1.918   3.736  0.2814  0.1510 -0.6641
 1589SOL    HW116403   1.120   1.849   3.768 -0.5061  0.3493 -1.6680
 1589SOL    HW216404   1.114   1.984   3.710 -1.1414 -0.8379  0.3540
 1590SOL     OW16405   1.014   0.614   5.095 -0.2425 -0.0361 -0.3122
 1590SOL    HW116406   1.022   0.533   5.145 -1.0269 -1.0679 -1.8817
 1590SOL    HW216407   0.943   0.593   5.034 -0.4744 -0.3993  0.0836
 1591SOL     OW16408   1.805   3.078   8.036  0.3188 -0.2133  0.0193
 1591SOL    HW116409   1.796   3.123   8.120 -0.0730  1.4116 -0.8885
 1591SOL    HW216410   1.779   3.140   7.968  1.0352  1.8027  1.5835
 1592SOL     OW16411   0.167   3.169  10.344 -0.2091  0.2269 -0.6439
 1592SOL    HW116412   0.196   3.160  10.253 -3.3267  1.6852 -1.7835
 1592SOL    HW216413   0.086   3.118  10.346 -0.2914  0.2951 -2.4873
 1593SOL     OW16414   1.867   1.286   0.394  0.3806  0.0984 -0.2801
 1593SOL    HW116415   1.822   1.201   0.397  2.5438 -1.0653 -0.9831
 1593SOL    HW216416   1.800   1.333   0.344  1.5550  1.9284 -0.1083
 1594SOL     OW16417   4.156   2.518   8.005 -0.0418 -0.1274 -0.2519
 1594SOL    HW116418   4.094   2.451   8.032 -0.5983  0.6294  0.3442
 1594SOL    HW216419   4.119   2.552   7.923  0.0557  1.5315  0.3942
 1595SOL     OW16420   0.887   3.108   8.129  0.3221 -0.3150  0.2957
 1595SOL    HW116421   0.842   3.185   8.094  0.1019 -0.7455 -0.3660
 1595SOL    HW216422   0.811   3.062   8.164 -1.5261  2.2985 -0.3349
 1596SOL     OW16423   1.621   4.370  17.121  0.4897 -0.5960  0.6405
 1596SOL    HW116424   1.714   4.359  17.105  0.6711 -0.5857  1.6862
 1596SOL    HW216425   1.608   4.456  17.162  0.4081  0.4673 -1.5919
 1597SOL     OW16426   0.358   0.676   2.780 -0.0263  0.3743 -0.1484
 1597SOL    HW116427   0.386   0.665   2.871  0.7529 -0.5237 -0.4876
 1597SOL    HW216428   0.435   0.664   2.725  1.0106 -0.0505  1.3826
 1598SOL     OW16429   1.711   0.921   9.269  0.2467  0.0330  0.0910
 1598SOL    HW116430   1.744   0.959   9.188  2.1512 -1.4981  0.1626
 1598SOL    HW216431   1.623   0.899   9.237  0.5361 -2.7569  1.1773
 1599SOL     OW16432   3.406   3.278   6.060 -0.0085 -0.5895 -0.0570
 1599SOL    HW116433   3.416   3.287   6.154  1.1850  1.0590 -0.3439
 1599SOL    HW216434   3.310   3.289   6.057  0.0830  0.2524 -0.0091
 1600SOL     OW16435   2.110   0.793   9.555 -0.0641 -0.2456  0.0981
 1600SOL    HW116436   2.022   0.818   9.582 -0.2147 -1.2946  0.5755
 1600SOL    HW216437   2.143   0.764   9.640  0.1139 -0.8086 -0.1651
 1601SOL     OW16438   2.001   4.190  15.674  0.5105 -0.3522 -0.1145
 1601SOL    HW116439   2.036   4.111  15.715 -0.1942  0.3497  1.8376
 1601SOL    HW216440   1.907   4.177  15.682  0.8107 -0.6570  3.0152
 1602SOL     OW16441   1.325   4.507   9.875  0.1205  0.0187  0.4721
 1602SOL    HW116442   1.394   4.448   9.845 -0.7772 -1.5088  1.3947
 1602SOL    HW216443   1.372   4.547   9.949  2.5851  0.4058 -1.2901
 1603SOL     OW16444   1.982   2.498   6.652 -0.2683 -0.7821  0.2767
 1603SOL    HW116445   1.951   2.438   6.720 -0.9057 -1.4980 -0.6335
 1603SOL    HW216446   1.919   2.480   6.582  1.0920  2.3792 -1.7619
 1604SOL     OW16447   1.774   0.357   4.109  0.7468 -0.1291 -0.1249
 1604SOL    HW116448   1.761   0.262   4.107  1.0636 -0.1804  0.2792
 1604SOL    HW216449   1.696   0.378   4.160 -0.4236  1.3688 -2.5405
 1605SOL     OW16450   3.028   4.086   6.872 -0.2236  0.1497  0.4282
 1605SOL    HW116451   3.110   4.069   6.825  0.5077  1.5094  1.2257
 1605SOL    HW216452   3.066   4.111   6.955  1.0877 -1.4141  0.3017
 1606SOL     OW16453   0.177   1.250   2.416 -0.0622  0.1792 -0.1984
 1606SOL    HW116454   0.222   1.319   2.463 -0.3917  1.7470 -2.1903
 1606SOL    HW216455   0.206   1.278   2.329  0.8886 -0.9351 -0.2484
 1607SOL     OW16456   1.926   2.440   2.799  0.0577 -0.1090 -0.2099
 1607SOL    HW116457   1.968   2.526   2.799 -0.8198  0.3142 -0.1379
 1607SOL    HW216458   1.993   2.392   2.751  0.9796 -1.4360  2.3945
 1608SOL     OW16459   4.514   4.344  11.410 -0.5858  0.1337 -0.5229
 1608SOL    HW116460   4.550   4.267  11.367  0.8445  0.3066  0.3310
 1608SOL    HW216461   4.425   4.340  11.376 -2.0749  0.4806  3.3696
 1609SOL     OW16462   1.809   3.600   7.949 -0.3439  0.2314 -0.1841
 1609SOL    HW116463   1.794   3.507   7.960  0.6627  0.0699 -0.1986
 1609SOL    HW216464   1.766   3.634   8.028  1.7105  3.6799 -0.5115
 1610SOL     OW16465   3.046   3.231   6.619 -0.5750 -0.4528  0.0186
 1610SOL    HW116466   3.096   3.160   6.658  0.1938  0.7866  1.2831
 1610SOL    HW216467   2.955   3.201   6.614 -0.4616 -0.4942 -1.7819
 1611SOL     OW16468   1.930   3.525  16.405 -0.1070  0.2105  0.0058
 1611SOL    HW116469   2.005   3.585  16.410 -1.0296  1.3802 -0.2686
 1611SOL    HW216470   1.961   3.476  16.329  2.9075 -0.6002  1.7412
 1612SOL     OW16471   2.982   2.231   0.301 -0.2415 -0.7557  0.1072
 1612SOL    HW116472   3.020   2.245   0.215  3.3131  1.6533  2.0724
 1612SOL    HW216473   2.907   2.180   0.273  0.9220 -2.7532  0.5869
 1613SOL     OW16474   1.705   1.050  10.250  0.3071 -0.2961 -0.2068
 1613SOL    HW116475   1.710   1.027  10.343  0.2671  2.4304  0.4878
 1613SOL    HW216476   1.756   0.982  10.207 -1.0009 -1.8363  0.6703
 1614SOL     OW16477   3.649   3.123   4.478  0.4450  0.4216  0.1573
 1614SOL    HW116478   3.651   3.214   4.508  1.3648 -0.2935  2.2493
 1614SOL    HW216479   3.725   3.105   4.423 -0.1173 -0.5161 -0.3055
 1615SOL     OW16480   0.757   3.798  12.871 -0.0995 -0.2591 -0.2383
 1615SOL    HW116481   0.686   3.850  12.833  0.0935  0.0218 -0.2102
 1615SOL    HW216482   0.709   3.764  12.947 -2.5366  0.9795 -1.2077
 1616SOL     OW16483   4.547   1.218   3.343  0.1643  0.1063  0.0358
 1616SOL    HW116484   4.621   1.267   3.379  1.6462 -1.3877 -0.9388
 1616SOL    HW216485   4.597   1.147   3.302  0.0796  0.4992 -0.7608
 1617SOL     OW16486   1.927   0.700   6.479  0.2919 -0.4131  0.3214
 1617SOL    HW116487   1.998   0.755   6.515 -1.6690  0.6767  2.5565
 1617SOL    HW216488   1.935   0.718   6.386  0.1226  1.3480  0.6367
 1618SOL     OW16489   0.296   2.005   4.270 -0.1803  0.1060 -0.0650
 1618SOL    HW116490   0.294   1.962   4.185  0.2306  0.3630 -0.2059
 1618SOL    HW216491   0.391   2.006   4.286  0.1118 -0.9271 -1.7734
 1619SOL     OW16492   2.085   2.051   6.043  0.6804 -0.5387  0.3241
 1619SOL    HW116493   2.014   2.063   6.106 -0.5780 -0.9516 -0.9973
 1619SOL    HW216494   2.163   2.078   6.090 -1.9238 -0.0023  4.3128
 1620SOL     OW16495   1.414   3.574  11.802  0.0591 -0.4414  0.0681
 1620SOL    HW116496   1.344   3.638  11.815  0.1249 -0.3383 -0.0863
 1620SOL    HW216497   1.429   3.565  11.708 -1.1476 -4.9397  0.3039
 1621SOL     OW16498   1.318   0.938  17.491  0.4437  0.6894 -0.4776
 1621SOL    HW116499   1.343   1.030  17.481  0.2369  0.6472 -1.3574
 1621SOL    HW216500   1.381   0.909  17.556 -2.9930 -3.0865  1.1769
 1622SOL     OW16501   4.692   4.488   0.051  0.4083  0.2881 -0.0797
 1622SOL    HW116502   0.028   4.438   0.021  0.0454 -1.6132  2.1969
 1622SOL    HW216503   4.686   4.554  17.740  1.0677  1.0543  0.5995
 1623SOL     OW16504   0.583   4.567   9.072 -0.3098  0.0546 -0.3762
 1623SOL    HW116505   0.521   4.572   8.999  2.2224 -0.3710 -2.5369
 1623SOL    HW216506   0.531   4.598   9.147 -0.0812  0.5536 -0.4244
 1624SOL     OW16507   1.433   3.976   4.206  0.4381  0.1846 -0.3141
 1624SOL    HW116508   1.387   3.956   4.288  0.0608  1.0351 -0.3230
 1624SOL    HW216509   1.367   3.961   4.139 -0.2358 -1.8745  0.7931
 1625SOL     OW16510   3.128   3.876   3.509 -0.2437  0.0171  0.1110
 1625SOL    HW116511   3.153   3.957   3.465  0.1794 -0.8407 -1.1945
 1625SOL    HW216512   3.063   3.844   3.446  2.4608 -3.1703 -1.0144
 1626SOL     OW16513   1.184   4.486  10.743 -0.3117  0.1439  0.7161
 1626SOL    HW116514   1.207   4.552  10.808 -0.7779  2.5556 -1.5896
 1626SOL    HW216515   1.230   4.410  10.778  0.2720  0.6966  1.1473
 1627SOL     OW16516   2.471   0.950   8.753  0.6594  0.0341 -0.2368
 1627SOL    HW116517   2.400   0.957   8.817 -1.3120  0.9444 -2.5264
 1627SOL    HW216518   2.534   0.923   8.819  1.4551  1.4202 -0.4372
 1628SOL     OW16519   0.324   4.684  14.531  0.2534 -0.0359  0.4559
 1628SOL    HW116520   0.297   0.003  14.461  1.4310  1.1951  1.0429
 1628SOL    HW216521   0.310   0.001  14.606 -2.1439 -1.0492  0.7852
 1629SOL     OW16522   3.518   1.565   6.655 -0.2367  0.0045  0.5848
 1629SOL    HW116523   3.434   1.527   6.682  1.0813 -1.9615  1.9201
 1629SOL    HW216524   3.510   1.652   6.692  2.4234  0.9887 -1.1462
 1630SOL     OW16525   2.379   1.218   6.256 -0.0174 -0.0883 -0.3224
 1630SOL    HW116526   2.295   1.195   6.217 -0.7834  3.0344 -0.4744
 1630SOL    HW216527   2.411   1.256   6.174  1.1953  0.0529  0.2155
 1631SOL     OW16528   3.179   2.690  14.331  0.7681  0.0075 -0.3120
 1631SOL    HW116529   3.100   2.641  14.308 -0.5704  1.8032  0.4696
 1631SOL    HW216530   3.206   2.741  14.254  0.8888  1.6619  0.8268
 1632SOL     OW16531   4.170   1.255   8.987  0.5054  0.0068 -0.2321
 1632SOL    HW116532   4.127   1.189   9.042 -1.5095 -0.0672 -1.9040
 1632SOL    HW216533   4.188   1.321   9.054 -1.4659 -0.7250  1.0431
 1633SOL     OW16534   1.984   0.006   7.517 -0.4690 -0.4388  0.4949
 1633SOL    HW116535   1.970   0.095   7.549  2.5565 -0.1037  0.9376
 1633SOL    HW216536   2.038   4.715   7.590 -0.8997  2.7217  2.1457
 1634SOL     OW16537   4.191   1.558  15.584  0.4800 -0.0690 -0.5767
 1634SOL    HW116538   4.198   1.526  15.674  2.2653 -0.2810 -0.7874
 1634SOL    HW216539   4.268   1.518  15.542 -0.1716  0.6702 -2.4320
 1635SOL     OW16540   1.043   4.506   8.996 -0.4144  0.0778 -0.5641
 1635SOL    HW116541   0.959   4.464   9.016 -1.2488  0.5924 -2.9892
 1635SOL    HW216542   1.039   4.560   9.074  3.3041  1.3087 -1.2061
 1636SOL     OW16543   3.251   0.391  17.612 -0.1519 -0.5005 -0.6562
 1636SOL    HW116544   3.187   0.327  17.580  0.3567 -0.3814 -1.9092
 1636SOL    HW216545   3.316   0.332  17.649 -0.8372 -0.3081  0.8439
 1637SOL     OW16546   3.370   1.533  17.058  0.5790  0.0141  0.2943
 1637SOL    HW116547   3.282   1.515  17.091  1.2881 -1.4190  1.3903
 1637SOL    HW216548   3.379   1.475  16.983  0.3932 -1.0018  1.0627
 1638SOL     OW16549   0.357   0.450   5.648 -0.0901 -0.1073 -0.2478
 1638SOL    HW116550   0.443   0.447   5.689  0.2390 -1.2359 -1.0162
 1638SOL    HW216551   0.318   0.452   5.735  2.0276  0.7447  0.6874
 1639SOL     OW16552   2.962   2.547  14.286  0.0940 -0.2439 -0.3307
 1639SOL    HW116553   2.964   2.485  14.213  1.4902 -2.1649  1.3080
 1639SOL    HW216554   2.868   2.551  14.304  0.1814  1.0936 -0.1637
 1640SOL     OW16555   2.791   3.421   3.260 -0.6054 -0.1526  0.2441
 1640SOL    HW116556   2.718   3.452   3.207  0.1143  3.3661  1.3070
 1640SOL    HW216557   2.738   3.359   3.308 -0.7746  1.2603  1.8699
 1641SOL     OW16558   1.034   4.467   3.776 -0.3439  0.1792  0.2080
 1641SOL    HW116559   1.009   4.415   3.699  1.7153 -2.5046  1.3452
 1641SOL    HW216560   1.126   4.440   3.780 -0.2513  0.6194  0.9975
 1642SOL     OW16561   2.445   4.180   5.159  0.0160 -0.0067  0.7181
 1642SOL    HW116562   2.443   4.196   5.064 -0.8456  0.4369  0.8085
 1642SOL    HW216563   2.491   4.258   5.190  0.9629 -0.1016 -0.4431
 1643SOL     OW16564   2.043   3.850   6.955  0.3555  0.3857  0.1667
 1643SOL    HW116565   2.097   3.775   6.981 -0.8869 -0.5127  0.1617
 1643SOL    HW216566   1.967   3.837   7.011 -0.5626  0.7783 -0.9743
 1644SOL     OW16567   3.453   2.898   6.954 -0.2582 -0.7726  0.5402
 1644SOL    HW116568   3.520   2.940   7.007  1.6152 -1.5797 -1.1789
 1644SOL    HW216569   3.414   2.970   6.904  1.1494 -0.1090  0.4076
 1645SOL     OW16570   4.727   2.625   4.446  0.2200 -0.0402 -0.0655
 1645SOL    HW116571   4.736   2.530   4.450  1.2136  0.0508 -0.2259
 1645SOL    HW216572   0.061   2.653   4.500  1.1093 -1.4578 -0.5503
 1646SOL     OW16573   0.847   2.801  14.638 -0.0144  0.0185 -0.2363
 1646SOL    HW116574   0.869   2.855  14.714  1.3757 -0.7954 -0.0630
 1646SOL    HW216575   0.824   2.868  14.574  0.9420 -0.8964 -1.5529
 1647SOL     OW16576   2.717   4.431   7.800  0.5663 -0.3792 -0.2983
 1647SOL    HW116577   2.751   4.426   7.711  0.2434  1.1985 -0.5043
 1647SOL    HW216578   2.792   4.412   7.856 -0.2977 -1.0694  0.6440
 1648SOL     OW16579   3.764   3.921   2.868 -0.1869  0.3164 -0.3509
 1648SOL    HW116580   3.854   3.921   2.833 -0.0374  0.5835  0.0447
 1648SOL    HW216581   3.732   3.836   2.835 -1.4887  1.4874 -2.0914
 1649SOL     OW16582   3.624   4.520   7.076  0.0973 -0.3706  0.0752
 1649SOL    HW116583   3.567   4.525   6.999  0.3192  0.8266 -0.0198
 1649SOL    HW216584   3.706   4.551   7.038  0.7392 -1.3995  0.6162
 1650SOL     OW16585   0.166   2.359   7.036 -0.6274 -0.1945  0.2922
 1650SOL    HW116586   0.198   2.427   7.095 -0.9259 -0.2675  0.5405
 1650SOL    HW216587   0.077   2.389   7.018 -0.6182  0.1361  0.8000
 1651SOL     OW16588   1.629   4.010   1.902  0.0582 -0.2374 -0.2816
 1651SOL    HW116589   1.554   4.066   1.885  1.0591  0.6943 -1.5900
 1651SOL    HW216590   1.683   4.066   1.958 -1.0720 -0.7807  1.3653
 1652SOL     OW16591   1.142   3.100  17.440  0.2671 -0.1592  0.5808
 1652SOL    HW116592   1.139   3.032  17.506  0.2475  0.4521  1.2134
 1652SOL    HW216593   1.190   3.172  17.482 -0.5773  0.0649  1.1498
 1653SOL     OW16594   4.335   1.362   1.614  0.2536  0.2737 -0.0555
 1653SOL    HW116595   4.412   1.315   1.582 -1.1477 -2.4549  0.6333
 1653SOL    HW216596   4.373   1.447   1.636 -0.1253 -0.4089  3.2816
 1654SOL     OW16597   3.142   4.320   5.839 -0.1359 -0.1307  0.6295
 1654SOL    HW116598   3.184   4.353   5.759  1.4532 -1.9524  0.7189
 1654SOL    HW216599   3.124   4.405   5.879  0.0643  0.0891  0.2523
 1655SOL     OW16600   2.198   4.377   1.366  0.1523  0.1889 -0.6524
 1655SOL    HW116601   2.176   4.338   1.281 -0.1406 -0.6908 -0.1673
 1655SOL    HW216602   2.264   4.439   1.336 -0.4939  2.2245  2.1205
 1656SOL     OW16603   0.554   1.244   2.423  0.2182 -0.2642 -0.6965
 1656SOL    HW116604   0.518   1.312   2.367 -0.8339  0.6426  1.0988
 1656SOL    HW216605   0.646   1.270   2.415 -0.1008  0.7129 -1.2587
 1657SOL     OW16606   1.704   1.764   5.061  0.6848  1.0447  0.4164
 1657SOL    HW116607   1.681   1.673   5.076  1.6120  1.1133  2.4070
 1657SOL    HW216608   1.800   1.762   5.073  0.8472  1.4395 -0.8956
 1658SOL     OW16609   4.260   0.914  13.072  0.2187 -0.1201 -0.1220
 1658SOL    HW116610   4.289   0.956  13.154  1.1177  0.6445 -0.8331
 1658SOL    HW216611   4.273   0.822  13.095  0.5915  0.1763  0.8590
 1659SOL     OW16612   0.376   1.065   8.572 -0.5008 -0.2350 -0.1452
 1659SOL    HW116613   0.405   1.082   8.662  0.1568  0.5724 -0.5099
 1659SOL    HW216614   0.300   1.009   8.583 -1.0122  0.4584 -0.1159
 1660SOL     OW16615   2.748   1.131   1.013 -0.2243 -0.4890 -0.1420
 1660SOL    HW116616   2.661   1.139   0.975  0.7634 -0.1629 -2.3117
 1660SOL    HW216617   2.789   1.215   0.991  2.3114 -1.3952  1.1539
 1661SOL     OW16618   1.593   1.437  12.931 -0.0227  0.4999 -1.1410
 1661SOL    HW116619   1.678   1.434  12.887  0.9017  2.3040  0.5074
 1661SOL    HW216620   1.538   1.484  12.868 -1.2678  0.0305 -0.3988
 1662SOL     OW16621   3.790   0.272   3.891  0.1540  0.6071  0.4440
 1662SOL    HW116622   3.832   0.357   3.905  0.9583  0.2428  0.2673
 1662SOL    HW216623   3.795   0.246   3.983 -2.7678 -0.8491  0.1917
 1663SOL     OW16624   0.784   4.535   3.166  0.1351  0.0962  0.3765
 1663SOL    HW116625   0.806   4.485   3.244  1.0257  0.7090  0.5159
 1663SOL    HW216626   0.771   4.623   3.201  0.7270  1.3665 -2.5995
 1664SOL     OW16627   0.104   2.230   4.242  0.3237 -0.0685  0.0280
 1664SOL    HW116628   0.160   2.153   4.239  0.4479 -0.0035  0.8588
 1664SOL    HW216629   0.087   2.231   4.336  0.1355  0.0971 -0.0056
 1665SOL     OW16630   0.425   2.782   7.424  0.4030 -0.1283  0.3966
 1665SOL    HW116631   0.329   2.781   7.421  0.4139  3.3197 -1.2816
 1665SOL    HW216632   0.459   2.753   7.340  1.4830 -2.7888  1.7714
 1666SOL     OW16633   2.340   4.273   5.461  0.4995 -0.5425 -0.0121
 1666SOL    HW116634   2.362   4.299   5.371 -1.4334  0.0937 -0.3071
 1666SOL    HW216635   2.330   4.358   5.504  1.3626  1.1589 -3.1564
 1667SOL     OW16636   2.113   3.223   7.933 -0.1633  0.1319 -0.0131
 1667SOL    HW116637   2.121   3.209   7.838 -1.2116 -1.0620  0.0850
 1667SOL    HW216638   2.018   3.225   7.939 -0.0241  2.6334  1.2486
 1668SOL     OW16639   1.251   0.174   5.318  0.2724 -0.3672 -0.0554
 1668SOL    HW116640   1.225   0.091   5.280  0.3113  0.7043 -2.4510
 1668SOL    HW216641   1.346   0.171   5.332  0.3925 -2.3285 -1.3766
 1669SOL     OW16642   2.732   4.144  11.412  0.2523  0.0001 -0.6290
 1669SOL    HW116643   2.809   4.098  11.446 -0.9296 -1.1368  0.5173
 1669SOL    HW216644   2.766   4.231  11.392  0.6007  0.2394  1.0105
 1670SOL     OW16645   2.802   2.177  15.330 -0.0048  0.7925 -0.4038
 1670SOL    HW116646   2.729   2.135  15.285 -0.1628 -0.2675  0.8427
 1670SOL    HW216647   2.798   2.272  15.319  0.5829  0.9543  0.7318
 1671SOL     OW16648   4.235   2.340   4.749  0.3361 -0.1612 -0.5560
 1671SOL    HW116649   4.149   2.362   4.785  0.4865 -0.9520  0.2729
 1671SOL    HW216650   4.273   2.305   4.829  0.6220  1.5465  0.0364
 1672SOL     OW16651   3.720   1.523   4.220  0.3759  0.1726  0.5057
 1672SOL    HW116652   3.788   1.570   4.172  0.9816 -0.6600  0.5604
 1672SOL    HW216653   3.657   1.492   4.154  2.0333  2.1841 -2.0360
 1673SOL     OW16654   0.971   4.211   6.277  0.3920 -0.4510 -0.4920
 1673SOL    HW116655   1.063   4.190   6.262 -0.1706 -1.6077 -2.3704
 1673SOL    HW216656   0.980   4.237   6.368 -0.5317 -0.7423 -0.3160
 1674SOL     OW16657   0.207   0.588   1.783  0.1561 -0.1161 -0.1489
 1674SOL    HW116658   0.156   0.665   1.762  0.4679  0.4985  1.3827
 1674SOL    HW216659   0.156   0.520   1.739  3.0070 -2.9791  0.9308
 1675SOL     OW16660   4.543   4.079   2.836 -1.3674  0.1639  0.3467
 1675SOL    HW116661   4.485   4.152   2.817  0.0600  0.7212 -1.8445
 1675SOL    HW216662   4.621   4.108   2.789 -0.5527 -1.5815  0.5884
 1676SOL     OW16663   1.885   2.832   8.866  0.1287 -0.2662 -0.0377
 1676SOL    HW116664   1.840   2.773   8.807  0.8248  1.1922 -2.0094
 1676SOL    HW216665   1.909   2.780   8.943 -2.3253  0.4063  1.1843
 1677SOL     OW16666   1.405   3.176  16.167 -0.1897 -0.3382 -0.2817
 1677SOL    HW116667   1.464   3.120  16.217 -1.9936 -1.5206  0.5459
 1677SOL    HW216668   1.327   3.122  16.152 -1.0875  1.0674 -0.6571
 1678SOL     OW16669   2.341   4.295  15.307  0.6195 -0.4400  0.3955
 1678SOL    HW116670   2.308   4.206  15.295  1.4758 -0.9002  1.5588
 1678SOL    HW216671   2.428   4.281  15.344  0.8187  0.5944  0.3293
 1679SOL     OW16672   0.205   1.194   6.076  0.1272 -0.2399 -0.1132
 1679SOL    HW116673   0.143   1.153   6.136 -0.6713  2.8408  1.1662
 1679SOL    HW216674   0.237   1.113   6.037 -0.0390 -1.3006  1.9487
 1680SOL     OW16675   3.659   4.558   0.552 -0.4797 -0.1259 -0.0021
 1680SOL    HW116676   3.611   4.477   0.534  1.4363 -0.9140 -1.6913
 1680SOL    HW216677   3.611   4.610   0.487 -1.0306 -0.5731  0.0432
 1681SOL     OW16678   3.131   3.745   7.972 -0.0185 -0.1678  0.0163
 1681SOL    HW116679   3.226   3.756   7.983  0.0747 -1.5955  0.5457
 1681SOL    HW216680   3.100   3.809   8.036  1.0417  1.1754 -0.7992
 1682SOL     OW16681   1.944   3.185  10.564 -0.0164 -0.3270  0.1123
 1682SOL    HW116682   1.866   3.212  10.515 -0.3244  0.8033  1.2347
 1682SOL    HW216683   1.983   3.270  10.546  0.8257 -0.9074 -0.7631
 1683SOL     OW16684   1.130   4.204   5.835 -0.3502 -0.0449  0.0767
 1683SOL    HW116685   1.052   4.160   5.870 -2.5278  1.9164 -2.4036
 1683SOL    HW216686   1.155   4.129   5.780  0.2086  1.9438 -2.3679
 1684SOL     OW16687   3.779   1.683   3.551  0.3960  0.1547  0.1103
 1684SOL    HW116688   3.855   1.733   3.523 -1.0206  2.2738  0.0498
 1684SOL    HW216689   3.704   1.718   3.504  1.2513  0.7743 -0.7759
 1685SOL     OW16690   2.345   1.492   3.763 -0.3540  0.1175  0.1959
 1685SOL    HW116691   2.353   1.443   3.845 -0.8338  0.4983  0.4666
 1685SOL    HW216692   2.394   1.572   3.782  0.6726 -0.2666 -0.8021
 1686SOL     OW16693   1.089   1.824   7.695  0.6984 -0.0970 -0.5126
 1686SOL    HW116694   1.174   1.853   7.660  1.6274  0.3333  2.0621
 1686SOL    HW216695   1.097   1.867   7.780 -0.1990 -1.9062  0.4866
 1687SOL     OW16696   3.422   1.622  10.882 -0.4018  0.0594 -0.1434
 1687SOL    HW116697   3.405   1.701  10.934  1.8759 -0.4947  1.4144
 1687SOL    HW216698   3.443   1.665  10.799  2.4146  2.8194  2.0241
 1688SOL     OW16699   0.710   1.163   3.807  0.6543  0.1791  0.4215
 1688SOL    HW116700   0.634   1.126   3.852  0.0997 -0.2623 -0.8640
 1688SOL    HW216701   0.784   1.153   3.867  0.0254 -0.4419  1.0887
 1689SOL     OW16702   2.172   1.300   7.418  0.2401  0.0062 -0.3711
 1689SOL    HW116703   2.253   1.351   7.420  1.0969 -1.4147  0.9205
 1689SOL    HW216704   2.189   1.229   7.357  1.1544 -1.4261  1.5694
 1690SOL     OW16705   1.517   1.561  13.172 -0.0956  0.0858 -0.7178
 1690SOL    HW116706   1.504   1.487  13.232 -0.7655 -2.1189 -3.5601
 1690SOL    HW216707   1.531   1.519  13.087  1.3309 -2.0297  0.5637
 1691SOL     OW16708   3.809   2.012   5.146  0.0271  0.0865  0.0899
 1691SOL    HW116709   3.860   1.956   5.205 -0.8018 -0.7779 -0.0136
 1691SOL    HW216710   3.738   2.036   5.205 -0.4566 -4.6103  1.4821
 1692SOL     OW16711   4.432   0.446  13.155  0.4559 -0.3658 -0.8554
 1692SOL    HW116712   4.380   0.404  13.086 -0.0466 -0.6139 -0.3275
 1692SOL    HW216713   4.517   0.402  13.154  1.3738  1.4051 -1.2814
 1693SOL     OW16714   1.348   0.192   2.632  0.3390 -0.1274  0.1846
 1693SOL    HW116715   1.325   0.145   2.552 -2.3260  0.2431  0.7613
 1693SOL    HW216716   1.440   0.206   2.608  0.0630  2.1764  0.4443
 1694SOL     OW16717   0.307   0.791   2.138 -0.2451 -0.5402  0.1231
 1694SOL    HW116718   0.224   0.749   2.161 -0.4573  0.4180  1.1381
 1694SOL    HW216719   0.353   0.716   2.102 -2.5839 -1.5843 -0.6966
 1695SOL     OW16720   4.422   0.249  11.944 -0.0230  0.1487  0.0414
 1695SOL    HW116721   4.472   0.324  11.978 -1.4295  0.2718  1.8113
 1695SOL    HW216722   4.354   0.235  12.010 -0.0915 -1.5501 -0.4078
 1696SOL     OW16723   4.011   3.007   4.852 -0.1992  0.1901 -0.4224
 1696SOL    HW116724   4.028   3.093   4.813 -0.1475 -0.0241 -0.8687
 1696SOL    HW216725   3.989   2.948   4.780  2.0774 -1.6674  0.4471
 1697SOL     OW16726   1.320   2.695   4.428  0.1316 -0.2450 -0.4170
 1697SOL    HW116727   1.268   2.769   4.458 -1.1423 -0.2784 -2.4879
 1697SOL    HW216728   1.254   2.628   4.407 -2.0065  1.1997  1.7142
 1698SOL     OW16729   1.950   2.125   2.628  0.2907 -0.5648 -0.1020
 1698SOL    HW116730   1.886   2.172   2.573  1.2411  0.0898 -0.6497
 1698SOL    HW216731   2.033   2.140   2.583 -0.6858  0.0204 -1.7242
 1699SOL     OW16732   0.108   3.416   6.138  0.5088  0.7789  0.2650
 1699SOL    HW116733   0.100   3.498   6.090  1.4222  0.2255 -0.8191
 1699SOL    HW216734   0.105   3.353   6.066  1.0769  0.5571  0.4316
 1700SOL     OW16735   3.334   1.634   1.532  0.3846 -0.4733 -0.2257
 1700SOL    HW116736   3.332   1.609   1.440 -1.3009 -0.3087 -0.2374
 1700SOL    HW216737   3.374   1.552   1.560  1.0306 -0.3040 -0.6534
 1701SOL     OW16738   0.791   0.584   4.888  0.3858  0.2175  0.5072
 1701SOL    HW116739   0.719   0.543   4.936  0.1967  3.6431  3.1439
 1701SOL    HW216740   0.793   0.517   4.819  1.8068  1.7698 -0.9578
 1702SOL     OW16741   2.461   2.698   6.518  0.8867 -1.0696 -0.2849
 1702SOL    HW116742   2.385   2.756   6.517  1.1560 -0.6848  0.9092
 1702SOL    HW216743   2.519   2.744   6.458 -0.4306  0.1299 -0.6431
 1703SOL     OW16744   2.091   4.163   5.484 -0.2893 -0.3067  0.2670
 1703SOL    HW116745   2.074   4.107   5.408 -1.7098  1.1837 -0.5082
 1703SOL    HW216746   2.167   4.217   5.462 -0.4423 -0.2971 -0.2409
 1704SOL     OW16747   1.193   0.963  17.158 -0.6335 -0.0841 -0.5472
 1704SOL    HW116748   1.190   0.955  17.062  1.7066  1.7060 -0.7672
 1704SOL    HW216749   1.189   0.873  17.191 -2.1247 -0.3523 -1.4495
 1705SOL     OW16750   2.139   2.020  17.301  0.5402 -0.1775  0.1896
 1705SOL    HW116751   2.104   1.934  17.278 -0.5785  1.1412 -3.0621
 1705SOL    HW216752   2.212   2.023  17.240 -0.4485  1.5835 -0.9106
 1706SOL     OW16753   0.219   4.009   5.683 -0.1771 -0.1160 -0.1344
 1706SOL    HW116754   0.287   4.031   5.619  0.8770 -1.1975  0.6195
 1706SOL    HW216755   0.207   4.096   5.721  0.3425 -0.8374  1.6840
 1707SOL     OW16756   2.244   4.018   5.703 -0.0993  0.1583  0.4812
 1707SOL    HW116757   2.218   3.930   5.677 -2.1650  0.6215  0.9747
 1707SOL    HW216758   2.216   4.073   5.630  3.1051 -1.1058 -1.6893
 1708SOL     OW16759   3.739   0.669   6.012 -0.1375 -0.2409  0.4077
 1708SOL    HW116760   3.764   0.647   6.102 -1.7535 -0.9244  0.6818
 1708SOL    HW216761   3.817   0.715   5.981 -0.3628  0.8958  1.5044
 1709SOL     OW16762   2.840   2.476  12.551  0.0851 -0.4144 -0.6162
 1709SOL    HW116763   2.788   2.515  12.621  0.9182 -2.0969  0.9541
 1709SOL    HW216764   2.848   2.386  12.584  1.4148 -0.4913 -1.1234
 1710SOL     OW16765   4.107   2.547   9.151 -0.2592 -0.2688 -0.0917
 1710SOL    HW116766   4.144   2.553   9.064 -0.0843 -0.2664 -0.0164
 1710SOL    HW216767   4.118   2.453   9.164  0.7330 -0.1669 -0.2511
 1711SOL     OW16768   3.840   3.508  14.256 -0.3098 -0.3013  0.2952
 1711SOL    HW116769   3.895   3.430  14.248  0.6997  0.5172 -0.7871
 1711SOL    HW216770   3.893   3.563  14.313  0.8580 -2.7904  1.6229
 1712SOL     OW16771   4.533   2.411   1.020 -0.5374  0.3038  0.2665
 1712SOL    HW116772   4.494   2.325   1.004  0.1574 -0.1869  1.2065
 1712SOL    HW216773   4.464   2.457   1.068  0.6365 -0.9775  3.1582
 1713SOL     OW16774   2.402   1.175  12.266 -0.2802  0.1804 -0.1056
 1713SOL    HW116775   2.437   1.105  12.211 -1.1148 -1.6741  1.6829
 1713SOL    HW216776   2.328   1.131  12.309  0.2458 -1.6029 -1.0184
 1714SOL     OW16777   3.020   4.680  16.482  0.2434  0.1610 -0.5300
 1714SOL    HW116778   2.928   4.690  16.504  0.1035  0.0987 -1.0878
 1714SOL    HW216779   3.060   0.006  16.539  0.2253 -0.0372 -0.2872
 1715SOL     OW16780   0.460   4.120   8.966 -0.0088  0.1118 -0.3027
 1715SOL    HW116781   0.387   4.175   8.994 -0.1171 -0.5113  0.6386
 1715SOL    HW216782   0.458   4.041   9.020  1.0264 -0.5832 -1.2749
 1716SOL     OW16783   1.292   1.288   3.532 -0.1272  0.9259  0.2275
 1716SOL    HW116784   1.387   1.291   3.546  0.1154 -2.5899 -0.6899
 1716SOL    HW216785   1.295   1.217   3.468 -2.1620  0.2119  0.9261
 1717SOL     OW16786   1.937   0.599  17.340  0.0447 -0.1905 -0.6823
 1717SOL    HW116787   1.990   0.520  17.328  0.7765 -0.0314  1.5541
 1717SOL    HW216788   1.855   0.573  17.298 -0.2723 -2.5090  1.3596
 1718SOL     OW16789   1.661   1.498   5.106 -0.5445  0.7858  0.2065
 1718SOL    HW116790   1.568   1.476   5.104 -0.7106  1.4142  1.0570
 1718SOL    HW216791   1.704   1.419   5.139 -0.2712 -0.1840 -2.5045
 1719SOL     OW16792   0.547   1.004  16.628 -0.1408 -0.6574 -0.0064
 1719SOL    HW116793   0.553   0.910  16.611  0.2228 -0.2403 -2.1693
 1719SOL    HW216794   0.463   1.037  16.598  0.6254 -0.9595 -2.5021
 1720SOL     OW16795   4.473   4.585  11.504 -0.0966  0.3591  0.2935
 1720SOL    HW116796   4.477   4.569  11.598  0.1717 -0.2652  0.1807
 1720SOL    HW216797   4.492   4.500  11.464 -1.6392 -0.1279  0.5811
 1721SOL     OW16798   1.707   2.782  10.228  0.7433  0.6277  0.0887
 1721SOL    HW116799   1.779   2.836  10.194 -0.2401  0.2175 -2.5621
 1721SOL    HW216800   1.646   2.795  10.156 -0.3481  2.4888  1.3311
 1722SOL     OW16801   0.461   1.407   8.797  0.5261  0.2687  0.2226
 1722SOL    HW116802   0.488   1.447   8.879 -1.9010  0.4279  0.9512
 1722SOL    HW216803   0.462   1.313   8.817 -0.1261 -0.4106 -2.8994
 1723SOL     OW16804   2.220   3.185   3.445  0.1021 -0.3148 -0.1186
 1723SOL    HW116805   2.200   3.138   3.526 -2.4972  2.2554  0.6859
 1723SOL    HW216806   2.244   3.269   3.484 -0.9207 -0.2405  0.3463
 1724SOL     OW16807   1.894   0.323   4.552  0.8932 -0.4907  0.3343
 1724SOL    HW116808   1.928   0.383   4.619 -2.7979 -0.1863  1.8787
 1724SOL    HW216809   1.800   0.335   4.564  0.0335 -5.3147 -1.5915
 1725SOL     OW16810   3.158   1.517   6.449 -0.2681  0.4446  0.5157
 1725SOL    HW116811   3.229   1.508   6.386 -0.8169  1.3757 -0.2362
 1725SOL    HW216812   3.165   1.612   6.459  0.5402  0.6303 -1.9422
 1726SOL     OW16813   0.757   3.550   9.700 -0.2079 -0.6263 -0.3210
 1726SOL    HW116814   0.822   3.508   9.756 -1.0295  0.6709  1.6089
 1726SOL    HW216815   0.794   3.566   9.613 -0.9300 -1.1228 -0.7326
 1727SOL     OW16816   1.937   3.744   9.320 -0.2270  0.2493 -0.0864
 1727SOL    HW116817   1.999   3.800   9.272  3.2602 -0.8574  3.1373
 1727SOL    HW216818   1.963   3.762   9.410  1.6830  0.0233 -0.5900
 1728SOL     OW16819   3.369   1.643   1.991  0.4845  0.1919 -0.0150
 1728SOL    HW116820   3.319   1.616   2.068 -2.0157  1.5390 -1.1766
 1728SOL    HW216821   3.392   1.554   1.965  0.0597  0.1626 -0.2821
 1729SOL     OW16822   0.679   0.143   5.577  0.9570 -0.1420 -0.2538
 1729SOL    HW116823   0.621   0.146   5.654  1.7304  0.1682  0.3157
 1729SOL    HW216824   0.733   0.216   5.607 -1.1175  1.6125 -0.8037
 1730SOL     OW16825   3.923   0.204   0.522  0.3160 -0.2991  0.3033
 1730SOL    HW116826   3.971   0.126   0.551  0.0568 -1.0106 -1.1528
 1730SOL    HW216827   3.863   0.211   0.596 -0.6322  1.0559 -0.5999
 1731SOL     OW16828   2.551   4.013   3.712 -0.0782  0.1706 -0.3220
 1731SOL    HW116829   2.502   4.068   3.772  0.2587  1.1605 -0.9558
 1731SOL    HW216830   2.483   3.963   3.668 -0.5751  1.5258 -1.0745
 1732SOL     OW16831   1.586   2.032   6.815  0.3198 -0.8709 -0.2990
 1732SOL    HW116832   1.510   1.974   6.822 -1.5646  1.7768  0.9528
 1732SOL    HW216833   1.625   2.006   6.898  0.0743 -2.5627 -0.7055
 1733SOL     OW16834   0.767   1.189   5.233 -0.1703 -0.2886  0.2992
 1733SOL    HW116835   0.778   1.225   5.321 -1.7135  1.1315 -0.0755
 1733SOL    HW216836   0.693   1.129   5.247  0.9452 -1.3525  1.6944
 1734SOL     OW16837   2.784   0.145   0.451  0.7440  0.6233 -0.2242
 1734SOL    HW116838   2.737   0.072   0.412 -0.3744  0.1798  1.9794
 1734SOL    HW216839   2.820   0.113   0.533 -0.3609 -1.2872 -0.4783
 1735SOL     OW16840   2.887   2.727  10.844 -0.0120  0.0630  0.8869
 1735SOL    HW116841   2.820   2.788  10.876 -1.2364 -0.8090 -0.0420
 1735SOL    HW216842   2.945   2.787  10.796 -0.8707  1.5668  1.7142
 1736SOL     OW16843   1.214   3.534   0.336 -0.2081 -0.5616 -0.3341
 1736SOL    HW116844   1.263   3.615   0.353 -0.2614 -0.6816  0.4108
 1736SOL    HW216845   1.183   3.556   0.248  1.9202  0.4121 -0.8287
 1737SOL     OW16846   3.714   2.694  11.920 -0.6958  0.1585 -0.1346
 1737SOL    HW116847   3.655   2.746  11.866  0.6973  2.4838  0.5969
 1737SOL    HW216848   3.651   2.666  11.985 -1.0039  1.2817  0.0522
 1738SOL     OW16849   3.506   3.613   1.024  0.6256  0.0205  0.3056
 1738SOL    HW116850   3.425   3.561   1.022  0.6414  0.0476 -1.4084
 1738SOL    HW216851   3.558   3.560   0.963  2.4383 -1.1828  2.8974
 1739SOL     OW16852   1.718   3.693   3.560  0.1010 -0.2854 -0.5440
 1739SOL    HW116853   1.651   3.631   3.587  1.6214 -0.9741  1.6106
 1739SOL    HW216854   1.679   3.748   3.492  0.9077  0.9906  0.0083
 1740SOL     OW16855   3.305   4.439  13.248 -0.0795  0.6016 -0.2100
 1740SOL    HW116856   3.344   4.370  13.195  0.1633  0.4495  0.1708
 1740SOL    HW216857   3.322   4.413  13.338  0.8237 -0.0471 -0.5707
 1741SOL     OW16858   1.770   0.988   9.014 -0.7621  0.1513 -0.3513
 1741SOL    HW116859   1.823   0.955   8.942 -0.5615 -0.2681 -0.0125
 1741SOL    HW216860   1.759   1.082   9.001 -0.2417  0.1180 -1.0279
 1742SOL     OW16861   1.349   1.296  16.836 -0.6743  0.1727  0.5498
 1742SOL    HW116862   1.349   1.355  16.760 -2.2856  0.6848  0.9350
 1742SOL    HW216863   1.297   1.337  16.906 -0.6361  0.1469  0.5928
 1743SOL     OW16864   1.926   1.511   6.419  0.3011  0.1921  0.0128
 1743SOL    HW116865   1.832   1.498   6.436  0.4905  1.4309  1.8820
 1743SOL    HW216866   1.948   1.591   6.465  0.8528  1.9723 -3.3647
 1744SOL     OW16867   3.248   3.547   3.481  0.0556  0.3525 -0.3231
 1744SOL    HW116868   3.161   3.544   3.442 -0.7964 -0.5019  1.6270
 1744SOL    HW216869   3.285   3.459   3.481 -1.6568 -0.3822  1.5955
 1745SOL     OW16870   0.746   1.526   5.358  0.4428 -0.6233 -0.3687
 1745SOL    HW116871   0.754   1.440   5.398  4.7893 -1.0250 -2.0754
 1745SOL    HW216872   0.651   1.535   5.365  0.3027  1.1826 -4.1117
 1746SOL     OW16873   3.108   2.877   0.867  0.4931 -0.0545  0.4804
 1746SOL    HW116874   3.062   2.926   0.936  1.4390 -0.3731  1.3469
 1746SOL    HW216875   3.051   2.801   0.869 -0.8417  0.9674  1.7714
 1747SOL     OW16876   1.464   1.146   8.479  0.0470  0.3469  0.5809
 1747SOL    HW116877   1.468   1.054   8.505  0.2045 -0.2184 -1.4286
 1747SOL    HW216878   1.393   1.180   8.534 -2.1424 -2.1845 -0.6865
 1748SOL     OW16879   0.256   2.136   2.812  0.0262 -0.3017  0.2521
 1748SOL    HW116880   0.198   2.164   2.883 -0.8284  0.9062 -0.9234
 1748SOL    HW216881   0.205   2.099   2.740 -0.2665  1.8439 -0.6523
 1749SOL     OW16882   2.491   0.229  10.434 -0.0774 -0.2005 -0.2213
 1749SOL    HW116883   2.401   0.200  10.450  0.1749 -0.8597 -0.0351
 1749SOL    HW216884   2.514   0.180  10.355  0.1762 -0.5213  0.0521
 1750SOL     OW16885   3.742   1.055   5.270 -0.3136  1.1929  0.4657
 1750SOL    HW116886   3.654   1.045   5.306  0.1768 -0.9581  1.1070
 1750SOL    HW216887   3.781   0.967   5.270  0.1069  1.3816 -1.9453
 1751SOL     OW16888   2.412   0.097   4.890  0.1415  0.5063 -0.2789
 1751SOL    HW116889   2.318   0.090   4.874  0.3997 -1.9201 -0.7844
 1751SOL    HW216890   2.434   0.079   4.798  0.9072  0.0019  0.0098
 1752SOL     OW16891   3.565   2.482   2.617  0.1952  0.7890  0.1204
 1752SOL    HW116892   3.499   2.548   2.636 -1.2474 -0.6624  0.1643
 1752SOL    HW216893   3.529   2.399   2.648 -0.0258  1.7414  2.3880
 1753SOL     OW16894   3.660   1.926   3.753 -0.3907  0.0010  0.0929
 1753SOL    HW116895   3.688   1.998   3.697 -0.3495 -0.7785 -0.8844
 1753SOL    HW216896   3.690   1.957   3.839 -0.2552  0.5110 -0.1363
 1754SOL     OW16897   2.410   1.328   3.557  0.2446 -0.0784 -0.5882
 1754SOL    HW116898   2.385   1.374   3.637 -1.3646 -0.2141 -1.0082
 1754SOL    HW216899   2.503   1.325   3.581 -0.1531  0.9844  1.1152
 1755SOL     OW16900   3.012   2.306   9.874 -0.1116  0.0774  0.0850
 1755SOL    HW116901   2.995   2.212   9.866  2.4506 -0.5930  2.5446
 1755SOL    HW216902   3.024   2.304   9.969  1.7613  0.5698 -0.1506
 1756SOL     OW16903   1.647   3.218   8.878  0.6020  0.2196  0.5009
 1756SOL    HW116904   1.702   3.218   8.800  0.7474 -0.1560  0.6030
 1756SOL    HW216905   1.571   3.268   8.848 -1.0012 -2.1474  0.6151
 1757SOL     OW16906   3.564   0.358   2.252  0.6947 -0.1410  0.3154
 1757SOL    HW116907   3.529   0.270   2.262 -1.1282  0.7611  1.9439
 1757SOL    HW216908   3.545   0.383   2.342  3.0505 -0.3784  0.8623
 1758SOL     OW16909   4.668   3.366   7.998  0.2915  0.6993  0.4014
 1758SOL    HW116910   4.585   3.333   8.033 -0.6076 -0.6578 -3.0293
 1758SOL    HW216911   4.642   3.426   7.928 -0.5302  0.7656  0.7589
 1759SOL     OW16912   3.975   2.816   6.669 -0.1313 -0.1742 -0.2331
 1759SOL    HW116913   3.922   2.878   6.720  0.0538 -0.2288  0.0286
 1759SOL    HW216914   3.905   2.766   6.626 -1.9872  3.5539 -1.5680
 1760SOL     OW16915   1.492   3.862   8.914  0.4559  0.4894  0.5668
 1760SOL    HW116916   1.528   3.904   8.992 -1.6599  1.2424  1.1179
 1760SOL    HW216917   1.504   3.770   8.935 -0.0967  0.4602  0.7451
 1761SOL     OW16918   0.175   0.040   1.682 -0.0642  0.3795  0.5444
 1761SOL    HW116919   0.196   0.133   1.685 -1.9975  0.8793 -1.0293
 1761SOL    HW216920   0.135   0.022   1.767 -0.2721  2.4073  0.8726
 1762SOL     OW16921   2.544   1.327   7.263  0.7444  0.0061  0.0232
 1762SOL    HW116922   2.613   1.385   7.296  1.3491 -0.8765  0.3147
 1762SOL    HW216923   2.591   1.284   7.192 -1.0640 -2.4528  0.3425
 1763SOL     OW16924   4.020   4.735   6.735  0.7966  0.6764  0.6396
 1763SOL    HW116925   4.105   4.727   6.692  0.4866  0.1611  0.1200
 1763SOL    HW216926   3.959   4.701   6.670  1.3909 -2.1138  1.5291
 1764SOL     OW16927   0.208   1.172   3.240  0.2025  0.0866 -0.3274
 1764SOL    HW116928   0.127   1.222   3.238 -1.8748 -3.2851 -0.0994
 1764SOL    HW216929   0.226   1.155   3.332 -0.9950  0.8157  0.0341
 1765SOL     OW16930   3.435   3.320  13.300 -0.3296 -0.5864 -0.1693
 1765SOL    HW116931   3.371   3.318  13.371 -0.4178 -1.8760 -0.2847
 1765SOL    HW216932   3.469   3.230  13.299 -1.0859 -0.8791  0.3052
 1766SOL     OW16933   4.368   1.724   8.466  0.3144 -0.3183 -0.0932
 1766SOL    HW116934   4.343   1.725   8.559 -0.3230 -1.4580 -0.2552
 1766SOL    HW216935   4.420   1.804   8.464  2.3880 -1.7325 -1.6150
 1767SOL     OW16936   1.459   2.500   5.833 -0.4357 -0.3413 -0.2632
 1767SOL    HW116937   1.505   2.439   5.775 -0.1753 -1.8617  1.5746
 1767SOL    HW216938   1.371   2.463   5.822 -0.8444  0.8037 -0.8212
 1768SOL     OW16939   0.571   0.270   2.885 -0.3245 -0.5207 -0.1928
 1768SOL    HW116940   0.505   0.227   2.831 -0.5484 -1.3153  0.7134
 1768SOL    HW216941   0.651   0.235   2.847  0.1264 -0.7924  1.0135
 1769SOL     OW16942   1.826   2.849   6.479  0.6860  0.1674 -0.4233
 1769SOL    HW116943   1.743   2.856   6.432  0.3305  1.6947  0.4276
 1769SOL    HW216944   1.803   2.907   6.552  0.9817 -1.0483  0.6475
 1770SOL     OW16945   1.525   0.432   8.452 -0.6969  0.0202  0.2360
 1770SOL    HW116946   1.495   0.403   8.538  0.8496 -1.1826  0.3628
 1770SOL    HW216947   1.464   0.380   8.399 -0.8765 -0.0127  0.4749
 1771SOL     OW16948   2.318   2.541   3.030 -0.4831  0.4554  0.0201
 1771SOL    HW116949   2.377   2.587   3.091  1.5358 -0.8634 -0.9512
 1771SOL    HW216950   2.321   2.599   2.954 -3.1359  0.5967  0.0282
 1772SOL     OW16951   4.491   2.652   7.069  0.2395  0.1275  0.4293
 1772SOL    HW116952   4.464   2.608   7.149 -1.5399 -0.2168 -0.3543
 1772SOL    HW216953   4.414   2.658   7.012 -1.1647  3.5305  2.7131
 1773SOL     OW16954   3.776   1.264   6.449 -0.0724 -1.2517  0.5515
 1773SOL    HW116955   3.737   1.347   6.421  2.7474 -0.0308  0.2491
 1773SOL    HW216956   3.813   1.225   6.370  0.4536  0.0770  0.1446
 1774SOL     OW16957   0.081   0.412   9.069 -0.1850 -0.1917 -0.1624
 1774SOL    HW116958   0.177   0.419   9.071 -0.4416  2.7846  1.7344
 1774SOL    HW216959   0.055   0.369   9.150 -1.8128  0.9174 -0.1067
 1775SOL     OW16960   1.597   0.274   2.418  0.1336  0.5332  0.3804
 1775SOL    HW116961   1.612   0.358   2.463  0.1220  0.3295  0.7678
 1775SOL    HW216962   1.586   0.307   2.329  1.6455  1.7380  0.6381
 1776SOL     OW16963   3.499   2.824   6.530  0.8491  0.1680 -0.4622
 1776SOL    HW116964   3.531   2.741   6.566 -1.4014  0.6012  2.6104
 1776SOL    HW216965   3.421   2.796   6.482  1.0518 -1.0637 -0.0653
 1777SOL     OW16966   4.360   0.812   5.813  0.5520 -0.2324 -0.4163
 1777SOL    HW116967   4.334   0.811   5.906 -2.5921  0.0331 -1.2986
 1777SOL    HW216968   4.288   0.867   5.782  0.8769  1.0937  1.1557
 1778SOL     OW16969   0.286   1.057   3.492 -0.6064  0.1925 -0.0404
 1778SOL    HW116970   0.233   1.034   3.568 -3.5749  2.2599 -1.5261
 1778SOL    HW216971   0.339   0.976   3.491  0.8900  1.1849 -1.0118
 1779SOL     OW16972   2.092   0.229   3.339  0.2126  0.0793  0.3470
 1779SOL    HW116973   2.015   0.237   3.396  0.0758  1.1866  0.0054
 1779SOL    HW216974   2.110   0.137   3.359 -0.3964 -0.2193 -0.4861
 1780SOL     OW16975   3.977   1.655   8.218  0.4156 -0.0072 -0.1337
 1780SOL    HW116976   3.934   1.670   8.302 -0.9793 -0.4929 -0.7514
 1780SOL    HW216977   3.897   1.632   8.170  0.7160  0.2046 -0.7344
 1781SOL     OW16978   1.185   3.019   7.660 -0.2301  0.0579  0.2865
 1781SOL    HW116979   1.115   3.058   7.609  0.7713 -0.5627 -1.5518
 1781SOL    HW216980   1.143   2.958   7.720 -0.9069  0.8949  0.6607
 1782SOL     OW16981   4.543   3.449   4.287  0.3207  0.0635  0.0127
 1782SOL    HW116982   4.559   3.485   4.200 -0.6898 -1.6827 -0.8956
 1782SOL    HW216983   4.584   3.512   4.346 -0.7114  0.3798  0.3928
 1783SOL     OW16984   4.187   2.247   9.178  0.0082  0.3697 -0.3775
 1783SOL    HW116985   4.231   2.256   9.093  0.2397 -0.6699 -0.3577
 1783SOL    HW216986   4.131   2.171   9.166 -1.5147  1.2735  1.1712
 1784SOL     OW16987   0.843   4.040   3.797 -0.4724 -0.5344 -0.1693
 1784SOL    HW116988   0.820   4.100   3.868 -1.6226  0.3033 -1.2235
 1784SOL    HW216989   0.838   3.955   3.840  1.1315 -0.9766 -0.8484
 1785SOL     OW16990   2.161   4.312   3.794 -0.5723 -0.2186  0.0231
 1785SOL    HW116991   2.179   4.400   3.827  0.4817 -0.0574 -0.9975
 1785SOL    HW216992   2.179   4.320   3.700 -0.0756 -0.7965  0.0665
 1786SOL     OW16993   2.541   2.917   6.688  0.4463 -0.2570  0.0893
 1786SOL    HW116994   2.556   2.840   6.632  0.6062  1.9975 -2.9441
 1786SOL    HW216995   2.568   2.990   6.632  0.0595 -0.5273 -0.4507
 1787SOL     OW16996   2.897   2.230  14.911 -0.1544 -0.1364  0.3852
 1787SOL    HW116997   2.830   2.298  14.906 -1.6395 -1.5030  1.4305
 1787SOL    HW216998   2.947   2.257  14.834 -2.8012  0.6390 -1.0829
 1788SOL     OW16999   2.656   4.008   3.410 -0.8102 -0.0750 -0.3517
 1788SOL    HW117000   2.740   4.038   3.444  0.6508 -2.9935 -1.3296
 1788SOL    HW217001   2.604   4.069   3.462  0.2384  0.0831  0.5292
 1789SOL     OW17002   1.111   3.442   5.011  0.3152 -0.4802  0.1701
 1789SOL    HW117003   1.065   3.363   5.040 -1.1656 -0.3558 -1.7974
 1789SOL    HW217004   1.120   3.485   5.096  2.7338  1.6155 -1.1430
 1790SOL     OW17005   4.562   2.067   5.545  0.2463  0.1823  0.3131
 1790SOL    HW117006   4.647   2.029   5.524 -1.2982 -2.4290 -1.1319
 1790SOL    HW217007   4.554   2.096   5.454  0.2962 -0.5422  0.0805
 1791SOL     OW17008   0.429   1.120   7.999  0.1489 -0.2797  0.6254
 1791SOL    HW117009   0.381   1.051   8.044  1.1781 -0.4186  1.4969
 1791SOL    HW217010   0.386   1.193   8.043  0.4282 -0.1085  0.6110
 1792SOL     OW17011   4.067   4.347  12.811 -0.3862  0.2761 -0.5307
 1792SOL    HW117012   4.148   4.297  12.822  0.3637  0.6350 -4.3204
 1792SOL    HW217013   4.090   4.427  12.859 -0.4840  0.0745 -0.1498
 1793SOL     OW17014   0.156   2.664   5.814  0.1783 -0.3523  0.0261
 1793SOL    HW117015   0.170   2.681   5.907  0.7140  0.0864 -0.1303
 1793SOL    HW217016   0.064   2.685   5.800  0.1941 -0.8690 -0.8642
 1794SOL     OW17017   2.972   0.215  12.576  0.4994  0.2154  0.2372
 1794SOL    HW117018   3.027   0.178  12.645 -0.8384 -0.0905  1.1320
 1794SOL    HW217019   3.012   0.172  12.500  1.3360 -0.8459  1.2663
 1795SOL     OW17020   2.633   3.765  11.085  0.2009 -0.0766 -0.2051
 1795SOL    HW117021   2.673   3.801  11.164 -1.2897  0.6285  0.2322
 1795SOL    HW217022   2.568   3.712  11.131 -0.8999  1.0531 -0.4656
 1796SOL     OW17023   1.247   2.948   4.526  0.7831  0.0580 -0.2650
 1796SOL    HW117024   1.337   2.981   4.528  1.9356 -2.9435 -2.1468
 1796SOL    HW217025   1.210   2.994   4.601  1.0834  0.5346 -0.4005
 1797SOL     OW17026   2.850   3.068   3.493  0.4063 -0.0908 -0.4630
 1797SOL    HW117027   2.789   3.079   3.420 -0.9098 -1.3388  0.4357
 1797SOL    HW217028   2.927   3.117   3.465 -0.4792  0.5464 -1.7610
 1798SOL     OW17029   3.793   4.273   5.717  0.5108  0.1231 -0.3589
 1798SOL    HW117030   3.822   4.364   5.709  1.1821  0.0505  1.2727
 1798SOL    HW217031   3.720   4.290   5.776 -1.3154 -0.3265 -2.4863
 1799SOL     OW17032   3.531   2.408   9.899  1.4444 -0.1889 -0.2618
 1799SOL    HW117033   3.490   2.351   9.964 -0.9675  0.6800 -0.9933
 1799SOL    HW217034   3.460   2.473   9.896  2.3446  0.8509  1.1600
 1800SOL     OW17035   0.234   1.613   4.289 -0.0128 -0.0963 -0.0061
 1800SOL    HW117036   0.141   1.592   4.284 -0.0954  0.1629  0.4121
 1800SOL    HW217037   0.245   1.692   4.236  0.7633  0.2343  0.6298
 1801SOL     OW17038   4.410   0.919   1.042 -0.1402 -0.2545 -0.0142
 1801SOL    HW117039   4.348   0.963   1.100  0.1406  2.0219 -1.4435
 1801SOL    HW217040   4.486   0.905   1.099  1.1787  0.2573 -1.6749
 1802SOL     OW17041   2.647   4.600  10.103 -0.2197 -0.7556  0.1187
 1802SOL    HW117042   2.644   4.522  10.158 -0.8133 -2.0332 -1.7232
 1802SOL    HW217043   2.609   4.584  10.016  0.8156 -1.4024 -0.2136
 1803SOL     OW17044   4.714   2.608   3.441  0.6248  0.2687  0.5516
 1803SOL    HW117045   0.040   2.553   3.399 -0.1050 -0.2414  0.0818
 1803SOL    HW217046   0.027   2.688   3.436  0.1598  0.4733 -1.2660
 1804SOL     OW17047   0.450   3.841   9.043 -0.2911  0.4305 -0.4984
 1804SOL    HW117048   0.406   3.794   9.114  1.0902 -1.3095 -0.7615
 1804SOL    HW217049   0.537   3.801   9.050 -0.5810  0.1183  1.2829
 1805SOL     OW17050   2.512   3.857   7.619  0.6301  0.1883  0.2376
 1805SOL    HW117051   2.450   3.926   7.638  0.4847  0.0693  0.1931
 1805SOL    HW217052   2.577   3.886   7.683 -0.3378  0.5954  1.0366
 1806SOL     OW17053   0.297   0.985   3.063 -0.1010 -0.4143 -0.0760
 1806SOL    HW117054   0.372   1.045   3.068 -0.2383 -0.3149  0.8335
 1806SOL    HW217055   0.238   1.013   3.133  0.6493  0.1866  0.3137
 1807SOL     OW17056   1.929   1.012   1.273  0.6335 -0.4860 -0.0970
 1807SOL    HW117057   1.996   0.978   1.333 -0.2144  0.7412  1.5288
 1807SOL    HW217058   1.856   1.027   1.333  0.5212 -1.0463 -0.0916
 1808SOL     OW17059   0.090   3.437   9.542  0.5818  0.2784  0.0508
 1808SOL    HW117060   0.092   3.533   9.536 -0.6742  0.2074 -1.7657
 1808SOL    HW217061   0.184   3.424   9.535  0.3795 -0.7837 -0.6768
 1809SOL     OW17062   2.850   2.407   4.201  0.1571 -0.2844 -0.1338
 1809SOL    HW117063   2.822   2.329   4.250  1.1543 -0.2744  0.4452
 1809SOL    HW217064   2.889   2.455   4.274 -0.6590  1.3620 -0.7805
 1810SOL     OW17065   0.221   3.479   2.752  0.6621  0.0346  0.4442
 1810SOL    HW117066   0.155   3.410   2.761  1.4703 -0.4880  2.3397
 1810SOL    HW217067   0.195   3.550   2.811  2.0131  0.9367 -0.0319
 1811SOL     OW17068   3.831   3.122   6.510 -0.1024 -0.4942 -0.0777
 1811SOL    HW117069   3.912   3.094   6.466  0.2626 -2.2825  1.7419
 1811SOL    HW217070   3.767   3.100   6.442  0.4075  3.1674 -1.7929
 1812SOL     OW17071   4.430   2.303   5.975 -1.0893  0.4530 -0.3133
 1812SOL    HW117072   4.356   2.317   6.035  0.0966  2.6940  0.6603
 1812SOL    HW217073   4.474   2.386   5.995  2.7135 -1.8769  0.7468
 1813SOL     OW17074   0.994   3.478  17.048 -0.5419  0.1453  0.0368
 1813SOL    HW117075   1.048   3.502  16.973  0.3347 -0.6944  0.3947
 1813SOL    HW217076   1.053   3.457  17.120  1.2620  0.4962 -1.3342
 1814SOL     OW17077   2.805   1.026   1.415 -0.2424  0.3746  0.0748
 1814SOL    HW117078   2.743   0.999   1.483 -2.0915 -1.5786 -2.3889
 1814SOL    HW217079   2.831   1.108   1.458 -0.4588  1.3191 -1.5915
 1815SOL     OW17080   2.812   1.339  13.351  0.1727 -0.7796  0.1931
 1815SOL    HW117081   2.730   1.315  13.395  0.1463  0.5559  0.8468
 1815SOL    HW217082   2.864   1.306  13.423 -1.3020 -1.2313  1.0512
 1816SOL     OW17083   2.449   2.055   7.245  0.2108  0.0940 -0.4548
 1816SOL    HW117084   2.531   2.006   7.250  1.0937  1.6339  0.2011
 1816SOL    HW217085   2.419   2.037   7.334  1.2278  0.4155 -0.0431
 1817SOL     OW17086   0.381   4.336   7.121  0.9296  0.3505 -0.0771
 1817SOL    HW117087   0.451   4.377   7.171  1.0461 -1.1616  1.0165
 1817SOL    HW217088   0.353   4.409   7.065 -0.5664  0.8148  1.2726
 1818SOL     OW17089   1.693   4.712  12.596  0.3597 -0.0912  0.2027
 1818SOL    HW117090   1.667   4.729  12.506  0.9419 -2.4021 -0.3885
 1818SOL    HW217091   1.752   4.638  12.578  0.2297  0.0508 -0.8074
 1819SOL     OW17092   4.476   4.083  10.463  0.5773 -0.5783  0.4653
 1819SOL    HW117093   4.437   3.998  10.484  1.9316 -0.9201  1.6344
 1819SOL    HW217094   4.402   4.144  10.467  1.0131 -0.0169 -0.1183
 1820SOL     OW17095   1.455   1.251   7.500 -0.3256  0.2657 -0.1875
 1820SOL    HW117096   1.419   1.338   7.482  0.0423  0.7223  1.2605
 1820SOL    HW217097   1.396   1.190   7.457  0.4467  0.7370 -1.9287
 1821SOL     OW17098   0.963   2.725  12.864 -0.2116  0.2184  0.2503
 1821SOL    HW117099   0.915   2.679  12.795  1.2027 -1.2541  0.2566
 1821SOL    HW217100   0.922   2.811  12.862 -0.2731  0.1994  0.8135
 1822SOL     OW17101   1.907   1.300   7.302  0.4580 -0.0320 -0.2343
 1822SOL    HW117102   1.853   1.240   7.354  1.6864  1.0695  2.2675
 1822SOL    HW217103   1.911   1.373   7.363 -0.8879  0.2705 -0.5110
 1823SOL     OW17104   1.159   4.391   7.923 -0.3165  0.0812  0.2828
 1823SOL    HW117105   1.161   4.299   7.898 -1.5146  0.0123  0.4592
 1823SOL    HW217106   1.252   4.407   7.907  0.0584 -0.5703  1.8435
 1824SOL     OW17107   4.713   3.803   5.573  0.0953 -0.0141 -0.4050
 1824SOL    HW117108   4.691   3.790   5.665  0.6866  1.6982 -0.0234
 1824SOL    HW217109   0.001   3.894   5.569 -0.0142  0.2006  3.5393
 1825SOL     OW17110   3.684   4.565   1.840 -0.1636 -0.2098 -0.1308
 1825SOL    HW117111   3.625   4.526   1.775 -1.3440  0.6611  0.4187
 1825SOL    HW217112   3.625   4.580   1.914  0.6640 -1.0008  0.6949
 1826SOL     OW17113   4.184   4.549   0.375 -0.3076  0.6031  0.1461
 1826SOL    HW117114   4.228   4.473   0.414 -0.9099 -0.1423 -0.6089
 1826SOL    HW217115   4.093   4.533   0.402 -0.5172 -0.1830 -1.0214
 1827SOL     OW17116   2.259   0.786   5.905  0.0226 -0.0714  0.5927
 1827SOL    HW117117   2.340   0.836   5.895  0.1681 -0.3449  0.4364
 1827SOL    HW217118   2.292   0.714   5.958  0.3004 -1.5758 -1.6541
 1828SOL     OW17119   2.742   3.210  12.462 -0.0948  0.0697 -0.1444
 1828SOL    HW117120   2.680   3.199  12.390 -0.8112 -0.8276  0.6083
 1828SOL    HW217121   2.761   3.302  12.445  1.2009  0.1257  1.6303
 1829SOL     OW17122   0.888   3.117   5.890 -0.1187  0.3786 -0.4958
 1829SOL    HW117123   0.943   3.055   5.840 -2.1583 -1.5755 -0.2979
 1829SOL    HW217124   0.837   3.154   5.818 -1.9091 -1.6003 -0.2624
 1830SOL     OW17125   0.687   3.274   1.839 -0.2839  0.3125 -0.0123
 1830SOL    HW117126   0.679   3.369   1.845 -0.5376  0.2318  0.8964
 1830SOL    HW217127   0.633   3.257   1.762 -1.2344  1.5394  0.3865
 1831SOL     OW17128   4.331   1.087   8.289 -0.0173  0.4697 -0.1190
 1831SOL    HW117129   4.330   1.169   8.338 -1.1184  1.2333 -1.4090
 1831SOL    HW217130   4.288   1.119   8.210  0.5131  1.7737  0.1264
 1832SOL     OW17131   4.432   0.110   7.928  0.0850 -0.0212 -0.1557
 1832SOL    HW117132   4.380   0.030   7.933  1.0979 -0.4509  3.6593
 1832SOL    HW217133   4.366   0.178   7.945 -2.1498 -2.1762 -0.1904
 1833SOL     OW17134   2.950   2.059   8.919  0.2256  0.3769  0.5744
 1833SOL    HW117135   2.907   1.975   8.937  0.4760 -0.0299 -0.7654
 1833SOL    HW217136   2.999   2.075   9.000  1.7192 -1.5580  0.0512
 1834SOL     OW17137   3.058   1.090   5.070 -0.1975  0.2373  0.0518
 1834SOL    HW117138   3.051   1.175   5.114  1.3036  0.0561  0.6320
 1834SOL    HW217139   3.083   1.124   4.984  1.5494 -0.8742  0.1198
 1835SOL     OW17140   4.702   2.803   7.119  0.1544 -0.3372 -0.0894
 1835SOL    HW117141   4.623   2.762   7.084 -1.0446  1.6898  0.2176
 1835SOL    HW217142   4.670   2.891   7.139  2.2223  0.2839  0.4388
 1836SOL     OW17143   2.934   4.437   2.446 -0.4632 -0.0678  0.5319
 1836SOL    HW117144   2.978   4.377   2.387 -1.8172 -1.0957  0.5689
 1836SOL    HW217145   2.887   4.500   2.391  0.5641  0.5762  0.3937
 1837SOL     OW17146   1.952   4.719   5.355  0.4878  0.0082 -0.3717
 1837SOL    HW117147   1.933   4.719   5.261  1.2442  1.0114 -0.5300
 1837SOL    HW217148   1.926   0.065   5.386  0.3297 -0.7288  1.4959
 1838SOL     OW17149   3.800   2.936   8.172 -0.4235  0.3543  0.8943
 1838SOL    HW117150   3.795   2.853   8.125 -0.3122  0.1160  1.3017
 1838SOL    HW217151   3.893   2.945   8.195  0.0766 -1.0776 -0.5378
 1839SOL     OW17152   4.426   2.784  16.523  0.0000 -0.4370  0.1119
 1839SOL    HW117153   4.369   2.848  16.567  0.7401  0.1028  0.2863
 1839SOL    HW217154   4.367   2.747  16.457 -1.2593 -2.7444  2.5052
 1840SOL     OW17155   0.548   1.424   9.355  0.1651 -0.4600  0.2919
 1840SOL    HW117156   0.549   1.483   9.430  0.3705 -0.1229  0.0288
 1840SOL    HW217157   0.457   1.432   9.328  0.4481  2.9774  0.3045
 1841SOL     OW17158   1.486   2.369  10.305 -0.0549  0.2112 -0.3172
 1841SOL    HW117159   1.456   2.309  10.374  0.2934 -0.4035 -0.7055
 1841SOL    HW217160   1.551   2.426  10.346  0.1850  0.2030 -0.6934
 1842SOL     OW17161   0.242   0.853  16.813  0.2337 -0.3254 -0.0535
 1842SOL    HW117162   0.287   0.778  16.853  1.4566 -0.8239 -2.3613
 1842SOL    HW217163   0.270   0.926  16.868 -0.2699  0.5357 -0.9356
 1843SOL     OW17164   4.140   3.003  17.296 -0.0927  0.5272  0.0011
 1843SOL    HW117165   4.159   2.950  17.374 -1.0881 -0.8818 -0.6980
 1843SOL    HW217166   4.178   3.088  17.318 -0.7054  1.5498 -2.8512
 1844SOL     OW17167   2.730   1.946   5.759 -0.6059 -0.5408 -0.4035
 1844SOL    HW117168   2.642   1.921   5.785 -1.0116 -0.2266 -1.4915
 1844SOL    HW217169   2.755   1.885   5.689  0.2731  1.2318 -1.6360
 1845SOL     OW17170   2.947   2.014   8.307 -0.3145  0.2032  0.1420
 1845SOL    HW117171   2.905   1.988   8.389 -1.0030  1.0714  0.0615
 1845SOL    HW217172   3.034   1.976   8.308 -0.4367 -0.1006 -1.1679
 1846SOL     OW17173   4.526   2.853   9.285  0.2834  0.3711  0.4300
 1846SOL    HW117174   4.561   2.814   9.205 -0.2103 -1.6357  1.2002
 1846SOL    HW217175   4.490   2.772   9.321  2.2279 -0.4118  0.6103
 1847SOL     OW17176   2.154   3.453   9.413  0.0956 -0.0654 -0.4263
 1847SOL    HW117177   2.087   3.456   9.345 -0.7245  0.1871  0.3934
 1847SOL    HW217178   2.108   3.401   9.480  0.5785 -1.2856 -1.0325
 1848SOL     OW17179   1.727   1.978   6.586 -0.5149  0.2639 -0.2970
 1848SOL    HW117180   1.802   1.929   6.622 -0.8568  1.0768  1.5218
 1848SOL    HW217181   1.672   2.007   6.659  0.9336 -2.0062  1.7240
 1849SOL     OW17182   2.088   1.740   2.093 -0.1820 -0.1639  0.8832
 1849SOL    HW117183   2.139   1.678   2.041 -1.0048  1.0306 -1.3121
 1849SOL    HW217184   2.165   1.780   2.133  0.3354 -0.4420  0.1607
 1850SOL     OW17185   2.013   3.461   3.528 -0.0834 -0.0587  0.3085
 1850SOL    HW117186   2.103   3.434   3.545 -0.6171 -2.0189 -0.0383
 1850SOL    HW217187   2.020   3.520   3.453 -0.2357 -1.5871 -0.9132
 1851SOL     OW17188   0.005   0.208   6.492 -0.0591 -0.6535 -0.3932
 1851SOL    HW117189   4.686   0.168   6.555  0.9054 -0.8637  0.3738
 1851SOL    HW217190   4.693   0.209   6.411  0.1953  3.1379 -0.5471
 1852SOL     OW17191   0.021   0.490  11.476 -0.9776 -0.3381  0.0728
 1852SOL    HW117192   4.682   0.521  11.520 -0.7002  1.1593 -0.4741
 1852SOL    HW217193   4.727   0.401  11.483  2.0043 -1.4349  0.4721
 1853SOL     OW17194   4.660   3.537  16.023  0.2025 -0.8779 -0.4930
 1853SOL    HW117195   4.571   3.571  16.007  1.6950  2.3518 -1.9470
 1853SOL    HW217196   4.651   3.503  16.111  0.1461 -0.6480 -0.4090
 1854SOL     OW17197   3.677   1.015   8.074  0.2690 -0.3469 -1.5614
 1854SOL    HW117198   3.647   1.105   8.060 -1.4181 -1.0219 -2.3747
 1854SOL    HW217199   3.678   1.000   8.168 -1.1830  0.1037 -1.4715
 1855SOL     OW17200   3.482   1.403   1.632  0.1853 -0.1053 -0.1054
 1855SOL    HW117201   3.563   1.404   1.683 -0.2317 -1.6502  0.6022
 1855SOL    HW217202   3.497   1.339   1.563 -1.3336 -1.6539  0.9804
 1856SOL     OW17203   1.604   1.009   5.617 -0.4433  0.0287 -0.4098
 1856SOL    HW117204   1.630   1.083   5.563  2.2378 -0.5025  0.1615
 1856SOL    HW217205   1.649   1.022   5.700 -0.1465 -0.7178 -0.4534
 1857SOL     OW17206   1.628   4.654   7.589  0.8613 -0.0818  0.2857
 1857SOL    HW117207   1.663   4.600   7.660  0.9053  0.3792  0.6090
 1857SOL    HW217208   1.535   4.635   7.602  0.4527 -0.0300 -2.5009
 1858SOL     OW17209   0.789   0.271   6.218  0.3089  0.2872  0.0371
 1858SOL    HW117210   0.700   0.240   6.199  0.0085  0.7523  0.6885
 1858SOL    HW217211   0.842   0.228   6.151  0.2100 -2.1503  1.5550
 1859SOL     OW17212   2.251   4.456   9.153 -0.1112 -0.2253 -0.1656
 1859SOL    HW117213   2.281   4.477   9.241  1.4855 -3.5718  0.1021
 1859SOL    HW217214   2.329   4.406   9.131 -0.1652 -0.6287  0.5648
 1860SOL     OW17215   2.335   2.561   2.262  0.0247 -0.0888  0.0673
 1860SOL    HW117216   2.256   2.519   2.297  1.6537 -0.2225  3.5860
 1860SOL    HW217217   2.317   2.653   2.279 -0.8367 -0.0590 -0.9862
 1861SOL     OW17218   4.622   1.777  14.477  0.4032 -0.0126  0.4272
 1861SOL    HW117219   4.614   1.734  14.562  1.0925  3.1486  2.0775
 1861SOL    HW217220   4.533   1.776  14.441  1.0478  2.0783 -1.2183
 1862SOL     OW17221   4.208   0.733  12.225  0.0884  0.2610 -0.5238
 1862SOL    HW117222   4.130   0.788  12.232 -1.0357 -1.1953 -1.7422
 1862SOL    HW217223   4.179   0.676  12.154 -1.7063  0.8274 -0.2460
 1863SOL     OW17224   2.478   1.279   5.019 -0.2372 -0.2950  0.1068
 1863SOL    HW117225   2.387   1.255   5.003  0.3314 -3.4571  1.7119
 1863SOL    HW217226   2.486   1.374   5.007  3.4677 -0.1812  3.5286
 1864SOL     OW17227   3.524   1.012   3.617  0.0527 -0.8912 -0.2960
 1864SOL    HW117228   3.608   0.975   3.590  1.2837 -0.7856  3.3525
 1864SOL    HW217229   3.468   0.946   3.576 -1.9207  0.4133  0.3343
 1865SOL     OW17230   0.737   0.913   1.660  0.4025 -0.2875  0.7953
 1865SOL    HW117231   0.760   0.826   1.627  0.2881  0.2080 -0.6024
 1865SOL    HW217232   0.673   0.879   1.723 -0.8108 -0.1341 -0.3574
 1866SOL     OW17233   0.960   0.011   1.072  0.3389  0.2455  0.1999
 1866SOL    HW117234   0.979   0.047   0.985 -0.1739  0.2289  0.0846
 1866SOL    HW217235   1.033   4.691   1.088  0.3445 -0.4079 -2.3050
 1867SOL     OW17236   4.669   4.028   7.306 -0.8619 -0.1916 -0.1300
 1867SOL    HW117237   0.006   4.056   7.257 -0.3684 -0.3962  0.5185
 1867SOL    HW217238   4.634   4.116   7.319 -2.7957 -1.3025  2.3666
 1868SOL     OW17239   2.308   1.108   2.261  0.0768 -0.3040  0.1001
 1868SOL    HW117240   2.300   1.103   2.356 -0.3004  0.4131  0.1054
 1868SOL    HW217241   2.366   1.184   2.261  0.6688 -0.7456 -0.2400
 1869SOL     OW17242   0.106   0.700  11.262  0.3142 -0.6665 -0.2237
 1869SOL    HW117243   0.071   0.626  11.312 -0.8013 -0.2684 -0.4138
 1869SOL    HW217244   0.163   0.648  11.205 -2.2156 -1.5793 -1.9486
 1870SOL     OW17245   2.096   4.523  17.183  0.0173  0.2065 -0.0924
 1870SOL    HW117246   2.090   4.575  17.102  0.7156  0.5906  0.0985
 1870SOL    HW217247   2.184   4.545  17.214 -0.1710  0.2424  0.4164
 1871SOL     OW17248   4.236   1.145  11.035  0.1605  0.1370  0.2143
 1871SOL    HW117249   4.306   1.130  11.097  0.6987 -0.2953 -0.5022
 1871SOL    HW217250   4.189   1.062  11.044 -0.4887  0.8923  3.6238
 1872SOL     OW17251   4.022   4.674  12.752 -0.3251  0.7510 -0.1351
 1872SOL    HW117252   3.998   0.018  12.791  0.7575  0.4675  1.1377
 1872SOL    HW217253   4.008   4.701  12.661  0.8300 -1.2183 -0.9126
 1873SOL     OW17254   1.791   0.090   2.545 -0.2621 -0.1596  0.4774
 1873SOL    HW117255   1.836   0.170   2.573  1.9106 -1.0055 -0.5360
 1873SOL    HW217256   1.730   0.134   2.486 -0.2326 -0.3199  0.3272
 1874SOL     OW17257   0.031   1.829  14.216 -0.2224  0.3124 -0.3557
 1874SOL    HW117258   4.690   1.863  14.179 -0.1782  1.4701  0.6182
 1874SOL    HW217259   0.009   1.848  14.308 -2.5405  0.5438 -0.9536
 1875SOL     OW17260   3.597   3.232   9.229 -0.6033 -0.0954  0.0726
 1875SOL    HW117261   3.659   3.159   9.231 -0.3489  0.0631 -3.8093
 1875SOL    HW217262   3.616   3.269   9.316  0.7259  0.1363 -0.3201
 1876SOL     OW17263   4.427   3.258   8.153 -0.1143 -0.2028  0.2021
 1876SOL    HW117264   4.401   3.284   8.242 -2.6249 -1.8020 -0.0451
 1876SOL    HW217265   4.379   3.308   8.087  1.9075  0.6622 -0.5856
 1877SOL     OW17266   3.639   0.469   4.593  0.4074 -0.0546 -0.1794
 1877SOL    HW117267   3.609   0.549   4.551 -0.2522 -0.9022 -1.3311
 1877SOL    HW217268   3.576   0.470   4.665  0.0115 -0.1829 -0.5232
 1878SOL     OW17269   1.124   1.492  15.970  0.1864 -1.3088  0.1179
 1878SOL    HW117270   1.052   1.519  15.913 -0.1382 -1.3399  0.5180
 1878SOL    HW217271   1.192   1.549  15.932 -0.7731 -0.0118  0.3616
 1879SOL     OW17272   0.211   1.915  13.464  0.1794  0.3273 -0.5423
 1879SOL    HW117273   0.251   2.000  13.442 -0.3204 -0.1793 -3.3765
 1879SOL    HW217274   0.244   1.914  13.554 -1.6171 -1.6436  0.0728
 1880SOL     OW17275   3.444   1.755   2.410  0.2384  0.0400 -0.6325
 1880SOL    HW117276   3.443   1.779   2.317 -2.8041 -0.8334 -0.8272
 1880SOL    HW217277   3.535   1.774   2.431  0.2468  0.1060 -0.7317
 1881SOL     OW17278   1.274   1.851   2.413 -0.2614 -0.1952  0.3528
 1881SOL    HW117279   1.184   1.819   2.407 -0.9482  1.4459  1.9386
 1881SOL    HW217280   1.255   1.942   2.433 -0.8985 -0.3761  0.5756
 1882SOL     OW17281   3.796   0.403   9.386  0.1049  0.0634 -0.7550
 1882SOL    HW117282   3.820   0.491   9.357  3.1981 -0.3641  0.5200
 1882SOL    HW217283   3.729   0.374   9.324  2.2592 -0.6665 -2.6935
 1883SOL     OW17284   2.174   1.192   2.972 -0.1374  0.0349 -0.2063
 1883SOL    HW117285   2.261   1.232   2.973 -1.0979  2.0134  3.0782
 1883SOL    HW217286   2.133   1.259   3.025 -0.6336  0.3531 -0.9926
 1884SOL     OW17287   4.376   3.370   1.706 -0.3463 -0.0466  0.4466
 1884SOL    HW117288   4.388   3.337   1.617  4.1524 -0.0099  1.0671
 1884SOL    HW217289   4.336   3.296   1.751  2.6350 -1.6813  0.3555
 1885SOL     OW17290   3.547   0.556   5.168 -0.1786  0.4013 -0.2396
 1885SOL    HW117291   3.609   0.619   5.130 -1.6524  1.8570 -0.2387
 1885SOL    HW217292   3.592   0.472   5.171 -0.5517  0.1434 -1.8166
 1886SOL     OW17293   4.674   2.404  15.750  0.3282  0.4502 -0.2603
 1886SOL    HW117294   4.689   2.318  15.712 -3.3168  1.1659 -3.2485
 1886SOL    HW217295   4.706   2.393  15.840 -3.0843 -0.6050  0.8307
 1887SOL     OW17296   1.993   0.906   2.001 -0.4533 -0.4634 -0.0184
 1887SOL    HW117297   2.024   0.820   1.975 -0.9560 -0.8332  0.5767
 1887SOL    HW217298   2.072   0.959   2.009  0.0607 -1.5349  2.2086
 1888SOL     OW17299   0.346   3.932   6.766  0.4267 -0.2791 -0.0527
 1888SOL    HW117300   0.309   3.897   6.847  0.0257  1.1311  0.3805
 1888SOL    HW217301   0.367   4.021   6.795 -1.0367 -0.5107  1.7280
 1889SOL     OW17302   0.729   1.880   7.925  0.2061 -0.1518  0.1040
 1889SOL    HW117303   0.784   1.921   7.858 -0.1828  1.4615  0.7824
 1889SOL    HW217304   0.789   1.823   7.974 -0.8393 -1.3924 -0.0799
 1890SOL     OW17305   1.738   1.501   2.697 -0.3257  0.2904  0.3199
 1890SOL    HW117306   1.802   1.521   2.765  5.2052 -4.2878 -3.6200
 1890SOL    HW217307   1.731   1.592   2.669 -2.3164 -0.1753 -0.6783
 1891SOL     OW17308   2.356   1.514   1.387  0.0666 -0.2494  0.2450
 1891SOL    HW117309   2.334   1.600   1.422  3.0239  1.1570 -1.3152
 1891SOL    HW217310   2.304   1.460   1.446 -2.1346  1.6966  0.0778
 1892SOL     OW17311   0.621   0.566   5.711 -0.2807  0.0361  0.3884
 1892SOL    HW117312   0.618   0.618   5.631 -0.5953 -0.0726  0.3318
 1892SOL    HW217313   0.655   0.638   5.765 -0.4110  0.5671 -0.2350
 1893SOL     OW17314   0.769   4.536  10.113 -0.2253  0.1217 -0.1507
 1893SOL    HW117315   0.717   4.465  10.076  0.2691 -1.0304  1.3572
 1893SOL    HW217316   0.833   4.542  10.043  0.1839 -0.7160  0.1513
 1894SOL     OW17317   2.778   0.056  16.389 -0.4328  0.6595  0.2674
 1894SOL    HW117318   2.762   0.020  16.302 -2.0545  2.8391 -0.3329
 1894SOL    HW217319   2.690   0.059  16.428  0.3788  3.5710  1.8779
 1895SOL     OW17320   1.121   3.336  17.244  0.0774  0.2447  0.6321
 1895SOL    HW117321   1.167   3.385  17.311 -1.1089  1.6744  0.3847
 1895SOL    HW217322   1.140   3.244  17.263 -1.8761 -0.1396  0.6940
 1896SOL     OW17323   3.915   0.317   5.914 -0.3003  0.9650 -0.2161
 1896SOL    HW117324   3.971   0.391   5.937 -1.1031  1.5945 -0.2752
 1896SOL    HW217325   3.989   0.258   5.925 -1.4100  0.0346  2.2294
 1897SOL     OW17326   3.286   1.217   2.714  0.3522  0.0420  0.4405
 1897SOL    HW117327   3.353   1.211   2.646 -0.4414  1.2605 -0.4459
 1897SOL    HW217328   3.273   1.311   2.727 -2.3559 -0.3613  0.6446
 1898SOL     OW17329   0.458   0.269  14.980 -0.0873 -0.2963  0.4930
 1898SOL    HW117330   0.372   0.310  14.991 -0.6650 -1.3463 -0.0783
 1898SOL    HW217331   0.507   0.351  14.976  1.3937 -1.1325  1.3561
 1899SOL     OW17332   3.116   1.282  14.703  0.6699  0.1097  0.0189
 1899SOL    HW117333   3.106   1.261  14.611 -0.5442 -1.1674  0.4429
 1899SOL    HW217334   3.129   1.193  14.736  0.0530  1.5145  4.0948
 1900SOL     OW17335   4.289   0.493   7.748 -0.4069 -0.2600  0.2651
 1900SOL    HW117336   4.284   0.588   7.739  0.3351 -0.2494  0.0054
 1900SOL    HW217337   4.349   0.470   7.678 -3.4588 -0.5055 -2.2494
 1901SOL     OW17338   2.845   2.792   3.514 -0.6213 -0.2795  0.1752
 1901SOL    HW117339   2.768   2.760   3.561  1.1153 -2.3232  1.6865
 1901SOL    HW217340   2.829   2.886   3.515  1.5918  0.0948  1.3284
 1902SOL     OW17341   3.342   2.180   7.668  0.0326 -0.3525 -0.4080
 1902SOL    HW117342   3.346   2.240   7.742 -1.8825 -0.3848 -0.2742
 1902SOL    HW217343   3.428   2.188   7.629 -0.3149 -0.0579 -1.1010
 1903SOL     OW17344   1.167   1.414  10.154 -0.0199 -0.8393  0.2707
 1903SOL    HW117345   1.212   1.477  10.098 -0.1246 -0.1145  0.9977
 1903SOL    HW217346   1.242   1.394  10.210 -0.0153 -1.5710 -0.0061
 1904SOL     OW17347   1.626   3.178  15.674 -0.1597 -0.0594  0.3712
 1904SOL    HW117348   1.581   3.119  15.734  0.6355 -1.8952 -0.8663
 1904SOL    HW217349   1.645   3.126  15.596  0.0496 -0.7150  0.8638
 1905SOL     OW17350   2.903   4.260   4.342 -0.6565 -0.0238  0.2358
 1905SOL    HW117351   2.967   4.320   4.304 -0.0919 -0.1366  1.0013
 1905SOL    HW217352   2.969   4.195   4.368 -0.5429 -1.0917 -2.6665
 1906SOL     OW17353   3.576   3.897   3.550  0.7496 -0.5772  0.7572
 1906SOL    HW117354   3.649   3.934   3.599 -0.4451  2.5153  0.2098
 1906SOL    HW217355   3.500   3.933   3.594  1.3254  0.3905  0.9526
 1907SOL     OW17356   4.175   0.828   6.052  0.2969 -0.0508  0.3734
 1907SOL    HW117357   4.148   0.899   5.993 -0.3271 -0.0571  0.6594
 1907SOL    HW217358   4.123   0.752   6.026 -0.1270  0.9151 -1.6482
 1908SOL     OW17359   3.359   2.718   2.556 -0.4292 -0.0375  0.2632
 1908SOL    HW117360   3.270   2.733   2.524 -0.3832 -1.1591 -0.3731
 1908SOL    HW217361   3.341   2.702   2.648 -1.9464 -2.5063 -0.4653
 1909SOL     OW17362   2.586   2.523  11.105 -0.5304 -0.4123 -0.2031
 1909SOL    HW117363   2.601   2.536  11.012 -0.2281 -2.7211 -0.4647
 1909SOL    HW217364   2.632   2.594  11.151 -1.5242  0.2666 -0.2538
 1910SOL     OW17365   1.265   4.339   3.766  0.0553 -0.3477 -0.1030
 1910SOL    HW117366   1.205   4.270   3.796  0.3556  0.3680  2.2019
 1910SOL    HW217367   1.350   4.313   3.802  0.6129 -0.9520 -1.8844
 1911SOL     OW17368   4.258   1.766   8.753  0.0415  0.1538 -0.8368
 1911SOL    HW117369   4.271   1.853   8.790 -2.9451  0.0329  0.4478
 1911SOL    HW217370   4.168   1.748   8.780  1.2621 -0.8387  2.5937
 1912SOL     OW17371   4.708   2.457   2.683  0.3970 -0.2443  0.3846
 1912SOL    HW117372   4.685   2.365   2.674  0.8353 -0.5291  2.0324
 1912SOL    HW217373   4.660   2.499   2.612  2.1105 -0.9240 -1.1684
 1913SOL     OW17374   0.854   1.439   3.826  0.1397  0.1569  0.0007
 1913SOL    HW117375   0.940   1.415   3.791  0.2098  0.5490 -0.0869
 1913SOL    HW217376   0.805   1.413   3.748 -2.1067 -0.9786  1.7784
 1914SOL     OW17377   2.628   0.828   2.894  0.7749 -0.1335 -0.6716
 1914SOL    HW117378   2.720   0.851   2.884 -0.1684  2.9833 -2.3289
 1914SOL    HW217379   2.584   0.904   2.933 -0.5564 -0.2274 -1.9813
 1915SOL     OW17380   1.230   2.944   9.087 -0.0865 -0.5568 -0.7427
 1915SOL    HW117381   1.247   2.858   9.124  0.4734  0.1922  0.7015
 1915SOL    HW217382   1.313   2.978   9.056 -0.5541  0.0817 -1.2979
 1916SOL     OW17383   1.617   3.253   3.571 -0.0611 -0.3487 -0.2889
 1916SOL    HW117384   1.637   3.331   3.520  0.7384  0.0912  0.6990
 1916SOL    HW217385   1.527   3.267   3.601  0.1560 -0.7634  0.5491
 1917SOL     OW17386   0.712   4.199   2.458  0.7552  0.5420 -0.1938
 1917SOL    HW117387   0.642   4.253   2.421 -0.7890  0.2169  2.2602
 1917SOL    HW217388   0.717   4.129   2.392  1.7488  0.7154 -0.3031
 1918SOL     OW17389   3.194   2.625   2.326 -0.5773 -0.1373 -0.1402
 1918SOL    HW117390   3.133   2.611   2.398 -1.0481 -0.5296 -0.6163
 1918SOL    HW217391   3.204   2.720   2.321 -1.4945 -0.0333 -0.0716
 1919SOL     OW17392   2.003   3.123  10.270 -0.3418  0.7087  0.2127
 1919SOL    HW117393   2.084   3.118  10.319 -1.4539  0.0495  1.9869
 1919SOL    HW217394   1.941   3.144  10.340  0.8105  2.2881  0.7657
 1920SOL     OW17395   0.991   1.040   3.260 -0.6673 -0.3217 -0.3093
 1920SOL    HW117396   1.039   0.961   3.282  1.5717  1.3841  0.9821
 1920SOL    HW217397   1.002   1.061   3.167  2.4921 -1.3605 -0.1741
 1921SOL     OW17398   4.035   4.275  15.380 -0.2800  0.4347 -0.3863
 1921SOL    HW117399   4.089   4.235  15.448 -1.9527 -1.6522 -0.2700
 1921SOL    HW217400   3.958   4.217  15.379  1.2965 -1.6886  1.5611
 1922SOL     OW17401   4.174   2.509   9.594 -0.5599  0.3462  0.1075
 1922SOL    HW117402   4.198   2.430   9.546 -0.6853  1.5048 -1.8625
 1922SOL    HW217403   4.157   2.571   9.523 -1.7826  0.5447  0.5723
 1923SOL     OW17404   2.254   2.884   6.009  0.0041 -0.5021 -0.4842
 1923SOL    HW117405   2.242   2.794   5.979 -1.2247 -0.4812 -0.0484
 1923SOL    HW217406   2.339   2.903   5.969  0.0747  0.6405  0.2024
 1924SOL     OW17407   0.576   1.793   0.446 -0.1611 -0.3627 -0.1672
 1924SOL    HW117408   0.492   1.837   0.453 -0.2068 -0.5818  0.6668
 1924SOL    HW217409   0.633   1.859   0.485 -1.2662  1.2643 -1.3288
 1925SOL     OW17410   2.304   0.123   6.329  0.0445 -0.0599 -0.4507
 1925SOL    HW117411   2.339   0.049   6.379 -0.1898  1.0674  1.4138
 1925SOL    HW217412   2.360   0.194   6.361  0.8180 -1.4209  1.1983
 1926SOL     OW17413   3.028   1.099   8.051  0.3752  0.8379  0.3621
 1926SOL    HW117414   3.069   1.099   7.965  0.3385 -1.1325  0.3392
 1926SOL    HW217415   2.938   1.101   8.017  0.6715 -2.6332 -0.6738
 1927SOL     OW17416   3.981   2.293   4.128  0.3434  0.1121 -0.1518
 1927SOL    HW117417   3.990   2.311   4.035  0.2718  0.0497 -0.1711
 1927SOL    HW217418   4.008   2.376   4.167  2.9767  0.0062 -1.7815
 1928SOL     OW17419   2.079   3.505   7.513  0.2315 -0.0289 -0.1994
 1928SOL    HW117420   2.072   3.550   7.429  3.7911 -3.0503 -2.1155
 1928SOL    HW217421   2.003   3.547   7.553 -0.9425 -1.6627 -0.7391
 1929SOL     OW17422   2.026   3.115  15.637 -0.5281 -0.2827 -0.3226
 1929SOL    HW117423   1.953   3.176  15.637  0.6300  1.0847  2.4408
 1929SOL    HW217424   1.982   3.033  15.612  1.1933 -1.5408  0.7970
 1930SOL     OW17425   2.535   2.588   5.531 -0.7787  0.0107  0.0876
 1930SOL    HW117426   2.579   2.634   5.459  0.6293 -1.3050  0.1221
 1930SOL    HW217427   2.580   2.635   5.601  0.5391  0.6694 -1.2012
 1931SOL     OW17428   1.518   1.469   3.224 -0.1362  0.4856  0.1192
 1931SOL    HW117429   1.512   1.468   3.129  1.5391  0.6921  0.0195
 1931SOL    HW217430   1.478   1.383   3.236 -0.1537  0.5524  0.5606
 1932SOL     OW17431   2.288   3.271   5.495 -0.3550 -0.1828  0.2615
 1932SOL    HW117432   2.284   3.366   5.497 -0.2099 -0.1848  0.6056
 1932SOL    HW217433   2.380   3.251   5.475 -0.3851 -0.3413  0.2753
 1933SOL     OW17434   1.200   0.571  15.586  0.4200  0.0432 -0.0801
 1933SOL    HW117435   1.120   0.576  15.637 -0.6841 -0.5414 -1.7524
 1933SOL    HW217436   1.256   0.512  15.637  1.1837  0.6604 -0.2085
 1934SOL     OW17437   0.581   4.479   5.224  0.1768 -0.5286 -0.0124
 1934SOL    HW117438   0.506   4.430   5.191 -0.2802  0.3328 -0.2364
 1934SOL    HW217439   0.652   4.421   5.195 -0.8560 -2.1180  0.6281
 1935SOL     OW17440   4.607   0.922   5.676  0.3080  0.3909  0.3685
 1935SOL    HW117441   4.530   0.902   5.730 -2.2660  2.4459 -2.5131
 1935SOL    HW217442   4.631   1.010   5.705 -0.5922  0.9183 -0.4907
 1936SOL     OW17443   1.408   3.538   4.655 -0.4703  0.2046  0.7473
 1936SOL    HW117444   1.472   3.562   4.589  1.1443 -0.2963  2.1502
 1936SOL    HW217445   1.450   3.478   4.717 -1.3584 -1.1824  0.0071
 1937SOL     OW17446   0.791   0.274  17.072 -0.7234 -0.0715  0.1656
 1937SOL    HW117447   0.795   0.323  16.989 -2.5437 -1.0371 -0.4845
 1937SOL    HW217448   0.762   0.339  17.136  0.1916  0.8420 -0.3369
 1938SOL     OW17449   2.861   3.636   2.941 -0.0776  0.1564 -0.1874
 1938SOL    HW117450   2.861   3.561   2.881 -1.2258  0.2637 -0.3278
 1938SOL    HW217451   2.927   3.689   2.897 -0.3279 -0.5330 -1.4004
 1939SOL     OW17452   1.367   3.492  11.185 -0.0421 -0.0866  0.2688
 1939SOL    HW117453   1.292   3.508  11.128 -0.5793 -0.4315  0.8899
 1939SOL    HW217454   1.340   3.413  11.230 -2.2298 -0.1652 -1.2167
 1940SOL     OW17455   2.050   3.662  11.119  0.1544 -0.7173  0.5801
 1940SOL    HW117456   1.985   3.595  11.142  1.2015 -1.8278  0.3119
 1940SOL    HW217457   2.115   3.615  11.066  0.6419  2.1720 -1.3486
 1941SOL     OW17458   3.915   3.330   3.004  0.4088  0.2501  0.0141
 1941SOL    HW117459   3.881   3.362   2.921 -1.2928 -3.2146 -0.5891
 1941SOL    HW217460   3.863   3.250   3.015  1.0746 -0.0642  0.9073
 1942SOL     OW17461   4.312   2.297   8.918 -0.4702  0.5571 -0.0429
 1942SOL    HW117462   4.374   2.266   8.853 -0.0817  1.7843 -0.2594
 1942SOL    HW217463   4.231   2.250   8.898 -1.2636  1.1433  1.7780
 1943SOL     OW17464   1.334   1.027   2.354  0.6280 -0.0286 -0.5374
 1943SOL    HW117465   1.320   1.108   2.304 -0.7612  0.0285 -0.0537
 1943SOL    HW217466   1.326   1.056   2.445 -0.7790 -1.5426 -0.1746
 1944SOL     OW17467   4.142   3.648   8.871  0.9750 -0.0567  0.1677
 1944SOL    HW117468   4.076   3.712   8.897  0.0591 -0.8785 -0.1335
 1944SOL    HW217469   4.120   3.570   8.922  1.5664  0.1492  0.7375
 1945SOL     OW17470   0.901   0.167  13.759  0.1235 -0.6586 -0.7949
 1945SOL    HW117471   0.897   0.106  13.833 -2.2128 -1.6861 -1.7630
 1945SOL    HW217472   0.993   0.151  13.735  0.3301  0.7806 -0.9133
 1946SOL     OW17473   2.254   0.190   1.800 -0.2163 -0.2085  0.1189
 1946SOL    HW117474   2.241   0.272   1.848  0.6164 -0.6462  1.1020
 1946SOL    HW217475   2.176   0.143   1.830  0.5741 -2.7351 -1.8469
 1947SOL     OW17476   0.760   1.538   4.043 -0.1803 -0.1788 -0.4232
 1947SOL    HW117477   0.822   1.512   4.110 -0.1350  0.5346 -0.1895
 1947SOL    HW217478   0.777   1.487   3.964  3.2704 -0.6686  0.6517
 1948SOL     OW17479   4.559   4.026  14.981  0.7143 -0.7013 -0.4340
 1948SOL    HW117480   4.591   4.116  14.981 -2.4923  0.4165 -1.8228
 1948SOL    HW217481   4.612   4.004  14.905  0.9551  1.8576 -0.9781
 1949SOL     OW17482   4.546   0.312   4.786 -0.3033  0.2704 -0.5585
 1949SOL    HW117483   4.555   0.362   4.867  0.9165  0.5121 -0.8417
 1949SOL    HW217484   4.640   0.308   4.770 -0.3864 -2.3044 -0.4289
 1950SOL     OW17485   0.347   2.485   4.950  0.7132  0.1782  0.3682
 1950SOL    HW117486   0.348   2.493   4.855 -1.2574 -1.2184  0.2186
 1950SOL    HW217487   0.258   2.517   4.968  0.9408  1.3619 -0.6296
 1951SOL     OW17488   0.748   2.209  12.374 -0.3143 -0.1812  0.1422
 1951SOL    HW117489   0.804   2.269  12.424 -0.6115  1.8518 -1.9881
 1951SOL    HW217490   0.673   2.261  12.347 -0.5549 -0.1638  0.8581
 1952SOL     OW17491   4.675   1.712  11.182  0.3657  0.0391 -0.1245
 1952SOL    HW117492   4.681   1.744  11.272 -0.9637 -0.1614  0.0370
 1952SOL    HW217493   0.005   1.647  11.187  0.3547  0.0428  0.0869
 1953SOL     OW17494   2.127   1.952   9.760 -0.0242  0.1902  0.3716
 1953SOL    HW117495   2.150   2.010   9.833 -0.6472  0.3343  0.4571
 1953SOL    HW217496   2.211   1.951   9.716 -0.6999 -0.2775 -0.8950
 1954SOL     OW17497   3.415   2.045   1.433 -0.0050 -0.7431 -0.9856
 1954SOL    HW117498   3.411   2.105   1.358 -0.4035 -1.4826 -1.5670
 1954SOL    HW217499   3.496   1.997   1.415 -0.8747 -3.6141  2.8646
 1955SOL     OW17500   1.991   1.725   8.885 -0.5006  0.0552 -0.0228
 1955SOL    HW117501   2.034   1.803   8.853  1.2276 -1.2678 -0.9271
 1955SOL    HW217502   2.071   1.693   8.927  0.5211 -0.7286 -2.5821
 1956SOL     OW17503   3.050   0.132  13.036 -0.7689  0.1255 -0.1714
 1956SOL    HW117504   3.140   0.104  13.047 -0.8596  0.0322  0.3508
 1956SOL    HW217505   3.034   0.114  12.944 -2.4465  3.5435 -0.5646
 1957SOL     OW17506   1.048   4.324   1.333 -0.1845 -0.4146  0.4515
 1957SOL    HW117507   0.989   4.392   1.368 -0.0306 -1.3823  2.5877
 1957SOL    HW217508   1.063   4.354   1.244 -1.0665 -1.9777 -0.2148
 1958SOL     OW17509   2.991   1.340  13.559 -0.1734  0.0665  0.0381
 1958SOL    HW117510   3.001   1.254  13.600  0.5177 -1.0934 -2.6055
 1958SOL    HW217511   2.945   1.393  13.624 -1.4280  0.4697 -1.1777
 1959SOL     OW17512   2.830   0.020  12.221 -0.2491  0.4402 -0.3101
 1959SOL    HW117513   2.792   0.091  12.170  0.2242  0.5507 -0.5056
 1959SOL    HW217514   2.811   4.695  12.154  0.0386 -1.5810  1.5516
 1960SOL     OW17515   3.300   3.058   9.380  0.6288  0.1227  0.6632
 1960SOL    HW117516   3.227   3.041   9.438  1.3027  0.2463  1.5563
 1960SOL    HW217517   3.371   3.074   9.443  1.8060  0.4927 -0.7442
 1961SOL     OW17518   1.085   2.496  15.679  0.1450 -0.2684 -0.0598
 1961SOL    HW117519   1.004   2.446  15.693  1.0177 -1.2727  1.3300
 1961SOL    HW217520   1.042   2.573  15.643  3.0402  1.7882  0.8892
 1962SOL     OW17521   2.398   0.311   4.483 -0.2368  0.0586  0.2006
 1962SOL    HW117522   2.327   0.350   4.535 -1.4804 -2.6407  0.5176
 1962SOL    HW217523   2.417   0.398   4.448  2.3688  0.5348  2.8402
 1963SOL     OW17524   3.342   0.786   6.906  0.3291  0.0414 -0.0278
 1963SOL    HW117525   3.289   0.847   6.957  0.4166 -1.1674  1.5207
 1963SOL    HW217526   3.432   0.814   6.926 -0.5560  2.1992  0.9382
 1964SOL     OW17527   3.606   1.922   8.376  0.2088  0.0972  0.3470
 1964SOL    HW117528   3.678   1.960   8.326 -0.4302 -0.4690 -1.0074
 1964SOL    HW217529   3.645   1.840   8.403  1.6113  0.9692  0.9570
 1965SOL     OW17530   3.255   0.991   7.368 -0.1026  0.4344 -0.5174
 1965SOL    HW117531   3.298   0.923   7.316  1.4904  0.4620  0.7744
 1965SOL    HW217532   3.166   0.984   7.333  0.0830  0.9996 -1.0935
 1966SOL     OW17533   1.301   2.070   2.187 -0.4478  0.0203 -0.3410
 1966SOL    HW117534   1.263   2.043   2.271 -0.5297 -0.6482 -0.5926
 1966SOL    HW217535   1.250   2.150   2.172  1.2164  0.8554 -1.4625
 1967SOL     OW17536   1.490   2.685  13.068 -0.9659 -0.5985 -0.0438
 1967SOL    HW117537   1.539   2.764  13.090 -0.6967 -0.0027 -2.7527
 1967SOL    HW217538   1.562   2.629  13.039 -1.1639 -1.0452  0.3401
 1968SOL     OW17539   4.731   0.629   5.225  0.1189  0.3998 -0.8641
 1968SOL    HW117540   0.010   0.685   5.300  1.2171 -0.5260 -0.4509
 1968SOL    HW217541   4.660   0.678   5.183 -0.4110 -0.1005 -0.5508
 1969SOL     OW17542   4.689   1.005   3.003 -0.3125  0.0307 -0.0758
 1969SOL    HW117543   4.718   0.987   3.093  0.0777  0.6840 -0.0756
 1969SOL    HW217544   4.672   1.098   3.017 -2.3742 -0.1144 -1.5734
 1970SOL     OW17545   0.159   0.600   9.863 -0.0222  0.1003  0.0185
 1970SOL    HW117546   0.194   0.678   9.820  1.6209 -0.6370  0.0253
 1970SOL    HW217547   0.064   0.608   9.856 -0.0345 -0.4811 -0.4245
 1971SOL     OW17548   3.831   1.035  14.536  0.0315  0.1272 -0.2182
 1971SOL    HW117549   3.763   0.970  14.552  0.3555 -0.9053 -2.9345
 1971SOL    HW217550   3.828   1.092  14.613 -1.6498 -1.1833  0.6813
 1972SOL     OW17551   1.988   3.875  11.751  0.0966 -0.0360  0.0653
 1972SOL    HW117552   2.053   3.834  11.694 -0.8024  2.0924 -2.5181
 1972SOL    HW217553   1.926   3.919  11.694 -1.8583 -2.4404  0.3647
 1973SOL     OW17554   0.375   4.141   8.128 -0.4160 -0.3809 -0.2004
 1973SOL    HW117555   0.396   4.069   8.069 -0.1649 -0.4028 -0.0857
 1973SOL    HW217556   0.304   4.111   8.185  0.7190 -0.8897  0.9534
 1974SOL     OW17557   2.733   1.536  17.211 -0.2455 -0.2480  0.4141
 1974SOL    HW117558   2.713   1.569  17.298 -0.3265  1.2985 -0.1822
 1974SOL    HW217559   2.646   1.549  17.173  0.2047  0.3289 -0.4304
 1975SOL     OW17560   1.560   1.313   3.549  0.7257 -0.0843  0.1329
 1975SOL    HW117561   1.628   1.291   3.486  1.0356  1.1733  0.0249
 1975SOL    HW217562   1.605   1.310   3.633  0.2112  0.2903  0.4243
 1976SOL     OW17563   3.247   4.166   8.208  0.4691  0.5492  0.4280
 1976SOL    HW117564   3.209   4.253   8.194  2.0759  0.9612 -1.4059
 1976SOL    HW217565   3.341   4.185   8.210  1.0081 -1.9862 -0.8996
 1977SOL     OW17566   3.131   2.489   9.728  0.5507 -0.1551  0.4134
 1977SOL    HW117567   3.052   2.543   9.731 -1.3429 -2.9558  1.0503
 1977SOL    HW217568   3.102   2.410   9.774  1.8949  0.0806  1.6532
 1978SOL     OW17569   3.667   0.819  14.643  0.5530  0.6339 -0.1756
 1978SOL    HW117570   3.571   0.827  14.647  0.2263 -1.9915 -2.9882
 1978SOL    HW217571   3.688   0.726  14.642  3.8393  1.3940  1.3965
 1979SOL     OW17572   4.740   2.023   1.727  0.0885 -0.4035 -0.9108
 1979SOL    HW117573   0.005   1.966   1.650 -0.1501 -1.7005  0.0425
 1979SOL    HW217574   4.647   2.039   1.745 -0.1049 -1.0144 -1.3637
 1980SOL     OW17575   1.121   2.477   8.641  0.1076  0.9308  0.6118
 1980SOL    HW117576   1.069   2.537   8.588 -3.3375 -2.6709 -0.1783
 1980SOL    HW217577   1.071   2.395   8.646 -0.0953  1.0200 -0.0177
 1981SOL     OW17578   3.790   3.538  14.601  0.4592  0.1810 -0.4510
 1981SOL    HW117579   3.850   3.498  14.664 -1.0286  0.2176  0.9713
 1981SOL    HW217580   3.851   3.563  14.530 -2.6211  0.7346 -2.8916
 1982SOL     OW17581   3.479   0.294  17.102  0.2004  0.1396  0.0551
 1982SOL    HW117582   3.545   0.358  17.127 -0.6139 -0.0412  2.6668
 1982SOL    HW217583   3.438   0.283  17.187  0.1361  1.8108  0.2224
 1983SOL     OW17584   2.824   2.195  12.577 -0.1438  0.0210 -0.0704
 1983SOL    HW117585   2.838   2.167  12.486  1.6216 -0.1561  0.2606
 1983SOL    HW217586   2.856   2.113  12.616  0.8762  0.4418 -0.0166
 1984SOL     OW17587   3.121   4.021   7.587 -0.6167 -0.4031  0.2289
 1984SOL    HW117588   3.041   4.001   7.635  0.4069 -3.0588  0.8377
 1984SOL    HW217589   3.111   4.116   7.584  1.0643 -0.2019  1.2538
 1985SOL     OW17590   4.539   4.057  12.280  0.1717 -0.0500 -0.0406
 1985SOL    HW117591   4.552   4.151  12.269 -0.4557 -0.4377 -4.2468
 1985SOL    HW217592   4.621   4.018  12.250 -0.3316 -2.2450  1.4789
 1986SOL     OW17593   4.263   1.013   7.497  0.2746 -0.4389 -0.4553
 1986SOL    HW117594   4.315   1.033   7.419  0.1684 -0.7248 -0.5975
 1986SOL    HW217595   4.227   1.095   7.530  1.6312 -0.1955  0.3892
 1987SOL     OW17596   1.473   1.507  14.557  0.4965  0.1625  0.4092
 1987SOL    HW117597   1.453   1.601  14.556  1.0024  0.2609 -1.1817
 1987SOL    HW217598   1.534   1.503  14.631 -1.5438  0.1484  2.0609
 1988SOL     OW17599   0.212   0.199   4.013  0.6717 -0.1090  0.0753
 1988SOL    HW117600   0.280   0.158   4.067 -0.0868 -2.1801 -0.5726
 1988SOL    HW217601   0.238   0.170   3.925 -3.2471  1.7302 -1.7113
 1989SOL     OW17602   2.427   0.006   1.078  0.2125  1.1678 -0.1794
 1989SOL    HW117603   2.419   0.013   0.983  1.4596  0.4762 -0.3387
 1989SOL    HW217604   2.506   0.058   1.093  0.8996  0.4894 -1.4292
 1990SOL     OW17605   1.130   3.959  10.533  0.0903  0.2546 -0.2069
 1990SOL    HW117606   1.189   3.945  10.458 -0.0588 -0.2058 -0.2387
 1990SOL    HW217607   1.049   3.910  10.522  0.9259 -0.8391 -1.5455
 1991SOL     OW17608   4.195   2.720   7.280 -0.1674  0.2675  0.4863
 1991SOL    HW117609   4.252   2.642   7.284 -0.3317  0.0679 -1.2225
 1991SOL    HW217610   4.244   2.787   7.327  0.6937  0.4351 -0.6486
 1992SOL     OW17611   1.179   0.793   2.530  0.2514 -0.0650 -0.1176
 1992SOL    HW117612   1.166   0.705   2.496 -1.5557 -0.5267  1.7919
 1992SOL    HW217613   1.196   0.839   2.448 -0.6413  2.3052  1.0168
 1993SOL     OW17614   2.689   4.677   6.013 -0.3646 -0.3165 -0.3090
 1993SOL    HW117615   2.665   4.739   6.081 -1.9542 -1.1316 -0.1306
 1993SOL    HW217616   2.703   4.599   6.067  0.0841  0.6794  0.9948
 1994SOL     OW17617   1.028   0.534   4.713 -0.1423  0.4349  0.5177
 1994SOL    HW117618   0.993   0.621   4.693  0.6126  1.5572  4.0123
 1994SOL    HW217619   0.947   0.489   4.738  0.7288 -2.0475 -1.2434
 1995SOL     OW17620   1.399   1.797  17.231 -0.4356 -0.2113 -0.3419
 1995SOL    HW117621   1.402   1.702  17.240 -1.1269 -0.2571 -0.5556
 1995SOL    HW217622   1.464   1.830  17.292  0.1388  0.4171 -1.2822
 1996SOL     OW17623   1.814   1.549  16.177  0.1868  0.1541 -0.5018
 1996SOL    HW117624   1.845   1.604  16.249 -0.2532  2.5426 -2.1165
 1996SOL    HW217625   1.796   1.466  16.221  0.9413  0.1463 -0.2169
 1997SOL     OW17626   1.890   4.339  17.075  0.0861  0.0025  0.1265
 1997SOL    HW117627   1.969   4.390  17.096 -0.2070 -0.8757  3.2862
 1997SOL    HW217628   1.905   4.308  16.985  1.5037  1.3231 -0.1027
 1998SOL     OW17629   0.158   2.459   4.114 -0.3962  0.6041 -0.1192
 1998SOL    HW117630   0.142   2.372   4.149 -1.3008  0.0326 -1.9805
 1998SOL    HW217631   0.208   2.431   4.038 -1.6323 -3.2307  0.4918
 1999SOL     OW17632   0.764   0.098   4.234 -0.3915  0.4951 -0.8303
 1999SOL    HW117633   0.732   0.124   4.321  1.7168 -1.9189  0.6722
 1999SOL    HW217634   0.744   0.175   4.180  1.8943  1.7053  0.0057
 2000SOL     OW17635   2.839   3.640   6.157 -0.4564  0.2202 -0.5789
 2000SOL    HW117636   2.807   3.705   6.220  1.8306 -0.1201  0.9111
 2000SOL    HW217637   2.788   3.675   6.084 -0.2825  1.6083 -0.0336
 2001SOL     OW17638   0.357   2.849   8.096 -0.1936 -0.1201  0.3113
 2001SOL    HW117639   0.336   2.760   8.126  0.3899 -0.2164  0.4312
 2001SOL    HW217640   0.451   2.833   8.099  0.1335  1.9693  1.1000
 2002SOL     OW17641   0.804   2.044   7.724  0.1797  0.1843 -0.0405
 2002SOL    HW117642   0.739   2.063   7.656  0.2695 -2.9960 -1.0281
 2002SOL    HW217643   0.861   2.121   7.715  2.3520 -1.2245  1.5639
 2003SOL     OW17644   3.595   4.697   8.772  0.1618  0.2937 -0.4757
 2003SOL    HW117645   3.634   0.039   8.802  1.4643 -0.7478  0.7487
 2003SOL    HW217646   3.643   4.675   8.693  1.6892  0.7436  0.3252
 2004SOL     OW17647   1.772   4.001   1.397  0.0741  0.3171  0.4572
 2004SOL    HW117648   1.732   4.088   1.410  0.9211  0.8464 -0.4946
 2004SOL    HW217649   1.849   4.014   1.452 -0.7113  1.5528  1.2776
 2005SOL     OW17650   3.619   1.600   6.923 -0.0039  0.2677  0.6328
 2005SOL    HW117651   3.699   1.574   6.877 -0.7739 -0.5625 -0.2320
 2005SOL    HW217652   3.602   1.689   6.892  1.0929  0.8187  1.6237
 2006SOL     OW17653   0.747   3.411   3.237 -0.5954  0.0121  0.1304
 2006SOL    HW117654   0.704   3.354   3.301  3.4041 -3.9476 -0.7082
 2006SOL    HW217655   0.694   3.489   3.246 -0.7984 -0.0292 -0.6715
 2007SOL     OW17656   0.435   2.420   9.300 -0.1070 -0.9789  0.4034
 2007SOL    HW117657   0.346   2.438   9.330 -0.3241 -0.7771 -0.3632
 2007SOL    HW217658   0.472   2.506   9.280  1.1153 -1.6844 -0.3381
 2008SOL     OW17659   3.044   0.324  13.861  0.3802 -0.4052 -0.3791
 2008SOL    HW117660   2.987   0.288  13.793  1.6644 -0.3624 -1.4881
 2008SOL    HW217661   2.980   0.334  13.931  3.0097 -0.1453  1.9488
 2009SOL     OW17662   0.906   2.670  16.761 -0.5587 -0.6714 -0.0936
 2009SOL    HW117663   0.936   2.650  16.850  1.1912  2.7947  0.0981
 2009SOL    HW217664   0.897   2.765  16.761 -0.7567 -0.6902  0.1596
 2010SOL     OW17665   1.736   1.887   9.989 -0.0860 -0.1744  0.2319
 2010SOL    HW117666   1.743   1.932   9.905 -2.1035  0.4837  0.4143
 2010SOL    HW217667   1.690   1.811   9.955  2.6504 -1.6158 -0.2530
 2011SOL     OW17668   0.389   2.835   5.819  0.4208 -0.5087 -0.4587
 2011SOL    HW117669   0.314   2.790   5.782 -1.8029  2.6790  0.1477
 2011SOL    HW217670   0.365   2.823   5.911 -3.0177 -1.2285 -1.4745
 2012SOL     OW17671   3.196   2.693  16.811  0.0428  0.2468 -0.3131
 2012SOL    HW117672   3.243   2.622  16.767 -2.5272  0.0990 -2.8340
 2012SOL    HW217673   3.106   2.663  16.799  0.1410 -0.3305  0.3445
 2013SOL     OW17674   0.039   2.452   2.952 -0.0980 -0.4265 -0.3738
 2013SOL    HW117675   0.040   2.359   2.972  0.0219 -0.2100  0.6478
 2013SOL    HW217676   0.004   2.451   2.863  0.5883 -3.3939 -0.5881
 2014SOL     OW17677   0.027   2.101   3.288  0.0231  0.3239  0.5647
 2014SOL    HW117678   4.730   2.126   3.373 -0.3217 -1.9447  1.0787
 2014SOL    HW217679   0.113   2.063   3.304 -0.0667 -0.6936 -1.3318
 2015SOL     OW17680   1.536   3.223  13.971 -0.7270  0.2254  0.4457
 2015SOL    HW117681   1.619   3.181  13.945  0.2331  2.5780 -0.2566
 2015SOL    HW217682   1.486   3.154  14.015  1.4818 -1.4023  0.4320
 2016SOL     OW17683   4.235   4.647   7.672 -0.4996 -0.2102 -0.2533
 2016SOL    HW117684   4.203   4.697   7.597  0.8032 -1.9359 -1.9546
 2016SOL    HW217685   4.315   4.613   7.633  0.6502  1.9071  0.2761
 2017SOL     OW17686   3.311   3.060   5.874 -0.0509  0.0312  0.3665
 2017SOL    HW117687   3.354   3.071   5.959 -0.2076  1.2716  0.2766
 2017SOL    HW217688   3.360   3.104   5.806  2.3353 -0.6902  1.6272
 2018SOL     OW17689   4.631   4.418  10.725  0.0050 -0.0518  0.4405
 2018SOL    HW117690   4.538   4.402  10.710  1.0674 -1.6850 -4.4277
 2018SOL    HW217691   4.664   4.406  10.635 -1.8552  2.8590 -0.6142
 2019SOL     OW17692   3.917   2.719   1.387 -0.0403  0.3893 -0.4658
 2019SOL    HW117693   3.968   2.639   1.372 -3.2339 -1.6429 -0.5344
 2019SOL    HW217694   3.949   2.777   1.319 -1.6317  0.7210 -0.9366
 2020SOL     OW17695   0.935   2.895   8.755  0.5579  0.3332 -0.0775
 2020SOL    HW117696   0.944   2.948   8.834 -1.1926  0.1585  0.2478
 2020SOL    HW217697   1.016   2.905   8.706  0.1352 -2.5640 -1.3232
 2021SOL     OW17698   0.187   1.815   1.883 -0.1521  0.4714 -0.0597
 2021SOL    HW117699   0.111   1.867   1.910 -2.0787 -1.6120 -1.4724
 2021SOL    HW217700   0.203   1.765   1.963  3.3108 -1.6407 -2.0849
 2022SOL     OW17701   3.051   2.510   6.128  0.1133 -0.0642  0.1414
 2022SOL    HW117702   2.975   2.497   6.185 -0.4526  1.6211 -0.2511
 2022SOL    HW217703   3.024   2.476   6.042 -2.2201 -1.1729  1.3040
 2023SOL     OW17704   3.382   4.311   3.083 -0.2703  0.1399 -0.1130
 2023SOL    HW117705   3.429   4.227   3.082 -1.2260 -0.3955  0.8744
 2023SOL    HW217706   3.351   4.332   3.171 -1.7170  1.7504 -1.0140
 2024SOL     OW17707   3.070   2.819   2.491  0.2173  0.1086 -0.0145
 2024SOL    HW117708   2.993   2.779   2.530 -0.3260  1.3677  0.2214
 2024SOL    HW217709   3.074   2.906   2.532  0.0825  0.5878 -1.0165
 2025SOL     OW17710   3.249   0.184  15.770 -0.1786  0.2915 -0.5471
 2025SOL    HW117711   3.265   0.099  15.728  0.4827  0.3563 -0.4314
 2025SOL    HW217712   3.263   0.243  15.697  0.8089 -0.9084 -1.3388
 2026SOL     OW17713   3.248   0.931  12.382 -0.4677  0.0577 -0.2013
 2026SOL    HW117714   3.193   0.934  12.460  0.5719  0.4090  0.5188
 2026SOL    HW217715   3.219   0.849  12.341  0.1731 -0.7556  0.9598
 2027SOL     OW17716   3.592   1.299   9.321  0.3150 -0.2354  0.0095
 2027SOL    HW117717   3.529   1.354   9.274  1.8690  1.3381 -0.2404
 2027SOL    HW217718   3.569   1.325   9.411 -1.4465 -1.2588 -0.1617
 2028SOL     OW17719   2.912   4.646   2.667  0.0157 -0.0790  0.1054
 2028SOL    HW117720   2.978   4.684   2.609  1.0380 -2.8931 -0.6149
 2028SOL    HW217721   2.854   4.616   2.596 -0.4537  3.0213 -0.7937
 2029SOL     OW17722   1.089   2.883   5.533 -0.5737  0.0963 -0.1576
 2029SOL    HW117723   1.093   2.950   5.601 -1.1658 -1.2792  1.2536
 2029SOL    HW217724   0.999   2.890   5.504 -1.4704  0.0145  2.6245
 2030SOL     OW17725   3.722   1.719   2.117 -0.4573 -0.4276 -0.0290
 2030SOL    HW117726   3.722   1.713   2.021 -1.3577  1.5711 -0.1789
 2030SOL    HW217727   3.638   1.766   2.125  0.2720  0.9092 -0.1116
 2031SOL     OW17728   4.111   3.259   7.853 -0.4089 -0.4197 -0.3365
 2031SOL    HW117729   4.147   3.172   7.867 -0.7056 -0.3618  0.8326
 2031SOL    HW217730   4.028   3.241   7.896 -1.0431  1.8525 -0.6015
 2032SOL     OW17731   2.861   1.041   7.615  0.2666 -0.2223 -0.1757
 2032SOL    HW117732   2.859   1.078   7.527  0.3257  1.5536  0.5832
 2032SOL    HW217733   2.954   1.040   7.636  0.1711  2.3920  0.3454
 2033SOL     OW17734   0.678   3.836   6.881 -0.0387 -0.3946  0.1561
 2033SOL    HW117735   0.757   3.784   6.896 -0.4312 -0.6670  1.2546
 2033SOL    HW217736   0.635   3.792   6.807 -0.7037  2.4608 -1.1359
 2034SOL     OW17737   1.697   1.255  13.480  0.1090 -0.3157  0.3527
 2034SOL    HW117738   1.685   1.162  13.500  0.1696 -0.5346 -0.6431
 2034SOL    HW217739   1.716   1.287  13.568 -0.3933 -1.2348  0.7958
 2035SOL     OW17740   1.765   1.941   2.718 -0.2974 -0.0209  0.1093
 2035SOL    HW117741   1.701   1.990   2.666 -0.4760  1.0417  1.3196
 2035SOL    HW217742   1.825   2.011   2.747 -0.5306  0.2435 -0.0521
 2036SOL     OW17743   2.608   4.232   2.277 -0.3723  0.2145 -0.3422
 2036SOL    HW117744   2.551   4.247   2.202  2.0507 -1.6996 -2.5439
 2036SOL    HW217745   2.693   4.247   2.236 -1.1461 -0.9563 -2.3633
 2037SOL     OW17746   0.635   4.552   6.749  0.4227  0.2701 -0.3493
 2037SOL    HW117747   0.690   4.513   6.681  1.8367  1.0971  0.3220
 2037SOL    HW217748   0.697   4.561   6.821 -0.9588 -0.7418  0.9631
 2038SOL     OW17749   0.842   4.565  13.281 -0.4200  0.2113 -0.4957
 2038SOL    HW117750   0.897   4.602  13.350 -0.8169 -0.8752  0.4057
 2038SOL    HW217751   0.863   4.472  13.274 -2.5747 -0.4425  1.8307
 2039SOL     OW17752   0.487   2.935  14.663  0.2509  0.5540 -0.8148
 2039SOL    HW117753   0.455   2.855  14.622  0.9151 -0.0125 -0.2490
 2039SOL    HW217754   0.426   2.999  14.627 -0.5286  0.8193  0.9726
 2040SOL     OW17755   3.920   0.741   3.084 -0.1867  0.2811 -0.7234
 2040SOL    HW117756   3.914   0.698   2.998  0.1145  0.1795 -0.6925
 2040SOL    HW217757   3.939   0.673   3.150  0.6876  0.6559 -0.5920
 2041SOL     OW17758   2.726   2.051   9.530 -0.4086  0.1099  0.4275
 2041SOL    HW117759   2.708   2.125   9.471 -0.0730  0.6740  1.0367
 2041SOL    HW217760   2.809   2.019   9.495 -2.1963 -0.4699 -3.3152
 2042SOL     OW17761   1.777   0.857   3.458 -0.2945  0.4321 -0.4603
 2042SOL    HW117762   1.809   0.788   3.516  1.4418  0.5926 -1.2330
 2042SOL    HW217763   1.735   0.920   3.516 -0.0635  0.6633 -0.5428
 2043SOL     OW17764   3.638   1.024  10.408 -0.5276 -0.0695  0.7961
 2043SOL    HW117765   3.658   1.083  10.481  0.4176  0.8712 -0.2330
 2043SOL    HW217766   3.652   1.077  10.330  1.6145 -0.6266  0.7960
 2044SOL     OW17767   4.287   1.230   8.706  0.0776 -0.3883 -0.6802
 2044SOL    HW117768   4.289   1.308   8.650  0.2555 -0.0272 -0.1829
 2044SOL    HW217769   4.353   1.241   8.775 -0.1046 -0.8531 -0.4328
 2045SOL     OW17770   2.004   2.859   2.510 -0.1575 -0.1087  0.5311
 2045SOL    HW117771   1.954   2.940   2.511 -0.7371 -0.4700  0.5495
 2045SOL    HW217772   1.941   2.800   2.551  0.9505 -1.2246  0.6457
 2046SOL     OW17773   1.916   3.297   1.995  0.0385 -0.0545  0.0629
 2046SOL    HW117774   1.984   3.230   1.997 -0.1006 -0.2424 -1.6320
 2046SOL    HW217775   1.951   3.357   1.929  0.2322  2.1012  2.1284
 2047SOL     OW17776   1.079   3.292   8.559 -0.1156 -0.0892  0.0957
 2047SOL    HW117777   1.036   3.207   8.562  0.9647 -0.6115  0.6644
 2047SOL    HW217778   1.017   3.336   8.501  0.1158 -0.7354 -0.6375
 2048SOL     OW17779   4.231   1.971   8.951  0.3096  0.1806 -0.2676
 2048SOL    HW117780   4.188   2.049   8.914  1.3707  0.9901  0.2156
 2048SOL    HW217781   4.316   2.009   8.972 -0.6502  0.1048  3.7179
 2049SOL     OW17782   3.173   3.847   6.446 -0.5383  0.3483  0.5906
 2049SOL    HW117783   3.264   3.825   6.424 -0.1605 -0.6098  3.1705
 2049SOL    HW217784   3.168   3.941   6.425  4.2728 -0.1818 -3.0106
 2050SOL     OW17785   1.847   4.536   4.356 -0.3367 -0.7546 -0.1067
 2050SOL    HW117786   1.863   4.564   4.446 -1.9105 -1.8845  0.5222
 2050SOL    HW217787   1.909   4.463   4.357 -0.3186 -0.7179  1.9389
 2051SOL     OW17788   3.131   2.230   3.952 -1.0733  0.3398 -0.0916
 2051SOL    HW117789   3.073   2.181   3.893  0.2511 -0.7157 -0.5282
 2051SOL    HW217790   3.169   2.155   3.998 -0.9289 -0.1979 -1.0761
 2052SOL     OW17791   1.715   4.576   8.686 -0.0553  0.1115  0.6620
 2052SOL    HW117792   1.645   4.623   8.641  1.6879 -0.1231 -2.2895
 2052SOL    HW217793   1.788   4.619   8.641  0.9526 -0.4482  1.7440
 2053SOL     OW17794   2.118   3.684   7.311  0.2451  0.2077  0.4301
 2053SOL    HW117795   2.178   3.748   7.349  2.3662 -0.7745 -1.2750
 2053SOL    HW217796   2.177   3.638   7.252 -0.5831  1.7711 -1.6022
 2054SOL     OW17797   0.749   3.687   5.571 -0.4184  0.0952  0.1566
 2054SOL    HW117798   0.664   3.717   5.536 -0.5475  2.3136  2.3689
 2054SOL    HW217799   0.714   3.639   5.646  0.5250  0.6391  0.9421
 2055SOL     OW17800   2.384   2.403   8.022  0.1799  0.7920 -0.1097
 2055SOL    HW117801   2.415   2.372   7.936  0.9860 -0.6413  0.6939
 2055SOL    HW217802   2.463   2.446   8.053 -0.4564  0.6495  1.6879
 2056SOL     OW17803   2.025   3.394   0.791 -0.5669  0.0216 -0.5584
 2056SOL    HW117804   2.113   3.365   0.813 -0.1193  0.1226 -2.2102
 2056SOL    HW217805   2.039   3.472   0.845 -0.6969  0.0100 -0.5078
 2057SOL     OW17806   0.545   0.650   8.631  0.1180 -0.5872  0.7541
 2057SOL    HW117807   0.529   0.559   8.607 -1.0249 -0.6218  1.6574
 2057SOL    HW217808   0.617   0.661   8.569 -2.0958 -1.6142 -2.0275
 2058SOL     OW17809   2.633   2.990  17.196  0.3236  0.2810 -0.4010
 2058SOL    HW117810   2.686   2.912  17.183 -1.6185 -1.2380  0.8228
 2058SOL    HW217811   2.590   2.980  17.280 -0.6524 -0.8416 -1.0382
 2059SOL     OW17812   2.551   0.961   7.264 -0.0938  0.6986 -0.6276
 2059SOL    HW117813   2.593   0.884   7.224  1.7026  2.0993 -1.4676
 2059SOL    HW217814   2.614   1.031   7.245  3.1232 -1.2887  2.6775
 2060SOL     OW17815   2.782   0.108  10.620 -0.1274 -0.1338 -0.8217
 2060SOL    HW117816   2.755   0.200  10.622  1.3490  0.3106 -1.4136
 2060SOL    HW217817   2.791   0.099  10.715 -0.4002 -0.5972 -0.8389
 2061SOL     OW17818   2.793   4.311   1.283 -0.4214 -0.3323  0.4905
 2061SOL    HW117819   2.768   4.259   1.207  2.1422 -2.8074  1.3535
 2061SOL    HW217820   2.710   4.342   1.321 -2.1621 -1.5821 -2.3828
 2062SOL     OW17821   1.351   3.362  14.283 -0.2933 -0.0592  0.5209
 2062SOL    HW117822   1.441   3.367  14.251 -1.3974  2.5011 -2.1787
 2062SOL    HW217823   1.346   3.280  14.332 -2.3717 -0.8877 -1.0708
 2063SOL     OW17824   2.038   3.755   9.587 -0.3212  0.2450 -0.5319
 2063SOL    HW117825   1.985   3.829   9.615  1.3686  1.5782 -0.8968
 2063SOL    HW217826   2.129   3.784   9.588 -1.0154  2.3915  0.2681
 2064SOL     OW17827   4.116   4.541   4.506 -0.3545  0.5083 -0.7410
 2064SOL    HW117828   4.203   4.579   4.514 -0.3674  0.0642  1.5512
 2064SOL    HW217829   4.081   4.614   4.557  2.7738  0.9304  0.7971
 2065SOL     OW17830   1.891   3.817   2.649  0.0530 -0.3742 -0.1890
 2065SOL    HW117831   1.888   3.826   2.553 -0.6031 -0.1149 -0.1477
 2065SOL    HW217832   1.803   3.780   2.658 -0.3168  0.0531 -2.0831
 2066SOL     OW17833   2.913   3.861   3.695 -0.0376 -0.2085 -0.8986
 2066SOL    HW117834   2.865   3.792   3.649 -1.3863 -0.2572  0.5937
 2066SOL    HW217835   2.985   3.873   3.633  2.1657 -1.8050  1.3586
 2067SOL     OW17836   2.233   0.684   4.354  0.2076  0.5774 -0.5034
 2067SOL    HW117837   2.309   0.654   4.404  0.6814 -0.9709 -2.1662
 2067SOL    HW217838   2.173   0.691   4.429  3.6793  0.6432  2.2709
 2068SOL     OW17839   4.274   3.371   8.378  0.0676  0.1232 -0.3159
 2068SOL    HW117840   4.267   3.467   8.370  0.8713  0.1487 -0.7747
 2068SOL    HW217841   4.183   3.344   8.383 -0.3801  1.7758  0.8000
 2069SOL     OW17842   3.010   4.099   8.481 -0.1626  0.6563  0.0599
 2069SOL    HW117843   3.031   4.162   8.412  0.6142  1.0352  0.6351
 2069SOL    HW217844   2.924   4.131   8.508  0.3606  0.5120  1.9116
 2070SOL     OW17845   4.657   0.757   2.909  0.4984 -0.0552 -0.5500
 2070SOL    HW117846   4.652   0.850   2.928  0.0642 -0.6760  2.4568
 2070SOL    HW217847   4.596   0.716   2.971  0.6923  0.4979  0.0064
 2071SOL     OW17848   1.356   2.090   2.994 -0.1507  0.9736  0.2026
 2071SOL    HW117849   1.355   2.008   3.042 -0.6831  0.5016 -0.6062
 2071SOL    HW217850   1.445   2.104   2.960 -0.5256 -0.7163 -1.5250
 2072SOL     OW17851   2.816   2.724  17.225 -0.1031 -0.2370 -0.1170
 2072SOL    HW117852   2.778   2.637  17.241 -2.8008  1.0805  0.5127
 2072SOL    HW217853   2.756   2.749  17.154 -0.0296  1.9015  0.6027
 2073SOL     OW17854   3.182   4.667   1.101  0.0135 -0.5139  0.3282
 2073SOL    HW117855   3.231   4.608   1.045 -0.2178 -0.2252 -0.1852
 2073SOL    HW217856   3.140   4.733   1.045  0.1555 -0.0041  0.8219
 2074SOL     OW17857   3.434   4.254   3.901 -0.1210 -0.0347 -0.2963
 2074SOL    HW117858   3.493   4.207   3.960  1.6485  1.3773 -0.9167
 2074SOL    HW217859   3.494   4.324   3.873 -0.9470 -0.1426 -2.3433
 2075SOL     OW17860   2.468   2.179   4.306  0.0747 -0.9764 -0.0425
 2075SOL    HW117861   2.439   2.236   4.235 -1.5916 -0.4620  1.0230
 2075SOL    HW217862   2.400   2.112   4.310 -2.2052  1.4198  1.5080
 2076SOL     OW17863   0.583   4.072   7.267  0.3779 -0.2280  0.0714
 2076SOL    HW117864   0.561   3.979   7.269  0.0643 -0.1570 -0.0508
 2076SOL    HW217865   0.639   4.072   7.189 -0.3476 -2.1946 -0.4488
 2077SOL     OW17866   0.495   3.435  13.517  0.7580  0.6384 -1.0525
 2077SOL    HW117867   0.512   3.481  13.599 -3.3714  0.2219  0.0117
 2077SOL    HW217868   0.575   3.383  13.504 -0.9742 -2.6967  1.5752
 2078SOL     OW17869   0.506   2.655   9.164 -0.1446 -0.0205 -0.0493
 2078SOL    HW117870   0.458   2.595   9.106 -0.9747  0.2990  0.3092
 2078SOL    HW217871   0.452   2.733   9.151 -1.1595 -0.4282  1.7248
 2079SOL     OW17872   0.001   4.139   4.555 -0.0098  0.0265  0.4148
 2079SOL    HW117873   0.064   4.115   4.623 -1.3718 -0.5407  1.4814
 2079SOL    HW217874   4.728   4.232   4.572  0.9552  0.4856 -1.4584
 2080SOL     OW17875   1.687   1.482  14.730  0.1096  0.2044 -0.1508
 2080SOL    HW117876   1.722   1.571  14.736 -2.1644  1.0270  1.2305
 2080SOL    HW217877   1.762   1.429  14.754 -0.5623 -1.1626 -1.0726
 2081SOL     OW17878   1.749   3.268   6.801  0.2479 -0.0432 -0.3578
 2081SOL    HW117879   1.747   3.177   6.773  0.8481 -0.1968  0.1229
 2081SOL    HW217880   1.817   3.301   6.742  1.4328  1.5711  1.9251
 2082SOL     OW17881   3.247   2.351   7.056 -0.3761 -0.5756  0.1889
 2082SOL    HW117882   3.204   2.413   6.997  1.3352  0.9244  0.4973
 2082SOL    HW217883   3.327   2.403   7.066 -1.7255  1.9207 -2.0461
 2083SOL     OW17884   4.729   0.855   8.870 -0.4553  0.0789  0.0468
 2083SOL    HW117885   0.046   0.867   8.946 -1.4900  3.2930  0.2807
 2083SOL    HW217886   4.738   0.760   8.859  0.7151  0.1136  0.7284
 2084SOL     OW17887   0.302   3.701   4.851 -0.0397  0.1138 -0.3580
 2084SOL    HW117888   0.230   3.732   4.795 -0.2423  3.1727  1.5579
 2084SOL    HW217889   0.328   3.624   4.801 -0.6675 -0.3604  0.0428
 2085SOL     OW17890   3.492   3.563  10.728 -0.0187  0.0836 -0.1422
 2085SOL    HW117891   3.499   3.639  10.786  0.9377 -0.3303  0.2733
 2085SOL    HW217892   3.396   3.560  10.722 -0.1118  1.1610  0.9441
 2086SOL     OW17893   1.418   2.600   7.972  0.5513 -0.0173 -0.2360
 2086SOL    HW117894   1.472   2.533   8.013  1.0182  0.6627  0.2703
 2086SOL    HW217895   1.380   2.541   7.908  1.1134  0.6235 -1.1631
 2087SOL     OW17896   1.046   3.617   8.807  0.0257  0.1288  0.4111
 2087SOL    HW117897   0.986   3.653   8.742  1.2048 -0.1498 -0.8234
 2087SOL    HW217898   1.123   3.661   8.772 -0.1713 -0.3378 -0.6021
 2088SOL     OW17899   0.321   1.317  15.108  0.6739  0.1752  0.7620
 2088SOL    HW117900   0.292   1.234  15.148  1.0891 -0.1238  0.4435
 2088SOL    HW217901   0.381   1.340  15.179  0.4159  1.1760  0.6458
 2089SOL     OW17902   1.930   3.665  10.788  0.1981 -0.4187  0.6382
 2089SOL    HW117903   1.854   3.608  10.801  0.7122 -1.2668 -0.0538
 2089SOL    HW217904   1.982   3.603  10.738 -0.2448 -1.2263  1.1730
 2090SOL     OW17905   3.121   0.164   7.315 -0.3050  0.0314  0.3317
 2090SOL    HW117906   3.060   0.237   7.319  0.7594  1.0168 -1.5723
 2090SOL    HW217907   3.130   0.163   7.220  2.5087 -0.5484  0.6027
 2091SOL     OW17908   4.062   2.452   6.326 -0.2913 -0.5066 -0.3052
 2091SOL    HW117909   3.998   2.388   6.294  1.1783 -1.4610 -1.3579
 2091SOL    HW217910   4.109   2.390   6.381 -0.7346  0.4671  1.1797
 2092SOL     OW17911   1.636   1.024   8.215 -0.6843  0.4634 -0.9252
 2092SOL    HW117912   1.647   1.115   8.241 -0.9990  0.0720  0.6004
 2092SOL    HW217913   1.723   0.991   8.192 -1.2306 -2.3051  0.9682
 2093SOL     OW17914   0.917   2.003   2.181 -0.3276 -0.1681 -0.1637
 2093SOL    HW117915   0.946   1.912   2.174  0.5013  0.0931 -0.0528
 2093SOL    HW217916   0.947   2.039   2.098  0.0299  1.0600  0.4922
 2094SOL     OW17917   1.506   1.922   7.797  0.1794 -0.5468 -0.5314
 2094SOL    HW117918   1.597   1.952   7.807  0.7331 -1.6259 -2.3352
 2094SOL    HW217919   1.506   1.827   7.805  3.9385 -0.5894 -0.8382
 2095SOL     OW17920   3.129   2.114   5.585  0.3710 -0.1912  0.1013
 2095SOL    HW117921   3.192   2.186   5.577  0.3736 -0.3532 -1.2399
 2095SOL    HW217922   3.057   2.156   5.632  1.2975 -0.4254  1.7383
 2096SOL     OW17923   0.795   1.729   3.782 -0.2580  0.5068 -0.3360
 2096SOL    HW117924   0.809   1.636   3.802  1.0558  0.8703  0.4443
 2096SOL    HW217925   0.864   1.770   3.834  0.7377 -2.0376  0.3699
 2097SOL     OW17926   1.827   2.219   8.946 -0.2050  0.3880  0.3661
 2097SOL    HW117927   1.762   2.198   8.878 -1.0317  0.8132  1.0224
 2097SOL    HW217928   1.775   2.267   9.011  1.2125  0.2550  1.5835
 2098SOL     OW17929   0.379   1.590   6.227 -0.0075  0.2681 -0.3576
 2098SOL    HW117930   0.364   1.495   6.226 -2.7646  0.7103  1.4606
 2098SOL    HW217931   0.453   1.600   6.166 -0.6036  2.2725 -0.7510
 2099SOL     OW17932   2.416   2.365   2.102 -0.4009  0.1318 -0.1849
 2099SOL    HW117933   2.407   2.419   2.181 -0.7677 -0.1321 -0.0473
 2099SOL    HW217934   2.477   2.418   2.051  1.2440 -1.6900 -0.0959
 2100SOL     OW17935   4.245   1.770   3.098 -0.1122 -0.0529 -0.7725
 2100SOL    HW117936   4.314   1.824   3.060 -0.5134  1.5475  0.8232
 2100SOL    HW217937   4.291   1.696   3.139 -2.4857 -1.9255 -1.5021
 2101SOL     OW17938   1.245   3.992   9.505  0.5517 -0.1356 -0.7372
 2101SOL    HW117939   1.162   4.000   9.552  0.1566 -0.9471 -1.2977
 2101SOL    HW217940   1.209   3.962   9.422 -0.7902  3.0396 -1.2917
 2102SOL     OW17941   0.814   1.777   5.924  0.7846  0.7889  0.3421
 2102SOL    HW117942   0.762   1.744   5.851  0.8351  0.2063  0.5672
 2102SOL    HW217943   0.885   1.713   5.916  1.1529  1.0142  1.7712
 2103SOL     OW17944   4.570   1.685  16.208  0.0058  0.2595 -0.3336
 2103SOL    HW117945   4.569   1.696  16.113 -1.1175 -1.4490 -0.5157
 2103SOL    HW217946   4.574   1.779  16.226 -0.3406 -0.4556  3.3363
 2104SOL     OW17947   2.645   0.176   5.891 -0.4467 -0.0384  0.1420
 2104SOL    HW117948   2.704   0.103   5.910 -2.6692 -1.4160  1.6082
 2104SOL    HW217949   2.562   0.152   5.931 -1.1742  1.9627 -0.1572
 2105SOL     OW17950   0.102   3.458   1.595 -0.4497 -0.6100 -0.0734
 2105SOL    HW117951   0.099   3.422   1.684  1.5105  0.7424  0.5226
 2105SOL    HW217952   0.193   3.440   1.574  0.2631  1.6330  1.1588
 2106SOL     OW17953   3.989   3.362  16.560 -0.1529  0.0695 -0.1724
 2106SOL    HW117954   3.974   3.349  16.466  0.8769 -1.2099 -0.1607
 2106SOL    HW217955   3.924   3.299  16.591 -1.4639  1.8483  0.6905
 2107SOL     OW17956   3.739   3.713   0.290  0.8479  0.1073 -0.0569
 2107SOL    HW117957   3.824   3.747   0.261  2.1950 -2.7671  0.5499
 2107SOL    HW217958   3.769   3.634   0.334  1.6606  1.1878  1.3331
 2108SOL     OW17959   4.484   3.190   3.952  0.4468  0.1446 -0.5555
 2108SOL    HW117960   4.572   3.164   3.980  1.6083  2.0346 -2.3602
 2108SOL    HW217961   4.456   3.113   3.902 -0.4436  0.0011  0.1633
 2109SOL     OW17962   0.726   0.978   3.314 -0.0320 -0.2779 -0.3216
 2109SOL    HW117963   0.715   1.059   3.365 -1.4087 -1.7336  1.6970
 2109SOL    HW217964   0.810   0.994   3.272 -0.3208 -1.8681 -1.5077
 2110SOL     OW17965   0.404   1.951   8.396  0.3227  0.3668 -0.8285
 2110SOL    HW117966   0.382   1.974   8.486  1.6263 -2.7353  0.2703
 2110SOL    HW217967   0.429   1.859   8.400  2.6233  1.1220  1.7140
 2111SOL     OW17968   1.363   3.349   1.819 -0.2121 -0.0282  0.2217
 2111SOL    HW117969   1.364   3.258   1.847 -0.6872 -0.1088 -0.0265
 2111SOL    HW217970   1.405   3.355   1.733 -0.7143  2.1513  0.1239
 2112SOL     OW17971   4.351   1.429  17.108 -0.0992  0.6908 -0.2294
 2112SOL    HW117972   4.423   1.479  17.070  0.1691  0.2464 -0.3046
 2112SOL    HW217973   4.277   1.467  17.062  1.1149  0.4450 -2.3725
 2113SOL     OW17974   2.202   1.295  14.430  0.9089 -0.0511  0.3195
 2113SOL    HW117975   2.233   1.379  14.465  1.8722  0.2688 -1.2714
 2113SOL    HW217976   2.174   1.305  14.339  1.5519 -1.9792 -0.0893
 2114SOL     OW17977   2.074   2.655  11.538  0.0696  0.6894 -0.2713
 2114SOL    HW117978   2.003   2.670  11.477 -0.2139 -1.6031 -0.5085
 2114SOL    HW217979   2.045   2.567  11.563 -0.8911  1.2613  0.6532
 2115SOL     OW17980   1.640   2.070   2.025  0.2940  0.5384 -0.0114
 2115SOL    HW117981   1.644   2.164   2.006  1.8551  0.1372 -1.7001
 2115SOL    HW217982   1.729   2.040   2.005 -0.1597 -0.9773  0.2755
 2116SOL     OW17983   1.441   4.078   7.733  0.0499 -0.2935 -0.2841
 2116SOL    HW117984   1.515   4.131   7.762 -0.0023 -0.4575  0.1567
 2116SOL    HW217985   1.482   3.997   7.701  2.1202  1.1293 -1.1897
 2117SOL     OW17986   3.884   4.368   6.292  0.5415  0.0168 -0.0304
 2117SOL    HW117987   3.843   4.365   6.206 -0.2643  0.1581  0.3482
 2117SOL    HW217988   3.859   4.285   6.334 -1.0491 -0.5112 -2.0195
 2118SOL     OW17989   0.662   2.224   4.885 -0.2143  0.3282 -0.2135
 2118SOL    HW117990   0.572   2.227   4.917  0.2214  1.0846  0.9719
 2118SOL    HW217991   0.694   2.291   4.946 -1.0316  1.1058 -0.6430
 2119SOL     OW17992   2.332   0.586   8.692 -0.6068  0.4064 -0.0833
 2119SOL    HW117993   2.299   0.570   8.604  0.5501 -1.3428 -0.2098
 2119SOL    HW217994   2.252   0.590   8.744 -2.9749  0.4019 -3.7672
 2120SOL     OW17995   0.132   0.916   8.573  0.7770  0.3270  0.3294
 2120SOL    HW117996   0.137   0.868   8.656  0.3447  0.4218  0.4069
 2120SOL    HW217997   0.039   0.932   8.559  1.3489  2.5742 -0.8418
 2121SOL     OW17998   2.087   2.955   5.665  0.1269 -0.3838 -0.0835
 2121SOL    HW117999   2.133   3.035   5.690 -1.1915  0.6074 -0.8358
 2121SOL    HW218000   2.047   2.982   5.582  2.2983 -0.0161 -0.9879
 2122SOL     OW18001   4.699   0.697   8.383 -0.0996  0.2903 -0.1206
 2122SOL    HW118002   0.016   0.677   8.309 -0.3041  0.5971 -0.3618
 2122SOL    HW218003   4.715   0.790   8.396 -0.7929  0.5215 -0.8971
 2123SOL     OW18004   3.068   4.611   7.485 -0.4083  0.3526 -0.6623
 2123SOL    HW118005   3.053   4.684   7.425 -2.0206 -1.8978 -2.9791
 2123SOL    HW218006   3.157   4.583   7.462 -1.1122 -0.9102 -1.8488
 2124SOL     OW18007   1.752   4.371  15.280 -0.2811  0.0668  0.3438
 2124SOL    HW118008   1.737   4.296  15.337 -0.7185 -0.4558 -0.4530
 2124SOL    HW218009   1.735   4.326  15.197  0.3242 -0.0747  0.2933
 2125SOL     OW18010   2.592   4.639   5.767 -0.6290 -0.5254 -0.0404
 2125SOL    HW118011   2.545   4.560   5.793 -1.6429  0.3514  0.7792
 2125SOL    HW218012   2.607   4.674   5.855 -0.8653 -0.7954  0.1084
 2126SOL     OW18013   4.174   4.084   2.099 -0.3338  0.3212 -0.4291
 2126SOL    HW118014   4.105   4.021   2.077 -1.6856  1.8301 -0.5517
 2126SOL    HW218015   4.209   4.093   2.010  1.5578 -1.8590  0.0951
 2127SOL     OW18016   1.508   2.585   2.283  0.0218  0.7143  0.0634
 2127SOL    HW118017   1.523   2.664   2.231 -3.6113  2.3392  1.4174
 2127SOL    HW218018   1.490   2.527   2.210  4.7160 -0.5801 -0.0584
 2128SOL     OW18019   4.254   3.087   2.455 -0.2025  0.9432  0.6386
 2128SOL    HW118020   4.191   3.128   2.515 -0.6076 -0.9206  1.4991
 2128SOL    HW218021   4.313   3.040   2.513 -0.6090 -1.3641 -0.8124
 2129SOL     OW18022   1.323   4.330   2.230 -0.5687 -0.2243  0.3605
 2129SOL    HW118023   1.377   4.303   2.304  0.5067 -1.0211 -0.7114
 2129SOL    HW218024   1.258   4.388   2.270 -2.3911 -1.0137 -1.4823
 2130SOL     OW18025   1.044   4.022   5.468  0.0292  0.2446  0.1316
 2130SOL    HW118026   1.026   4.016   5.562 -0.2217  1.1739  0.1417
 2130SOL    HW218027   0.975   3.966   5.432 -0.5576  0.6259  0.6702
 2131SOL     OW18028   0.464   2.882  11.794  0.0303  0.2596 -0.4273
 2131SOL    HW118029   0.545   2.831  11.794 -1.5219 -2.2308  2.2255
 2131SOL    HW218030   0.468   2.944  11.867 -0.5245 -0.8384  0.5373
 2132SOL     OW18031   2.528   0.800   7.629  0.2241  0.0826 -0.7119
 2132SOL    HW118032   2.492   0.719   7.592  3.7942 -1.2655 -1.2774
 2132SOL    HW218033   2.621   0.780   7.640  0.8584  3.0856 -0.7259
 2133SOL     OW18034   2.820   3.705   0.857  0.3498 -0.0904 -0.1503
 2133SOL    HW118035   2.816   3.763   0.781 -1.0398 -1.3040 -0.9997
 2133SOL    HW218036   2.766   3.747   0.923  0.7392  0.4375 -0.1662
 2134SOL     OW18037   2.767   4.678  16.133 -0.6824  0.6114 -0.0867
 2134SOL    HW118038   2.739   0.002  16.068  0.1829  0.4466 -0.6134
 2134SOL    HW218039   2.728   4.599  16.096  1.5181  1.1403 -3.5201
 2135SOL     OW18040   3.794   2.737   1.620  0.0397  0.0158 -0.1100
 2135SOL    HW118041   3.773   2.644   1.617 -0.0302  0.0523 -0.8479
 2135SOL    HW218042   3.837   2.736   1.534  2.8566 -0.7197  1.3190
 2136SOL     OW18043   0.643   0.461   7.051 -0.2830 -0.7428  0.1323
 2136SOL    HW118044   0.552   0.444   7.074 -0.1793 -0.3318  0.8204
 2136SOL    HW218045   0.676   0.372   7.034  0.0525 -0.6848  0.4636
 2137SOL     OW18046   0.498   4.459  12.035 -0.0297  0.1697  0.0079
 2137SOL    HW118047   0.469   4.368  12.026  1.3714 -0.2357 -0.4741
 2137SOL    HW218048   0.430   4.506  11.986  0.1293  0.4470  0.0536
 2138SOL     OW18049   4.339   4.114  17.107  0.3167  0.2566 -0.1006
 2138SOL    HW118050   4.408   4.142  17.046  0.3583  2.1846  0.8064
 2138SOL    HW218051   4.365   4.033  17.151  0.3260  0.2856 -0.0526
 2139SOL     OW18052   2.140   4.044   3.727  0.0889 -0.5065  0.4190
 2139SOL    HW118053   2.111   4.125   3.769 -1.2524  0.3880 -2.2146
 2139SOL    HW218054   2.071   4.025   3.664 -0.1509  1.0594  0.1986
 2140SOL     OW18055   1.400   2.609   8.494 -0.3782  0.1106 -0.0469
 2140SOL    HW118056   1.313   2.612   8.533 -0.1387  0.1541  0.4831
 2140SOL    HW218057   1.440   2.554   8.561 -1.2385 -3.6598 -2.6664
 2141SOL     OW18058   0.571   2.605   3.416  0.7544 -0.2745  0.7357
 2141SOL    HW118059   0.647   2.557   3.447  1.0311  0.8096  1.7425
 2141SOL    HW218060   0.594   2.697   3.424 -0.3262  0.0914 -0.2626
 2142SOL     OW18061   2.284   0.843   2.634  0.1129  0.3579  0.1590
 2142SOL    HW118062   2.316   0.920   2.587 -0.8341  0.1135 -0.9099
 2142SOL    HW218063   2.364   0.793   2.652  0.0382  0.7964  1.6677
 2143SOL     OW18064   0.459   3.012   1.359  0.0114 -0.1276 -0.2593
 2143SOL    HW118065   0.535   2.965   1.325  0.4478  1.8370 -1.9286
 2143SOL    HW218066   0.468   3.097   1.316 -1.6155 -0.1068 -0.5712
 2144SOL     OW18067   3.500   3.069   2.459  0.4117 -0.3926  0.1800
 2144SOL    HW118068   3.569   3.006   2.438  1.8844  0.5083  2.2402
 2144SOL    HW218069   3.530   3.157   2.436 -4.4458  1.3337  0.4764
 2145SOL     OW18070   2.311   3.379  13.954  0.2140 -0.2365 -0.6331
 2145SOL    HW118071   2.386   3.339  14.000 -0.4540  0.3051  0.9129
 2145SOL    HW218072   2.242   3.353  14.014  0.5626 -1.4859 -0.7674
 2146SOL     OW18073   2.251   2.988   1.829  0.0305 -0.1630 -0.6014
 2146SOL    HW118074   2.283   3.043   1.757  0.2902 -0.7873 -0.9607
 2146SOL    HW218075   2.333   2.972   1.875 -0.0076 -0.0045 -0.4787
 2147SOL     OW18076   1.765   0.945   6.092 -0.0404 -0.5762  0.1352
 2147SOL    HW118077   1.841   0.896   6.061  0.4369 -0.6413  1.4055
 2147SOL    HW218078   1.791   0.963   6.182 -2.5589 -1.5157  1.0453
 2148SOL     OW18079   4.383   1.102   6.590  0.2105  0.2014 -0.0253
 2148SOL    HW118080   4.434   1.130   6.667 -0.5086  1.2181  0.0944
 2148SOL    HW218081   4.376   1.186   6.545 -0.2857 -1.3536 -2.8418
 2149SOL     OW18082   3.273   0.786   7.751  0.2858  0.2496  0.4838
 2149SOL    HW118083   3.199   0.796   7.812  0.3288 -1.0566  0.7513
 2149SOL    HW218084   3.345   0.818   7.805  0.0924  1.3131  0.1191
 2150SOL     OW18085   1.644   3.275   4.137  0.6716 -0.2070 -0.1589
 2150SOL    HW118086   1.726   3.257   4.182 -0.5454 -2.2924  1.2126
 2150SOL    HW218087   1.614   3.189   4.107 -1.1062 -0.4999  2.4265
 2151SOL     OW18088   1.786   3.129   3.766  0.8058  0.1359 -0.2572
 2151SOL    HW118089   1.728   3.161   3.697 -0.6751 -0.2129  0.8121
 2151SOL    HW218090   1.848   3.201   3.780  1.3131 -0.0517 -1.5300
 2152SOL     OW18091   1.597   2.321   5.661 -0.1818 -0.1073  0.2372
 2152SOL    HW118092   1.661   2.386   5.632  0.7541 -1.4178 -0.6280
 2152SOL    HW218093   1.635   2.239   5.631  0.1562 -1.1311  3.5402
 2153SOL     OW18094   4.526   4.223   7.419 -0.4553  0.2536  0.2302
 2153SOL    HW118095   4.441   4.206   7.380 -0.8431  0.3268  1.0419
 2153SOL    HW218096   4.516   4.207   7.513  2.1559  3.3876  1.0625
 2154SOL     OW18097   4.287   0.647  13.094 -0.1349  0.1990 -0.2694
 2154SOL    HW118098   4.206   0.614  13.133 -0.0446  1.3695  0.9133
 2154SOL    HW218099   4.351   0.582  13.124 -0.2374  0.8309  1.3156
 2155SOL     OW18100   4.007   2.412  15.818 -0.4185 -0.6181  0.4282
 2155SOL    HW118101   4.102   2.396  15.819 -0.5157 -1.1542  0.7456
 2155SOL    HW218102   3.983   2.399  15.726 -1.7004  0.6385  0.5869
 2156SOL     OW18103   3.561   3.659  17.426 -0.3739  0.0388  0.4301
 2156SOL    HW118104   3.586   3.567  17.433  0.7991  0.2632 -0.8481
 2156SOL    HW218105   3.606   3.704  17.355  0.1516 -1.0827  0.0618
 2157SOL     OW18106   0.924   1.762  11.605  0.4259  0.2710  0.6780
 2157SOL    HW118107   0.878   1.687  11.641  0.6363 -0.6903 -1.0192
 2157SOL    HW218108   0.888   1.826  11.667 -0.5891 -0.7910  1.1609
 2158SOL     OW18109   3.524   2.625   0.674  0.6910 -0.0921  0.6609
 2158SOL    HW118110   3.492   2.714   0.665  1.7739  0.0407 -2.0776
 2158SOL    HW218111   3.526   2.618   0.769  1.2545 -2.0747  0.5032
 2159SOL     OW18112   1.732   4.314   8.723  0.2129 -0.2772  0.2813
 2159SOL    HW118113   1.717   4.279   8.810 -2.3150 -1.6728 -0.7236
 2159SOL    HW218114   1.764   4.404   8.730 -2.0649  0.5449  0.1910
 2160SOL     OW18115   2.070   4.279  11.095 -0.1849  0.0013  0.0195
 2160SOL    HW118116   2.119   4.351  11.135  1.4103  0.7633 -3.2366
 2160SOL    HW218117   2.014   4.247  11.165  0.6703 -2.6383 -0.4834
 2161SOL     OW18118   2.312   0.486   9.239 -0.9599  0.2867 -0.1542
 2161SOL    HW118119   2.271   0.507   9.323 -0.9160 -0.3747  0.0307
 2161SOL    HW218120   2.402   0.514   9.251 -0.9868 -0.6598  2.2622
 2162SOL     OW18121   0.063   4.136  17.177  0.2064 -0.0954 -0.1375
 2162SOL    HW118122   0.156   4.158  17.167  0.4001  0.1451  2.2574
 2162SOL    HW218123   0.034   4.182  17.098  0.1976 -2.0102 -1.2260
 2163SOL     OW18124   1.131   2.767   3.661 -0.5062 -0.1038 -0.0249
 2163SOL    HW118125   1.160   2.831   3.595 -0.0944  0.0112  0.2665
 2163SOL    HW218126   1.040   2.756   3.635 -0.6031 -1.6016  0.9203
 2164SOL     OW18127   2.229   4.537   0.503  0.1356  0.1742  0.2428
 2164SOL    HW118128   2.178   4.500   0.431  0.6317  2.1800 -1.1594
 2164SOL    HW218129   2.181   4.620   0.511 -0.8371 -0.2349 -1.3196
 2165SOL     OW18130   0.560   2.922   6.760  0.0554 -0.3235 -0.0877
 2165SOL    HW118131   0.572   2.984   6.832  0.8892 -1.9365  1.1486
 2165SOL    HW218132   0.513   2.851   6.805  0.9834 -0.7333  0.2424
 2166SOL     OW18133   1.778   0.089   3.259  0.4952  0.0137 -0.1892
 2166SOL    HW118134   1.710   0.155   3.243  0.2057 -0.1959  0.1579
 2166SOL    HW218135   1.820   0.134   3.332  2.5092 -0.6798 -0.9383
 2167SOL     OW18136   2.142   1.455   6.050  0.3686  0.2676 -0.4007
 2167SOL    HW118137   2.132   1.363   6.074 -1.4174  0.0102 -2.0761
 2167SOL    HW218138   2.049   1.479   6.051  0.6484  1.3650 -0.4570
 2168SOL     OW18139   0.380   3.068  11.984 -0.1812  0.4677  0.1134
 2168SOL    HW118140   0.319   3.027  12.045 -0.6434 -1.4257 -1.6159
 2168SOL    HW218141   0.320   3.111  11.923 -0.2835  1.4896  0.9535
 2169SOL     OW18142   2.987   0.174   3.568 -0.1490 -0.1559 -0.1397
 2169SOL    HW118143   3.004   0.217   3.484 -2.3218  1.0696  0.0551
 2169SOL    HW218144   3.071   0.193   3.610 -1.0951  0.8024  1.2931
 2170SOL     OW18145   2.693   0.644   7.963  0.0637 -0.1632 -0.0553
 2170SOL    HW118146   2.604   0.657   7.930  0.0479 -2.2614 -0.7973
 2170SOL    HW218147   2.743   0.636   7.882  0.2457 -0.8390  0.1314
 2171SOL     OW18148   2.547   2.920   7.148  0.2829 -0.0546  0.0380
 2171SOL    HW118149   2.542   2.971   7.230  0.5120  0.6032 -0.3555
 2171SOL    HW218150   2.478   2.856   7.166 -0.0844  1.0093  2.4969
 2172SOL     OW18151   4.462   1.577   7.605 -0.0308 -0.1100 -0.5229
 2172SOL    HW118152   4.468   1.604   7.513  0.9189  0.6630 -0.2389
 2172SOL    HW218153   4.369   1.557   7.606  0.4191 -2.1954  0.3072
 2173SOL     OW18154   0.166   4.157   6.974  0.2253 -0.0610 -0.2247
 2173SOL    HW118155   0.173   4.158   7.069  0.9068 -1.9193 -0.2468
 2173SOL    HW218156   0.258   4.178   6.956  0.2600 -1.7220 -1.9787
 2174SOL     OW18157   0.878   4.718  12.008 -0.3629  0.0210  0.0398
 2174SOL    HW118158   0.853   4.625  12.000 -0.6853  0.0732  0.4161
 2174SOL    HW218159   0.794   4.740  12.047 -0.1860 -1.6021  1.3465
 2175SOL     OW18160   0.120   0.423   6.583 -0.2450  0.0582 -0.0153
 2175SOL    HW118161   0.123   0.419   6.679  2.2462  0.4651 -0.0682
 2175SOL    HW218162   0.087   0.338   6.554 -0.6539 -0.1572  1.0697
 2176SOL     OW18163   1.200   3.859   9.745 -0.1343  0.2461  0.2311
 2176SOL    HW118164   1.111   3.888   9.723  0.2401  0.5399 -0.9089
 2176SOL    HW218165   1.179   3.839   9.836  1.3353  0.2542  0.5607
 2177SOL     OW18166   4.569   1.523  11.437  0.3129 -0.8483 -0.9796
 2177SOL    HW118167   4.618   1.523  11.519 -0.4205  1.4576 -0.5563
 2177SOL    HW218168   4.565   1.618  11.427  0.8641 -0.4405  2.5372
 2178SOL     OW18169   0.553   3.440   9.278 -0.3354  0.5472  0.4414
 2178SOL    HW118170   0.632   3.426   9.329  0.3706  1.1241 -0.4930
 2178SOL    HW218171   0.531   3.356   9.237  1.4259  0.2521  0.0892
 2179SOL     OW18172   1.605   1.554   6.092  0.3887 -0.1021 -0.0870
 2179SOL    HW118173   1.593   1.500   6.014 -1.7700 -0.2395  0.3485
 2179SOL    HW218174   1.526   1.532   6.140 -1.0889  3.1506 -1.0266
 2180SOL     OW18175   1.559   3.603   6.250  0.4781  0.1320 -0.2827
 2180SOL    HW118176   1.500   3.670   6.284  1.0742  0.4366  0.1682
 2180SOL    HW218177   1.569   3.636   6.161 -1.0738 -2.0566 -1.2716
 2181SOL     OW18178   0.874   0.648   9.823  0.1247  0.4502 -0.1055
 2181SOL    HW118179   0.844   0.579   9.765  1.4719 -0.2081 -0.0184
 2181SOL    HW218180   0.929   0.689   9.756 -0.3732  1.4165  0.0654
 2182SOL     OW18181   1.837   0.471  13.866 -0.2935 -0.1069 -0.1483
 2182SOL    HW118182   1.839   0.511  13.953 -3.1119 -2.4246  1.0249
 2182SOL    HW218183   1.752   0.499  13.833 -0.4034 -0.1317  0.1156
 2183SOL     OW18184   4.172   0.512  12.054  0.2464 -1.0130 -0.1639
 2183SOL    HW118185   4.147   0.423  12.080 -0.2814 -0.0374  2.6347
 2183SOL    HW218186   4.117   0.530  11.979  1.1259 -0.2901 -0.6350
 2184SOL     OW18187   3.601   0.534   1.744 -0.0078 -0.3216 -0.3589
 2184SOL    HW118188   3.580   0.469   1.677  0.3093 -0.8295  0.0373
 2184SOL    HW218189   3.612   0.611   1.688 -0.7784 -0.0231 -0.0932
 2185SOL     OW18190   1.843   0.899   9.524  0.5655  0.0319 -0.1801
 2185SOL    HW118191   1.879   0.988   9.521 -1.1039  0.7699  1.6968
 2185SOL    HW218192   1.785   0.906   9.449 -1.4401 -0.4422  1.3414
 2186SOL     OW18193   0.831   2.729   0.552  0.1293  0.1798 -0.2911
 2186SOL    HW118194   0.825   2.635   0.565 -0.9821  0.2883  0.0025
 2186SOL    HW218195   0.867   2.729   0.463 -0.9826 -2.5500 -0.7408
 2187SOL     OW18196   4.583   0.174   5.216  0.1940 -0.7039  0.5493
 2187SOL    HW118197   4.638   0.235   5.265 -0.9424  2.0281 -1.6046
 2187SOL    HW218198   4.644   0.138   5.152  0.6045  1.2210 -0.1406
 2188SOL     OW18199   0.055   3.193   6.460  0.4140  0.2774  0.3063
 2188SOL    HW118200   0.143   3.227   6.442  1.0249 -2.4590 -1.7680
 2188SOL    HW218201   4.736   3.262   6.430  0.1251  0.0056  0.2510
 2189SOL     OW18202   0.518   0.450   5.357 -0.7766 -0.4459 -0.1348
 2189SOL    HW118203   0.456   0.506   5.309  1.4636  1.4474 -0.8627
 2189SOL    HW218204   0.496   0.455   5.450 -0.5320 -0.8932 -0.0515
 2190SOL     OW18205   2.340   4.648   3.361 -0.3879  0.1382  0.0631
 2190SOL    HW118206   2.260   4.622   3.314 -1.4447  0.8556  1.4525
 2190SOL    HW218207   2.312   4.634   3.451 -0.9078  2.2532  0.2455
 2191SOL     OW18208   2.755   3.821   3.091 -0.2123 -0.5865  0.0062
 2191SOL    HW118209   2.664   3.797   3.105 -0.3021 -0.2069  0.0821
 2191SOL    HW218210   2.789   3.749   3.038  0.3012  0.1893 -0.7187
 2192SOL     OW18211   0.497   3.625   5.934  0.2183  0.2127 -0.3040
 2192SOL    HW118212   0.442   3.561   5.889  0.0340 -0.5158  0.9639
 2192SOL    HW218213   0.457   3.708   5.907  0.6756 -0.3292 -2.7049
 2193SOL     OW18214   3.256   0.857   6.371 -0.4390  0.3952 -0.0240
 2193SOL    HW118215   3.283   0.876   6.461 -1.7577  0.9430  0.2641
 2193SOL    HW218216   3.305   0.776   6.356 -2.2740 -1.1990  2.3663
 2194SOL     OW18217   0.942   4.289  14.436 -0.1877 -0.0577  0.4452
 2194SOL    HW118218   0.950   4.195  14.448 -0.3340 -0.2956 -1.4180
 2194SOL    HW218219   0.848   4.300  14.419  0.5233  2.7240 -1.7070
 2195SOL     OW18220   2.471   1.270   3.966  0.1140 -0.6423 -0.7351
 2195SOL    HW118221   2.566   1.258   3.955  0.5852  1.2539  1.3055
 2195SOL    HW218222   2.455   1.177   3.982 -0.2394 -0.6193 -0.9700
 2196SOL     OW18223   3.826   2.170  13.901 -0.3425  0.3441 -0.1542
 2196SOL    HW118224   3.864   2.103  13.844  0.0768  0.0187  0.5177
 2196SOL    HW218225   3.731   2.167  13.892 -0.3893 -0.8987  0.7752
 2197SOL     OW18226   1.823   4.590   2.813 -0.1272  0.4563  0.1432
 2197SOL    HW118227   1.849   4.500   2.835 -0.9386  0.4028  0.8815
 2197SOL    HW218228   1.895   4.617   2.756  1.3201 -0.6049  1.4596
 2198SOL     OW18229   1.973   0.008   5.859  0.3536 -0.4577  0.2756
 2198SOL    HW118230   2.028   0.075   5.899 -2.0324  0.9674  1.1387
 2198SOL    HW218231   1.905   0.055   5.811  0.0033 -1.6117 -0.3641
 2199SOL     OW18232   0.217   0.130  13.590 -0.0033  0.1824 -0.3513
 2199SOL    HW118233   0.302   0.087  13.602 -0.3092 -0.0454  0.9913
 2199SOL    HW218234   0.249   0.209  13.547 -0.2234  0.5153  0.0980
 2200SOL     OW18235   0.386   2.363   0.669 -0.7732  1.0150 -0.0241
 2200SOL    HW118236   0.460   2.305   0.687 -0.4957  0.6450 -2.3199
 2200SOL    HW218237   0.382   2.406   0.754  0.5027  1.8859 -0.4082
 2201SOL     OW18238   1.008   0.657   5.395 -0.5310  0.2885 -0.1340
 2201SOL    HW118239   1.098   0.633   5.418 -0.9816 -1.6242 -0.3401
 2201SOL    HW218240   1.008   0.652   5.300  0.3119  2.2441 -0.2221
 2202SOL     OW18241   0.636   4.351   7.290  0.1566  0.7241  0.0312
 2202SOL    HW118242   0.675   4.369   7.376  1.1070 -0.1307 -0.2300
 2202SOL    HW218243   0.602   4.262   7.291  1.0227  0.4001  0.9949
 2203SOL     OW18244   0.032   2.117  17.158  0.1785  0.3214  0.0030
 2203SOL    HW118245   0.002   2.184  17.097  2.0156  0.7144 -0.4545
 2203SOL    HW218246   0.024   2.167  17.240  0.4986 -1.9806  1.4539
 2204SOL     OW18247   2.596   3.814   8.864 -0.2871 -0.1945 -0.5266
 2204SOL    HW118248   2.617   3.799   8.772 -1.1700 -1.4246 -0.5291
 2204SOL    HW218249   2.652   3.890   8.882 -2.8525  1.8919 -1.3120
 2205SOL     OW18250   3.737   0.441   5.769  0.2568 -0.2423  0.3959
 2205SOL    HW118251   3.702   0.497   5.838  1.5331 -0.7534  1.4698
 2205SOL    HW218252   3.776   0.374   5.826  0.4920 -0.6017 -0.1868
 2206SOL     OW18253   4.448   1.949  16.197  0.4877 -0.0034 -0.5138
 2206SOL    HW118254   4.427   1.907  16.280  0.1395  2.6551  0.7483
 2206SOL    HW218255   4.372   2.008  16.191  1.2392  1.0950  0.7424
 2207SOL     OW18256   3.856   2.521   4.433  0.0059 -0.6339 -0.6458
 2207SOL    HW118257   3.844   2.579   4.508 -2.2127 -0.2914 -1.2518
 2207SOL    HW218258   3.887   2.592   4.376  2.5226 -3.0060 -2.1868
 2208SOL     OW18259   0.888   3.761  17.588  0.4346  0.2775 -0.2788
 2208SOL    HW118260   0.849   3.830  17.534  0.3306 -0.0345 -0.5964
 2208SOL    HW218261   0.815   3.700  17.602  2.2258 -1.5569  1.0360
 2209SOL     OW18262   4.492   1.139   4.530 -0.0341 -0.1835 -0.2887
 2209SOL    HW118263   4.488   1.065   4.470  0.7113  0.9930 -1.8065
 2209SOL    HW218264   4.457   1.204   4.470  2.8328  1.4062 -0.2510
 2210SOL     OW18265   0.918   0.579   2.602  0.6609  0.5437 -0.2004
 2210SOL    HW118266   0.986   0.585   2.535 -0.3765  1.8974 -1.1311
 2210SOL    HW218267   0.865   0.647   2.562  0.1706  1.3387  1.7921
 2211SOL     OW18268   3.676   2.896   5.166 -0.0345 -0.4688  0.3723
 2211SOL    HW118269   3.767   2.874   5.183  0.9967  2.8891 -0.9420
 2211SOL    HW218270   3.659   2.975   5.217 -0.5388 -0.8181  0.7599
 2212SOL     OW18271   3.705   4.056   3.738  0.3017 -0.7856 -0.2300
 2212SOL    HW118272   3.626   4.105   3.761 -0.0637 -0.8151 -1.4215
 2212SOL    HW218273   3.777   4.115   3.762  0.7891 -0.8831 -1.4030
 2213SOL     OW18274   2.237   4.603   8.916  0.5296  0.0554 -0.0351
 2213SOL    HW118275   2.234   4.562   9.002 -2.5930  0.0056 -0.1699
 2213SOL    HW218276   2.167   4.550   8.877  1.2694 -1.0668  0.1653
 2214SOL     OW18277   1.209   4.226   8.933 -0.5138 -0.3415 -0.0205
 2214SOL    HW118278   1.184   4.291   8.868  1.3677  0.3043 -0.0808
 2214SOL    HW218279   1.213   4.149   8.876 -0.7726 -1.2025  1.1267
 2215SOL     OW18280   0.180   2.432  16.463 -0.3256 -0.1682 -0.4223
 2215SOL    HW118281   0.196   2.409  16.554  0.5029  0.0373 -0.5126
 2215SOL    HW218282   0.084   2.436  16.458 -0.1923  2.5409 -0.6915
 2216SOL     OW18283   0.991   0.890  12.925 -0.0746  0.2319 -0.7568
 2216SOL    HW118284   1.032   0.912  13.009 -0.4014 -2.5911  0.1784
 2216SOL    HW218285   0.953   0.976  12.909 -1.1395  0.1054  1.0899
 2217SOL     OW18286   3.584   0.962  15.577  0.3304  0.3782  0.2356
 2217SOL    HW118287   3.631   1.002  15.650  2.8942 -1.8475 -0.1762
 2217SOL    HW218288   3.653   0.943  15.513  2.3372 -0.2167  2.5905
 2218SOL     OW18289   1.913   2.283  12.880 -0.4103 -0.0872 -0.2721
 2218SOL    HW118290   1.969   2.335  12.939  0.5970 -2.1515  0.6004
 2218SOL    HW218291   1.876   2.219  12.941 -1.4623  1.9262  1.1911
 2219SOL     OW18292   3.798   2.753   6.449 -0.9020  0.5604 -0.4738
 2219SOL    HW118293   3.729   2.692   6.475  0.0846  0.1565  1.1684
 2219SOL    HW218294   3.753   2.832   6.419  0.2852  1.3102 -0.2496
 2220SOL     OW18295   3.483   3.735  11.632  0.1706 -0.4156 -0.0556
 2220SOL    HW118296   3.487   3.815  11.684  4.1622  0.0734 -1.0748
 2220SOL    HW218297   3.438   3.680  11.696  0.6726  0.4190  1.0245
 2221SOL     OW18298   1.272   3.506   8.339 -0.8813  1.0061  0.3429
 2221SOL    HW118299   1.243   3.581   8.287 -2.3522  0.4326  0.3237
 2221SOL    HW218300   1.361   3.535   8.356 -0.5182  0.0209  0.0976
 2222SOL     OW18301   2.273   4.473   8.624 -0.7712 -0.5109 -0.5814
 2222SOL    HW118302   2.243   4.383   8.617 -0.8067 -0.5456  0.0175
 2222SOL    HW218303   2.362   4.471   8.660 -0.2129 -0.1705 -1.9514
 2223SOL     OW18304   4.277   2.143   7.176  0.3879 -0.1704  0.0439
 2223SOL    HW118305   4.309   2.102   7.095  0.2485 -3.5618  1.6997
 2223SOL    HW218306   4.230   2.220   7.145 -0.1917 -0.3841  0.3874
 2224SOL     OW18307   2.009   2.508   4.085  0.4055  0.1455  0.2870
 2224SOL    HW118308   2.036   2.438   4.144 -0.3767  0.3672  0.9077
 2224SOL    HW218309   1.914   2.518   4.099  0.0718 -0.5908 -1.3678
 2225SOL     OW18310   2.796   3.700  17.016 -0.2058 -0.1006 -0.4648
 2225SOL    HW118311   2.709   3.741  17.013 -0.7701 -1.0153  2.8010
 2225SOL    HW218312   2.853   3.759  17.065  0.2752 -0.0879 -1.0456
 2226SOL     OW18313   1.718   0.771   2.763  0.2205  0.1864 -0.4507
 2226SOL    HW118314   1.787   0.772   2.696 -0.3247 -1.5951 -1.0282
 2226SOL    HW218315   1.636   0.779   2.714 -0.2163 -2.0990 -0.0888
 2227SOL     OW18316   3.136   4.313   7.726 -0.8155  0.3073  0.2936
 2227SOL    HW118317   3.086   4.392   7.709 -1.7223 -0.9556 -2.8744
 2227SOL    HW218318   3.218   4.310   7.677 -0.7933  0.6670  0.3100
 2228SOL     OW18319   1.158   0.973  12.725  0.3545 -0.0359 -0.1403
 2228SOL    HW118320   1.101   0.938  12.794  0.6847  0.7917  0.5520
 2228SOL    HW218321   1.190   0.893  12.685  1.5368  0.9553 -1.1468
 2229SOL     OW18322   4.455   2.931   8.372  0.4180  0.1333  0.3495
 2229SOL    HW118323   4.404   2.966   8.445  0.1269 -2.5845  1.4573
 2229SOL    HW218324   4.531   2.988   8.373  0.5600 -0.0438 -0.1007
 2230SOL     OW18325   4.083   1.019  12.920 -0.0621  0.1200  0.3880
 2230SOL    HW118326   4.158   0.987  12.970 -0.3451 -1.6067 -0.3035
 2230SOL    HW218327   4.089   1.113  12.936  0.4252 -0.0460  1.1788
 2231SOL     OW18328   4.694   3.153   1.630 -0.4091 -1.0157  0.0470
 2231SOL    HW118329   4.611   3.189   1.601 -0.6013 -2.6619 -1.4832
 2231SOL    HW218330   4.666   3.065   1.655 -2.3822  0.2456  2.2303
 2232SOL     OW18331   4.449   4.062  14.131  0.6854  0.0504  0.4602
 2232SOL    HW118332   4.471   3.969  14.131  1.5190  0.2430 -1.0109
 2232SOL    HW218333   4.355   4.058  14.149  0.6997  0.1971  0.5693
 2233SOL     OW18334   3.286   1.349   5.419  0.0299 -0.4106 -0.0084
 2233SOL    HW118335   3.203   1.314   5.388  0.1870 -0.5543 -0.2605
 2233SOL    HW218336   3.301   1.288   5.491 -0.3386 -0.8035 -0.2623
 2234SOL     OW18337   0.203   3.729   0.830 -0.0557  0.4259 -0.1188
 2234SOL    HW118338   0.131   3.667   0.815  0.2128  0.0835  0.0155
 2234SOL    HW218339   0.254   3.723   0.749  0.8783 -1.5866  0.6028
 2235SOL     OW18340   0.630   2.214  10.611 -0.3182  0.3625 -0.4812
 2235SOL    HW118341   0.638   2.122  10.637 -1.6592  0.3025 -0.3011
 2235SOL    HW218342   0.563   2.216  10.543  0.6883 -0.4159 -1.4968
 2236SOL     OW18343   4.489   4.149   4.701 -0.0251  0.6021  0.1797
 2236SOL    HW118344   4.530   4.074   4.657  0.2176  1.3489 -0.8488
 2236SOL    HW218345   4.541   4.150   4.781  0.0831  4.0747  0.0309
 2237SOL     OW18346   3.581   1.134   6.083 -0.0662 -0.0367 -0.0971
 2237SOL    HW118347   3.537   1.136   6.169  1.0248 -2.4088  0.5357
 2237SOL    HW218348   3.658   1.080   6.101 -1.2957 -1.1976  1.7346
 2238SOL     OW18349   2.760   2.889   4.593 -0.8035  0.3826 -0.2411
 2238SOL    HW118350   2.759   2.874   4.499 -1.6994 -1.4122  0.0623
 2238SOL    HW218351   2.828   2.955   4.610 -0.1292 -0.2609 -0.4300
 2239SOL     OW18352   3.069   2.307   6.526  0.1699  0.2081 -0.1202
 2239SOL    HW118353   3.023   2.279   6.448 -0.2461 -0.5689  0.4093
 2239SOL    HW218354   3.127   2.374   6.491  0.2301 -1.2239 -2.7427
 2240SOL     OW18355   0.569   1.047   5.873 -0.1170  0.1354  0.0726
 2240SOL    HW118356   0.481   1.015   5.890 -0.7132  1.8481  0.1874
 2240SOL    HW218357   0.550   1.131   5.830  0.4526  0.0574 -0.3361
 2241SOL     OW18358   1.354   0.082   4.047 -0.3458  0.1267 -0.1350
 2241SOL    HW118359   1.350   4.727   4.058 -0.6212  0.2195  0.5603
 2241SOL    HW218360   1.419   0.077   3.977 -2.1001  0.3417 -1.7610
 2242SOL     OW18361   4.618   1.988   8.793  0.3938 -0.2075  0.0654
 2242SOL    HW118362   4.666   1.927   8.736  0.0768 -1.3454  1.0105
 2242SOL    HW218363   4.678   2.060   8.812  2.0213 -1.5875  0.2017
 2243SOL     OW18364   1.752   3.223   2.982  0.6924 -0.1895 -0.1989
 2243SOL    HW118365   1.702   3.281   2.925 -0.0872 -0.5225  0.1500
 2243SOL    HW218366   1.791   3.288   3.041 -1.8936 -0.0181  1.3106
 2244SOL     OW18367   3.028   1.030   0.378  0.4241 -1.0594 -0.4685
 2244SOL    HW118368   3.084   1.057   0.305  0.4341 -0.5502 -0.2732
 2244SOL    HW218369   2.975   0.959   0.343  3.0027 -2.0808 -2.3685
 2245SOL     OW18370   4.550   0.237   2.810 -0.1442 -0.7176 -0.6983
 2245SOL    HW118371   4.640   0.216   2.835  0.6554  2.3381 -0.9916
 2245SOL    HW218372   4.518   0.263   2.896 -0.5640  1.4557 -1.5170
 2246SOL     OW18373   0.338   1.660   1.704 -0.3552 -0.1995 -1.0155
 2246SOL    HW118374   0.286   1.716   1.762  1.2918 -0.3104  0.5872
 2246SOL    HW218375   0.406   1.724   1.687 -1.3068  1.8732  2.8157
 2247SOL     OW18376   2.834   4.168   1.774 -0.5422  0.3141  0.2491
 2247SOL    HW118377   2.839   4.073   1.788 -1.5319  0.1816 -0.3222
 2247SOL    HW218378   2.854   4.164   1.681 -0.5690  2.0655  0.1708
 2248SOL     OW18379   0.443   1.776   2.426 -0.1393 -0.2463  0.0999
 2248SOL    HW118380   0.359   1.798   2.466 -0.0663 -2.8447  1.6725
 2248SOL    HW218381   0.499   1.785   2.503 -0.4054 -1.0055  0.3753
 2249SOL     OW18382   3.124   0.370   5.608  0.1052 -0.2608  0.8765
 2249SOL    HW118383   3.085   0.310   5.672  0.2390 -1.6716 -0.3478
 2249SOL    HW218384   3.054   0.360   5.545  2.2830 -2.4136 -1.2082
 2250SOL     OW18385   2.047   1.907   0.059 -0.3116  0.1840 -0.0271
 2250SOL    HW118386   2.066   1.988   0.106  1.1550 -0.2974  0.2334
 2250SOL    HW218387   1.961   1.890   0.097  0.0097 -2.0006 -0.2622
 2251SOL     OW18388   2.183   2.902   6.922 -0.1010  0.0257 -0.3995
 2251SOL    HW118389   2.129   2.860   6.988  1.8229 -1.0462  0.4863
 2251SOL    HW218390   2.129   2.973   6.887  0.0101  0.3583  0.1005
 2252SOL     OW18391   1.676   4.280   9.599 -0.2320 -0.5778  0.2466
 2252SOL    HW118392   1.593   4.257   9.558  0.4008  0.0962 -1.4011
 2252SOL    HW218393   1.725   4.301   9.520 -2.4123 -1.2185 -1.2711
 2253SOL     OW18394   4.621   2.013  10.408 -0.1599  0.3947 -0.0781
 2253SOL    HW118395   4.530   2.028  10.382  0.4633  0.8364 -2.0241
 2253SOL    HW218396   4.647   1.933  10.363 -1.3907  0.8579 -1.6281
 2254SOL     OW18397   1.714   3.646  13.302  0.0580  0.5871 -0.0686
 2254SOL    HW118398   1.716   3.730  13.257  1.4901  0.0161 -1.0545
 2254SOL    HW218399   1.803   3.617  13.282  0.3465  1.9989 -0.8405
 2255SOL     OW18400   3.249   2.394   4.535 -0.4797 -0.2722  0.4537
 2255SOL    HW118401   3.316   2.462   4.546  1.6152 -2.3744  0.7145
 2255SOL    HW218402   3.249   2.371   4.442 -2.0596  3.0213 -0.3651
 2256SOL     OW18403   3.760   3.443   7.801  0.2601 -0.7521 -0.4675
 2256SOL    HW118404   3.761   3.436   7.897  1.5393  1.8669 -0.3127
 2256SOL    HW218405   3.849   3.475   7.783  0.0314 -0.0570 -0.3420
 2257SOL     OW18406   3.355   2.441  15.947 -0.7371 -0.2075 -0.0330
 2257SOL    HW118407   3.264   2.409  15.946 -1.6191  2.4637 -4.1653
 2257SOL    HW218408   3.382   2.426  16.037  2.5261 -0.1157 -1.0060
 2258SOL     OW18409   3.786   3.645   4.580 -0.4097 -0.0988 -0.0507
 2258SOL    HW118410   3.811   3.573   4.522  1.8844  1.1144 -0.5556
 2258SOL    HW218411   3.760   3.714   4.520  1.2012 -0.1343 -0.7846
 2259SOL     OW18412   1.366   0.348  15.374  0.3045 -0.1561  0.2612
 2259SOL    HW118413   1.339   0.438  15.358  0.4858 -0.4358 -1.6190
 2259SOL    HW218414   1.358   0.311  15.286 -1.5311  1.0671 -0.0844
 2260SOL     OW18415   0.076   3.186   3.823 -0.6801  0.1059 -0.3076
 2260SOL    HW118416   0.033   3.164   3.906 -0.6331  0.5260 -0.1741
 2260SOL    HW218417   0.084   3.095   3.795  0.2566 -0.3350  1.3957
 2261SOL     OW18418   2.192   0.834   6.238 -0.0363  0.6016  0.4556
 2261SOL    HW118419   2.274   0.876   6.211 -1.7786  2.1961 -2.4440
 2261SOL    HW218420   2.156   0.884   6.311 -1.3184 -1.4594  1.2267
 2262SOL     OW18421   1.131   3.109   4.713 -0.4331  0.4904  0.1364
 2262SOL    HW118422   1.196   3.118   4.783  1.8311  1.9412 -2.1933
 2262SOL    HW218423   1.050   3.105   4.765 -0.0430 -0.0078  0.7174
 2263SOL     OW18424   2.669   0.744   0.855  0.7032 -0.2299  0.2294
 2263SOL    HW118425   2.724   0.673   0.823 -0.8586 -2.5166  2.6669
 2263SOL    HW218426   2.692   0.818   0.798  0.6255 -0.9346 -0.7168
 2264SOL     OW18427   4.525   0.284   9.517  0.4918  0.4661 -0.1964
 2264SOL    HW118428   4.465   0.357   9.503  0.9400  0.4741 -2.0467
 2264SOL    HW218429   4.501   0.227   9.444 -1.3553 -1.8036  2.1839
 2265SOL     OW18430   2.733   0.679   4.267 -0.3507  0.3622  0.0809
 2265SOL    HW118431   2.686   0.683   4.350 -2.4101  0.7102 -1.1039
 2265SOL    HW218432   2.821   0.661   4.300 -0.4418  2.3392  1.4146
 2266SOL     OW18433   3.309   3.289  17.412  0.6661 -0.1410 -0.3012
 2266SOL    HW118434   3.251   3.298  17.336 -0.7921  1.2529  0.9935
 2266SOL    HW218435   3.398   3.283  17.378  0.5692  0.2662 -0.6308
 2267SOL     OW18436   1.882   0.391   1.871  0.7292 -0.0044 -0.0494
 2267SOL    HW118437   1.810   0.453   1.881  0.0094 -0.8175 -0.1731
 2267SOL    HW218438   1.962   0.444   1.878 -0.8849  2.5584 -1.0990
 2268SOL     OW18439   0.813   2.894  16.548  0.1723  0.1954 -0.5536
 2268SOL    HW118440   0.859   2.901  16.632 -1.0543 -1.0850  0.2384
 2268SOL    HW218441   0.888   2.897  16.489 -0.0862  0.4096 -0.8738
 2269SOL     OW18442   2.725   3.257  17.208  0.1090 -0.5030 -0.5110
 2269SOL    HW118443   2.750   3.256  17.301  2.5212 -0.8893 -1.1491
 2269SOL    HW218444   2.695   3.169  17.185 -1.4369 -0.2006  0.3622
 2270SOL     OW18445   4.715   0.786  13.795 -0.1558  0.2763 -0.7949
 2270SOL    HW118446   0.005   0.697  13.775  0.1645  0.3420 -0.6120
 2270SOL    HW218447   4.674   0.813  13.713 -1.6556  0.9892  0.2024
 2271SOL     OW18448   1.941   4.214  12.389  0.0761 -0.4732 -0.3170
 2271SOL    HW118449   1.986   4.225  12.305 -1.1162  1.7901 -0.6512
 2271SOL    HW218450   1.852   4.193  12.362  0.4750  0.8337 -2.7225
 2272SOL     OW18451   2.961   3.878  17.122 -0.8466 -0.5053  0.4041
 2272SOL    HW118452   2.991   3.969  17.116  0.8562 -1.0073  1.3554
 2272SOL    HW218453   3.031   3.837  17.071  0.9321  0.7504  1.8445
 2273SOL     OW18454   4.586   1.618   0.849  0.4431  0.2065 -0.2186
 2273SOL    HW118455   4.584   1.596   0.756 -1.3196  0.5184 -0.2672
 2273SOL    HW218456   4.530   1.549   0.885  1.0899  0.0102  0.4175
 2274SOL     OW18457   3.061   0.949   8.775  0.2034 -0.5936  0.1777
 2274SOL    HW118458   3.064   0.862   8.734  0.5506  0.3444 -1.7943
 2274SOL    HW218459   3.009   0.934   8.853  0.1239  0.5893  0.3525
 2275SOL     OW18460   0.731   2.896   2.414 -0.3884 -0.1156  0.1377
 2275SOL    HW118461   0.676   2.818   2.407  0.9257 -0.9180 -1.1915
 2275SOL    HW218462   0.811   2.870   2.458 -0.0705 -1.9808 -1.5653
 2276SOL     OW18463   2.653   2.506  16.390 -0.2751  0.0562  0.2631
 2276SOL    HW118464   2.569   2.485  16.350 -0.4426  0.6114  0.3287
 2276SOL    HW218465   2.685   2.582  16.341  1.5503 -1.9838 -1.7553
 2277SOL     OW18466   3.075   0.344  11.150  0.0527 -0.2016  0.5680
 2277SOL    HW118467   3.070   0.367  11.057  0.0871 -2.2171  0.0781
 2277SOL    HW218468   3.166   0.315  11.150  0.8656  2.4066 -1.7209
 2278SOL     OW18469   3.542   4.152   4.925 -0.2531  0.1848 -0.6151
 2278SOL    HW118470   3.521   4.097   5.001  1.9024  0.5098  0.1919
 2278SOL    HW218471   3.552   4.091   4.851  1.7880  0.3724 -0.4806
 2279SOL     OW18472   1.150   3.007   3.540  0.2016  0.3481 -0.1500
 2279SOL    HW118473   1.101   3.078   3.580 -0.2021 -0.4455  0.7671
 2279SOL    HW218474   1.238   3.044   3.535 -0.0282  0.6006 -2.3981
 2280SOL     OW18475   2.981   3.658   7.131 -0.1879 -0.2502  0.0388
 2280SOL    HW118476   2.929   3.645   7.052  0.8837 -1.2359 -0.5117
 2280SOL    HW218477   3.063   3.616   7.103  1.1491  1.1943  1.7325
 2281SOL     OW18478   1.255   0.766  12.607  0.0212 -0.4344  0.1403
 2281SOL    HW118479   1.344   0.734  12.621 -0.5785 -1.9661  0.4647
 2281SOL    HW218480   1.263   0.835  12.541 -2.8987 -0.2570 -0.0461
 2282SOL     OW18481   3.353   3.613  17.179 -0.4544  0.6118 -0.0001
 2282SOL    HW118482   3.434   3.664  17.175 -1.0586  1.7866  2.8498
 2282SOL    HW218483   3.395   3.527  17.185 -0.3997  0.7655  1.6840
 2283SOL     OW18484   1.739   1.650   6.805 -0.2355  0.2936 -0.2232
 2283SOL    HW118485   1.707   1.715   6.867 -0.5168 -0.3344  0.3015
 2283SOL    HW218486   1.811   1.692   6.758  0.2568 -1.0478 -0.6812
 2284SOL     OW18487   2.491   4.577   9.406 -0.0238 -0.1412  0.2184
 2284SOL    HW118488   2.472   4.634   9.480  0.6385 -0.0232  0.2994
 2284SOL    HW218489   2.499   4.645   9.339  0.4234  0.1259  0.5398
 2285SOL     OW18490   1.533   1.832  13.091 -0.4755  0.0220 -0.2977
 2285SOL    HW118491   1.458   1.790  13.049 -1.7436  0.1240  1.9003
 2285SOL    HW218492   1.570   1.761  13.145 -0.4778 -1.0095 -1.6432
 2286SOL     OW18493   1.529   0.405   4.250 -0.2605 -0.0759  0.2907
 2286SOL    HW118494   1.463   0.337   4.238 -0.4175  0.7780 -3.5244
 2286SOL    HW218495   1.567   0.388   4.336  0.1853  0.6584  0.2370
 2287SOL     OW18496   1.570   0.243   9.163 -0.1584 -0.1184  0.9056
 2287SOL    HW118497   1.521   0.265   9.242 -1.5974 -3.0636  0.8509
 2287SOL    HW218498   1.658   0.274   9.183 -0.6100  1.7401 -0.0437
 2288SOL     OW18499   3.085   2.323   0.059 -0.4132 -0.2657  0.6270
 2288SOL    HW118500   3.171   2.298   0.023 -0.9147  0.3210 -0.9770
 2288SOL    HW218501   3.102   2.413   0.084  1.5052 -0.4994  0.2251
 2289SOL     OW18502   3.164   2.698  14.617 -0.1929 -0.3120  0.2856
 2289SOL    HW118503   3.232   2.766  14.617 -0.6945  0.1890 -0.0555
 2289SOL    HW218504   3.151   2.672  14.526 -1.2174 -0.0609  0.3557
 2290SOL     OW18505   0.910   3.938   6.289  0.3786  0.1406 -0.2506
 2290SOL    HW118506   0.940   4.017   6.335  0.1832  1.1332 -1.8301
 2290SOL    HW218507   0.850   3.904   6.356  0.8803  1.3141  0.8028
 2291SOL     OW18508   4.537   1.426   2.129 -0.4149 -0.2316  0.1263
 2291SOL    HW118509   4.624   1.430   2.169 -0.0401 -1.1623 -0.6039
 2291SOL    HW218510   4.490   1.455   2.207  2.6159 -0.1716  1.9715
 2292SOL     OW18511   1.075   4.719  13.404 -0.0607  0.3365 -0.0613
 2292SOL    HW118512   1.157   4.684  13.369 -0.1730 -1.1409  1.1621
 2292SOL    HW218513   1.061   0.038  13.330 -2.2092 -0.9364 -0.6556
 2293SOL     OW18514   2.985   3.077   5.800 -0.0256  0.1257  0.1270
 2293SOL    HW118515   2.984   3.033   5.715 -1.1352  0.5663 -0.0861
 2293SOL    HW218516   3.048   3.025   5.850 -1.8653 -3.9683 -1.8169
 2294SOL     OW18517   0.018   2.893   8.241 -0.0247 -0.1209  0.1667
 2294SOL    HW118518   4.728   2.969   8.291  0.1091  0.8337 -1.2097
 2294SOL    HW218519   0.068   2.937   8.172  0.5378  1.5628  1.6412
 2295SOL     OW18520   3.043   1.993   2.989 -0.3273  0.7172  0.0245
 2295SOL    HW118521   3.025   1.905   3.022 -3.4692  0.0442 -3.5362
 2295SOL    HW218522   2.974   2.003   2.924 -0.3645 -1.0671 -0.2155
 2296SOL     OW18523   0.367   3.496   1.582 -0.0128 -0.4714  0.6465
 2296SOL    HW118524   0.431   3.551   1.536 -0.5635 -0.2697  0.1198
 2296SOL    HW218525   0.348   3.540   1.664 -1.1710  2.6260 -1.2714
 2297SOL     OW18526   0.822   4.723   0.814  0.7311 -0.0565  0.3281
 2297SOL    HW118527   0.787   0.072   0.815  0.4867 -0.1418 -0.5484
 2297SOL    HW218528   0.840   4.703   0.906  0.5691 -0.2804  0.3101
 2298SOL     OW18529   3.717   2.811   1.189 -0.3466 -0.3331 -0.0283
 2298SOL    HW118530   3.703   2.858   1.271  0.6452  1.1844 -0.7141
 2298SOL    HW218531   3.679   2.727   1.211 -1.6586  0.4594  0.7116
 2299SOL     OW18532   2.703   2.604   3.337 -0.4265 -0.1060  0.1711
 2299SOL    HW118533   2.650   2.662   3.392  2.5374 -0.1308  3.0201
 2299SOL    HW218534   2.675   2.521   3.375  0.1413 -1.6422 -2.7629
 2300SOL     OW18535   4.625   3.794   6.543 -0.3968  0.1694  0.1147
 2300SOL    HW118536   4.558   3.791   6.474 -0.9002 -1.7216  0.7026
 2300SOL    HW218537   4.637   3.888   6.553 -0.2141 -0.1656  2.8874
 2301SOL     OW18538   4.415   3.609   9.517 -0.0705  0.2151 -0.2134
 2301SOL    HW118539   4.400   3.536   9.578  0.1931 -1.5445 -2.2764
 2301SOL    HW218540   4.449   3.575   9.435 -1.2577  1.3512 -1.1717
 2302SOL     OW18541   0.328   0.185   0.060  0.3652  0.0993  0.2901
 2302SOL    HW118542   0.333   0.234   0.142 -1.5415  0.4409  0.2146
 2302SOL    HW218543   0.329   0.258  17.755  1.4177  0.0627  0.2630
 2303SOL     OW18544   2.447   1.752   5.346 -0.0578  0.1445  0.2666
 2303SOL    HW118545   2.467   1.729   5.437 -0.8948 -1.4277  0.0574
 2303SOL    HW218546   2.499   1.832   5.340  0.0832 -0.0381 -1.1239
 2304SOL     OW18547   3.633   3.672   3.918 -0.4303 -0.8050  0.2210
 2304SOL    HW118548   3.695   3.606   3.949  1.8272  0.6700 -1.1633
 2304SOL    HW218549   3.670   3.703   3.835  1.1105 -0.2711  1.1245
 2305SOL     OW18550   2.486   2.656  17.359 -0.0072 -0.3721 -0.2063
 2305SOL    HW118551   2.558   2.713  17.388  0.9854 -0.3263 -2.6954
 2305SOL    HW218552   2.527   2.570  17.346  0.5915  0.0765 -1.3561
 2306SOL     OW18553   0.485   2.480  11.236 -0.2669 -0.1488  0.1483
 2306SOL    HW118554   0.549   2.550  11.230  1.3645 -1.9281 -3.1296
 2306SOL    HW218555   0.419   2.516  11.176  0.3813  1.7544  0.5693
 2307SOL     OW18556   4.002   0.483   8.925  0.0920  0.3201  0.1642
 2307SOL    HW118557   4.045   0.398   8.934 -0.2418  0.1718  0.3465
 2307SOL    HW218558   4.057   0.537   8.868 -1.9113 -0.5142 -2.5340
 2308SOL     OW18559   4.660   3.187   8.697 -0.0871  0.1632 -0.1555
 2308SOL    HW118560   4.611   3.260   8.734  0.9251  0.2473  0.9912
 2308SOL    HW218561   4.737   3.187   8.754 -0.5078 -0.8829  0.4162
 2309SOL     OW18562   3.540   1.369   5.292  0.3323 -0.3569 -0.3235
 2309SOL    HW118563   3.475   1.317   5.339 -0.1335  1.6980  1.3077
 2309SOL    HW218564   3.572   1.432   5.357 -3.6142 -1.6951  2.9124
 2310SOL     OW18565   3.041   4.295  11.295  0.4860  0.2496  0.0067
 2310SOL    HW118566   2.954   4.335  11.303  0.1678 -0.2908 -0.7519
 2310SOL    HW218567   3.015   4.205  11.271  2.1257  0.2551 -1.7515
 2311SOL     OW18568   3.312   1.572   1.253  0.0503  0.6000 -0.5134
 2311SOL    HW118569   3.273   1.535   1.173 -0.9855 -0.1171  0.3265
 2311SOL    HW218570   3.257   1.650   1.249  0.4186  0.8667 -0.3136
 2312SOL     OW18571   3.438   0.803   3.461  0.2332 -0.0495  0.1028
 2312SOL    HW118572   3.518   0.751   3.453  1.4227  1.8476 -0.2268
 2312SOL    HW218573   3.402   0.791   3.373  0.6352 -1.1846  0.0956
 2313SOL     OW18574   1.623   0.909   3.233 -0.0654  0.3367  0.3631
 2313SOL    HW118575   1.658   0.877   3.316  1.1833  2.7890  0.7744
 2313SOL    HW218576   1.700   0.934   3.183 -0.1490  0.6023  0.3683
 2314SOL     OW18577   1.865   0.264   0.932  0.0045  0.1020  0.2899
 2314SOL    HW118578   1.827   0.308   1.009 -2.4494  0.6506 -1.2426
 2314SOL    HW218579   1.958   0.263   0.953  0.0400 -1.0572  0.0370
 2315SOL     OW18580   1.270   0.806   3.986  0.2356  0.6836  0.5720
 2315SOL    HW118581   1.200   0.752   3.949  0.7971 -1.0530  2.0376
 2315SOL    HW218582   1.318   0.743   4.040  1.8186  0.6609 -0.8838
 2316SOL     OW18583   1.919   4.373  17.670 -0.9346 -0.0244 -0.6480
 2316SOL    HW118584   1.955   4.380  17.582  0.6436  1.7465  0.1335
 2316SOL    HW218585   2.005   4.371  17.712 -1.3329  1.5453  0.2576
 2317SOL     OW18586   3.472   1.376  16.543 -0.0130 -0.0845 -0.5920
 2317SOL    HW118587   3.456   1.412  16.630  0.5120  2.6251 -1.6179
 2317SOL    HW218588   3.501   1.286  16.560 -0.6167 -0.2013 -0.1653
 2318SOL     OW18589   4.519   4.538   8.402  0.2618 -0.2437 -0.0843
 2318SOL    HW118590   4.490   4.464   8.455 -1.3577 -0.1045 -0.7735
 2318SOL    HW218591   4.511   4.607   8.468 -1.0757 -1.1199  0.6624
 2319SOL     OW18592   2.251   1.538   2.263 -0.0092  0.0824 -0.2658
 2319SOL    HW118593   2.162   1.530   2.298  0.0927 -0.9385 -0.2244
 2319SOL    HW218594   2.236   1.519   2.170  0.1347  1.3470 -0.5508
 2320SOL     OW18595   4.532   1.026   8.781  0.1124  0.5076 -0.0735
 2320SOL    HW118596   4.499   1.033   8.871 -0.8446 -1.4096 -0.2694
 2320SOL    HW218597   4.608   0.971   8.800 -0.6099 -0.7527 -0.7901
 2321SOL     OW18598   0.532   2.816   7.761 -0.0023  0.4448 -0.2697
 2321SOL    HW118599   0.491   2.839   7.678 -1.3627  0.4467  0.4002
 2321SOL    HW218600   0.493   2.731   7.781  0.2650  0.5338  0.6484
 2322SOL     OW18601   2.891   3.293   5.217  0.0220 -0.2303  0.0628
 2322SOL    HW118602   2.817   3.306   5.277  0.3938 -1.2573  0.7582
 2322SOL    HW218603   2.955   3.352   5.256  1.2970 -0.8089 -1.1625
 2323SOL     OW18604   3.103   3.738   8.554  0.2188 -0.2480 -0.1323
 2323SOL    HW118605   3.124   3.666   8.614 -0.4577  0.6794  1.2149
 2323SOL    HW218606   3.153   3.716   8.476  3.0960 -1.0333  1.9038
 2324SOL     OW18607   2.628   4.642   3.377 -0.1518 -0.6677  0.2436
 2324SOL    HW118608   2.533   4.657   3.373 -0.1808  0.0323  3.1105
 2324SOL    HW218609   2.646   4.551   3.353  0.3032 -0.9425  1.6317
 2325SOL     OW18610   3.308   1.909   8.802  0.1659  0.9283  0.0012
 2325SOL    HW118611   3.249   1.847   8.760  1.9972 -1.7095  1.3178
 2325SOL    HW218612   3.252   1.986   8.808 -0.3182  0.8247 -3.4003
 2326SOL     OW18613   2.988   3.968  14.049  0.9292  0.4664  0.5418
 2326SOL    HW118614   3.017   3.881  14.019  1.1301  1.3013 -1.6713
 2326SOL    HW218615   3.039   4.031  13.998  3.3878 -0.0484  2.3429
 2327SOL     OW18616   0.610   4.217   2.761  0.0446 -0.3806  0.2899
 2327SOL    HW118617   0.643   4.128   2.775 -2.9762 -1.1730  2.4266
 2327SOL    HW218618   0.651   4.239   2.677 -1.3993  0.6699 -0.1375
 2328SOL     OW18619   1.437   2.355   6.988 -0.6893 -0.0952  0.0312
 2328SOL    HW118620   1.404   2.443   6.970  0.1439  0.6168  1.9964
 2328SOL    HW218621   1.426   2.308   6.905 -1.1853  0.2725 -0.1148
 2329SOL     OW18622   4.322   3.804   1.399 -0.9544 -0.3642 -0.5064
 2329SOL    HW118623   4.374   3.727   1.376  0.2581 -0.4194  2.3025
 2329SOL    HW218624   4.295   3.822   1.309  0.5853  0.9333 -0.7107
 2330SOL     OW18625   0.062   3.238   8.242  0.0192  0.2870 -0.7181
 2330SOL    HW118626   4.737   3.250   8.173 -1.5407 -0.3334  0.6413
 2330SOL    HW218627   0.061   3.327   8.276  0.2209  0.2035 -0.4896
 2331SOL     OW18628   0.038   0.776   2.253  1.3547  0.3829 -0.2157
 2331SOL    HW118629   0.092   0.840   2.299  0.0633  1.1175  0.2839
 2331SOL    HW218630   4.725   0.736   2.322  0.3782  2.6600  0.3527
 2332SOL     OW18631   4.665   3.094   8.409 -0.3065  0.0751 -0.5309
 2332SOL    HW118632   4.698   3.134   8.489 -0.7904  1.3662 -0.9787
 2332SOL    HW218633   4.704   3.155   8.347 -0.6879 -0.9686 -1.7978
 2333SOL     OW18634   3.136   2.988   3.817  0.0088 -0.2452 -0.2432
 2333SOL    HW118635   3.115   3.074   3.782  0.8815  1.0512  2.4241
 2333SOL    HW218636   3.190   3.015   3.892  1.6287  0.2908 -1.6123
 2334SOL     OW18637   2.638   1.875   6.941 -0.3297 -0.2766 -0.5357
 2334SOL    HW118638   2.611   1.965   6.957  0.0220 -0.3832  0.6599
 2334SOL    HW218639   2.552   1.846   6.912  0.4238 -3.1930  0.1800
 2335SOL     OW18640   3.030   1.152   8.504 -0.2616 -0.0402  0.1045
 2335SOL    HW118641   3.068   1.074   8.544  1.3387  1.4318  1.4244
 2335SOL    HW218642   3.021   1.122   8.414 -0.4130  0.4857 -0.0545
 2336SOL     OW18643   4.255   1.145  14.689  0.7274 -0.0899 -0.3365
 2336SOL    HW118644   4.237   1.169  14.780  2.3901 -0.5119  0.1122
 2336SOL    HW218645   4.191   1.076  14.674  1.1523 -0.3241 -1.0795
 2337SOL     OW18646   0.543   1.626   3.665  0.2389  0.2566  0.1292
 2337SOL    HW118647   0.540   1.534   3.691  0.2320 -0.8195 -3.6296
 2337SOL    HW218648   0.630   1.649   3.697 -0.8749  3.8990  0.5458
 2338SOL     OW18649   1.518   1.645   7.828  0.7919 -0.2309  0.1527
 2338SOL    HW118650   1.427   1.615   7.822  1.0338 -1.1295  0.9470
 2338SOL    HW218651   1.553   1.613   7.911  0.6518  0.9268  0.6570
 2339SOL     OW18652   3.614   3.493   6.383  0.1753 -0.6943 -0.3466
 2339SOL    HW118653   3.592   3.541   6.303 -0.2971 -1.0714 -0.4412
 2339SOL    HW218654   3.577   3.405   6.373 -2.3477  0.2703  0.4921
 2340SOL     OW18655   3.121   4.474   8.317  0.0309 -0.1352  0.1686
 2340SOL    HW118656   3.160   4.539   8.258  3.1927 -2.4378 -0.2854
 2340SOL    HW218657   3.029   4.483   8.289 -0.1889 -0.6958  0.7242
 2341SOL     OW18658   4.668   4.370   8.222  0.3408  0.0012  0.4608
 2341SOL    HW118659   4.709   4.438   8.168  0.1021 -0.4852 -0.3410
 2341SOL    HW218660   4.607   4.415   8.280 -0.9059  0.6577 -1.3700
 2342SOL     OW18661   0.813   1.165  16.386  0.3882 -0.1512 -0.7879
 2342SOL    HW118662   0.722   1.172  16.355 -0.2040  1.4337  1.3567
 2342SOL    HW218663   0.854   1.175  16.300 -2.8524  1.1829 -2.1592
 2343SOL     OW18664   1.068   3.504   3.106  0.2620 -0.3592 -0.1701
 2343SOL    HW118665   0.993   3.476   3.159 -0.9102 -1.3524 -2.3517
 2343SOL    HW218666   1.085   3.587   3.151  1.0969 -0.4161 -0.3760
 2344SOL     OW18667   1.574   2.743   8.343 -0.8893 -0.6509  0.4978
 2344SOL    HW118668   1.522   2.789   8.278  1.3348  4.6130  2.4109
 2344SOL    HW218669   1.510   2.724   8.411 -2.8596 -1.9388 -1.7455
 2345SOL     OW18670   1.006   3.967   8.228 -0.4542 -0.2160 -0.2037
 2345SOL    HW118671   1.003   3.990   8.135 -2.1337  3.1088  0.7054
 2345SOL    HW218672   0.966   4.047   8.260  0.0872 -0.4851  1.1673
 2346SOL     OW18673   3.658   1.114  14.097 -0.0204  0.6616 -0.0294
 2346SOL    HW118674   3.601   1.166  14.040  0.4573  0.9606 -0.2307
 2346SOL    HW218675   3.743   1.148  14.069  1.0875 -2.1743 -0.0087
 2347SOL     OW18676   1.102   2.897   6.182 -0.4065 -0.3572  0.2282
 2347SOL    HW118677   1.078   2.989   6.188 -0.2303 -0.1308 -2.6069
 2347SOL    HW218678   1.197   2.898   6.180 -0.3956 -1.1965  0.4071
 2348SOL     OW18679   3.184   0.832   8.537  0.0149 -0.0017 -0.3752
 2348SOL    HW118680   3.182   0.785   8.453 -0.7643  1.0823 -0.9597
 2348SOL    HW218681   3.166   0.762   8.600  0.6463  1.0769  1.0063
 2349SOL     OW18682   2.560   2.398   4.056 -0.2400 -0.0811 -0.3274
 2349SOL    HW118683   2.619   2.446   4.114  1.7345  1.4354 -3.5855
 2349SOL    HW218684   2.477   2.413   4.101 -0.6342 -1.2468 -0.6543
 2350SOL     OW18685   2.442   1.711  12.072  0.5438 -0.1655 -0.4285
 2350SOL    HW118686   2.361   1.689  12.025  0.4945  0.1868 -0.5046
 2350SOL    HW218687   2.469   1.628  12.111  0.2929 -0.0698 -0.0537
 2351SOL     OW18688   3.518   0.111   4.591 -0.1874  0.5602  0.1459
 2351SOL    HW118689   3.488   0.028   4.628 -0.7478  1.2766  1.2924
 2351SOL    HW218690   3.502   0.171   4.664  2.1043  0.9056  0.3646
 2352SOL     OW18691   2.549   2.090  15.223  0.3671 -0.0212 -0.1316
 2352SOL    HW118692   2.516   2.011  15.267  0.8781 -0.8049 -1.1645
 2352SOL    HW218693   2.622   2.056  15.172 -0.2691  0.9891 -1.6961
 2353SOL     OW18694   2.833   4.264   2.113  0.0252 -0.4732 -0.0911
 2353SOL    HW118695   2.858   4.209   2.038  1.0505  0.3716 -0.3751
 2353SOL    HW218696   2.919   4.288   2.149 -0.1770 -0.2775  0.2568
 2354SOL     OW18697   3.173   2.804   0.585 -0.3664  0.2331 -0.4921
 2354SOL    HW118698   3.138   2.817   0.673 -0.7811 -1.1713 -0.4498
 2354SOL    HW218699   3.191   2.711   0.593  1.5297  0.5158 -1.4906
 2355SOL     OW18700   4.448   2.849  17.375  0.0795 -0.2299  0.0656
 2355SOL    HW118701   4.376   2.902  17.408  0.9921  1.6266 -0.9261
 2355SOL    HW218702   4.491   2.831  17.458  1.1027 -2.6796 -1.0020
 2356SOL     OW18703   0.948   1.529   5.989  0.2888  0.3170  0.0175
 2356SOL    HW118704   1.030   1.486   5.964 -2.1229 -3.4861 -1.3335
 2356SOL    HW218705   0.890   1.453   5.976  0.8557 -0.1716  0.3055
 2357SOL     OW18706   3.540   3.885   7.418 -0.0602 -0.1530  0.4169
 2357SOL    HW118707   3.470   3.842   7.369 -0.0712 -0.9052  1.0989
 2357SOL    HW218708   3.608   3.818   7.425  0.8670  0.6225 -1.1344
 2358SOL     OW18709   3.701   0.267  11.143 -0.3243 -0.4105 -0.2571
 2358SOL    HW118710   3.739   0.232  11.062  3.2379  1.1126  0.7670
 2358SOL    HW218711   3.717   0.188  11.193 -0.3778  0.4436  1.1139
 2359SOL     OW18712   0.919   2.963  14.883 -0.2686 -0.0125 -0.2171
 2359SOL    HW118713   0.837   3.011  14.897  0.9686  2.1501 -0.3575
 2359SOL    HW218714   0.994   3.019  14.902 -2.4496  3.0825 -0.6365
 2360SOL     OW18715   0.267   4.722  17.660  0.3682  0.1233  0.0415
 2360SOL    HW118716   0.357   4.690  17.675 -0.1745 -1.0239  0.9136
 2360SOL    HW218717   0.270   0.058  17.717 -0.6812 -0.1041  0.3995
 2361SOL     OW18718   3.411   0.033   7.670 -0.2987  0.8850 -0.3403
 2361SOL    HW118719   3.366   0.072   7.595 -1.7820  0.6408  0.4351
 2361SOL    HW218720   3.504   0.051   7.659 -0.1103  0.0639 -0.0531
 2362SOL     OW18721   2.314   2.846   1.556 -0.2809 -0.0853  0.6873
 2362SOL    HW118722   2.347   2.759   1.577 -1.3234 -0.6369  0.0634
 2362SOL    HW218723   2.381   2.908   1.585  0.1644 -0.6744  0.9162
 2363SOL     OW18724   2.422   2.498   9.192  0.2737 -0.3218 -0.4897
 2363SOL    HW118725   2.468   2.569   9.147 -0.4528  1.9877  2.4134
 2363SOL    HW218726   2.481   2.494   9.267 -0.8001 -0.6068  0.3399
 2364SOL     OW18727   3.519   0.492  13.060  0.6379 -0.3638  0.0490
 2364SOL    HW118728   3.519   0.587  13.052 -0.6773 -0.4047 -0.3551
 2364SOL    HW218729   3.432   0.470  13.027 -0.2196  2.0894  0.6667
 2365SOL     OW18730   4.614   2.867   1.548 -0.3725 -1.3361 -0.0289
 2365SOL    HW118731   4.590   2.880   1.456  1.9929  2.0849 -0.1897
 2365SOL    HW218732   4.700   2.827   1.535 -0.0711  0.3148 -3.2849
 2366SOL     OW18733   1.569   3.069   5.691 -0.2379 -0.1689 -0.2192
 2366SOL    HW118734   1.548   2.997   5.631 -0.5323 -0.4465  0.2213
 2366SOL    HW218735   1.495   3.076   5.751  1.1590  0.6346  1.4369
 2367SOL     OW18736   0.481   2.319  16.109  0.4962  0.0027 -0.0914
 2367SOL    HW118737   0.538   2.245  16.129 -0.6733 -1.1902 -1.1828
 2367SOL    HW218738   0.513   2.385  16.170  2.3168 -1.1923  0.2524
 2368SOL     OW18739   1.703   1.177  11.913 -0.5993 -0.3162  0.0701
 2368SOL    HW118740   1.637   1.224  11.862 -0.9667 -1.0118 -0.1027
 2368SOL    HW218741   1.778   1.183  11.854 -1.1404 -1.3887 -0.7188
 2369SOL     OW18742   3.117   3.971   5.332 -0.0243 -0.1026  0.3534
 2369SOL    HW118743   3.150   3.956   5.243 -0.0238  0.2615  0.2900
 2369SOL    HW218744   3.055   4.042   5.316 -4.0861 -3.2897  2.1679
 2370SOL     OW18745   0.093   2.165   5.222  0.0956 -0.0371  0.2641
 2370SOL    HW118746   0.077   2.253   5.189 -2.2086 -0.1396  1.1046
 2370SOL    HW218747   0.010   2.138   5.261  0.7518 -0.1511  1.5947
 2371SOL     OW18748   2.596   3.037  11.256  0.3648 -0.5381  0.5132
 2371SOL    HW118749   2.569   3.129  11.256  3.1237  0.3134 -0.5983
 2371SOL    HW218750   2.516   3.000  11.220  0.3108 -0.3251  0.4123
 2372SOL     OW18751   0.774   4.434  14.048 -0.0337 -0.0351 -0.1702
 2372SOL    HW118752   0.841   4.379  14.008 -0.8455 -0.8047 -0.4651
 2372SOL    HW218753   0.707   4.368  14.067 -0.9755  1.1748  0.6621
 2373SOL     OW18754   4.423   0.883   9.892  0.7082  0.0288 -0.0931
 2373SOL    HW118755   4.428   0.976   9.869 -1.5463  0.8821  2.8929
 2373SOL    HW218756   4.424   0.887   9.987 -0.8492  0.4276 -0.0893
 2374SOL     OW18757   2.135   3.450  16.669  0.0338  0.0129 -0.1281
 2374SOL    HW118758   2.180   3.463  16.753 -0.8804 -0.3987  0.4277
 2374SOL    HW218759   2.056   3.504  16.673  0.5125  0.7659 -0.9581
 2375SOL     OW18760   3.418   0.463   3.273  0.7977 -0.6094  0.4913
 2375SOL    HW118761   3.395   0.556   3.276  2.5576 -0.1455 -0.1825
 2375SOL    HW218762   3.511   0.473   3.294  0.7530 -1.4146  1.0679
 2376SOL     OW18763   0.480   2.702  15.013  0.0088  0.1939 -0.2925
 2376SOL    HW118764   0.528   2.771  14.968  0.4031 -1.0559 -1.7795
 2376SOL    HW218765   0.388   2.723  14.998  0.1322  2.6424  2.2469
 2377SOL     OW18766   0.403   0.523   3.298  0.7735 -0.4061  0.1901
 2377SOL    HW118767   0.446   0.594   3.344  2.3080 -0.3641 -1.2861
 2377SOL    HW218768   0.473   0.461   3.274  1.4747  0.0915  0.9967
 2378SOL     OW18769   2.609   3.788   6.548  0.2150  0.1248 -0.0867
 2378SOL    HW118770   2.650   3.702   6.558  0.6263  0.4641  1.1325
 2378SOL    HW218771   2.685   3.838   6.518  0.6457 -0.5465 -0.1262
 2379SOL     OW18772   3.422   2.756   5.395  0.2427 -0.1644  0.5679
 2379SOL    HW118773   3.338   2.712   5.402  0.0037  0.3655  1.0557
 2379SOL    HW218774   3.488   2.689   5.379 -0.7153 -0.7823 -0.7194
 2380SOL     OW18775   4.229   3.424   5.184  0.3461 -0.6431  0.1096
 2380SOL    HW118776   4.231   3.427   5.280 -0.2475 -1.3587  0.1426
 2380SOL    HW218777   4.137   3.416   5.158  0.6903 -2.1051 -0.6912
 2381SOL     OW18778   3.527   1.583   9.138  0.0652  0.1175 -0.0503
 2381SOL    HW118779   3.481   1.551   9.216  3.9607 -1.4594  1.5711
 2381SOL    HW218780   3.470   1.548   9.069  0.8955  2.0111 -1.7119
 2382SOL     OW18781   4.328   3.017   8.587  0.3810  0.0351 -0.8231
 2382SOL    HW118782   4.244   2.987   8.622  0.5810 -0.8854 -1.1486
 2382SOL    HW218783   4.394   2.971   8.637 -1.9988 -1.9653  0.4962
 2383SOL     OW18784   4.729   0.601   0.997  0.2846 -0.1438 -0.3155
 2383SOL    HW118785   4.708   0.643   0.914  0.6253 -1.2332 -0.9483
 2383SOL    HW218786   4.649   0.615   1.049  0.2755 -0.8177 -0.1412
 2384SOL     OW18787   4.649   4.082   6.020  0.5892 -0.6501 -0.3081
 2384SOL    HW118788   4.716   4.081   6.088  1.1078  0.2657 -0.8197
 2384SOL    HW218789   4.570   4.114   6.063  1.3285  1.2700 -0.4111
 2385SOL     OW18790   3.267   2.647   1.875  0.4303  0.0223  0.0784
 2385SOL    HW118791   3.335   2.709   1.900 -0.8386  1.7138 -0.6317
 2385SOL    HW218792   3.199   2.703   1.837  2.9860  3.2627  0.3048
 2386SOL     OW18793   4.517   4.486  10.102 -0.3615 -0.1152  0.2351
 2386SOL    HW118794   4.519   4.412  10.041 -2.0552 -0.0568  0.1025
 2386SOL    HW218795   4.489   4.450  10.186 -1.4766  0.5254  0.1351
 2387SOL     OW18796   0.231   4.471   4.237  0.5196 -0.4046  0.1832
 2387SOL    HW118797   0.221   4.377   4.254  0.1512 -0.0886  1.7347
 2387SOL    HW218798   0.147   4.476   4.190  0.7674 -2.6522 -0.5428
 2388SOL     OW18799   4.662   1.728   2.235 -0.3710 -0.0650 -0.3457
 2388SOL    HW118800   4.577   1.710   2.276  0.3698 -1.2433  0.6739
 2388SOL    HW218801   4.639   1.776   2.155 -0.4596  0.1098 -0.2141
 2389SOL     OW18802   1.304   2.271  15.903 -0.3326 -0.2342  0.4971
 2389SOL    HW118803   1.227   2.227  15.939 -0.2779 -0.8778 -0.1661
 2389SOL    HW218804   1.371   2.259  15.970  0.9925 -0.8191 -0.9323
 2390SOL     OW18805   3.520   3.288  17.654 -0.3454  0.0683  0.0882
 2390SOL    HW118806   3.510   3.303  17.560 -0.9136 -2.4703 -0.2446
 2390SOL    HW218807   3.613   3.303  17.672  0.3761 -1.3640 -2.4851
 2391SOL     OW18808   3.184   3.955   5.964 -0.2488  0.3480  0.0056
 2391SOL    HW118809   3.103   3.905   5.976  0.1382 -0.5283 -1.0240
 2391SOL    HW218810   3.160   4.047   5.972  1.3164  0.5651  2.2232
 2392SOL     OW18811   3.458   4.445   5.593  0.8215  0.2529  0.6795
 2392SOL    HW118812   3.389   4.386   5.565  1.8939  0.1730 -1.8381
 2392SOL    HW218813   3.406   4.518   5.627 -0.0797  1.3133 -2.9765
 2393SOL     OW18814   2.512   2.062   5.998  0.1983 -0.0672  0.3021
 2393SOL    HW118815   2.524   2.005   6.075 -2.6822 -0.8684  0.1386
 2393SOL    HW218816   2.523   2.144   6.047 -0.4335  0.1779  0.0288
 2394SOL     OW18817   3.048   2.496   3.435  0.1088 -0.2028  0.5722
 2394SOL    HW118818   3.023   2.405   3.455 -1.4702  0.1616  0.2581
 2394SOL    HW218819   3.045   2.535   3.523 -1.6378 -1.1253  0.9319
 2395SOL     OW18820   4.685   0.088   1.534  0.4110 -0.2071 -0.1254
 2395SOL    HW118821   0.033   0.082   1.570  0.2710 -0.6868  0.1420
 2395SOL    HW218822   4.700   0.055   1.445 -0.2763 -0.2630 -0.2223
 2396SOL     OW18823   1.236   4.615   8.802 -0.7404  0.4996 -1.2410
 2396SOL    HW118824   1.153   4.598   8.845  0.5146 -0.2780  0.8832
 2396SOL    HW218825   1.218   4.562   8.724 -3.7549 -1.8766  1.1098
 2397SOL     OW18826   2.051   0.877   8.415 -0.3047  0.2665  0.5648
 2397SOL    HW118827   2.141   0.850   8.435 -0.7208 -0.3025  1.6559
 2397SOL    HW218828   2.057   0.972   8.402 -0.1533  0.3766  1.4493
 2398SOL     OW18829   0.098   0.318   4.841  0.5739 -0.5911 -0.3299
 2398SOL    HW118830   0.136   0.244   4.887 -0.1691 -0.5209  0.3941
 2398SOL    HW218831   0.161   0.334   4.770 -0.3565  0.3045 -0.9631
 2399SOL     OW18832   1.173   2.360   5.468  0.2026  0.0568 -0.5096
 2399SOL    HW118833   1.125   2.436   5.500  2.3445  0.2333  2.3468
 2399SOL    HW218834   1.261   2.397   5.476  1.1384 -2.4937  1.1669
 2400SOL     OW18835   4.719   4.510   5.515  0.1678 -0.4726 -0.2517
 2400SOL    HW118836   0.014   4.595   5.541 -0.1007 -1.1477  2.3167
 2400SOL    HW218837   4.623   4.509   5.521  0.1906 -0.6679  0.1001
 2401SOL     OW18838   1.769   4.068   2.977 -0.0829 -0.2251  0.9891
 2401SOL    HW118839   1.780   4.151   3.024  2.2754  0.3385 -0.5445
 2401SOL    HW218840   1.678   4.055   3.000 -0.2731  1.6493  1.2852
 2402SOL     OW18841   1.558   4.423   5.564 -0.2704 -0.6128 -0.0363
 2402SOL    HW118842   1.573   4.362   5.492  1.9851 -1.9290  1.5548
 2402SOL    HW218843   1.643   4.464   5.547 -1.0206  1.4236  1.2017
 2403SOL     OW18844   1.210   2.353   8.070 -0.1425 -0.5165  0.9074
 2403SOL    HW118845   1.251   2.333   8.154 -1.9436  0.5969  2.0470
 2403SOL    HW218846   1.273   2.319   8.006 -2.1482 -1.0424 -0.7883
 2404SOL     OW18847   4.165   0.152   8.989 -0.4882  0.8872 -0.2452
 2404SOL    HW118848   4.102   0.113   9.049 -0.4086  0.0068 -0.7335
 2404SOL    HW218849   4.107   0.174   8.916  1.4318  1.4163 -1.6176
 2405SOL     OW18850   2.228   0.916   4.983 -0.7430  0.0069 -0.4395
 2405SOL    HW118851   2.263   0.843   4.932 -0.2149 -0.1620  0.1624
 2405SOL    HW218852   2.167   0.948   4.917  1.3232  0.3295 -2.1753
 2406SOL     OW18853   2.068   0.052   2.381 -0.5315  0.0054 -0.4143
 2406SOL    HW118854   2.011   0.057   2.304 -1.5338 -0.0096  0.3192
 2406SOL    HW218855   2.098   0.142   2.383 -2.4887  0.6738 -1.3080
 2407SOL     OW18856   3.429   0.922   0.230  0.7100 -0.2598  0.2238
 2407SOL    HW118857   3.360   0.968   0.182  0.1502  0.2338  1.5156
 2407SOL    HW218858   3.381   0.914   0.313 -0.2255  0.7459 -0.2231
 2408SOL     OW18859   2.217   1.895   3.876 -0.3753  0.1446 -0.2636
 2408SOL    HW118860   2.123   1.904   3.860 -0.8980 -0.7089  2.3560
 2408SOL    HW218861   2.237   1.988   3.878  1.3539 -0.2655  1.5510
 2409SOL     OW18862   4.421   2.967  16.283 -0.7643 -0.0379 -0.2077
 2409SOL    HW118863   4.437   3.004  16.370 -0.1506 -0.1574 -0.2718
 2409SOL    HW218864   4.510   2.933  16.272 -0.7142 -0.0711  0.3163
 2410SOL     OW18865   0.568   0.477   2.377  0.0372 -0.2885  0.2294
 2410SOL    HW118866   0.476   0.484   2.404  0.0252  0.2264  0.0513
 2410SOL    HW218867   0.564   0.502   2.285  0.0306 -2.1274 -0.2850
 2411SOL     OW18868   0.111   2.054   4.888 -0.6525 -0.1527 -0.1365
 2411SOL    HW118869   0.037   1.997   4.867  1.2185 -2.0877 -1.4370
 2411SOL    HW218870   0.148   2.014   4.966  1.9294 -1.4950 -2.0678
 2412SOL     OW18871   2.440   1.469   0.873 -0.8939 -0.0022 -0.0689
 2412SOL    HW118872   2.479   1.407   0.934  1.2018  0.1810 -1.2302
 2412SOL    HW218873   2.385   1.411   0.820 -2.3601  0.8925  0.4562
 2413SOL     OW18874   1.808   1.212  13.245 -0.5677 -0.1663  1.0445
 2413SOL    HW118875   1.901   1.213  13.268  0.4212  1.1737 -2.9884
 2413SOL    HW218876   1.757   1.220  13.326 -0.2448 -1.3638  1.3641
 2414SOL     OW18877   3.693   1.060   1.702  0.5991 -0.5749 -0.2556
 2414SOL    HW118878   3.710   1.124   1.633  1.8104 -0.3396  0.2633
 2414SOL    HW218879   3.603   1.090   1.719  1.4069  1.1397  1.0538
 2415SOL     OW18880   3.790   0.422   8.761  0.4283 -0.3534  0.6704
 2415SOL    HW118881   3.723   0.490   8.769  1.4311  0.7159 -0.0799
 2415SOL    HW218882   3.842   0.441   8.839 -0.6571 -1.8328  1.7637
 2416SOL     OW18883   0.960   3.653   6.941 -0.4902 -0.2363  0.4245
 2416SOL    HW118884   0.968   3.722   6.875  0.8777  0.1618  0.9958
 2416SOL    HW218885   0.887   3.602   6.907  1.9115 -3.7850  0.5955
 2417SOL     OW18886   4.609   2.718   9.066 -0.2828 -0.8691 -0.0581
 2417SOL    HW118887   4.651   2.671   8.994 -2.4384  0.9884 -2.5047
 2417SOL    HW218888   4.524   2.674   9.068  0.0755 -1.5007  1.1049
 2418SOL     OW18889   3.184   4.647   2.786  0.0965  0.9167  0.0505
 2418SOL    HW118890   3.196   4.640   2.881 -0.4245  1.4347  0.1544
 2418SOL    HW218891   3.163   0.001   2.780 -1.4742  0.5683  0.1273
 2419SOL     OW18892   4.409   0.240   6.587 -0.0615  0.1513 -0.0920
 2419SOL    HW118893   4.487   0.226   6.641 -0.0352 -0.6697 -0.3471
 2419SOL    HW218894   4.377   0.318   6.633 -0.6510 -0.4908  0.5812
 2420SOL     OW18895   0.786   0.810   3.552  0.0113 -0.5023  0.4780
 2420SOL    HW118896   0.774   0.876   3.483 -0.6523 -2.2480 -1.0746
 2420SOL    HW218897   0.833   0.854   3.623 -0.3527  1.5574 -0.5469
 2421SOL     OW18898   0.647   1.806  13.054 -0.0739  0.0336  0.5265
 2421SOL    HW118899   0.669   1.795  12.961  0.6285 -1.4819  0.8753
 2421SOL    HW218900   0.605   1.724  13.079  2.5779 -0.9285  1.8518
 2422SOL     OW18901   1.368   0.712   4.561 -0.1823  0.4355  0.0434
 2422SOL    HW118902   1.434   0.717   4.492 -0.4964  0.2715 -0.2698
 2422SOL    HW218903   1.389   0.626   4.597 -1.7523  0.5079  1.1217
 2423SOL     OW18904   0.501   2.596   2.195  0.1331 -0.1819  0.2645
 2423SOL    HW118905   0.524   2.681   2.158 -1.5086  0.2681  0.2786
 2423SOL    HW218906   0.581   2.591   2.247  0.8888 -2.0762 -1.0751
 2424SOL     OW18907   1.735   2.934  10.830  0.0736 -0.3656 -0.5334
 2424SOL    HW118908   1.716   2.858  10.775 -1.0503  1.0163 -2.0593
 2424SOL    HW218909   1.646   2.967  10.837  1.0936  2.4099 -0.8209
 2425SOL     OW18910   2.887   2.458   5.596 -0.1573 -0.3721 -0.3503
 2425SOL    HW118911   2.847   2.513   5.529 -0.5626 -0.1354  0.0856
 2425SOL    HW218912   2.816   2.396   5.613 -0.8806  0.6578  0.3533
 2426SOL     OW18913   4.517   3.416  12.762  0.0938  0.6326 -0.5786
 2426SOL    HW118914   4.453   3.390  12.695  1.4273 -0.3675 -1.4539
 2426SOL    HW218915   4.603   3.416  12.720  0.4231 -0.0199  0.1080
 2427SOL     OW18916   1.888   3.299   3.243 -0.2700 -0.0474 -0.3870
 2427SOL    HW118917   1.962   3.270   3.297 -1.0694 -2.8775 -0.7859
 2427SOL    HW218918   1.932   3.365   3.189 -1.9456 -0.5587 -2.3619
 2428SOL     OW18919   0.805   4.169   2.032 -0.0806 -0.3374  0.5795
 2428SOL    HW118920   0.775   4.169   1.941  3.0486  1.0116 -0.4473
 2428SOL    HW218921   0.879   4.229   2.024 -2.1917  1.6991 -3.5037
 2429SOL     OW18922   3.410   3.889  16.837 -0.0376 -0.2685  0.3395
 2429SOL    HW118923   3.453   3.805  16.819 -1.6985 -1.9923  4.2587
 2429SOL    HW218924   3.438   3.949  16.768  0.3051 -1.4298 -0.5344
 2430SOL     OW18925   2.850   2.531   1.613  0.3190 -0.3532 -0.3668
 2430SOL    HW118926   2.918   2.546   1.548  1.4504 -0.1947  0.8617
 2430SOL    HW218927   2.870   2.439   1.629 -2.0984 -0.6174  1.1443
 2431SOL     OW18928   1.021   0.831   3.716  0.3709 -0.3739 -0.7345
 2431SOL    HW118929   1.062   0.911   3.748  0.8736 -1.5602  1.5830
 2431SOL    HW218930   1.046   0.763   3.777 -1.8806 -0.5188  0.0194
 2432SOL     OW18931   0.804   3.643   7.202 -0.0433  0.1273  0.1441
 2432SOL    HW118932   0.889   3.653   7.158  0.5976  1.1270  1.6198
 2432SOL    HW218933   0.785   3.563   7.153  1.6052 -0.0583 -0.2022
 2433SOL     OW18934   4.253   0.254   5.020  0.5452 -0.4544  0.1422
 2433SOL    HW118935   4.233   0.210   5.102 -1.1140  1.6542  0.8728
 2433SOL    HW218936   4.332   0.298   5.050  1.5679 -1.6224 -0.8340
 2434SOL     OW18937   3.863   0.288   1.104  0.0836  0.5028 -0.2653
 2434SOL    HW118938   3.816   0.310   1.024 -2.9417 -4.5524  0.0991
 2434SOL    HW218939   3.796   0.312   1.167 -2.3853  1.2499 -3.2226
 2435SOL     OW18940   1.405   1.957   1.957  0.1304  0.0507  0.9093
 2435SOL    HW118941   1.489   1.983   1.995 -0.0943 -0.9244  2.0899
 2435SOL    HW218942   1.347   1.995   2.024  0.2060  0.7734  0.5701
 2436SOL     OW18943   3.853   4.240   1.125  0.0911  0.2556 -0.0387
 2436SOL    HW118944   3.945   4.227   1.104  0.1086 -0.8680  0.6988
 2436SOL    HW218945   3.872   4.296   1.199  2.3528 -0.1174 -0.3582
 2437SOL     OW18946   2.469   0.514  11.441  0.5368  0.2310  0.5039
 2437SOL    HW118947   2.447   0.594  11.394 -1.8066 -0.0150  1.1796
 2437SOL    HW218948   2.441   0.531  11.531 -2.3871 -1.9723  0.0220
 2438SOL     OW18949   1.982   1.397   5.155 -0.4498 -0.5321  0.2865
 2438SOL    HW118950   1.987   1.400   5.059 -1.9100 -1.0407  0.1888
 2438SOL    HW218951   1.905   1.341   5.166 -2.3074  1.6075 -1.5206
 2439SOL     OW18952   1.672   2.324   1.389 -0.1053  0.2780  0.0612
 2439SOL    HW118953   1.745   2.264   1.394 -1.1208 -0.8336  1.7064
 2439SOL    HW218954   1.598   2.269   1.362 -0.4562  0.2805  0.9998
 2440SOL     OW18955   1.703   4.279   0.013 -0.3026 -0.2470  0.0539
 2440SOL    HW118956   1.784   4.314  17.734  0.3501 -0.5195  1.2498
 2440SOL    HW218957   1.680   4.214  17.704 -0.3462  1.4760 -1.6151
 2441SOL     OW18958   1.335   1.693   8.892  0.4715 -0.6290 -0.2109
 2441SOL    HW118959   1.394   1.722   8.962  1.5011 -0.7097 -1.0507
 2441SOL    HW218960   1.261   1.751   8.907 -0.1265 -1.4581  0.0871
 2442SOL     OW18961   1.917   4.538   4.658 -0.0263  0.0424 -0.3928
 2442SOL    HW118962   1.941   4.627   4.632  2.0224 -1.1511 -2.5484
 2442SOL    HW218963   1.936   4.535   4.752  0.7969 -2.4900 -0.6567
 2443SOL     OW18964   3.206   2.260   6.166 -0.0902 -0.5464 -0.5138
 2443SOL    HW118965   3.152   2.223   6.236  1.4922 -0.3679  0.7974
 2443SOL    HW218966   3.231   2.345   6.202 -0.1007 -0.1054 -1.5521
 2444SOL     OW18967   1.077   2.226   5.670 -0.0602 -0.3865 -0.5794
 2444SOL    HW118968   1.095   2.265   5.584 -1.6059  1.8450  0.0854
 2444SOL    HW218969   1.168   2.210   5.692 -0.6699 -2.5556  0.3132
 2445SOL     OW18970   1.386   3.156   2.176 -0.4454 -0.3771 -0.2046
 2445SOL    HW118971   1.340   3.204   2.107 -0.6967  0.2718  0.4079
 2445SOL    HW218972   1.310   3.142   2.233  0.4090 -2.8897  0.3071
 2446SOL     OW18973   1.759   0.533   7.111 -0.3764  0.0330  0.4533
 2446SOL    HW118974   1.708   0.602   7.152 -1.3128 -0.3324 -0.0857
 2446SOL    HW218975   1.778   0.566   7.023  1.8432 -1.7053  0.2681
 2447SOL     OW18976   1.070   0.410   6.347  0.1265  0.1768  0.2448
 2447SOL    HW118977   0.985   0.448   6.367 -1.0544 -1.7529 -1.1872
 2447SOL    HW218978   1.135   0.462   6.394  0.8904 -0.6051  0.0582
 2448SOL     OW18979   2.399   1.497   9.456  0.1243  0.2778 -0.2460
 2448SOL    HW118980   2.430   1.586   9.437 -1.1438  0.6160 -0.6932
 2448SOL    HW218981   2.449   1.452   9.388 -3.7357  0.8431 -3.4114
 2449SOL     OW18982   1.225   2.533  12.472  0.2104  0.0471 -0.6102
 2449SOL    HW118983   1.287   2.590  12.519  1.7979 -1.5560 -0.7585
 2449SOL    HW218984   1.285   2.459  12.462 -0.8981 -0.9002 -0.2503
 2450SOL     OW18985   2.942   2.680   9.605  0.2891  0.6628  0.2995
 2450SOL    HW118986   3.002   2.687   9.531  0.6701  1.1485  0.6577
 2450SOL    HW218987   2.902   2.766   9.596  0.7079  0.8496  0.2591
 2451SOL     OW18988   2.055   1.831  16.258  0.0058 -0.3293  0.0295
 2451SOL    HW118989   2.099   1.746  16.268 -1.0628 -1.2698 -3.3336
 2451SOL    HW218990   2.000   1.834  16.336 -0.9183 -0.3654 -0.6205
 2452SOL     OW18991   4.715   2.617   1.804  0.3230 -0.2436  0.5237
 2452SOL    HW118992   4.700   2.606   1.710 -2.0225  1.1437  0.7115
 2452SOL    HW218993   0.070   2.607   1.812  0.4786  0.8038 -0.0186
 2453SOL     OW18994   3.909   4.478   1.634 -0.4324  0.7093 -0.3157
 2453SOL    HW118995   3.831   4.423   1.633 -0.4259  0.6406  2.3931
 2453SOL    HW218996   3.877   4.533   1.706 -0.5487 -0.2287  0.3458
 2454SOL     OW18997   3.907   3.347  12.392 -0.2966  0.3880  0.0577
 2454SOL    HW118998   3.866   3.434  12.396  0.7966  0.9297 -0.4221
 2454SOL    HW218999   3.883   3.320  12.480 -0.7589  2.8478  0.6970
 2455SOL     OW19000   1.100   2.143   4.529 -0.5929  0.1619 -0.1043
 2455SOL    HW119001   1.142   2.057   4.522  0.9267  0.7764  1.3968
 2455SOL    HW219002   1.110   2.161   4.623 -0.1379 -1.0482  0.0840
 2456SOL     OW19003   1.857   0.768   2.517  0.0415 -0.4615 -0.6121
 2456SOL    HW119004   1.870   0.723   2.433  0.5722  0.0970 -0.8276
 2456SOL    HW219005   1.920   0.838   2.502 -0.3289 -0.2529 -1.1943
 2457SOL     OW19006   2.213   4.050   5.204 -0.2085  0.0648  0.0574
 2457SOL    HW119007   2.293   4.103   5.200 -0.7310  0.7679 -1.1551
 2457SOL    HW219008   2.239   3.968   5.162 -1.7565 -2.1550  3.5367
 2458SOL     OW19009   1.723   4.291   8.098  0.0681 -0.3105 -0.0064
 2458SOL    HW119010   1.808   4.292   8.142 -0.6793  0.5319  1.4156
 2458SOL    HW219011   1.679   4.361   8.146 -1.7939 -0.4517 -1.5232
 2459SOL     OW19012   3.495   0.136   0.827 -0.7620 -0.0956  0.2588
 2459SOL    HW119013   3.450   0.214   0.861 -1.1123  0.1864 -0.8726
 2459SOL    HW219014   3.493   0.078   0.903  1.6907 -0.8617 -0.2554
 2460SOL     OW19015   2.890   2.256  17.245  0.0660 -0.3080  0.1940
 2460SOL    HW119016   2.952   2.248  17.173  0.1776  1.8393  0.0668
 2460SOL    HW219017   2.942   2.306  17.308  1.9254 -0.5497 -1.1528
 2461SOL     OW19018   0.722   1.326  10.738 -0.5254  0.1690  0.0140
 2461SOL    HW119019   0.760   1.313  10.651  0.7719  1.7342  0.3633
 2461SOL    HW219020   0.800   1.362  10.780  1.2795 -2.6332 -0.9601
 2462SOL     OW19021   1.931   0.504   8.336  0.4509 -0.6386 -0.5235
 2462SOL    HW119022   1.886   0.580   8.373  1.0765 -1.2014  1.4055
 2462SOL    HW219023   1.892   0.430   8.383  2.0356  0.1379  1.9971
 2463SOL     OW19024   2.747   1.378   5.074 -0.5432  0.5719 -0.1986
 2463SOL    HW119025   2.799   1.391   4.994  0.7569 -1.4020  0.3115
 2463SOL    HW219026   2.678   1.327   5.031 -1.8916  0.3428  2.2491
 2464SOL     OW19027   1.866   3.822   6.259 -0.5949 -0.0424 -0.2225
 2464SOL    HW119028   1.786   3.827   6.207 -1.1051  2.7420  0.8161
 2464SOL    HW219029   1.919   3.890   6.217 -1.7826  0.4446 -0.9193
 2465SOL     OW19030   2.442   0.659   6.435  0.3127  0.0918  0.1559
 2465SOL    HW119031   2.537   0.667   6.442  0.4229  0.1110 -1.3829
 2465SOL    HW219032   2.414   0.737   6.483 -1.6160  0.9018 -2.2923
 2466SOL     OW19033   2.121   1.942   6.874 -0.7149  0.0714  0.8045
 2466SOL    HW119034   2.119   1.884   6.950  2.1407 -0.7628  0.2549
 2466SOL    HW219035   2.210   1.971   6.897  0.5180 -0.8849 -2.8509
 2467SOL     OW19036   1.194   1.328   7.994  0.1662  0.1664  0.2130
 2467SOL    HW119037   1.119   1.275   7.968 -0.4521  0.9015  0.4689
 2467SOL    HW219038   1.218   1.293   8.079 -1.2015 -0.4383  0.3550
 2468SOL     OW19039   3.711   1.183   7.827 -0.2887 -0.1301  0.2663
 2468SOL    HW119040   3.777   1.252   7.829 -0.9359  0.5689 -1.5274
 2468SOL    HW219041   3.759   1.101   7.837 -1.4365 -0.6787  1.2906
 2469SOL     OW19042   3.615   0.668   5.480  0.2263 -0.1234  0.0285
 2469SOL    HW119043   3.524   0.656   5.454  0.0540 -0.7732  0.9212
 2469SOL    HW219044   3.645   0.578   5.464 -2.0635 -0.7113 -0.8219
 2470SOL     OW19045   3.186   4.353   1.656 -0.1166 -0.4584 -0.1321
 2470SOL    HW119046   3.180   4.261   1.630 -1.5783 -0.0662 -1.1325
 2470SOL    HW219047   3.186   4.402   1.574 -0.8849  2.6398  1.7126
 2471SOL     OW19048   4.081   0.254   2.718 -0.5923  0.0160  0.1717
 2471SOL    HW119049   4.020   0.210   2.659 -2.4700 -0.1650  2.2337
 2471SOL    HW219050   4.167   0.225   2.690  0.3337  2.4629  0.4543
 2472SOL     OW19051   1.024   1.698   2.472 -0.2039 -0.2941 -0.0395
 2472SOL    HW119052   0.988   1.715   2.385  1.3853 -1.1386 -0.8740
 2472SOL    HW219053   0.946   1.651   2.503  0.0933 -3.0371 -3.3576
 2473SOL     OW19054   2.228   3.084   2.532  0.6590 -0.4724 -0.3418
 2473SOL    HW119055   2.153   3.082   2.591 -0.3153 -0.6189 -1.5931
 2473SOL    HW219056   2.199   3.164   2.488 -0.1839 -1.0648 -0.8531
 2474SOL     OW19057   0.121   2.931  15.252  0.3860 -0.3483 -0.2280
 2474SOL    HW119058   0.154   2.972  15.331 -2.5054  1.6719 -0.0697
 2474SOL    HW219059   0.041   2.887  15.280  0.6305 -0.5093  0.2079
 2475SOL     OW19060   1.085   2.241  11.585  0.4562 -0.4979 -0.0479
 2475SOL    HW119061   1.146   2.283  11.646  0.0018  1.6770 -1.1061
 2475SOL    HW219062   1.102   2.292  11.506 -0.5042 -1.2552 -0.7372
 2476SOL     OW19063   4.738   2.146  11.606 -0.0356  0.0939  0.1153
 2476SOL    HW119064   0.094   2.151  11.613  0.0186  0.2384 -0.7088
 2476SOL    HW219065   4.722   2.229  11.560  1.0178  0.6173  0.6838
 2477SOL     OW19066   2.107   0.143  15.599  0.0759  0.2532 -0.1962
 2477SOL    HW119067   2.069   0.135  15.511  0.4427  0.3940 -0.3683
 2477SOL    HW219068   2.040   0.091  15.643 -3.1131 -0.1129 -5.4446
 2478SOL     OW19069   2.626   2.820  15.343 -0.0706  0.2252  0.8004
 2478SOL    HW119070   2.536   2.817  15.375 -0.1623 -1.7794  0.3932
 2478SOL    HW219071   2.662   2.749  15.396 -0.7637  0.7352  1.9501
 2479SOL     OW19072   1.510   2.427   3.812  0.8545  0.0547  0.1541
 2479SOL    HW119073   1.448   2.498   3.795  0.3947 -0.6548 -1.1422
 2479SOL    HW219074   1.497   2.422   3.906 -0.7555 -0.8740 -0.1242
 2480SOL     OW19075   1.843   2.678  11.760 -0.1851 -0.0285 -0.1078
 2480SOL    HW119076   1.856   2.602  11.705 -4.5053 -0.2353 -0.8630
 2480SOL    HW219077   1.928   2.686  11.802 -0.4859  0.6919  0.3661
 2481SOL     OW19078   3.446   0.551   6.660 -0.1096 -0.5099 -0.2132
 2481SOL    HW119079   3.357   0.516   6.655 -1.3853  2.3161  2.8127
 2481SOL    HW219080   3.432   0.646   6.660 -1.8826 -0.7638 -2.3076
 2482SOL     OW19081   3.672   1.804   1.856 -0.3291 -0.0696 -0.6731
 2482SOL    HW119082   3.723   1.767   1.784  0.0567  0.1305 -0.4988
 2482SOL    HW219083   3.584   1.801   1.818  0.0643 -4.8924 -1.2146
 2483SOL     OW19084   4.480   3.071   5.098 -0.1074  0.0390 -0.0097
 2483SOL    HW119085   4.398   3.041   5.137  0.0811 -0.0487  0.3155
 2483SOL    HW219086   4.536   2.993   5.110  0.8859  0.7469 -0.0238
 2484SOL     OW19087   3.830   3.152   7.955 -0.0628  0.0942  0.7263
 2484SOL    HW119088   3.866   3.091   8.018  0.3754 -0.5051 -0.1012
 2484SOL    HW219089   3.738   3.153   7.981  0.1517 -0.4344  1.5040
 2485SOL     OW19090   1.314   0.217   4.284  0.5758  0.2233  0.1650
 2485SOL    HW119091   1.241   0.257   4.237  0.8565 -0.6383 -0.9982
 2485SOL    HW219092   1.336   0.142   4.229  1.0761  1.7675 -1.7526
 2486SOL     OW19093   2.375   0.318  13.414 -0.1692 -0.3346 -0.0366
 2486SOL    HW119094   2.295   0.372  13.416  0.0891  0.0615 -0.3373
 2486SOL    HW219095   2.363   0.257  13.341 -2.4563  1.4572 -1.1884
 2487SOL     OW19096   2.771   2.674   5.413 -0.5643 -0.1237 -0.3237
 2487SOL    HW119097   2.859   2.660   5.378 -0.5665 -0.7420 -0.0924
 2487SOL    HW219098   2.783   2.756   5.461  2.4313 -1.5188  1.3374
 2488SOL     OW19099   2.080   1.374   7.079  0.0440 -0.1453  0.2353
 2488SOL    HW119100   2.151   1.410   7.132  0.3377 -1.2633  0.5880
 2488SOL    HW219101   2.015   1.368   7.150  0.1162 -0.3054  0.2867
 2489SOL     OW19102   0.075   1.816  10.480  0.6129  0.3428  0.1938
 2489SOL    HW119103   0.023   1.740  10.507  1.5018 -0.6796 -0.9864
 2489SOL    HW219104   0.094   1.846  10.569 -0.7613  0.1666  0.5413
 2490SOL     OW19105   1.582   2.276   7.225 -0.6471 -0.4102  0.4803
 2490SOL    HW119106   1.640   2.201   7.244 -0.1124  0.0992  0.8870
 2490SOL    HW219107   1.559   2.275   7.133  0.1918 -0.3403  0.2654
 2491SOL     OW19108   4.016   4.582  16.815  0.3004  0.0305  0.1027
 2491SOL    HW119109   4.032   4.674  16.838 -0.7948  0.2699 -0.1332
 2491SOL    HW219110   3.984   4.580  16.725  2.4112 -0.0798 -0.6513
 2492SOL     OW19111   2.727   0.167   2.445  0.4666  0.6875  0.1964
 2492SOL    HW119112   2.638   0.202   2.455  0.2856  0.8281 -1.8730
 2492SOL    HW219113   2.757   0.220   2.371 -2.9833 -0.9416 -2.3704
 2493SOL     OW19114   2.619   0.288   3.949 -0.1193 -0.3951 -0.4219
 2493SOL    HW119115   2.568   0.224   3.899 -0.0020 -0.8077 -0.0160
 2493SOL    HW219116   2.687   0.313   3.887 -1.2584  1.4198 -0.9423
 2494SOL     OW19117   4.343   1.501   3.185  0.1343  0.3940 -0.2442
 2494SOL    HW119118   4.417   1.497   3.245 -0.2282  0.3819  0.2028
 2494SOL    HW219119   4.359   1.436   3.116  1.3288 -0.2141  0.6190
 2495SOL     OW19120   1.751   1.823   8.678 -0.3248 -0.3108 -0.5423
 2495SOL    HW119121   1.816   1.789   8.739 -1.8877 -2.7538 -0.2291
 2495SOL    HW219122   1.782   1.796   8.591 -2.3642  0.2446 -1.4576
 2496SOL     OW19123   1.856   2.753   4.544  0.7535 -0.0684  0.6219
 2496SOL    HW119124   1.877   2.819   4.611  1.4135 -0.9985  1.3322
 2496SOL    HW219125   1.893   2.784   4.461 -1.5341 -0.2914 -0.4670
 2497SOL     OW19126   4.634   3.279   4.564 -0.0359 -0.1380  0.4445
 2497SOL    HW119127   4.712   3.334   4.567  0.4219 -0.7670  0.2482
 2497SOL    HW219128   4.568   3.346   4.576 -0.5825 -0.7493  0.8294
 2498SOL     OW19129   2.715   3.163   6.564  0.2263  0.1821 -0.0608
 2498SOL    HW119130   2.632   3.165   6.517  0.4398 -0.8233 -0.4795
 2498SOL    HW219131   2.778   3.136   6.497 -1.3932 -0.0922 -1.4546
 2499SOL     OW19132   1.967   4.133  11.916  0.2667 -0.7179  0.1899
 2499SOL    HW119133   1.993   4.047  11.881 -0.8600 -1.3898  1.0099
 2499SOL    HW219134   1.873   4.122  11.904  0.3393  0.5876 -1.4632
 2500SOL     OW19135   4.408   2.622   3.097  0.8208  0.1059  0.0457
 2500SOL    HW119136   4.438   2.635   3.187  1.9444 -1.1933 -0.1318
 2500SOL    HW219137   4.396   2.713   3.072  1.7383  0.1874 -0.1127
 2501SOL     OW19138   2.054   3.157   4.535 -0.7205 -0.1319  0.0166
 2501SOL    HW119139   2.102   3.084   4.497  0.9177 -0.1490  2.0994
 2501SOL    HW219140   2.025   3.123   4.620  0.7659  0.3297  0.7123
 2502SOL     OW19141   4.362   0.674  10.707  0.3312 -0.3711  0.6724
 2502SOL    HW119142   4.396   0.762  10.723 -1.4413  0.6743 -1.2467
 2502SOL    HW219143   4.272   0.702  10.689  0.4565 -0.3014  0.1506
 2503SOL     OW19144   0.429   0.409   7.940  0.4350  0.0541 -0.0218
 2503SOL    HW119145   0.394   0.494   7.912 -1.7623 -0.6926  0.4098
 2503SOL    HW219146   0.412   0.410   8.035 -1.1141  0.2483 -0.3023
 2504SOL     OW19147   1.528   1.812  16.271 -0.0311  0.0074  0.5271
 2504SOL    HW119148   1.587   1.886  16.265 -2.3956  1.9741  1.4786
 2504SOL    HW219149   1.454   1.872  16.280  1.9879  2.3340  1.3871
 2505SOL     OW19150   3.412   2.600   8.963  0.5391 -0.0088  0.3772
 2505SOL    HW119151   3.340   2.611   8.901 -0.0721 -0.5796  0.9876
 2505SOL    HW219152   3.391   2.670   9.025 -1.8417  2.5101 -3.2457
 2506SOL     OW19153   4.617   2.978   3.265 -0.2859 -0.5718  0.0947
 2506SOL    HW119154   4.565   3.036   3.321  1.6440  1.5206 -0.2954
 2506SOL    HW219155   4.695   3.033   3.266 -1.6134  1.3001  0.4537
 2507SOL     OW19156   4.523   2.328   0.413 -0.4549  0.2262  0.0103
 2507SOL    HW119157   4.438   2.296   0.380 -0.1328  2.0582 -2.5352
 2507SOL    HW219158   4.513   2.423   0.412  2.1926  0.4964  0.8780
 2508SOL     OW19159   1.093   2.244   8.827  0.5231  0.3252 -0.0805
 2508SOL    HW119160   1.154   2.260   8.899 -0.2386 -2.3622  1.1578
 2508SOL    HW219161   1.038   2.175   8.865  0.8766  0.5917  0.9071
 2509SOL     OW19162   0.391   0.067  16.552 -0.0056 -0.7056 -0.6645
 2509SOL    HW119163   0.485   0.068  16.572 -0.4653 -3.6493  1.5492
 2509SOL    HW219164   0.371   0.158  16.532 -0.5369 -0.9114 -1.0725
 2510SOL     OW19165   3.580   2.472   5.107 -0.1469  0.3730 -0.2659
 2510SOL    HW119166   3.661   2.423   5.121 -0.1131  0.0283 -1.6563
 2510SOL    HW219167   3.553   2.438   5.022  1.7009  3.3764 -2.0287
 2511SOL     OW19168   1.253   0.030   9.386 -0.1464 -0.2738 -0.2207
 2511SOL    HW119169   1.269   0.010   9.479  1.6106  0.1452 -0.4323
 2511SOL    HW219170   1.165   4.737   9.372 -0.4276  0.4682 -0.1800
 2512SOL     OW19171   4.594   1.995   5.885 -0.0996 -0.0882  0.2341
 2512SOL    HW119172   4.644   2.066   5.925  0.9773 -0.7576  0.0664
 2512SOL    HW219173   4.663   1.958   5.830  0.3913  1.5286 -0.2404
 2513SOL     OW19174   2.408   4.616  11.633 -0.5268  0.3194 -0.3310
 2513SOL    HW119175   2.443   4.703  11.612  0.3650  0.1840  0.6250
 2513SOL    HW219176   2.319   4.611  11.598 -1.1041 -1.0472  1.3615
 2514SOL     OW19177   2.084   3.866   8.647 -0.1234 -0.0784  0.1446
 2514SOL    HW119178   2.057   3.774   8.649  0.7238 -0.3043  1.0861
 2514SOL    HW219179   2.018   3.907   8.704 -0.2736 -1.1550  0.7396
 2515SOL     OW19180   1.502   2.545   2.544 -0.2267  0.1408  0.9242
 2515SOL    HW119181   1.482   2.533   2.451  3.2876  2.6944 -0.1741
 2515SOL    HW219182   1.498   2.641   2.547 -3.3925 -0.0488  2.6982
 2516SOL     OW19183   2.450   2.634   2.759 -0.5026 -0.1477  0.4468
 2516SOL    HW119184   2.526   2.685   2.788 -0.7594 -0.7620  2.2014
 2516SOL    HW219185   2.394   2.710   2.745  0.5928  0.8191  1.2864
 2517SOL     OW19186   3.367   3.341   0.260  0.0441  0.0812  0.6702
 2517SOL    HW119187   3.365   3.421   0.207  1.7419 -2.4141 -3.1457
 2517SOL    HW219188   3.452   3.304   0.236 -1.4361 -2.3635 -0.7701
 2518SOL     OW19189   2.611   4.535   3.831 -0.5640  0.2869  0.0258
 2518SOL    HW119190   2.561   4.474   3.777 -1.4637  0.9057  0.1434
 2518SOL    HW219191   2.556   4.539   3.909 -0.0283 -1.4186  0.4893
 2519SOL     OW19192   2.647   2.150   8.132  0.8515 -0.4423  0.4031
 2519SOL    HW119193   2.718   2.186   8.185  0.3362  2.9628 -1.2024
 2519SOL    HW219194   2.669   2.184   8.045 -0.7266  0.9179  0.5384
 2520SOL     OW19195   3.593   4.611  17.095 -0.0324  0.4215 -0.3817
 2520SOL    HW119196   3.510   4.626  17.050  0.9914 -1.8342 -2.9378
 2520SOL    HW219197   3.653   4.662  17.041  2.1138 -0.0427  1.5645
 2521SOL     OW19198   3.439   1.480  16.305  0.2243  0.1061  0.1838
 2521SOL    HW119199   3.486   1.430  16.239  2.0911  1.5583  0.4146
 2521SOL    HW219200   3.468   1.435  16.384 -3.4224  0.2095  1.5860
 2522SOL     OW19201   2.007   1.151   8.912  0.4507  0.4078 -0.1644
 2522SOL    HW119202   2.018   1.231   8.860  0.9883  0.1287 -0.4787
 2522SOL    HW219203   1.947   1.187   8.977 -0.4849 -0.9745 -0.2782
 2523SOL     OW19204   3.945   0.947   9.409  0.5677 -0.0053  0.1487
 2523SOL    HW119205   3.944   1.033   9.451  0.3487 -0.8891  1.9364
 2523SOL    HW219206   3.936   0.971   9.317 -0.5073  1.6006  0.6611
 2524SOL     OW19207   4.392   0.684   8.124  0.1537  0.7063 -0.3515
 2524SOL    HW119208   4.473   0.732   8.108 -0.9736  2.7846  0.1327
 2524SOL    HW219209   4.386   0.700   8.218 -0.2475 -0.1938 -0.2269
 2525SOL     OW19210   2.328   0.652   0.286 -0.0804 -0.0125  0.3592
 2525SOL    HW119211   2.304   0.668   0.195  3.6627  0.9056 -0.4756
 2525SOL    HW219212   2.327   0.742   0.316  1.3798  0.6346 -1.4757
 2526SOL     OW19213   0.474   4.127   5.942 -0.1424  0.0051  0.4536
 2526SOL    HW119214   0.551   4.116   5.999  0.5834 -0.4387 -0.5992
 2526SOL    HW219215   0.519   4.115   5.858  1.7261  1.0998  1.3070
 2527SOL     OW19216   4.085   3.022   8.193  0.6442 -0.3114  0.0508
 2527SOL    HW119217   4.081   3.110   8.230  1.1635 -0.2509 -0.0305
 2527SOL    HW219218   4.090   2.966   8.270  1.9320 -0.8552 -0.4139
 2528SOL     OW19219   4.424   0.288   3.693 -0.2343  1.0350 -0.4863
 2528SOL    HW119220   4.429   0.383   3.689  2.8284  0.8828 -0.0337
 2528SOL    HW219221   4.343   0.268   3.646  0.7631 -1.2763 -1.2318
 2529SOL     OW19222   3.135   3.323   6.084 -0.6884 -0.0770 -0.0296
 2529SOL    HW119223   3.081   3.250   6.054  0.9146 -0.5777 -1.7038
 2529SOL    HW219224   3.092   3.331   6.169 -0.7009  0.9130 -0.1293
 2530SOL     OW19225   1.732   0.604   4.409 -0.2010  0.8242 -0.1419
 2530SOL    HW119226   1.794   0.535   4.383 -1.1937  0.0680 -0.5035
 2530SOL    HW219227   1.686   0.551   4.475  0.4318 -1.0094 -1.1660
 2531SOL     OW19228   1.297   3.401   3.377  0.0254 -0.0636  0.2150
 2531SOL    HW119229   1.353   3.394   3.454 -0.7832 -0.0809  0.7982
 2531SOL    HW219230   1.344   3.458   3.316  0.1021  0.5413  0.8461
 2532SOL     OW19231   1.899   0.505  14.252  0.5183 -0.3839 -0.9347
 2532SOL    HW119232   1.835   0.512  14.323  1.0408 -4.9381  0.0138
 2532SOL    HW219233   1.860   0.423  14.221 -0.8436  0.7458 -2.1512
 2533SOL     OW19234   2.732   1.467   9.496 -0.1174  0.7306  0.0442
 2533SOL    HW119235   2.670   1.466   9.569 -2.1770 -0.8385 -1.7303
 2533SOL    HW219236   2.766   1.378   9.498  0.4193  0.9484  0.7577
 2534SOL     OW19237   1.599   0.221   6.295  0.3602  0.2843  0.3052
 2534SOL    HW119238   1.544   0.231   6.373 -0.4596 -1.7228 -0.0205
 2534SOL    HW219239   1.613   0.315   6.279 -1.4313  0.1670 -1.9767
 2535SOL     OW19240   2.211   3.057  10.418 -0.0781  0.5101  0.5446
 2535SOL    HW119241   2.288   3.107  10.448  2.3039 -1.8918 -1.5064
 2535SOL    HW219242   2.192   3.011  10.500 -0.8867 -0.5403 -0.2282
 2536SOL     OW19243   0.305   1.868   4.003 -0.4449  0.5958 -0.1055
 2536SOL    HW119244   0.390   1.824   4.003 -0.4302  0.6268 -1.5373
 2536SOL    HW219245   0.273   1.821   3.926  0.6246 -0.3698  0.0287
 2537SOL     OW19246   2.201   1.001  17.279 -0.3605  0.4405  0.2445
 2537SOL    HW119247   2.136   0.931  17.289 -0.1995  0.6586  2.7547
 2537SOL    HW219248   2.196   1.034  17.369 -0.5507  0.6989  0.1394
 2538SOL     OW19249   0.124   3.577  11.952  0.5212 -0.0282  0.3225
 2538SOL    HW119250   0.145   3.634  11.878 -3.5253  0.5844 -0.3457
 2538SOL    HW219251   0.030   3.594  11.958  0.5461 -0.5466  2.3117
 2539SOL     OW19252   1.304   0.602  15.355 -0.1007  0.2640  0.4573
 2539SOL    HW119253   1.257   0.680  15.326 -0.6082  0.0878  0.8054
 2539SOL    HW219254   1.265   0.593  15.442  0.8539 -2.9199  0.5573
 2540SOL     OW19255   4.680   1.620   4.254 -0.5431  0.0940  0.2069
 2540SOL    HW119256   4.627   1.587   4.182 -0.5528  0.9039 -0.1636
 2540SOL    HW219257   4.688   1.709   4.220  1.0074 -0.1870 -0.1887
 2541SOL     OW19258   1.717   1.029   0.682 -0.0362 -0.4984  0.3126
 2541SOL    HW119259   1.694   0.945   0.642 -0.1192  0.4130 -1.5763
 2541SOL    HW219260   1.751   0.993   0.764 -0.7935  0.8778  1.2165
 2542SOL     OW19261   0.920   2.807   6.629 -0.0387  0.0143 -0.0383
 2542SOL    HW119262   1.006   2.828   6.592  0.3758 -0.4125  0.6843
 2542SOL    HW219263   0.869   2.833   6.553  0.7395 -1.2869 -1.0087
 2543SOL     OW19264   0.242   1.429   3.059  0.5786 -0.4587  0.6566
 2543SOL    HW119265   0.289   1.347   3.045 -2.2804 -1.9143 -0.5489
 2543SOL    HW219266   0.256   1.458   3.149  0.9590 -0.6855  0.6685
 2544SOL     OW19267   2.066   1.977   3.581  0.2081 -0.4188  0.0204
 2544SOL    HW119268   2.065   1.885   3.554 -0.1872 -0.1249 -0.9859
 2544SOL    HW219269   1.977   1.988   3.612  0.4103 -0.7141  0.7152
 2545SOL     OW19270   0.070   3.072  14.155 -0.5151 -0.2311  0.7706
 2545SOL    HW119271   0.047   3.042  14.067 -0.2120  0.7994  0.3366
 2545SOL    HW219272   0.048   2.988  14.195 -2.5304  0.3352  0.8619
 2546SOL     OW19273   3.009   3.762   2.754  0.2432 -0.5500 -0.7421
 2546SOL    HW119274   2.963   3.835   2.713 -0.9186 -1.4986 -1.1613
 2546SOL    HW219275   3.082   3.813   2.789  1.0085 -2.4124  0.4006
 2547SOL     OW19276   0.593   2.074   2.582  0.2734  0.1458  0.2632
 2547SOL    HW119277   0.620   2.073   2.491  1.3043 -3.6728  0.5968
 2547SOL    HW219278   0.499   2.081   2.565  0.4746  1.5714 -0.1844
 2548SOL     OW19279   4.493   0.376   6.987 -0.2493 -0.0581 -0.3855
 2548SOL    HW119280   4.454   0.419   6.911 -1.6033  0.4651  0.6107
 2548SOL    HW219281   4.508   0.455   7.038 -2.2119  1.2536 -1.8169
 2549SOL     OW19282   0.767   0.531   4.398 -0.1832  0.8917  0.1515
 2549SOL    HW119283   0.812   0.447   4.406  1.6326  1.8807  0.3599
 2549SOL    HW219284   0.680   0.494   4.380  1.1290 -2.3311  0.5170
 2550SOL     OW19285   2.825   1.527  11.860  0.0578 -0.3249  0.4882
 2550SOL    HW119286   2.820   1.449  11.805  0.5522  0.0650 -0.1279
 2550SOL    HW219287   2.911   1.559  11.830  0.1372  0.5429  1.6651
 2551SOL     OW19288   4.186   1.602   3.417 -0.2468  0.2420 -0.0062
 2551SOL    HW119289   4.132   1.524   3.432 -0.5122  0.4367  0.0658
 2551SOL    HW219290   4.237   1.584   3.338 -0.8217  0.0060 -0.3230
 2552SOL     OW19291   2.287   3.412   7.199 -0.4012 -0.0462  0.0050
 2552SOL    HW119292   2.300   3.338   7.259 -1.9295  1.7053  2.4900
 2552SOL    HW219293   2.373   3.453   7.193 -0.9591  1.4616  2.3863
 2553SOL     OW19294   4.397   1.531   8.797 -0.2137 -0.0061 -0.5046
 2553SOL    HW119295   4.337   1.602   8.777  0.8877  1.2838  0.7646
 2553SOL    HW219296   4.477   1.583   8.796 -0.4937  0.4321 -0.3284
 2554SOL     OW19297   3.243   4.031   7.873 -0.0914 -0.0396 -0.0335
 2554SOL    HW119298   3.270   4.110   7.827  0.7467 -0.0916  0.3811
 2554SOL    HW219299   3.153   4.010   7.846 -0.0196  1.9304 -1.7744
 2555SOL     OW19300   0.484   1.566   9.046 -0.3798 -0.0928 -0.7602
 2555SOL    HW119301   0.470   1.660   9.033 -1.8889  0.2100  2.8931
 2555SOL    HW219302   0.578   1.567   9.030 -0.3359  1.1289 -0.4013
 2556SOL     OW19303   0.786   2.681   7.788 -0.8301  0.2827  0.8442
 2556SOL    HW119304   0.705   2.730   7.797 -2.5463 -2.1956 -0.7837
 2556SOL    HW219305   0.818   2.678   7.878  2.4610  1.3200 -0.2936
 2557SOL     OW19306   2.912   0.508   6.194  0.1991 -0.1877 -0.1016
 2557SOL    HW119307   2.917   0.596   6.231 -2.1761 -0.6692  1.3971
 2557SOL    HW219308   2.855   0.525   6.119 -1.9135 -0.0994  1.5226
 2558SOL     OW19309   0.525   0.662  15.122  0.1670 -0.0132 -0.0185
 2558SOL    HW119310   0.615   0.669  15.156  0.4447  0.1999 -0.7810
 2558SOL    HW219311   0.547   0.608  15.046  1.0911  1.0825 -0.5310
 2559SOL     OW19312   1.554   3.514   4.143  0.1156 -0.3889 -0.2248
 2559SOL    HW119313   1.582   3.423   4.157 -0.0354 -0.5195 -0.7634
 2559SOL    HW219314   1.634   3.566   4.141  1.2021 -2.1082 -1.4192
 2560SOL     OW19315   3.605   3.975  15.042 -0.3321  0.1607 -0.6352
 2560SOL    HW119316   3.527   4.030  15.048  1.0887  2.2510 -1.4573
 2560SOL    HW219317   3.561   3.891  15.028 -3.7032  1.5454  1.6310
 2561SOL     OW19318   2.495   1.691   7.585  0.0452 -0.3786  0.5388
 2561SOL    HW119319   2.583   1.712   7.615  0.4301  0.5761 -1.2337
 2561SOL    HW219320   2.459   1.780   7.580 -1.2863 -0.9185  0.4611
 2562SOL     OW19321   2.024   2.480   4.786  0.3124  0.0877 -0.3139
 2562SOL    HW119322   2.113   2.458   4.761  0.1306 -1.4664  0.4050
 2562SOL    HW219323   2.028   2.576   4.786 -0.8643  0.1406  0.5144
 2563SOL     OW19324   1.731   3.746  11.896  0.0725  0.3799 -0.2351
 2563SOL    HW119325   1.814   3.745  11.943  0.2629 -0.4069 -0.5870
 2563SOL    HW219326   1.752   3.700  11.814  0.6083 -2.6458  1.6099
 2564SOL     OW19327   1.037   1.717   6.167  0.3158 -0.8978 -0.0237
 2564SOL    HW119328   1.118   1.755   6.132 -0.2731 -1.2696 -1.7948
 2564SOL    HW219329   1.013   1.664   6.091  0.5827  1.8168 -2.0242
 2565SOL     OW19330   0.980   2.050   1.916  0.0856  0.3689  0.0246
 2565SOL    HW119331   0.920   2.076   1.846 -0.4463 -0.7880  0.0397
 2565SOL    HW219332   1.054   2.025   1.860 -0.3462 -1.7376  0.3841
 2566SOL     OW19333   0.234   0.133   4.491 -0.0654 -0.0792 -0.5312
 2566SOL    HW119334   0.225   0.205   4.429 -1.4127 -0.7723 -1.1481
 2566SOL    HW219335   0.259   0.067   4.427 -2.8212 -0.7886 -0.8805
 2567SOL     OW19336   1.232   3.132   9.293  0.1054 -0.1100 -0.4665
 2567SOL    HW119337   1.185   3.216   9.284 -3.1098 -1.9495 -0.8982
 2567SOL    HW219338   1.209   3.088   9.212 -0.4371 -2.4255  0.9536
 2568SOL     OW19339   1.500   1.611   8.664 -0.9650 -0.7254 -0.1219
 2568SOL    HW119340   1.425   1.552   8.662 -1.1672 -0.4423 -1.0022
 2568SOL    HW219341   1.478   1.650   8.749 -0.6239 -0.3588 -0.2020
 2569SOL     OW19342   1.941   0.929  12.755  0.7091  0.1618  0.3710
 2569SOL    HW119343   1.973   0.841  12.737 -1.4841 -0.4755 -0.5106
 2569SOL    HW219344   2.015   0.987  12.740  0.7387 -0.0395 -0.2692
 2570SOL     OW19345   1.791   4.189   8.485  0.7475  0.3066 -0.5601
 2570SOL    HW119346   1.790   4.248   8.561  0.1416 -1.5779  0.8858
 2570SOL    HW219347   1.799   4.102   8.523 -0.8163  0.0763 -0.7819
 2571SOL     OW19348   0.089   0.605   7.659 -0.0804  0.2227  0.2022
 2571SOL    HW119349   0.012   0.647   7.699 -0.2684  0.9692 -0.9521
 2571SOL    HW219350   0.104   0.663   7.585 -1.7014 -0.5074 -0.6974
 2572SOL     OW19351   1.208   1.500   8.767  0.2012  0.1311  0.6339
 2572SOL    HW119352   1.136   1.548   8.726  1.1336  0.3510 -0.7136
 2572SOL    HW219353   1.231   1.555   8.842 -1.5839  0.5882  0.8469
 2573SOL     OW19354   4.403   4.146  13.657 -0.2315  0.3656 -0.7997
 2573SOL    HW119355   4.452   4.149  13.740 -0.2717 -2.2959 -0.6750
 2573SOL    HW219356   4.357   4.061  13.655 -1.4211  0.9149  3.6554
 2574SOL     OW19357   3.766   0.871   9.143  0.1390  0.4992  0.2637
 2574SOL    HW119358   3.828   0.908   9.079 -0.7935 -1.4853 -1.7855
 2574SOL    HW219359   3.682   0.902   9.111 -1.2274  0.0387  3.3997
 2575SOL     OW19360   0.938   1.230   7.002 -0.0674  0.0917  0.1678
 2575SOL    HW119361   0.981   1.261   6.923 -0.9026  0.8950  0.0142
 2575SOL    HW219362   1.005   1.244   7.069 -0.3071 -0.1378  0.4549
 2576SOL     OW19363   3.829   1.623   5.012 -0.2147  0.1503 -0.4112
 2576SOL    HW119364   3.900   1.574   4.971 -0.0874 -1.0149  1.1836
 2576SOL    HW219365   3.820   1.573   5.093 -0.7336 -0.4304 -0.8250
 2577SOL     OW19366   2.815   4.551   5.282 -0.1507 -0.2145 -1.0088
 2577SOL    HW119367   2.761   4.566   5.359  0.9479 -0.4272 -0.1968
 2577SOL    HW219368   2.901   4.522   5.313 -0.2115  0.3517 -0.3177
 2578SOL     OW19369   0.590   2.614   3.922 -0.3037 -0.2301  0.0290
 2578SOL    HW119370   0.579   2.550   3.992  0.9931 -0.5838 -0.0915
 2578SOL    HW219371   0.660   2.673   3.950 -1.2763  0.5532  0.8055
 2579SOL     OW19372   1.665   1.266   6.910  0.2076  0.1760  0.4630
 2579SOL    HW119373   1.677   1.318   6.831  0.1340 -2.0174 -0.9953
 2579SOL    HW219374   1.725   1.318   6.964 -0.5025 -0.8547  2.2301
 2580SOL     OW19375   1.926   3.103  16.184  0.1131 -0.3139 -0.0627
 2580SOL    HW119376   1.948   3.066  16.270 -0.5046  0.2939  0.3610
 2580SOL    HW219377   1.872   3.037  16.141 -0.3338  0.7862 -1.1697
 2581SOL     OW19378   2.031   2.330   9.563 -0.7435 -0.0619  0.7091
 2581SOL    HW119379   1.937   2.345   9.559 -0.6513  0.2135 -0.7018
 2581SOL    HW219380   2.068   2.418   9.574  0.2639 -0.4907  0.7548
 2582SOL     OW19381   4.481   4.440   4.727  0.2729 -0.1786  0.1160
 2582SOL    HW119382   4.484   4.345   4.724  0.6850 -0.1197 -0.9901
 2582SOL    HW219383   4.569   4.463   4.755  0.5394 -0.3684 -0.5872
 2583SOL     OW19384   2.891   4.351   8.606  0.4434 -0.4060  0.1924
 2583SOL    HW119385   2.829   4.289   8.644 -1.8338  2.1217  0.5330
 2583SOL    HW219386   2.968   4.338   8.662  1.7972  2.3398 -1.0351
 2584SOL     OW19387   2.659   2.154   2.591 -0.0049  0.4502  0.1719
 2584SOL    HW119388   2.740   2.203   2.575 -0.0384  0.0797 -1.1726
 2584SOL    HW219389   2.658   2.114   2.503  0.8217 -0.4020  0.5486
 2585SOL     OW19390   0.192   4.095   5.335  0.5741 -0.1175 -0.1994
 2585SOL    HW119391   0.272   4.059   5.375 -2.0397 -1.8503  3.4200
 2585SOL    HW219392   0.139   4.097   5.415  1.9058  1.1027  0.6630
 2586SOL     OW19393   2.442   1.100   4.569 -0.0470  0.4528 -0.1540
 2586SOL    HW119394   2.378   1.146   4.624  1.2959 -0.5277  2.2436
 2586SOL    HW219395   2.385   1.036   4.527 -1.3343  1.6428 -0.2152
 2587SOL     OW19396   3.525   4.033   2.929 -0.9467  0.0610  0.0081
 2587SOL    HW119397   3.488   4.017   3.016  0.7380  0.8352  0.8652
 2587SOL    HW219398   3.609   3.988   2.920 -0.7639  0.6214 -1.0863
 2588SOL     OW19399   1.988   2.259   7.154 -0.4678  0.0293 -0.5458
 2588SOL    HW119400   2.048   2.334   7.152 -0.9266  0.4599  1.7083
 2588SOL    HW219401   1.908   2.305   7.129 -0.0624  0.4823 -1.0163
 2589SOL     OW19402   3.858   3.943   4.901 -0.0789 -0.1209  0.1560
 2589SOL    HW119403   3.889   3.882   4.833 -0.2092  2.7527 -2.4765
 2589SOL    HW219404   3.765   3.925   4.887  0.0039  0.3954 -1.1109
 2590SOL     OW19405   3.202   3.550  13.400  0.3262 -0.2179 -0.0021
 2590SOL    HW119406   3.277   3.610  13.393  0.1392  0.1680  1.3310
 2590SOL    HW219407   3.226   3.496  13.475  0.9475  0.5816  0.3827
 2591SOL     OW19408   1.389   1.232   6.726 -0.1737  0.0475  0.3065
 2591SOL    HW119409   1.427   1.319   6.717 -3.5347  1.3163 -1.5884
 2591SOL    HW219410   1.468   1.179   6.716 -1.8468 -2.2458 -0.6544
 2592SOL     OW19411   2.268   4.112   3.290  0.2645 -0.4298  0.1606
 2592SOL    HW119412   2.347   4.096   3.239  0.8355 -0.3739  1.0338
 2592SOL    HW219413   2.198   4.086   3.229  0.5532  2.0495 -1.2056
 2593SOL     OW19414   1.918   1.956  17.583  0.2310  0.2605 -0.3145
 2593SOL    HW119415   1.971   2.029  17.550  0.3493 -0.3488 -1.5056
 2593SOL    HW219416   1.969   1.934  17.660 -0.6963  3.2706  1.1590
 2594SOL     OW19417   3.531   3.661   7.973  0.4288 -0.3119  0.4542
 2594SOL    HW119418   3.474   3.731   8.002  1.3708  0.5810  0.1396
 2594SOL    HW219419   3.472   3.586   7.981 -1.2389  0.7533 -1.9844
 2595SOL     OW19420   4.035   1.615   8.901 -0.1109  0.4616 -0.2239
 2595SOL    HW119421   3.956   1.667   8.891  0.0060  0.9918  1.5043
 2595SOL    HW219422   4.035   1.600   8.996  0.1436 -1.6539 -0.5641
 2596SOL     OW19423   2.363   1.099   2.558 -0.0051  0.5945  0.1873
 2596SOL    HW119424   2.358   1.194   2.568  2.5071  0.5082  2.3806
 2596SOL    HW219425   2.442   1.090   2.612  0.3048 -0.2169 -0.3988
 2597SOL     OW19426   0.814   4.501   9.742  0.0879  0.4271 -0.1994
 2597SOL    HW119427   0.898   4.518   9.785  1.1955 -0.9253 -1.8254
 2597SOL    HW219428   0.773   4.588   9.741  1.9762  1.2848 -3.2792
 2598SOL     OW19429   3.127   2.573   0.101  0.3757 -0.2844 -0.5112
 2598SOL    HW119430   3.098   2.616   0.021 -2.0784 -0.4339  0.3077
 2598SOL    HW219431   3.082   2.626   0.166  1.8406 -0.2462  0.4928
 2599SOL     OW19432   2.091   1.467   7.657  0.5612  0.2695 -0.0337
 2599SOL    HW119433   1.996   1.467   7.663  0.5389 -0.0029 -0.3391
 2599SOL    HW219434   2.120   1.411   7.584 -2.0142 -0.2086 -0.6759
 2600SOL     OW19435   0.351   3.892   4.606  0.1554 -0.0020  0.2310
 2600SOL    HW119436   0.358   3.963   4.543 -2.6650  1.8721  2.0287
 2600SOL    HW219437   0.444   3.869   4.616  0.6395  2.7742  2.1821
 2601SOL     OW19438   3.961   1.993  13.748  0.3635  0.0248 -0.6773
 2601SOL    HW119439   3.984   2.039  13.668 -2.3008  0.3881 -1.2545
 2601SOL    HW219440   3.935   1.904  13.722  0.0391  0.0204 -0.3544
 2602SOL     OW19441   2.445   2.196   5.766  0.4388 -0.5259 -0.4960
 2602SOL    HW119442   2.450   2.156   5.853  1.7378  0.8335  0.0505
 2602SOL    HW219443   2.409   2.123   5.714 -0.8417 -0.8851  0.9025
 2603SOL     OW19444   1.177   0.555  13.900 -0.0215 -0.2145  0.4691
 2603SOL    HW119445   1.179   0.513  13.986  1.9064 -1.1012 -0.0012
 2603SOL    HW219446   1.111   0.507  13.850 -1.2670  1.2174  0.7666
 2604SOL     OW19447   3.908   2.761  12.707  0.7684  0.1331 -0.5274
 2604SOL    HW119448   3.964   2.775  12.631  2.3693 -0.8539  0.4704
 2604SOL    HW219449   3.913   2.667  12.720  2.8651  0.4911  1.3805
 2605SOL     OW19450   2.168   1.572   2.756 -0.2239  0.1081 -0.2928
 2605SOL    HW119451   2.237   1.510   2.781  1.9118  2.7125  0.2276
 2605SOL    HW219452   2.126   1.587   2.840 -0.9510  1.0276 -0.8227
 2606SOL     OW19453   2.517   2.903   4.072 -0.3331 -0.3850 -0.0676
 2606SOL    HW119454   2.545   2.986   4.032 -0.7529  0.2588  0.9682
 2606SOL    HW219455   2.558   2.840   4.013  0.5362  2.3606 -2.3976
 2607SOL     OW19456   4.353   1.325   5.709 -0.3063 -0.3876  0.3524
 2607SOL    HW119457   4.348   1.410   5.666 -3.8891 -1.5900 -1.7254
 2607SOL    HW219458   4.289   1.333   5.780  0.3346  1.2196  0.7405
 2608SOL     OW19459   3.300   3.111   7.619  0.2042 -0.2436  0.0136
 2608SOL    HW119460   3.332   3.182   7.563 -1.6673  0.2648 -0.4086
 2608SOL    HW219461   3.216   3.080   7.586 -0.3580 -0.3389  1.5411
 2609SOL     OW19462   3.150   2.077   1.152  0.1621  0.0192  0.4957
 2609SOL    HW119463   3.144   2.077   1.057  0.2517  0.2917  0.4900
 2609SOL    HW219464   3.141   2.170   1.175 -0.0219  0.1959 -0.3068
 2610SOL     OW19465   1.532   2.732   4.264 -0.2080  0.3648 -0.2284
 2610SOL    HW119466   1.459   2.728   4.325 -0.0951  0.8614 -0.0587
 2610SOL    HW219467   1.487   2.753   4.183  1.7069  2.5901 -0.7313
 2611SOL     OW19468   0.256   4.398  15.789  0.0059  0.1562 -0.2775
 2611SOL    HW119469   0.171   4.379  15.750  0.0636  0.3546 -0.5059
 2611SOL    HW219470   0.230   4.435  15.873 -1.4292  2.3916 -1.6957
 2612SOL     OW19471   3.332   1.411   5.725 -0.5003  0.3029 -0.2913
 2612SOL    HW119472   3.307   1.326   5.689 -0.4309 -0.8241  2.3424
 2612SOL    HW219473   3.248   1.448   5.754  0.0142  0.0038  1.5548
 2613SOL     OW19474   3.258   2.297   1.655  0.0477 -0.1230 -0.3879
 2613SOL    HW119475   3.298   2.351   1.723  1.7253  0.7154 -2.0215
 2613SOL    HW219476   3.325   2.229   1.645  1.9070  2.2260 -4.1252
 2614SOL     OW19477   2.444   0.995   3.005 -0.3181 -0.4520  0.1403
 2614SOL    HW119478   2.449   0.981   3.099 -3.5315 -0.1064  0.3720
 2614SOL    HW219479   2.351   0.975   2.993 -0.1278 -0.3326 -1.6709
 2615SOL     OW19480   1.562   4.221  11.195  0.1147 -0.0380  0.9259
 2615SOL    HW119481   1.500   4.175  11.252  0.5994  0.3230  1.7480
 2615SOL    HW219482   1.651   4.221  11.232  0.7264 -1.6564 -0.5542
 2616SOL     OW19483   1.450   3.650  15.470  0.2321  0.3271  0.2571
 2616SOL    HW119484   1.518   3.584  15.453 -1.1190 -1.7495  2.8599
 2616SOL    HW219485   1.383   3.607  15.417  2.2030 -2.5953  0.1197
 2617SOL     OW19486   4.281   0.191   5.288 -0.1292  0.6403 -0.4625
 2617SOL    HW119487   4.342   0.264   5.280  0.2045  0.4056 -0.0918
 2617SOL    HW219488   4.326   0.148   5.361  0.5137  1.4620 -0.3764
 2618SOL     OW19489   3.477   0.234   4.839 -0.2617  0.5772  0.0865
 2618SOL    HW119490   3.486   0.327   4.819 -1.9660  0.8404  0.5133
 2618SOL    HW219491   3.397   0.242   4.891 -0.7166 -2.2527 -0.1375
 2619SOL     OW19492   2.186   3.805   5.965 -0.3956  0.0955 -0.3164
 2619SOL    HW119493   2.124   3.876   5.948 -0.6730  0.0478  0.4847
 2619SOL    HW219494   2.220   3.839   6.048 -2.8837  0.4282  0.5532
 2620SOL     OW19495   1.972   1.999  15.031  0.6978  0.0335 -0.1894
 2620SOL    HW119496   2.036   2.028  14.966  0.9026  0.1207  0.0508
 2620SOL    HW219497   2.030   1.955  15.093  1.1443  2.7175  1.2939
 2621SOL     OW19498   1.016   3.891   7.243  0.2520 -0.0508  0.0274
 2621SOL    HW119499   1.063   3.939   7.176 -0.4177  2.1381  1.1279
 2621SOL    HW219500   0.967   3.958   7.291  0.7552  1.5409 -1.7260
 2622SOL     OW19501   2.930   2.182   2.495  0.0336 -0.3092  0.0963
 2622SOL    HW119502   3.007   2.185   2.551 -0.6804 -0.8722  1.1101
 2622SOL    HW219503   2.946   2.231   2.414  0.0030  0.4570  0.5605
 2623SOL     OW19504   0.181   3.597   3.276 -0.0418  0.1938  0.0279
 2623SOL    HW119505   0.254   3.536   3.270 -0.2911 -0.1116  0.0747
 2623SOL    HW219506   0.136   3.576   3.194  0.9578 -1.8618  0.0063
 2624SOL     OW19507   2.865   4.213   8.169  0.0050  0.7457 -0.1209
 2624SOL    HW119508   2.909   4.235   8.086 -0.0475  1.7433  0.1149
 2624SOL    HW219509   2.835   4.300   8.196  0.8361  1.2420 -0.7796
 2625SOL     OW19510   2.279   2.670  17.530  0.4213 -0.1423 -0.6117
 2625SOL    HW119511   2.353   2.698  17.476  1.0921 -0.7362  0.0061
 2625SOL    HW219512   2.312   2.681  17.619 -1.9023 -0.4757  0.2979
 2626SOL     OW19513   3.078   1.201   4.542  0.4404  0.1647 -0.2148
 2626SOL    HW119514   3.107   1.280   4.587 -0.6871  2.9808 -4.4340
 2626SOL    HW219515   3.151   1.176   4.486 -2.5478 -1.1943 -3.5175
 2627SOL     OW19516   3.052   2.033  13.869 -0.1508  1.2593  0.2960
 2627SOL    HW119517   3.023   2.052  13.958 -0.8339  0.8841  0.1607
 2627SOL    HW219518   2.966   2.004  13.836  0.9362 -2.1241  0.3913
 2628SOL     OW19519   2.334   0.142  13.220 -0.0795  0.3963  0.8772
 2628SOL    HW119520   2.316   0.055  13.255  2.8053 -1.7418 -2.9803
 2628SOL    HW219521   2.314   0.133  13.127  0.6199  1.1546  0.6628
 2629SOL     OW19522   0.976   3.354   0.463  0.2957 -0.3219  0.1606
 2629SOL    HW119523   1.054   3.410   0.461  0.2185 -0.2180  0.0595
 2629SOL    HW219524   0.922   3.417   0.416  0.1843  0.3462  1.1804
 2630SOL     OW19525   1.542   3.572   8.371 -0.0523  0.3037  0.1091
 2630SOL    HW119526   1.590   3.625   8.307 -0.3850  0.3904 -0.0717
 2630SOL    HW219527   1.550   3.485   8.333  0.9323  1.3928 -2.2248
 2631SOL     OW19528   3.314   2.010   2.835 -0.1835  0.4961  0.1866
 2631SOL    HW119529   3.257   1.956   2.889 -1.1871  0.9067 -0.4567
 2631SOL    HW219530   3.392   2.013   2.890  1.0761 -2.0047 -1.4791
 2632SOL     OW19531   2.845   1.197   9.377 -0.6802  0.8287  0.2714
 2632SOL    HW119532   2.877   1.153   9.456 -1.0999 -3.3245 -1.8649
 2632SOL    HW219533   2.755   1.166   9.378 -0.3377 -0.0743  1.8842
 2633SOL     OW19534   2.067   0.740   4.581  0.4602  0.0227  0.1889
 2633SOL    HW119535   2.105   0.708   4.662  0.4899 -0.8870 -0.1879
 2633SOL    HW219536   2.097   0.831   4.585  1.6662 -0.3563 -0.1811
 2634SOL     OW19537   4.065   2.984   2.036  0.3649  0.4192  0.2569
 2634SOL    HW119538   4.002   3.014   2.101 -1.1481  0.1573 -1.0730
 2634SOL    HW219539   4.008   2.960   1.963  0.3256 -1.5892  0.9544
 2635SOL     OW19540   2.086   3.737   7.911 -0.7126 -0.0338 -0.4403
 2635SOL    HW119541   2.025   3.665   7.929 -0.4605 -0.4000 -1.0888
 2635SOL    HW219542   2.176   3.710   7.928 -0.8952 -0.9885 -1.0214
 2636SOL     OW19543   4.308   0.734   4.696 -0.0142  0.2876 -0.1082
 2636SOL    HW119544   4.255   0.656   4.714  1.6115 -0.6715  0.4477
 2636SOL    HW219545   4.301   0.730   4.601 -2.3061 -0.2994  0.0803
 2637SOL     OW19546   0.118   1.608   8.942  0.2386  0.5945 -0.1405
 2637SOL    HW119547   0.117   1.650   9.029  0.0979  0.9625 -0.3185
 2637SOL    HW219548   0.050   1.547   8.968  1.0085 -0.2993 -0.2407
 2638SOL     OW19549   2.969   3.248   0.031 -0.2042 -0.0438  0.5486
 2638SOL    HW119550   3.057   3.283   0.017 -0.6345  0.3085 -1.2411
 2638SOL    HW219551   2.978   3.166  17.740 -1.1571  0.5443 -0.6092
 2639SOL     OW19552   1.233   3.849  11.895 -0.3579 -0.0291  0.2251
 2639SOL    HW119553   1.326   3.869  11.907 -0.4927  1.3282 -1.0017
 2639SOL    HW219554   1.191   3.873  11.977 -1.9925  1.4814 -1.0564
 2640SOL     OW19555   0.850   2.839   9.526 -0.0241  0.6029  0.3958
 2640SOL    HW119556   0.819   2.923   9.491 -0.3468  0.0065 -0.7253
 2640SOL    HW219557   0.904   2.812   9.452 -1.2351 -0.0872 -0.2288
 2641SOL     OW19558   0.730   0.139   3.696 -0.5359  0.3503  0.1454
 2641SOL    HW119559   0.668   0.207   3.668  1.2330  0.8310 -2.7019
 2641SOL    HW219560   0.735   0.090   3.614 -0.4693 -0.6376  0.7420
 2642SOL     OW19561   3.074   3.019  17.583 -0.6158  0.4777 -0.4319
 2642SOL    HW119562   3.073   2.970  17.500 -2.7566  0.0156 -0.1454
 2642SOL    HW219563   3.163   3.015  17.616 -0.5471  0.9312 -0.5579
 2643SOL     OW19564   2.193   3.873   2.395  0.1095 -0.2341 -0.1699
 2643SOL    HW119565   2.245   3.819   2.455  0.5386  0.9382  0.5263
 2643SOL    HW219566   2.249   3.951   2.397 -1.2319  0.7725 -1.8666
 2644SOL     OW19567   0.488   0.312   3.668  0.5993 -0.0282 -0.1128
 2644SOL    HW119568   0.494   0.328   3.574 -0.9823  0.9051 -0.0475
 2644SOL    HW219569   0.428   0.381   3.695  1.7542  0.4119  1.3642
 2645SOL     OW19570   3.665   0.954   8.332  0.4020  0.0927 -0.0467
 2645SOL    HW119571   3.601   0.987   8.395  1.5606  2.4911 -0.1045
 2645SOL    HW219572   3.683   0.868   8.369 -1.0903  0.1111  0.7108
 2646SOL     OW19573   3.562   1.590   9.571 -0.4230 -0.2638 -0.2713
 2646SOL    HW119574   3.517   1.666   9.608  1.6270  0.3807  0.8850
 2646SOL    HW219575   3.501   1.551   9.508 -1.2575 -0.7988  0.8480
 2647SOL     OW19576   3.298   1.913   4.815 -0.3982  0.0215  0.5846
 2647SOL    HW119577   3.277   1.971   4.889 -0.0815  0.7806  0.0820
 2647SOL    HW219578   3.229   1.933   4.752 -0.3134 -1.1148  0.1357
 2648SOL     OW19579   2.629   3.189   5.558 -0.1916 -0.0654  0.2494
 2648SOL    HW119580   2.687   3.258   5.525  2.7412 -1.4493  2.5585
 2648SOL    HW219581   2.655   3.198   5.649 -4.0922  0.4549  1.3302
 2649SOL     OW19582   2.054   3.434   6.384  0.3499  0.2212  0.6733
 2649SOL    HW119583   1.971   3.430   6.336  0.1045 -0.5235  1.1703
 2649SOL    HW219584   2.102   3.511   6.353  1.1714 -0.6652 -0.2719
 2650SOL     OW19585   0.872   0.837   7.216  0.1956  0.2828  0.2694
 2650SOL    HW119586   0.835   0.913   7.170 -1.8703 -0.2943  0.9816
 2650SOL    HW219587   0.916   0.794   7.144  2.0995 -0.1684  1.7079
 2651SOL     OW19588   3.224   2.751   6.481 -0.3207  0.3519 -0.4471
 2651SOL    HW119589   3.199   2.740   6.573  1.6579  1.7958  0.2743
 2651SOL    HW219590   3.184   2.832   6.449 -2.9101 -1.1556 -1.0076
 2652SOL     OW19591   3.833   0.448   5.440  0.3669 -0.3706  0.0930
 2652SOL    HW119592   3.830   0.479   5.531 -1.5371 -2.5319  0.7570
 2652SOL    HW219593   3.885   0.368   5.450  1.7573  0.3236 -1.6012
 2653SOL     OW19594   0.157   4.390   6.045 -0.4455  0.1198  0.5307
 2653SOL    HW119595   0.233   4.351   6.087  0.1065 -0.5003 -1.0344
 2653SOL    HW219596   0.103   4.364   6.119 -0.9091  0.2623  0.2455
 2654SOL     OW19597   2.914   4.165   5.896  0.0707  0.1236  0.2305
 2654SOL    HW119598   2.963   4.247   5.896  2.3737 -1.2460 -0.1091
 2654SOL    HW219599   2.910   4.147   5.802  0.1311 -0.9009  0.4240
 2655SOL     OW19600   1.466   4.094   3.326  0.0969  0.9887  0.2776
 2655SOL    HW119601   1.490   4.168   3.270 -0.0572  0.3512 -0.6290
 2655SOL    HW219602   1.520   4.023   3.291 -0.1609  0.7271  0.4100
 2656SOL     OW19603   3.735   0.519   7.817  0.2726  0.1976 -0.0967
 2656SOL    HW119604   3.741   0.428   7.786 -1.1246  0.4246 -1.0259
 2656SOL    HW219605   3.827   0.537   7.840 -0.3234  2.9920  0.0617
 2657SOL     OW19606   3.125   1.828  15.126  0.2214  0.4980 -0.2245
 2657SOL    HW119607   3.165   1.904  15.084  0.6859 -0.1627 -0.9607
 2657SOL    HW219608   3.105   1.866  15.212 -0.5467 -1.7498  0.5879
 2658SOL     OW19609   0.490   3.503   2.700 -0.4697 -1.1532 -1.0390
 2658SOL    HW119610   0.498   3.578   2.758 -0.8559 -0.5002 -1.8232
 2658SOL    HW219611   0.395   3.494   2.704 -0.6913  2.0719  0.6575
 2659SOL     OW19612   3.128   1.955   5.245 -0.5876  0.1834  0.1686
 2659SOL    HW119613   3.116   1.866   5.212 -2.1357  1.6262 -3.1314
 2659SOL    HW219614   3.064   1.959   5.316  0.0725  1.0247  0.7116
 2660SOL     OW19615   1.919   0.280   4.925  0.2050  0.1837 -0.5781
 2660SOL    HW119616   1.839   0.232   4.904  0.5767 -0.4320 -0.5892
 2660SOL    HW219617   1.908   0.296   5.018  0.8319 -0.8583 -0.3236
 2661SOL     OW19618   1.833   2.256   3.461 -0.3562  0.0400 -0.4614
 2661SOL    HW119619   1.749   2.212   3.471 -0.6761  0.8053  0.2059
 2661SOL    HW219620   1.842   2.275   3.367 -0.5451  0.7748 -0.3326
 2662SOL     OW19621   2.339   2.021   8.470  0.2481 -0.5036  0.0297
 2662SOL    HW119622   2.254   2.063   8.481 -1.0823 -3.6114  1.8319
 2662SOL    HW219623   2.359   2.035   8.378 -0.0786  2.9865  0.5111
 2663SOL     OW19624   0.532   2.848   2.051  0.2641 -0.0525 -0.3064
 2663SOL    HW119625   0.584   2.928   2.042  0.3211  0.1481  1.8046
 2663SOL    HW219626   0.461   2.869   1.990 -1.9618  1.3567  2.7728
 2664SOL     OW19627   1.356   3.338  15.689 -0.2846  0.5003  0.0526
 2664SOL    HW119628   1.421   3.269  15.696 -0.1464  0.5801 -0.4625
 2664SOL    HW219629   1.411   3.415  15.709  2.2104 -1.2640 -0.0430
 2665SOL     OW19630   1.803   4.426   9.025  0.2461 -0.0153 -0.5426
 2665SOL    HW119631   1.732   4.491   9.032 -0.6270 -1.0321  0.0461
 2665SOL    HW219632   1.845   4.432   9.110 -0.4935  0.2934 -0.1927
 2666SOL     OW19633   2.995   4.063   6.169  0.3895 -0.0335 -0.0042
 2666SOL    HW119634   2.954   3.982   6.197 -1.5157  0.8801 -0.0922
 2666SOL    HW219635   2.975   4.054   6.076 -0.4625  1.0777  0.0562
 2667SOL     OW19636   2.042   1.463   1.732 -0.2458 -0.1263 -0.4109
 2667SOL    HW119637   1.952   1.493   1.720  0.5950  1.1800 -3.5681
 2667SOL    HW219638   2.068   1.415   1.653 -1.4874  0.1006 -0.9490
 2668SOL     OW19639   1.407   3.127  12.326  0.1506 -0.1443  0.4951
 2668SOL    HW119640   1.486   3.141  12.379  0.2209  1.3799 -0.0200
 2668SOL    HW219641   1.402   3.218  12.297 -0.0295 -0.3458 -0.1088
 2669SOL     OW19642   0.822   2.354  10.498  0.2658 -0.3143 -0.5258
 2669SOL    HW119643   0.775   2.298  10.560 -3.1394 -0.1083 -2.9384
 2669SOL    HW219644   0.795   2.437  10.540 -3.5220 -1.1986 -1.1850
 2670SOL     OW19645   2.387   2.691   8.094  0.0174  0.3332  0.8335
 2670SOL    HW119646   2.453   2.623   8.081  1.0078  1.2629  0.9603
 2670SOL    HW219647   2.395   2.738   8.010 -1.3407  0.0008  0.5206
 2671SOL     OW19648   1.054   0.924   7.446 -0.1934 -0.3980 -0.3279
 2671SOL    HW119649   1.014   0.890   7.366 -0.0639  1.9106 -1.3659
 2671SOL    HW219650   1.003   0.887   7.517  0.2182  0.8339  0.6116
 2672SOL     OW19651   0.161   3.763   4.278  0.3615 -0.0412  0.0089
 2672SOL    HW119652   0.206   3.830   4.330  0.4350  0.5161 -0.7704
 2672SOL    HW219653   0.088   3.810   4.238 -1.3568 -2.0978  0.7197
 2673SOL     OW19654   1.879   1.201  11.712 -0.8811  0.3453 -0.7435
 2673SOL    HW119655   1.864   1.295  11.713  1.6785  0.7383 -0.7028
 2673SOL    HW219656   1.863   1.182  11.619 -3.5037 -0.8632 -0.0436
 2674SOL     OW19657   3.214   4.407   4.441 -0.4311  0.1348 -0.1620
 2674SOL    HW119658   3.258   4.352   4.377  0.7159 -0.4767  1.1475
 2674SOL    HW219659   3.159   4.456   4.381 -0.2300 -2.4915 -2.4899
 2675SOL     OW19660   2.533   2.001  12.429 -0.0756 -0.1498 -0.4958
 2675SOL    HW119661   2.483   2.082  12.437  0.5537  0.0148  1.7535
 2675SOL    HW219662   2.513   1.968  12.341  0.0224  0.7946 -0.8746
 2676SOL     OW19663   2.877   0.784   8.950 -0.3822  0.1353  0.6309
 2676SOL    HW119664   2.864   0.715   8.884  0.2666 -0.6209  1.3088
 2676SOL    HW219665   2.913   0.735   9.023 -2.7718 -2.2699  0.2107
 2677SOL     OW19666   2.557   1.834  12.641  0.1338 -0.0210  0.3790
 2677SOL    HW119667   2.539   1.885  12.562 -0.5264 -0.5425  0.1835
 2677SOL    HW219668   2.589   1.898  12.704 -0.6445 -0.5847  1.3523
 2678SOL     OW19669   2.913   1.663   9.412  0.1248  0.0264  0.3413
 2678SOL    HW119670   2.986   1.626   9.362 -0.4024  0.0567 -0.4440
 2678SOL    HW219671   2.852   1.592   9.434  0.7276  0.0691  2.1318
 2679SOL     OW19672   3.952   1.869   8.736  0.6242  0.1604 -0.8707
 2679SOL    HW119673   3.877   1.811   8.720 -1.2476  2.4047 -0.2784
 2679SOL    HW219674   3.932   1.918   8.816 -0.9075 -1.7853 -0.0844
 2680SOL     OW19675   2.979   0.283   6.754 -0.5236  0.2830 -0.5841
 2680SOL    HW119676   2.904   0.266   6.811  0.2334  0.9377  0.5903
 2680SOL    HW219677   2.940   0.252   6.672  0.1148  0.6324 -1.0186
 2681SOL     OW19678   0.644   0.346  13.143  0.3581  0.3478  0.2692
 2681SOL    HW119679   0.697   0.269  13.160  0.1554 -0.1421 -1.2642
 2681SOL    HW219680   0.684   0.377  13.061 -1.8417  0.6779 -0.6725
 2682SOL     OW19681   2.334   0.064  10.656  0.6122  0.0408  0.3496
 2682SOL    HW119682   2.307   0.008  10.583  0.0526  0.3808  0.2990
 2682SOL    HW219683   2.391   0.005  10.705 -0.1033 -0.7603  0.2161
 2683SOL     OW19684   3.531   1.159   5.814 -0.1731  0.1550 -0.0098
 2683SOL    HW119685   3.511   1.065   5.811 -0.3060  0.1292  1.6098
 2683SOL    HW219686   3.551   1.163   5.908 -1.5153 -2.2361  0.3959
 2684SOL     OW19687   2.788   3.186   3.715 -0.4231 -0.6387 -0.2709
 2684SOL    HW119688   2.789   3.134   3.635 -1.6452 -0.3761 -0.4592
 2684SOL    HW219689   2.879   3.215   3.707 -0.4293 -0.2950  0.8346
 2685SOL     OW19690   3.815   0.778   8.575  0.2619 -0.2795 -0.5714
 2685SOL    HW119691   3.815   0.683   8.561 -2.1270 -0.2141 -1.0959
 2685SOL    HW219692   3.909   0.794   8.578 -0.0347  1.3333  0.2871
 2686SOL     OW19693   2.061   2.088   5.208 -0.2268  0.1552  0.1637
 2686SOL    HW119694   2.129   2.110   5.272  0.2403 -2.0831  0.4411
 2686SOL    HW219695   2.093   2.139   5.134  0.0838 -1.5337 -0.8769
 2687SOL     OW19696   3.909   4.235   2.147  0.0215 -0.1270 -0.1392
 2687SOL    HW119697   3.898   4.228   2.052  1.3257  0.8134 -0.3577
 2687SOL    HW219698   4.002   4.214   2.135 -0.4457 -1.7499 -0.8859
 2688SOL     OW19699   2.445   4.131   2.943  0.4254 -0.7189  0.1349
 2688SOL    HW119700   2.407   4.207   2.899  3.1378  0.4751 -0.1763
 2688SOL    HW219701   2.508   4.173   3.001 -2.0371  1.9807  0.8346
 2689SOL     OW19702   2.524   1.353   9.280 -0.4510 -0.3743  0.4358
 2689SOL    HW119703   2.511   1.266   9.241 -1.6389  0.2203 -0.5130
 2689SOL    HW219704   2.611   1.379   9.250 -0.3848 -1.2057 -0.1106
 2690SOL     OW19705   3.980   2.508  12.622 -0.1479 -0.4341  0.4992
 2690SOL    HW119706   3.964   2.423  12.582 -0.3993 -1.2113  2.2558
 2690SOL    HW219707   4.019   2.553  12.547 -2.1547 -0.1239 -0.3513
 2691SOL     OW19708   2.663   2.311   7.909 -0.7400  0.1456  0.5200
 2691SOL    HW119709   2.581   2.312   7.859 -0.0562 -1.8832 -0.6472
 2691SOL    HW219710   2.717   2.256   7.852  0.1005  2.0048 -0.4870
 2692SOL     OW19711   3.262   1.896   0.181 -0.4301  0.1320  0.5441
 2692SOL    HW119712   3.221   1.924   0.099 -0.2963  0.0400  0.4474
 2692SOL    HW219713   3.312   1.826   0.140  1.6902  2.1072 -0.2448
 2693SOL     OW19714   0.441   2.190   1.548 -0.1835 -0.0054 -0.0172
 2693SOL    HW119715   0.468   2.142   1.469 -1.2462  0.9137 -0.9409
 2693SOL    HW219716   0.408   2.118   1.601  0.5358 -1.1421 -1.0961
 2694SOL     OW19717   1.510   0.001   2.296  0.2614 -0.4088 -0.3066
 2694SOL    HW119718   1.481   4.693   2.219 -3.1874 -0.4511  1.0137
 2694SOL    HW219719   1.430   0.024   2.343  0.7557  1.2876 -0.2715
 2695SOL     OW19720   3.693   3.271   1.960 -0.0989  0.0802  0.0912
 2695SOL    HW119721   3.733   3.345   2.007 -1.8399  2.2963 -1.9503
 2695SOL    HW219722   3.612   3.318   1.942 -0.7020 -1.2826 -0.6607
 2696SOL     OW19723   2.288   1.911   7.086  0.0103  0.5929 -0.3657
 2696SOL    HW119724   2.335   1.974   7.141 -1.4614 -0.0458  1.6487
 2696SOL    HW219725   2.342   1.838   7.116 -1.6169 -0.5572 -0.2507
 2697SOL     OW19726   3.451   2.745   7.389  0.1132 -0.1138  0.3028
 2697SOL    HW119727   3.524   2.708   7.339  0.1687  0.0986  0.2251
 2697SOL    HW219728   3.454   2.839   7.371  0.6041 -0.0204  0.8813
 2698SOL     OW19729   1.959   1.487   9.858  0.0231  0.0016 -0.9498
 2698SOL    HW119730   1.978   1.500   9.951  0.5548 -0.0402 -1.0505
 2698SOL    HW219731   1.870   1.520   9.853  0.3114  0.8551 -0.5007
 2699SOL     OW19732   4.201   3.462   5.458  0.2704 -0.4449  0.2385
 2699SOL    HW119733   4.119   3.412   5.467 -0.7860  1.3642  0.6277
 2699SOL    HW219734   4.256   3.427   5.528 -1.1131 -0.1496  1.4824
 2700SOL     OW19735   2.548   1.248   1.987 -0.2025 -0.4465  0.2403
 2700SOL    HW119736   2.526   1.309   2.058  0.1094  2.0930 -1.8537
 2700SOL    HW219737   2.477   1.269   1.926 -0.1727  1.3983  0.8396
 2701SOL     OW19738   0.705   3.638   5.035 -0.6629  0.6847  0.2430
 2701SOL    HW119739   0.724   3.629   5.129 -0.5115 -0.2345  0.1221
 2701SOL    HW219740   0.628   3.582   5.021 -1.2431  1.6404 -0.3982
 2702SOL     OW19741   1.987   0.291   2.625  0.0309  0.3056  0.0305
 2702SOL    HW119742   2.045   0.231   2.672 -2.1404 -0.5176  1.6369
 2702SOL    HW219743   2.036   0.306   2.544 -0.7392  1.5596 -0.2087
 2703SOL     OW19744   0.389   0.660  17.249 -0.1474  0.1477 -0.0231
 2703SOL    HW119745   0.294   0.671  17.245  0.0236  1.4361 -0.5095
 2703SOL    HW219746   0.414   0.751  17.266  0.8909 -0.1130 -0.1083
 2704SOL     OW19747   1.071   2.662   7.410  0.2669  0.2462 -0.2121
 2704SOL    HW119748   1.096   2.582   7.364 -0.5440 -0.4777  0.6138
 2704SOL    HW219749   1.067   2.633   7.501  3.1730  0.1592 -0.1189
 2705SOL     OW19750   2.242   0.025  12.992 -0.8063  0.4198 -0.1470
 2705SOL    HW119751   2.211   0.040  12.902 -1.4634  1.0254  0.1746
 2705SOL    HW219752   2.186   4.694  13.023 -0.4835 -1.1342 -3.1404
 2706SOL     OW19753   0.943   4.658  17.050 -0.1186  0.1530  0.5827
 2706SOL    HW119754   0.875   4.678  16.986  1.4556 -1.6659 -1.6689
 2706SOL    HW219755   0.964   4.569  17.022 -0.8752  0.0942  0.2073
 2707SOL     OW19756   1.213   2.761   2.257 -0.4287  0.3804 -0.0983
 2707SOL    HW119757   1.192   2.841   2.209 -2.3117 -0.1922 -0.2213
 2707SOL    HW219758   1.303   2.769   2.288  0.2291  0.4535 -2.0589
 2708SOL     OW19759   3.926   0.704   4.136 -0.3218 -0.4441 -0.0452
 2708SOL    HW119760   3.895   0.785   4.177 -1.6569 -1.1787  0.4098
 2708SOL    HW219761   4.007   0.738   4.098 -0.9422 -0.8299 -1.7098
 2709SOL     OW19762   4.236   1.702   7.490 -0.0950  0.0894  0.2784
 2709SOL    HW119763   4.249   1.790   7.524  0.1221  0.6002 -1.1171
 2709SOL    HW219764   4.146   1.693   7.522 -0.5580  1.1502 -0.7153
 2710SOL     OW19765   2.986   1.605   7.696 -0.3637  0.1331 -0.1441
 2710SOL    HW119766   2.907   1.559   7.724 -0.7770  1.4469  0.8793
 2710SOL    HW219767   3.025   1.545   7.633  3.8127  2.8072 -0.1509
 2711SOL     OW19768   3.827   1.430   8.619 -0.0483 -0.1229  0.0617
 2711SOL    HW119769   3.768   1.468   8.683 -2.3081 -0.0981 -2.0339
 2711SOL    HW219770   3.874   1.362   8.667  0.4481  1.2511  1.5359
 2712SOL     OW19771   1.840   4.534  12.446  0.2204 -0.2045  0.3568
 2712SOL    HW119772   1.811   4.543  12.355 -0.3013 -1.7230  0.3788
 2712SOL    HW219773   1.893   4.455  12.449  0.0308 -0.3565 -0.3007
 2713SOL     OW19774   0.417   2.029   4.583  0.3899  0.0635  0.3079
 2713SOL    HW119775   0.415   1.935   4.568  0.5575  0.0503  0.3685
 2713SOL    HW219776   0.512   2.037   4.577  0.3207  0.9588  0.4203
 2714SOL     OW19777   1.726   3.898  13.181  0.3097  0.6485 -0.5261
 2714SOL    HW119778   1.659   3.957  13.146  1.1431  1.2242 -1.1388
 2714SOL    HW219779   1.806   3.946  13.159  1.7432 -0.9519  1.1910
 2715SOL     OW19780   1.572   2.594  16.081  1.0827 -0.2825 -0.0122
 2715SOL    HW119781   1.607   2.570  16.166  0.2978 -0.1933  0.3433
 2715SOL    HW219782   1.608   2.523  16.028  2.8712  1.7487 -1.4931
 2716SOL     OW19783   0.811   0.809   2.519  0.5728  0.1004  0.6231
 2716SOL    HW119784   0.808   0.895   2.560 -1.7256 -0.6907  2.1307
 2716SOL    HW219785   0.800   0.842   2.430 -1.0743 -0.8033  0.4810
 2717SOL     OW19786   1.023   1.841   8.478 -0.6603 -0.2477 -0.4865
 2717SOL    HW119787   1.004   1.827   8.385 -1.5152 -2.8689  0.0889
 2717SOL    HW219788   0.955   1.908   8.488  2.3032  2.4187  1.9613
 2718SOL     OW19789   4.012   3.240   1.777  0.3242 -0.0431  0.5705
 2718SOL    HW119790   3.992   3.149   1.753  2.1607 -0.0937 -0.8028
 2718SOL    HW219791   3.955   3.293   1.723  2.0184 -0.6163 -1.7788
 2719SOL     OW19792   2.935   0.719   7.195  0.0064 -0.2157  0.0020
 2719SOL    HW119793   2.910   0.688   7.108 -0.0382 -0.5683  0.1424
 2719SOL    HW219794   2.993   0.791   7.170 -0.8702 -0.3661 -2.5115
 2720SOL     OW19795   0.614   0.063   8.103 -0.3036  0.4084 -0.3885
 2720SOL    HW119796   0.681   0.091   8.041  0.8314  2.0752  1.5742
 2720SOL    HW219797   0.623   4.708   8.097  0.2590  0.3736  0.8763
 2721SOL     OW19798   2.420   0.669   1.689 -0.1078 -0.1782  0.2474
 2721SOL    HW119799   2.496   0.727   1.677 -0.1051  0.5581  3.7692
 2721SOL    HW219800   2.447   0.616   1.764 -1.7384  0.9039  1.6012
 2722SOL     OW19801   1.588   3.639   4.420 -0.1905  0.4021 -0.2576
 2722SOL    HW119802   1.521   3.632   4.351  0.8595  0.7865 -1.3089
 2722SOL    HW219803   1.635   3.711   4.379  0.0473  1.2095  1.4322
 2723SOL     OW19804   3.980   2.860   5.465 -0.6808  0.0743 -0.5386
 2723SOL    HW119805   3.933   2.939   5.488 -1.7746 -0.9794  0.8052
 2723SOL    HW219806   3.975   2.849   5.370  3.0253 -0.3710 -0.7156
 2724SOL     OW19807   0.098   2.760  17.394 -0.0923  0.3670 -0.2424
 2724SOL    HW119808   0.166   2.714  17.443  0.0727  2.0851  1.1798
 2724SOL    HW219809   0.071   2.685  17.342 -0.7712 -0.5399  1.4257
 2725SOL     OW19810   2.863   2.252   6.095  0.4048 -0.6366 -0.3293
 2725SOL    HW119811   2.769   2.258   6.116  0.1074  1.7332 -2.4330
 2725SOL    HW219812   2.876   2.306   6.018 -1.8510  0.4417  0.0473
 2726SOL     OW19813   0.915   0.530   7.055 -0.4187 -0.3775  0.1288
 2726SOL    HW119814   0.826   0.501   7.071 -0.4864 -0.0817  0.2840
 2726SOL    HW219815   0.960   0.499   7.133  0.0036  0.6471  0.3024
 2727SOL     OW19816   3.671   0.772   1.603 -0.3308  0.1201  0.7648
 2727SOL    HW119817   3.764   0.754   1.587  0.2121  0.0419  4.0387
 2727SOL    HW219818   3.673   0.854   1.652 -0.6627 -0.2520  1.4023
 2728SOL     OW19819   3.399   0.408   0.834 -0.1043  0.1514 -0.1037
 2728SOL    HW119820   3.371   0.488   0.789  1.6008  0.3955 -0.7502
 2728SOL    HW219821   3.332   0.389   0.900  1.1071  1.5355  1.5359
 2729SOL     OW19822   0.279   1.721   7.789 -0.0826  0.4070 -0.2687
 2729SOL    HW119823   0.258   1.772   7.711  1.7285 -1.2718 -1.8573
 2729SOL    HW219824   0.189   1.699   7.814  0.3126 -1.8232 -0.8265
 2730SOL     OW19825   2.048   0.217  13.067 -0.2947  0.5461  0.4955
 2730SOL    HW119826   2.111   0.165  13.118 -0.5036 -1.5808 -1.3955
 2730SOL    HW219827   2.059   0.164  12.988 -0.2250  1.4724 -0.1278
 2731SOL     OW19828   0.491   4.619   9.863 -0.2376 -0.0695 -0.0065
 2731SOL    HW119829   0.519   4.531   9.888 -1.4727 -0.5683 -0.3605
 2731SOL    HW219830   0.491   4.670   9.944  0.1073  1.7531 -1.1579
 2732SOL     OW19831   1.197   4.660   6.442 -0.2366 -0.1926  0.1173
 2732SOL    HW119832   1.105   4.676   6.461 -0.3375 -1.7120  0.8977
 2732SOL    HW219833   1.197   4.689   6.351 -0.3948 -0.6030 -0.0123
 2733SOL     OW19834   1.868   0.058  15.691  0.2440 -0.1213 -0.3976
 2733SOL    HW119835   1.818   4.718  15.672  0.5528 -0.2632 -0.6098
 2733SOL    HW219836   1.801   0.127  15.692  0.0273 -0.2660 -3.1474
 2734SOL     OW19837   0.798   0.812  13.827 -0.2076 -0.6422  0.5810
 2734SOL    HW119838   0.797   0.792  13.734 -1.4256 -0.7962  0.6233
 2734SOL    HW219839   0.703   0.811  13.842 -0.3354  0.7323 -0.1035
 2735SOL     OW19840   0.216   1.661   0.503  0.1469  0.7197 -0.2791
 2735SOL    HW119841   0.150   1.720   0.539 -0.5049  0.7450 -1.5226
 2735SOL    HW219842   0.225   1.694   0.414 -0.7150  0.4207 -0.4772
 2736SOL     OW19843   4.683   2.888  16.260  0.4564  0.3561  0.1862
 2736SOL    HW119844   4.709   2.814  16.315  0.2323  0.2037  0.0891
 2736SOL    HW219845   0.023   2.910  16.212 -0.2799 -1.7057 -2.0448
 2737SOL     OW19846   3.988   2.082  13.470  0.1746  0.3925 -1.0002
 2737SOL    HW119847   4.013   2.007  13.415  0.6272  1.2162 -1.9044
 2737SOL    HW219848   3.903   2.108  13.433  0.4817  2.8976  0.0917
 2738SOL     OW19849   2.669   2.711  11.252  0.0964 -0.3346 -0.7330
 2738SOL    HW119850   2.754   2.689  11.288  0.3967 -0.3492 -1.4695
 2738SOL    HW219851   2.625   2.710  11.338 -0.4655 -2.4890 -1.0402
 2739SOL     OW19852   3.349   3.372  11.485  0.5982  0.1301 -0.1385
 2739SOL    HW119853   3.384   3.283  11.490  1.6225  0.4876 -0.9820
 2739SOL    HW219854   3.341   3.391  11.578 -0.5194  1.8772 -0.5896
 2740SOL     OW19855   1.626   1.529   5.363  0.2855  0.3520 -0.3759
 2740SOL    HW119856   1.633   1.616   5.403 -0.9400  0.0085  0.5556
 2740SOL    HW219857   1.660   1.546   5.275 -0.5295 -1.9667 -1.1263
 2741SOL     OW19858   3.424   4.319   4.630  0.5478  0.2070  0.0152
 2741SOL    HW119859   3.393   4.229   4.632  1.7468 -0.2159  0.1001
 2741SOL    HW219860   3.346   4.356   4.589  0.5205  0.9857  0.7598
 2742SOL     OW19861   2.780   3.388  16.923  0.2681 -0.0604  0.8183
 2742SOL    HW119862   2.771   3.482  16.939  1.4709  0.0615  0.8334
 2742SOL    HW219863   2.783   3.341  17.006  1.9336 -0.8093  0.3382
 2743SOL     OW19864   0.999   1.819   3.936 -0.3162  0.2549  0.7877
 2743SOL    HW119865   0.959   1.885   3.992  1.1060  1.4828  0.3598
 2743SOL    HW219866   1.027   1.757   4.003 -3.3616 -2.0496 -0.0878
 2744SOL     OW19867   2.100   1.329   5.566  0.0713  0.5674 -0.2367
 2744SOL    HW119868   2.098   1.281   5.484 -1.0070 -0.9902  0.7104
 2744SOL    HW219869   2.158   1.270   5.614 -0.5597  0.0040 -0.1725
 2745SOL     OW19870   4.136   4.442   6.217 -0.4795 -0.4127  0.3330
 2745SOL    HW119871   4.057   4.404   6.255 -3.2526  1.3280 -3.7146
 2745SOL    HW219872   4.194   4.445   6.293 -3.1291  0.9914  2.3371
 2746SOL     OW19873   2.108   4.428   2.778  0.0264 -0.4554 -0.3787
 2746SOL    HW119874   2.202   4.408   2.772  0.3625  1.0382 -0.2846
 2746SOL    HW219875   2.102   4.509   2.727  2.3592  0.3382  0.5988
 2747SOL     OW19876   3.557   1.137   7.600 -0.0067 -0.4464 -0.0913
 2747SOL    HW119877   3.590   1.157   7.688  1.2817 -1.4248 -0.3448
 2747SOL    HW219878   3.468   1.172   7.602  0.1972  0.0583  0.1225
 2748SOL     OW19879   2.012   2.962  14.050  0.4934  0.4262 -0.0145
 2748SOL    HW119880   2.057   2.969  13.966  3.5431 -0.8222  1.5124
 2748SOL    HW219881   2.077   2.937  14.115  0.8380 -0.7951 -0.8334
 2749SOL     OW19882   3.898   0.897   3.810 -0.0951 -0.6421  0.6383
 2749SOL    HW119883   3.941   0.966   3.761 -1.2530 -0.1128  0.3767
 2749SOL    HW219884   3.821   0.947   3.838  0.0992 -0.0234  0.0546
 2750SOL     OW19885   2.112   1.138   8.320  0.3509 -0.1750 -0.0960
 2750SOL    HW119886   2.124   1.231   8.305  2.4243 -0.6679 -1.6136
 2750SOL    HW219887   2.194   1.102   8.285  0.5251  0.6963 -0.5831
 2751SOL     OW19888   1.711   2.637   6.188 -0.0263  0.4473  0.6133
 2751SOL    HW119889   1.765   2.561   6.165  0.7789  0.7564  1.4804
 2751SOL    HW219890   1.730   2.702   6.120 -1.7362  0.8000  0.4803
 2752SOL     OW19891   2.224   4.708   3.627  0.2057 -0.1923 -0.3693
 2752SOL    HW119892   2.307   0.014   3.641  0.6563 -0.9286 -0.5574
 2752SOL    HW219893   2.224   4.666   3.713  0.7339  1.7651  0.5643
 2753SOL     OW19894   1.534   4.422   8.528  0.1967 -0.0895 -0.0713
 2753SOL    HW119895   1.519   4.401   8.620 -1.3925 -0.7712 -0.4894
 2753SOL    HW219896   1.624   4.455   8.527  0.7886 -1.5652  3.7736
 2754SOL     OW19897   4.045   0.056   9.891 -0.3811  0.2094  0.2564
 2754SOL    HW119898   4.002   4.711   9.905  0.4966 -1.0825 -4.7729
 2754SOL    HW219899   4.097   0.032   9.814 -0.2467  0.6602  0.2062
 2755SOL     OW19900   1.406   1.688   3.353 -0.6339 -0.3955 -0.5330
 2755SOL    HW119901   1.471   1.620   3.336 -1.1548 -1.1720  0.5132
 2755SOL    HW219902   1.348   1.645   3.417 -1.7542  2.9814  0.7015
 2756SOL     OW19903   2.035   0.971   2.494  0.1673 -0.1766  0.1140
 2756SOL    HW119904   2.057   1.020   2.574 -0.5058  1.1162 -0.4930
 2756SOL    HW219905   2.122   0.949   2.461  0.3916  0.1129  0.5074
 2757SOL     OW19906   0.906   1.701   2.920  0.6390  0.3362  0.2965
 2757SOL    HW119907   0.964   1.727   2.849  2.5645 -0.0138  1.7500
 2757SOL    HW219908   0.929   1.608   2.927  1.2367  0.3752 -1.1398
 2758SOL     OW19909   1.700   1.882   3.997  0.6103  0.2032  0.1893
 2758SOL    HW119910   1.646   1.955   3.968  1.5185  1.1774  0.9299
 2758SOL    HW219911   1.678   1.818   3.929 -0.4142  1.1396 -0.3554
 2759SOL     OW19912   2.559   4.505  16.540 -0.5829 -0.1060 -0.1064
 2759SOL    HW119913   2.610   4.506  16.460 -0.2769 -0.0007  0.0890
 2759SOL    HW219914   2.518   4.419  16.533  0.6252 -0.7186  0.2237
 2760SOL     OW19915   4.477   4.574  11.786  0.2209  0.2067 -0.1047
 2760SOL    HW119916   4.464   4.554  11.879  0.6529 -0.2749 -0.1475
 2760SOL    HW219917   4.403   4.632  11.770 -1.2791 -2.3249 -2.3284
 2761SOL     OW19918   2.843   2.359   8.568 -0.5389  0.0240 -0.4777
 2761SOL    HW119919   2.905   2.363   8.640 -0.2361  1.0943 -0.7857
 2761SOL    HW219920   2.904   2.382   8.498 -0.5126  0.0318 -0.4521
 2762SOL     OW19921   2.302   2.457  17.302 -0.0439  0.0076  0.3302
 2762SOL    HW119922   2.350   2.539  17.306  1.6316 -1.0778  2.0692
 2762SOL    HW219923   2.211   2.476  17.276  0.0280  0.8555  0.7084
 2763SOL     OW19924   0.398   1.166   2.635 -0.2022  0.0727 -0.3877
 2763SOL    HW119925   0.425   1.075   2.623 -1.5139 -0.2379 -0.8807
 2763SOL    HW219926   0.452   1.201   2.564 -0.5619 -0.3570 -0.8730
 2764SOL     OW19927   0.965   0.429  13.798  0.0556 -0.9394 -1.4429
 2764SOL    HW119928   0.947   0.337  13.782  0.3064 -1.1499 -0.4813
 2764SOL    HW219929   0.874   0.453  13.776  0.7458  1.7851 -1.3870
 2765SOL     OW19930   3.258   4.702   2.169 -0.2830 -0.2243  0.4080
 2765SOL    HW119931   3.191   0.030   2.179 -1.1389 -1.2172  1.3710
 2765SOL    HW219932   3.218   4.622   2.201 -0.0223 -0.5498 -0.0809
 2766SOL     OW19933   0.317   2.402   2.716  0.1281  0.2110  0.0772
 2766SOL    HW119934   0.322   2.323   2.771  0.8271  0.0925 -0.1574
 2766SOL    HW219935   0.267   2.370   2.640  2.7181 -1.1454 -1.0749
 2767SOL     OW19936   0.148   4.346   9.279  0.1684  0.1476  0.4097
 2767SOL    HW119937   0.180   4.390   9.201 -2.3868 -0.6398 -1.0851
 2767SOL    HW219938   0.188   4.260   9.267 -0.5381 -0.3152  1.3620
 2768SOL     OW19939   2.047   3.260   7.092 -0.1130 -0.0892  0.2687
 2768SOL    HW119940   1.961   3.286   7.124  0.5976  0.3966  1.7991
 2768SOL    HW219941   2.097   3.322   7.144  0.4136 -1.1860  1.0604
 2769SOL     OW19942   2.292   0.588   5.080  0.6655 -0.3175 -0.2655
 2769SOL    HW119943   2.218   0.537   5.114  0.9533  0.3793  1.4118
 2769SOL    HW219944   2.344   0.618   5.155  0.1562  3.2049 -1.3233
 2770SOL     OW19945   1.882   1.902  12.241  0.6067 -0.1905  0.3802
 2770SOL    HW119946   1.929   1.892  12.159  2.0341  1.3332  1.0016
 2770SOL    HW219947   1.923   1.831  12.291  1.4225 -0.8023 -1.1688
 2771SOL     OW19948   4.717   1.756   0.564  0.1169 -0.3769 -0.0345
 2771SOL    HW119949   4.660   1.737   0.490  0.1975 -0.4931 -0.0654
 2771SOL    HW219950   4.648   1.769   0.629  2.0003  0.0043  1.9001
 2772SOL     OW19951   3.795   0.039   6.341 -0.0038  0.0090 -0.0262
 2772SOL    HW119952   3.883   0.073   6.360 -0.0631  1.6339 -2.6652
 2772SOL    HW219953   3.750   0.123   6.347  0.7383  0.3760  0.4744
 2773SOL     OW19954   4.417   2.567  16.669  0.2795 -0.1150  0.5192
 2773SOL    HW119955   4.401   2.650  16.624  1.7138 -0.3575 -0.4137
 2773SOL    HW219956   4.443   2.603  16.754  0.6753  3.3666 -1.0722
 2774SOL     OW19957   3.402   0.614   8.941 -0.0990 -0.0245  0.0048
 2774SOL    HW119958   3.388   0.552   9.013 -0.8553  0.5982  0.3961
 2774SOL    HW219959   3.394   0.698   8.986  1.6286  1.6601 -2.8313
 2775SOL     OW19960   4.379   2.051   6.396 -0.3652  0.5104 -0.4253
 2775SOL    HW119961   4.371   1.977   6.457 -0.2471  0.8667  0.0207
 2775SOL    HW219962   4.434   2.020   6.324  2.5731 -0.7538  2.3386
 2776SOL     OW19963   4.041   1.470  15.361 -0.2227 -0.1913  0.2456
 2776SOL    HW119964   3.997   1.391  15.391 -4.9705  1.5089 -2.2371
 2776SOL    HW219965   4.080   1.504  15.442  0.0170 -1.0708  0.4993
 2777SOL     OW19966   1.911   0.567   1.301  0.1384  0.6625 -0.4082
 2777SOL    HW119967   1.945   0.626   1.233 -0.0214  1.8967  0.5813
 2777SOL    HW219968   1.825   0.608   1.311 -0.0224  0.2237  0.0036
 2778SOL     OW19969   0.835   1.873   6.252  0.1810 -0.2027  0.4232
 2778SOL    HW119970   0.901   1.810   6.222  1.1058  0.2369  1.5175
 2778SOL    HW219971   0.797   1.909   6.173  0.6327  0.8263  0.6754
 2779SOL     OW19972   2.791   4.337   5.055 -0.5445  0.0397  0.2081
 2779SOL    HW119973   2.797   4.433   5.057 -0.6743  0.0270  1.0522
 2779SOL    HW219974   2.859   4.316   4.990  0.0935  0.8626  0.6083
 2780SOL     OW19975   3.474   3.055   3.845 -0.8049 -0.4383  0.0186
 2780SOL    HW119976   3.569   3.042   3.837 -0.6418  0.9093 -0.2708
 2780SOL    HW219977   3.441   2.966   3.856 -1.2417 -0.1199  1.2575
 2781SOL     OW19978   2.265   4.617   8.393 -0.3600  0.2394 -0.5350
 2781SOL    HW119979   2.263   4.562   8.471  0.0552 -2.7782 -2.6318
 2781SOL    HW219980   2.245   4.702   8.431 -2.2315 -0.8008  0.8342
 2782SOL     OW19981   3.942   0.111   5.169 -0.5536 -0.2296 -0.0045
 2782SOL    HW119982   3.917   0.040   5.228  1.8559 -0.4813  0.7299
 2782SOL    HW219983   3.989   0.065   5.100 -0.8442  2.4597 -2.0030
 2783SOL     OW19984   4.735   3.165   4.089 -0.1728 -0.5881 -0.3846
 2783SOL    HW119985   4.720   3.112   4.168 -1.1310  0.5712  0.2091
 2783SOL    HW219986   0.066   3.225   4.111 -0.7159 -0.0658 -0.0779
 2784SOL     OW19987   2.216   4.698   7.658  0.2822  0.2900 -0.4086
 2784SOL    HW119988   2.310   4.715   7.666  0.0495  1.9470 -1.1023
 2784SOL    HW219989   2.194   4.670   7.747  1.5770  1.0704  0.1574
 2785SOL     OW19990   2.067   4.603  15.347  0.2867 -0.3677 -0.0010
 2785SOL    HW119991   2.101   4.529  15.398 -0.3602 -0.6809 -0.0329
 2785SOL    HW219992   2.096   4.570  15.262  1.3843  1.5259 -0.3823
 2786SOL     OW19993   0.123   2.172  10.271  0.1050  1.1562  0.0638
 2786SOL    HW119994   0.198   2.127  10.233  1.6544  3.1473  0.7616
 2786SOL    HW219995   0.066   2.099  10.296  1.3278  0.5795  1.1765
 2787SOL     OW19996   4.041   2.357   2.218 -0.0588  0.2535 -0.4476
 2787SOL    HW119997   4.052   2.346   2.312  1.9584 -0.7731 -0.8061
 2787SOL    HW219998   4.122   2.402   2.197 -0.3792  0.6780 -0.7801
 2788SOL     OW19999   2.665   2.674  15.086 -0.8056 -0.7885  0.3045
 2788SOL    HW120000   2.659   2.732  15.161  0.3730 -0.6395  0.2838
 2788SOL    HW220001   2.581   2.689  15.043 -0.7776  0.6982  0.7708
 2789SOL     OW20002   0.571   2.411  15.547  0.1650  0.2364 -0.3172
 2789SOL    HW120003   0.559   2.428  15.640 -0.0685  1.0067 -0.4857
 2789SOL    HW220004   0.520   2.484  15.509  1.1601  1.0168 -0.1539
 2790SOL     OW20005   2.896   3.671   5.338  0.2803  0.1371  0.1348
 2790SOL    HW120006   2.817   3.693   5.288 -0.1071  0.0517  0.7016
 2790SOL    HW220007   2.892   3.743   5.402 -0.9068 -0.8412  1.1525
 2791SOL     OW20008   0.354   0.793   3.526 -0.1714 -0.0238 -0.0925
 2791SOL    HW120009   0.396   0.795   3.440  2.9100  0.6066  1.4444
 2791SOL    HW220010   0.422   0.753   3.579 -1.7046  3.0699  4.2116
 2792SOL     OW20011   0.173   2.940  15.552  0.5463 -0.5380  0.2658
 2792SOL    HW120012   0.102   2.885  15.519  0.5755 -1.4174  1.7110
 2792SOL    HW220013   0.153   2.943  15.645  1.1510  0.2043  0.3729
 2793SOL     OW20014   0.531   1.270  13.640 -0.1949 -0.4551  0.4095
 2793SOL    HW120015   0.439   1.291  13.656 -0.3779 -0.1791 -0.9950
 2793SOL    HW220016   0.548   1.178  13.659  0.7547 -0.2944  0.3481
 2794SOL     OW20017   0.094   1.805  17.746  0.1613 -0.0411 -0.2153
 2794SOL    HW120018   0.105   1.895   0.019 -3.6944 -0.4516  2.3140
 2794SOL    HW220019   0.099   1.819  17.651  2.9111  0.2202 -0.0373
 2795SOL     OW20020   3.409   2.697   8.330 -0.0839 -0.9328 -0.1717
 2795SOL    HW120021   3.412   2.773   8.272 -1.6244  1.2737  2.6467
 2795SOL    HW220022   3.502   2.675   8.339  0.3481  1.1170  0.4683
 2796SOL     OW20023   2.374   3.794   2.621 -0.3555  0.0867  0.1981
 2796SOL    HW120024   2.468   3.778   2.630 -0.2673  0.4247 -0.1392
 2796SOL    HW220025   2.352   3.785   2.714  0.2991 -1.7686  0.1712
 2797SOL     OW20026   0.774   4.452  12.009  0.9022  0.1533 -0.0048
 2797SOL    HW120027   0.788   4.361  12.034 -1.3783 -1.2420 -3.9847
 2797SOL    HW220028   0.679   4.448  12.004  1.1049 -0.8530 -2.5968
 2798SOL     OW20029   3.910   2.025  10.965  0.0153 -0.3244 -0.2935
 2798SOL    HW120030   3.971   2.035  11.038  1.0019  1.6464 -1.3849
 2798SOL    HW220031   3.920   1.931  10.948 -0.0114 -0.5367  0.8924
 2799SOL     OW20032   1.247   4.589   5.299 -0.7241 -0.0748  0.1486
 2799SOL    HW120033   1.274   4.501   5.275  1.2944 -0.5313  4.1471
 2799SOL    HW220034   1.329   4.638   5.296 -2.1641  2.1944 -2.9504
 2800SOL     OW20035   3.853   3.046   6.796 -0.3817 -0.3218  0.2459
 2800SOL    HW120036   3.846   3.080   6.706  1.5373 -0.9696 -0.1412
 2800SOL    HW220037   3.902   3.116   6.838  0.1822 -0.9530  0.6278
 2801SOL     OW20038   1.162   1.197   4.569 -0.2454 -0.3605 -0.1049
 2801SOL    HW120039   1.200   1.221   4.485  1.9975 -0.7807  0.7916
 2801SOL    HW220040   1.150   1.103   4.558 -0.9696 -0.1953 -0.6924
 2802SOL     OW20041   4.675   2.964   6.397 -0.1751 -0.1319  0.0976
 2802SOL    HW120042   4.628   3.010   6.328 -0.9215  1.6097  1.7755
 2802SOL    HW220043   4.727   3.039   6.426  0.2984 -0.6674  0.6340
 2803SOL     OW20044   4.283   0.607  15.130  0.2609 -0.0084 -0.1167
 2803SOL    HW120045   4.223   0.564  15.190 -0.5726  2.8011  1.0631
 2803SOL    HW220046   4.227   0.617  15.053 -1.2443 -2.6925  0.6437
 2804SOL     OW20047   2.200   3.551   5.420  0.1066  0.2038  0.1124
 2804SOL    HW120048   2.273   3.524   5.363 -1.2948 -0.8981 -1.1557
 2804SOL    HW220049   2.122   3.521   5.373  1.1694 -1.2488 -0.7406
 2805SOL     OW20050   3.657   3.829   4.387 -0.3340  0.5454  0.2017
 2805SOL    HW120051   3.625   3.790   4.306 -0.8501  1.5386 -0.0695
 2805SOL    HW220052   3.729   3.881   4.352 -0.1164  0.9648  1.2500
 2806SOL     OW20053   1.553   1.218   0.571  0.4465  0.0314  0.3721
 2806SOL    HW120054   1.615   1.159   0.614  0.3450  2.7225  4.2078
 2806SOL    HW220055   1.542   1.172   0.487  0.3383 -1.2010  1.0537
 2807SOL     OW20056   4.161   2.578   6.645 -0.4571  0.2662  0.1414
 2807SOL    HW120057   4.154   2.518   6.570 -3.8613  0.3095  0.4260
 2807SOL    HW220058   4.127   2.660   6.611 -1.2936 -0.1447 -0.0123
 2808SOL     OW20059   0.940   2.761   9.284 -0.7266 -0.6420 -0.1562
 2808SOL    HW120060   0.960   2.786   9.194 -0.3433 -0.1568  0.0642
 2808SOL    HW220061   0.848   2.736   9.274 -0.3196 -2.7702  1.2396
 2809SOL     OW20062   0.606   0.086   8.867  0.1115  0.1364 -0.4492
 2809SOL    HW120063   0.640   0.166   8.827 -2.3913  0.9402 -0.9674
 2809SOL    HW220064   0.624   0.027   8.794  0.2811 -0.7702  0.3375
 2810SOL     OW20065   4.013   0.584  13.621 -0.5598 -0.1800 -0.2582
 2810SOL    HW120066   4.068   0.598  13.543  0.7037  0.1917  0.7060
 2810SOL    HW220067   3.934   0.555  13.575 -0.4058 -0.0410 -0.6113
 2811SOL     OW20068   4.562   1.935   0.864  0.0833  0.7818  0.3310
 2811SOL    HW120069   4.540   1.846   0.891  3.0139  0.4795  1.7512
 2811SOL    HW220070   4.636   1.958   0.920  0.4154  0.9046 -0.1629
 2812SOL     OW20071   2.760   1.959  15.127  0.5156 -0.0377 -0.1197
 2812SOL    HW120072   2.789   1.875  15.161 -0.0348  0.1640  0.8531
 2812SOL    HW220073   2.800   1.956  15.040  2.0773 -1.1170  0.6322
 2813SOL     OW20074   2.996   1.075   4.773 -0.1130 -0.3925  0.0900
 2813SOL    HW120075   3.047   1.112   4.700 -1.1298 -3.3840 -2.1212
 2813SOL    HW220076   2.992   0.984   4.746  1.3965 -0.7781  1.1704
 2814SOL     OW20077   2.512   3.622  11.284  0.2346  0.7890 -0.1206
 2814SOL    HW120078   2.512   3.677  11.362  2.0115 -1.3617  1.3715
 2814SOL    HW220079   2.527   3.535  11.320  0.5520  0.2419 -1.5838
 2815SOL     OW20080   0.803   2.434   8.718  0.0732  0.0629 -0.1552
 2815SOL    HW120081   0.877   2.373   8.720  1.6097  1.9574  1.3144
 2815SOL    HW220082   0.740   2.380   8.766 -0.1348  0.7072  0.3031
 2816SOL     OW20083   0.444   1.398   5.248  0.8705 -0.6954  0.0427
 2816SOL    HW120084   0.351   1.419   5.237  0.9065 -1.1957 -1.2145
 2816SOL    HW220085   0.475   1.440   5.329  0.8122 -0.3243 -0.1291
 2817SOL     OW20086   1.480   3.425  13.789 -0.7980  0.6629  0.0743
 2817SOL    HW120087   1.485   3.349  13.846  1.8354  1.2469  0.5892
 2817SOL    HW220088   1.573   3.444  13.774 -0.2908  0.2166  2.8015
 2818SOL     OW20089   4.023   4.667   3.053  0.3300  0.3095 -0.2051
 2818SOL    HW120090   4.000   4.654   2.961  0.9820 -0.1496 -0.3009
 2818SOL    HW220091   4.009   4.577   3.083  0.6281  0.0593 -0.8151
 2819SOL     OW20092   0.494   3.246   4.373  0.5456  0.2328 -0.9330
 2819SOL    HW120093   0.441   3.262   4.294  0.8233 -1.9330 -1.5507
 2819SOL    HW220094   0.523   3.160   4.344  0.5562  0.1077 -0.5472
 2820SOL     OW20095   4.235   2.767  12.753 -0.2999  0.6856 -0.4951
 2820SOL    HW120096   4.256   2.859  12.740  0.9964  0.4292 -0.2563
 2820SOL    HW220097   4.226   2.780  12.847 -0.2480 -0.9795 -0.2573
 2821SOL     OW20098   0.319   1.328   6.936  1.4031  0.1797 -0.5120
 2821SOL    HW120099   0.370   1.342   6.857  1.7612 -0.2505 -0.3598
 2821SOL    HW220100   0.379   1.375   6.994  0.4504  2.8990 -1.7633
 2822SOL     OW20101   1.822   1.445   7.679  0.0940 -0.1333  0.1823
 2822SOL    HW120102   1.752   1.508   7.662 -0.1568 -0.0757  1.3884
 2822SOL    HW220103   1.792   1.369   7.629 -1.5303  0.1878  0.6815
 2823SOL     OW20104   4.390   2.658   1.463  0.2065  0.1252  0.2620
 2823SOL    HW120105   4.458   2.594   1.485 -2.6012 -3.2771 -0.7833
 2823SOL    HW220106   4.337   2.639   1.541 -1.0462  0.0491 -0.6195
 2824SOL     OW20107   0.944   2.972  16.769  0.0804  0.0275 -0.1337
 2824SOL    HW120108   1.009   2.978  16.839  0.6671 -0.0422 -0.6746
 2824SOL    HW220109   0.922   3.065  16.763  0.9263  0.3417  1.5239
 2825SOL     OW20110   0.139   3.927   2.828  0.0570  0.1813 -0.8065
 2825SOL    HW120111   0.220   3.903   2.873  0.1081  0.4739 -0.7402
 2825SOL    HW220112   0.118   4.009   2.873 -0.9782 -0.6393  0.2213
 2826SOL     OW20113   3.861   1.186   2.159 -0.3332  0.1090  0.1554
 2826SOL    HW120114   3.909   1.109   2.131 -1.0571 -0.3091  0.0715
 2826SOL    HW220115   3.930   1.251   2.144  0.0604  0.0860  1.8916
 2827SOL     OW20116   0.336   3.499  11.379  0.5397 -0.3463  0.2912
 2827SOL    HW120117   0.410   3.516  11.320 -0.0767 -1.1474 -0.7136
 2827SOL    HW220118   0.277   3.549  11.323  1.6555  0.2310 -0.3819
 2828SOL     OW20119   0.211   1.310   2.749 -0.1513 -0.0767 -0.2741
 2828SOL    HW120120   0.172   1.226   2.772 -2.7055  0.5765 -2.1490
 2828SOL    HW220121   0.276   1.262   2.698  1.2009  0.5771  0.8619
 2829SOL     OW20122   4.124   4.550   2.162 -0.3010 -0.4940  0.0773
 2829SOL    HW120123   4.060   4.515   2.100  0.3958  2.0629 -2.0564
 2829SOL    HW220124   4.077   4.539   2.245 -2.5587  1.0797 -0.9674
 2830SOL     OW20125   2.146   2.701   3.831  0.4189  0.2223 -0.3435
 2830SOL    HW120126   2.079   2.721   3.766 -0.2071 -0.1459  0.1867
 2830SOL    HW220127   2.092   2.687   3.908  0.2163  1.2856 -0.2895
 2831SOL     OW20128   0.609   0.322   3.159 -0.5462  0.5662  0.5871
 2831SOL    HW120129   0.704   0.328   3.150 -0.5299  0.0660  0.4159
 2831SOL    HW220130   0.580   0.309   3.068 -0.1740 -2.0772  0.8490
 2832SOL     OW20131   4.039   4.648   2.765 -0.2969  0.3726  0.3147
 2832SOL    HW120132   4.031   4.699   2.685  0.6857  0.4544  0.2687
 2832SOL    HW220133   4.017   4.559   2.735 -0.8314  0.5242  0.2430
 2833SOL     OW20134   0.363   4.342   3.400  0.1303 -0.3131  0.3564
 2833SOL    HW120135   0.337   4.272   3.340 -1.0327  1.7947 -1.5977
 2833SOL    HW220136   0.279   4.367   3.438  0.3333 -0.1153  0.6702
 2834SOL     OW20137   4.270   4.188  10.227  0.1987 -0.0065  0.1418
 2834SOL    HW120138   4.236   4.120  10.168 -0.8581 -0.1706  0.9399
 2834SOL    HW220139   4.202   4.255  10.219 -2.5381 -2.6521  1.4274
 2835SOL     OW20140   3.496   4.546   7.966 -0.1393  0.5081  0.3154
 2835SOL    HW120141   3.416   4.582   7.927 -0.6374  0.1437  0.9956
 2835SOL    HW220142   3.534   4.606   8.031 -0.4443  1.5218 -0.4525
 2836SOL     OW20143   2.334   4.086   2.405 -0.0303 -0.2871 -0.3487
 2836SOL    HW120144   2.415   4.135   2.392  0.0908 -0.8273 -1.6403
 2836SOL    HW220145   2.329   4.076   2.500  1.1348 -1.6477 -0.4465
 2837SOL     OW20146   3.556   1.476   2.510 -0.4582 -0.9563  0.2756
 2837SOL    HW120147   3.559   1.542   2.580  1.3663 -1.5765  0.7923
 2837SOL    HW220148   3.601   1.511   2.432 -2.2408 -2.2412 -1.3193
 2838SOL     OW20149   1.617   0.004   8.462 -0.4307 -0.1192 -0.5183
 2838SOL    HW120150   1.637   0.079   8.407 -1.2919  0.5852  0.1380
 2838SOL    HW220151   1.528   0.019   8.493 -0.3657 -1.0359  0.1053
 2839SOL     OW20152   1.174   4.537   5.561 -0.2385 -0.0154  0.2052
 2839SOL    HW120153   1.180   4.620   5.609 -0.7779  1.5470 -2.4138
 2839SOL    HW220154   1.213   4.566   5.478  1.8136 -1.4954  0.6671
 2840SOL     OW20155   2.359   3.533  16.837 -0.4507 -0.7683 -0.0919
 2840SOL    HW120156   2.419   3.529  16.762 -0.6054 -1.7060 -0.1664
 2840SOL    HW220157   2.412   3.480  16.897  0.3128  0.4366  0.2972
 2841SOL     OW20158   0.591   1.471  14.519  0.1336  0.1204  0.9408
 2841SOL    HW120159   0.497   1.456  14.512  0.3312  0.2051 -2.0113
 2841SOL    HW220160   0.626   1.386  14.544  0.5923  0.2711  0.8278
 2842SOL     OW20161   1.914   3.962   7.884  0.1511 -0.1749  0.5091
 2842SOL    HW120162   1.975   3.888   7.896  0.3289 -0.3121 -1.3167
 2842SOL    HW220163   1.960   4.028   7.936 -0.2574 -0.0067  0.6525
 2843SOL     OW20164   1.468   0.615   8.071 -0.1018 -0.3621  0.2202
 2843SOL    HW120165   1.512   0.611   8.156  0.2281 -0.6101  0.0384
 2843SOL    HW220166   1.506   0.553   8.009 -1.2156 -0.8572  0.0250
 2844SOL     OW20167   0.708   1.169   2.956  0.1538 -0.4501 -0.4492
 2844SOL    HW120168   0.646   1.177   3.029 -1.7149 -0.4694 -2.0651
 2844SOL    HW220169   0.695   1.079   2.928 -1.2031  0.0530 -1.4046
 2845SOL     OW20170   3.555   4.152   1.504  0.2499  0.0298 -0.3297
 2845SOL    HW120171   3.497   4.086   1.541  0.9033 -0.8228 -0.7936
 2845SOL    HW220172   3.584   4.105   1.425 -1.3263 -0.1436 -0.7967
 2846SOL     OW20173   3.235   0.594   0.738  0.1771 -0.4273 -0.4422
 2846SOL    HW120174   3.167   0.547   0.690 -1.1188  1.7963 -0.8239
 2846SOL    HW220175   3.179   0.670   0.755 -1.3894 -1.8216  0.6888
 2847SOL     OW20176   3.862   3.978   7.416  0.0566 -0.2124  0.0366
 2847SOL    HW120177   3.834   3.890   7.443 -0.7477 -0.1301 -0.5132
 2847SOL    HW220178   3.864   4.027   7.498  0.0186 -0.8361  0.4135
 2848SOL     OW20179   3.998   2.660  17.360 -0.1019 -0.2823  0.3375
 2848SOL    HW120180   3.910   2.631  17.335 -0.4379 -0.5141  1.8044
 2848SOL    HW220181   4.026   2.622  17.443  1.1015  2.2114  1.0548
 2849SOL     OW20182   3.152   2.653  13.885  0.0008  0.3324  0.0512
 2849SOL    HW120183   3.214   2.661  13.812  0.1774  1.9328  0.3713
 2849SOL    HW220184   3.184   2.575  13.931  2.5768 -0.0319 -2.3084
 2850SOL     OW20185   2.907   3.455   6.381  0.9076  0.1255 -0.1432
 2850SOL    HW120186   2.899   3.524   6.315  0.6573 -1.4250 -1.7387
 2850SOL    HW220187   2.960   3.499   6.447  1.3275 -2.4711  1.2186
 2851SOL     OW20188   3.309   1.574   7.758  0.5173  0.4184  0.1688
 2851SOL    HW120189   3.255   1.594   7.834  0.0262 -0.6254  0.0890
 2851SOL    HW220190   3.298   1.653   7.706 -2.1314  0.1800  0.3498
 2852SOL     OW20191   4.278   0.276   9.709  0.1708  0.3439 -0.3067
 2852SOL    HW120192   4.296   0.182   9.714  0.4289  0.3909 -0.3384
 2852SOL    HW220193   4.213   0.290   9.640  0.0816 -1.4515 -0.5788
 2853SOL     OW20194   0.773   2.130   3.519  0.0479 -0.1151  0.1951
 2853SOL    HW120195   0.771   2.034   3.516  2.1587 -0.2378  2.2217
 2853SOL    HW220196   0.724   2.150   3.439  0.5207 -0.2064 -0.1162
 2854SOL     OW20197   3.999   0.398   1.629 -0.1784 -0.6532  0.6762
 2854SOL    HW120198   3.974   0.338   1.559  1.8681 -2.0777  1.1449
 2854SOL    HW220199   4.087   0.367   1.650  0.7752  1.8896  0.4515
 2855SOL     OW20200   0.121   0.573   3.303 -0.0408 -0.0076  0.2901
 2855SOL    HW120201   0.184   0.507   3.274 -1.5354 -1.0907 -0.4971
 2855SOL    HW220202   0.120   0.630   3.226 -0.1847 -0.8441 -0.3140
 2856SOL     OW20203   0.644   2.336   7.475 -0.6168  0.7522 -0.4037
 2856SOL    HW120204   0.616   2.372   7.390 -1.3329  0.4955 -0.2756
 2856SOL    HW220205   0.676   2.417   7.513 -1.4893  0.7975  0.2231
 2857SOL     OW20206   2.692   4.390   7.032 -0.2134 -0.0296 -0.0713
 2857SOL    HW120207   2.721   4.402   6.941 -1.6088 -0.0099 -0.5067
 2857SOL    HW220208   2.613   4.443   7.037 -0.4095 -0.6430  3.3359
 2858SOL     OW20209   0.814   4.436   6.564  0.1155 -0.5733  0.2586
 2858SOL    HW120210   0.882   4.369   6.573 -1.0037 -1.6676  0.6168
 2858SOL    HW220211   0.863   4.496   6.509 -0.2783 -0.4121  0.0823
 2859SOL     OW20212   0.392   2.904   9.076 -0.2310 -0.0359  0.2722
 2859SOL    HW120213   0.477   2.901   9.033  0.5950 -0.2520  1.9438
 2859SOL    HW220214   0.330   2.902   9.002 -0.7279  4.4240  0.5801
 2860SOL     OW20215   4.293   1.762   6.191 -0.1135 -0.3455 -0.4321
 2860SOL    HW120216   4.348   1.689   6.164  1.0380  0.9385 -1.5087
 2860SOL    HW220217   4.302   1.824   6.119  1.0700  0.9611  0.8638
 2861SOL     OW20218   1.852   4.385   1.843  0.1443  0.1996  1.1364
 2861SOL    HW120219   1.867   4.467   1.796  1.0205 -0.7038 -0.1560
 2861SOL    HW220220   1.850   4.315   1.778 -3.0496  1.6958 -0.3435
 2862SOL     OW20221   3.575   4.226   8.501  0.1160  0.9674 -0.3604
 2862SOL    HW120222   3.668   4.248   8.500  0.4296 -0.4974 -3.2917
 2862SOL    HW220223   3.554   4.217   8.594 -0.3271 -1.2549 -0.6824
 2863SOL     OW20224   0.354   4.681   4.347 -0.5290  0.1546 -0.0068
 2863SOL    HW120225   0.442   4.643   4.340 -0.4205 -0.0153  2.4765
 2863SOL    HW220226   0.298   4.619   4.301 -1.9996 -0.3150  2.4252
 2864SOL     OW20227   4.706   3.182   0.662 -0.1747  0.2104 -0.3045
 2864SOL    HW120228   0.006   3.117   0.604  0.3870  0.2543  0.0411
 2864SOL    HW220229   4.730   3.144   0.746  0.0275  0.3907 -0.2819
 2865SOL     OW20230   0.331   3.954   7.095 -0.0560  0.0522  0.4229
 2865SOL    HW120231   0.296   3.869   7.068 -1.8218  1.1692 -0.7880
 2865SOL    HW220232   0.335   3.950   7.190  0.6079  0.2986  0.4072
 2866SOL     OW20233   2.295   1.973   9.220 -0.2190  0.3265 -0.0217
 2866SOL    HW120234   2.343   1.896   9.251  1.3840  1.8236  1.1851
 2866SOL    HW220235   2.339   2.041   9.270  3.2553 -0.6037 -1.7753
 2867SOL     OW20236   1.858   3.160   0.830 -0.2178 -0.1040 -0.1238
 2867SOL    HW120237   1.920   3.232   0.818 -0.8271  0.6607  1.2634
 2867SOL    HW220238   1.866   3.154   0.926 -0.3291 -0.8515 -0.1662
 2868SOL     OW20239   2.843   4.608   5.032  0.1797 -0.0790 -0.0423
 2868SOL    HW120240   2.930   4.640   5.055  0.4717 -1.3850  0.6756
 2868SOL    HW220241   2.794   4.610   5.114  0.4279  0.6127  0.0899
 2869SOL     OW20242   1.988   4.379  17.395 -0.0569 -0.2050 -0.2463
 2869SOL    HW120243   2.046   4.310  17.361  0.9875  0.1480  0.8162
 2869SOL    HW220244   2.000   4.440  17.321  1.9477  0.5355  0.6902
 2870SOL     OW20245   2.254   2.582  12.485 -0.3819 -0.0973 -0.3944
 2870SOL    HW120246   2.276   2.604  12.394 -0.7690 -1.0491 -0.7175
 2870SOL    HW220247   2.264   2.669  12.524  0.3817 -1.0829  1.5776
 2871SOL     OW20248   0.762   2.317   1.770  0.6964 -0.2951  0.1550
 2871SOL    HW120249   0.755   2.356   1.858  0.0281  0.0023 -0.0300
 2871SOL    HW220250   0.693   2.253   1.783  1.7238 -1.3540  0.3841
 2872SOL     OW20251   3.850   3.873  16.183 -0.3086  0.6285 -0.0717
 2872SOL    HW120252   3.822   3.964  16.185 -0.4466  0.5418  1.7056
 2872SOL    HW220253   3.891   3.871  16.096  1.8951  5.4323  0.8703
 2873SOL     OW20254   1.744   3.464  14.896 -0.1982 -0.0891 -0.1264
 2873SOL    HW120255   1.828   3.469  14.849 -0.1242  2.5618  0.2938
 2873SOL    HW220256   1.679   3.473  14.827  0.0541  1.5890 -0.1289
 2874SOL     OW20257   4.735   2.234  17.411 -0.1980 -0.5212  0.7441
 2874SOL    HW120258   4.706   2.193  17.492  0.8275 -0.6387  1.0482
 2874SOL    HW220259   0.062   2.296  17.437 -0.2249 -0.2433  0.1598
 2875SOL     OW20260   1.329   3.370   4.044 -0.2227 -0.3076 -0.3679
 2875SOL    HW120261   1.299   3.412   4.124 -2.4980  3.5519 -3.2674
 2875SOL    HW220262   1.421   3.397   4.034 -0.5375  1.1019  0.6188
 2876SOL     OW20263   4.650   2.703   6.272 -0.1475  0.1756 -0.0526
 2876SOL    HW120264   4.649   2.777   6.333  1.4167 -1.3562  1.8206
 2876SOL    HW220265   4.732   2.666   6.305  1.3777  1.5653 -2.3008
 2877SOL     OW20266   3.894   1.788   7.167 -0.0810  0.4810 -0.5578
 2877SOL    HW120267   3.847   1.726   7.111 -0.0688  1.2107 -1.3872
 2877SOL    HW220268   3.862   1.759   7.252 -1.8103 -1.2759 -1.8032
 2878SOL     OW20269   2.003   3.606   4.756  0.2696  0.0645 -0.7525
 2878SOL    HW120270   2.014   3.630   4.664  2.9749  0.2406 -0.3800
 2878SOL    HW220271   1.973   3.515   4.751 -0.5512  0.1850  1.9507
 2879SOL     OW20272   2.567   1.346  11.898 -0.2800 -0.7811  0.3971
 2879SOL    HW120273   2.519   1.390  11.968 -0.9721 -0.3681 -0.3234
 2879SOL    HW220274   2.582   1.256  11.924 -2.4851 -1.4324 -0.5923
 2880SOL     OW20275   1.533   2.320   3.195  0.3786  0.3254  0.8975
 2880SOL    HW120276   1.548   2.272   3.114  2.9421  0.8550  1.0383
 2880SOL    HW220277   1.438   2.322   3.210  0.5086 -2.4535  1.9773
 2881SOL     OW20278   0.557   0.746   3.325 -0.4000 -0.1827 -0.5715
 2881SOL    HW120279   0.620   0.689   3.282  1.0843  0.6495  0.4918
 2881SOL    HW220280   0.600   0.831   3.317 -1.3093  0.4483  1.0748
 2882SOL     OW20281   3.984   2.039   7.116 -0.1586 -0.1470 -0.3829
 2882SOL    HW120282   4.055   2.004   7.169  1.0073  1.3640 -0.9307
 2882SOL    HW220283   3.919   1.976   7.146  0.4060 -0.9096 -0.7723
 2883SOL     OW20284   1.040   0.722   9.382  0.0835 -0.5896 -0.5287
 2883SOL    HW120285   1.132   0.712   9.359 -0.5801 -1.5110 -2.7509
 2883SOL    HW220286   1.048   0.785   9.455 -0.7707 -1.0976  0.0015
 2884SOL     OW20287   0.717   2.542  14.491 -0.5723  0.5518  0.1378
 2884SOL    HW120288   0.724   2.617  14.549  1.8940 -0.0142  0.5678
 2884SOL    HW220289   0.646   2.573  14.435  0.6745  0.3122 -1.5793
 2885SOL     OW20290   2.393   0.186   3.785 -0.4531  0.4048  0.1359
 2885SOL    HW120291   2.389   0.247   3.711 -0.0763 -0.1659 -0.3555
 2885SOL    HW220292   2.301   0.172   3.810 -0.3939  0.6118  0.4779
 2886SOL     OW20293   4.495   0.005   8.591 -0.2751  0.1395  0.5836
 2886SOL    HW120294   4.536   0.057   8.660 -3.5667  0.3679  2.3952
 2886SOL    HW220295   4.408   0.003   8.632 -1.5194  1.0939 -2.0424
 2887SOL     OW20296   0.211   2.848   0.190  0.7000  0.1335  0.0751
 2887SOL    HW120297   0.272   2.818   0.257 -1.1622 -3.1367  0.3405
 2887SOL    HW220298   0.135   2.793   0.210 -0.9838  2.9814  1.5745
 2888SOL     OW20299   4.257   3.204   1.882 -0.1772  0.0609  0.0936
 2888SOL    HW120300   4.262   3.124   1.935  2.6548  0.4838  0.5128
 2888SOL    HW220301   4.165   3.209   1.858  0.0861 -0.5215 -1.0296
 2889SOL     OW20302   2.604   2.020   5.396  0.0756  0.3562  0.3303
 2889SOL    HW120303   2.552   2.055   5.324 -0.5670 -1.8871 -0.3182
 2889SOL    HW220304   2.557   2.049   5.473  0.6772 -1.0384  1.2259
 2890SOL     OW20305   4.115   3.051   3.755 -0.1350  0.1402 -0.1116
 2890SOL    HW120306   4.197   3.098   3.747  0.3265 -0.9871 -1.9707
 2890SOL    HW220307   4.069   3.068   3.673 -0.4276 -0.3398 -0.0533
 2891SOL     OW20308   3.782   0.109  10.285  0.0923  0.8313  0.2808
 2891SOL    HW120309   3.820   0.142  10.366 -1.7281 -1.2532  1.9964
 2891SOL    HW220310   3.838   0.146  10.217  0.2895  2.6188  1.4311
 2892SOL     OW20311   0.950   3.206   3.398 -0.5613 -0.2995 -0.6985
 2892SOL    HW120312   0.875   3.151   3.419 -0.5824  0.0709  0.2053
 2892SOL    HW220313   1.016   3.138   3.388  0.5234  0.7403 -0.6779
 2893SOL     OW20314   2.456   2.356  14.806  0.2522 -0.1290  0.0673
 2893SOL    HW120315   2.404   2.400  14.739  1.9784  1.9924  0.1230
 2893SOL    HW220316   2.396   2.370  14.879 -0.3576 -0.9947 -0.2581
 2894SOL     OW20317   2.046   3.977   1.532  0.1996  0.4500  0.3112
 2894SOL    HW120318   2.127   4.024   1.511  0.1406  0.0646 -0.8034
 2894SOL    HW220319   2.086   3.921   1.599  1.2090  1.2642  0.3833
 2895SOL     OW20320   2.527   2.848   8.269 -0.1734 -0.0414  0.3444
 2895SOL    HW120321   2.515   2.928   8.217 -1.0990 -0.7097 -0.4845
 2895SOL    HW220322   2.464   2.791   8.224 -0.4076  0.9134 -0.5482
 2896SOL     OW20323   4.228   3.322  15.139  0.5741 -0.1817  0.5791
 2896SOL    HW120324   4.298   3.282  15.191 -0.7804 -2.0600  0.9303
 2896SOL    HW220325   4.262   3.410  15.121 -1.4445  0.1443 -1.5924
 2897SOL     OW20326   2.600   3.298   2.490 -0.3919 -0.4044 -0.6646
 2897SOL    HW120327   2.651   3.308   2.409  0.6969 -0.2194  0.0367
 2897SOL    HW220328   2.539   3.370   2.475 -1.2000 -0.7110  1.2043
 2898SOL     OW20329   1.980   3.262  14.618  0.3852 -0.1125 -0.0501
 2898SOL    HW120330   2.046   3.236  14.682 -0.8040 -1.1320  0.7467
 2898SOL    HW220331   1.956   3.349  14.650 -1.0416 -0.1760 -0.9848
 2899SOL     OW20332   2.745   4.678  17.259  0.2886  0.0232  0.1464
 2899SOL    HW120333   2.686   4.675  17.183  2.2282  1.3262 -1.4141
 2899SOL    HW220334   2.721   4.591  17.293  0.0289  0.1678  0.3350
 2900SOL     OW20335   1.796   3.103  16.695 -0.1921  0.2753 -0.0466
 2900SOL    HW120336   1.738   3.173  16.664  0.9755  1.6587  0.8596
 2900SOL    HW220337   1.820   3.140  16.780  1.9181  0.0364 -0.5452
 2901SOL     OW20338   0.255   0.373   8.472  0.3345 -0.6738  0.5004
 2901SOL    HW120339   0.315   0.323   8.417 -1.6809 -1.9522 -0.5267
 2901SOL    HW220340   0.263   0.461   8.435  0.1076 -0.0653  1.9040
 2902SOL     OW20341   1.567   1.805  11.013  0.3883 -0.4453  0.1514
 2902SOL    HW120342   1.596   1.884  11.060 -1.4111  0.1910  0.2048
 2902SOL    HW220343   1.474   1.828  11.008  0.0547 -1.4037  1.7020
 2903SOL     OW20344   0.132   1.549  11.264 -0.5287 -0.4306  0.3941
 2903SOL    HW120345   0.217   1.593  11.272 -0.1490 -0.9598 -0.7333
 2903SOL    HW220346   0.148   1.471  11.317 -2.9301 -0.1629  1.5092
 2904SOL     OW20347   4.599   2.059   0.443  0.1245  0.5010  0.1316
 2904SOL    HW120348   4.691   2.033   0.436 -0.1267 -0.9090  2.1632
 2904SOL    HW220349   4.608   2.154   0.447  0.7071  0.4479  0.1372
 2905SOL     OW20350   1.333   0.995   3.315  0.0754 -0.2258 -0.5556
 2905SOL    HW120351   1.394   0.923   3.297  1.2073  0.7310 -0.5236
 2905SOL    HW220352   1.256   0.956   3.357  0.3673 -1.3962 -1.0979
 2906SOL     OW20353   1.032   3.002   7.356  0.4864 -0.2371  0.0075
 2906SOL    HW120354   1.045   3.096   7.355  1.8283 -0.4577 -2.5387
 2906SOL    HW220355   0.973   2.988   7.282  0.7740 -0.2620 -0.2195
 2907SOL     OW20356   3.178   1.053  10.737  0.7552 -0.0274  0.1468
 2907SOL    HW120357   3.175   1.112  10.812 -2.2109  0.1000 -0.0799
 2907SOL    HW220358   3.109   1.082  10.678  1.8256 -0.9350 -1.5347
 2908SOL     OW20359   2.914   1.270  17.267  0.0029 -0.2492  0.2273
 2908SOL    HW120360   2.864   1.342  17.229  0.1099  0.9011  2.2496
 2908SOL    HW220361   2.866   1.263  17.350 -0.0988  0.2175  0.2035
 2909SOL     OW20362   3.005   2.162   6.985 -0.0236  0.4899  0.0345
 2909SOL    HW120363   2.939   2.174   7.052 -0.2640 -1.4028  0.1305
 2909SOL    HW220364   3.076   2.218   7.017  0.6997 -0.9245  0.8849
 2910SOL     OW20365   1.260   3.229   8.371 -0.2619  0.7668  0.5643
 2910SOL    HW120366   1.206   3.252   8.447  0.3136  1.6067  0.7268
 2910SOL    HW220367   1.262   3.310   8.319 -0.1941 -0.1138 -0.8050
 2911SOL     OW20368   1.229   3.637  15.663 -0.2216 -0.1681  0.3887
 2911SOL    HW120369   1.315   3.633  15.620 -0.0037  0.4265  0.7723
 2911SOL    HW220370   1.252   3.585  15.741  0.9643  1.5725  1.1928
 2912SOL     OW20371   4.638   4.629   2.873  0.3402  0.4339 -0.4671
 2912SOL    HW120372   4.698   4.651   2.944 -1.7370 -1.1156  1.7421
 2912SOL    HW220373   4.554   4.642   2.916  1.3935  0.4794  1.5458
 2913SOL     OW20374   3.948   0.828   6.407  0.2646 -0.4170 -0.1500
 2913SOL    HW120375   3.856   0.816   6.384  0.3086  1.2493 -1.2089
 2913SOL    HW220376   3.939   0.847   6.501 -0.1195  1.2675 -0.5293
 2914SOL     OW20377   3.267   0.474   3.576 -0.2620  0.3659  0.2117
 2914SOL    HW120378   3.360   0.496   3.581 -0.0256 -0.8382  1.3816
 2914SOL    HW220379   3.275   0.382   3.548  0.5970  0.0890  1.3542
 2915SOL     OW20380   1.756   4.150   3.707 -0.1186  0.3104 -0.0121
 2915SOL    HW120381   1.665   4.167   3.680 -0.0943  1.7329  0.8058
 2915SOL    HW220382   1.786   4.237   3.731  0.8391  0.5061 -1.9811
 2916SOL     OW20383   2.550   2.128   2.161  0.2664 -0.5790 -0.0715
 2916SOL    HW120384   2.497   2.201   2.131 -2.7059 -1.9012  2.0052
 2916SOL    HW220385   2.566   2.072   2.084  2.5763 -0.6808  0.4619
 2917SOL     OW20386   4.352   1.987   4.402 -0.2070  0.4983  0.0727
 2917SOL    HW120387   4.401   2.050   4.349  0.8878  0.9658  1.6241
 2917SOL    HW220388   4.308   2.044   4.466 -1.1344 -1.8753  1.5435
 2918SOL     OW20389   4.681   0.392  10.836  0.9083 -0.2938 -0.4066
 2918SOL    HW120390   0.036   0.388  10.845  0.9624  0.4498 -0.6366
 2918SOL    HW220391   4.649   0.415  10.924  1.0041  1.6061 -0.8584
 2919SOL     OW20392   2.144   0.299   9.119  0.5640 -0.0926 -0.0373
 2919SOL    HW120393   2.194   0.368   9.163  1.7837 -0.6208 -0.6020
 2919SOL    HW220394   2.156   0.222   9.175 -0.0426  0.2402  0.5591
 2920SOL     OW20395   1.769   1.975  11.718  0.2692  1.0678  0.2635
 2920SOL    HW120396   1.706   1.967  11.647  1.0798 -0.3939 -0.2975
 2920SOL    HW220397   1.708   1.993  11.789  0.3473 -0.8356  0.8180
 2921SOL     OW20398   2.961   3.044   4.400  0.0151  0.3028 -0.7361
 2921SOL    HW120399   2.959   3.115   4.465 -2.6595 -0.1969 -0.2955
 2921SOL    HW220400   2.898   3.076   4.336  0.7116 -0.2525 -1.6913
 2922SOL     OW20401   1.368   1.498   7.544  0.5978  0.6646  0.1824
 2922SOL    HW120402   1.284   1.478   7.584  0.5965  1.6516  0.6807
 2922SOL    HW220403   1.340   1.574   7.494 -0.5722  0.0133 -0.1420
 2923SOL     OW20404   1.250   2.283   9.058 -0.4239  0.0621 -0.2161
 2923SOL    HW120405   1.324   2.222   9.053  1.5351  2.2156  2.8146
 2923SOL    HW220406   1.267   2.316   9.146  3.7095  0.7483 -1.2915
 2924SOL     OW20407   2.069   2.674  11.942 -0.1155  0.0898 -0.4378
 2924SOL    HW120408   2.018   2.602  11.978 -0.5296  0.8710  0.5343
 2924SOL    HW220409   2.054   2.748  12.002 -0.1199  0.3739 -0.7886
 2925SOL     OW20410   4.511   1.131   9.814  0.5247  0.2709 -0.5527
 2925SOL    HW120411   4.491   1.218   9.780 -1.9241  0.6807  1.9099
 2925SOL    HW220412   4.588   1.144   9.869 -0.4258  0.6934  0.6789
 2926SOL     OW20413   2.398   0.286   7.879  0.3268 -0.3702 -0.4199
 2926SOL    HW120414   2.349   0.309   7.800  0.1177  1.4948  0.2408
 2926SOL    HW220415   2.340   0.338   7.934  0.1636 -1.5521  0.5260
 2927SOL     OW20416   4.183   3.834   4.811  0.3649  0.3098  0.1028
 2927SOL    HW120417   4.169   3.882   4.729 -0.0611  0.6986  0.4026
 2927SOL    HW220418   4.266   3.796   4.783 -0.8620 -0.7587 -2.1645
 2928SOL     OW20419   3.095   3.647   4.480 -0.3912 -0.3964 -0.4165
 2928SOL    HW120420   3.111   3.728   4.431  0.0099  0.9253  1.9066
 2928SOL    HW220421   3.006   3.630   4.449 -0.3785  1.4257 -1.4690
 2929SOL     OW20422   3.390   4.193  10.641  0.2625  0.4027 -0.1856
 2929SOL    HW120423   3.343   4.228  10.565 -1.0349 -0.3797  0.2617
 2929SOL    HW220424   3.325   4.192  10.711  0.0241 -0.5939 -0.4185
 2930SOL     OW20425   4.515   4.673   8.972  0.5867  0.1291 -0.9311
 2930SOL    HW120426   4.483   4.591   9.012 -0.1947  1.2500  0.7598
 2930SOL    HW220427   4.437   4.700   8.925  0.6444  0.3541 -0.8972
 2931SOL     OW20428   4.728   3.547  16.319  0.3015  0.2909  0.5093
 2931SOL    HW120429   0.001   3.569  16.411 -0.3492 -0.6657  0.8266
 2931SOL    HW220430   0.051   3.614  16.291 -1.3174  0.2483 -3.3422
 2932SOL     OW20431   3.463   0.103   2.315  0.2016 -0.4473  0.3347
 2932SOL    HW120432   3.377   0.079   2.282 -1.3253  1.5674  2.8896
 2932SOL    HW220433   3.466   0.056   2.398  0.7923 -0.9209  0.0460
 2933SOL     OW20434   0.689   0.989   9.643  0.1474 -0.3027 -0.4142
 2933SOL    HW120435   0.742   0.990   9.723 -0.2020 -1.0455 -0.1766
 2933SOL    HW220436   0.663   0.897   9.633 -2.9852  0.4147  1.3729
 2934SOL     OW20437   2.326   1.338  12.999 -0.4284 -0.2431  0.4815
 2934SOL    HW120438   2.255   1.365  12.941 -1.8538 -0.8043  1.9691
 2934SOL    HW220439   2.317   1.243  12.994 -1.5301 -0.1277  0.3888
 2935SOL     OW20440   0.500   2.612  14.361  0.8106 -0.1019 -0.5708
 2935SOL    HW120441   0.433   2.553  14.327  0.5899  0.7008 -1.5305
 2935SOL    HW220442   0.467   2.634  14.448  1.7194 -1.8253  0.2092
 2936SOL     OW20443   0.247   4.649   6.531  0.2457 -0.0702  0.1644
 2936SOL    HW120444   0.314   4.715   6.513 -1.6120  1.3442 -1.4796
 2936SOL    HW220445   0.291   4.585   6.586 -0.0106  0.1931  0.6721
 2937SOL     OW20446   4.349   2.723   6.463 -0.0601  0.1700 -0.1277
 2937SOL    HW120447   4.343   2.787   6.533 -0.3555 -1.2268  1.1400
 2937SOL    HW220448   4.410   2.662   6.504  2.8101  2.1222 -1.5189
 2938SOL     OW20449   3.374   2.142  11.770 -0.5241 -0.5765 -0.1632
 2938SOL    HW120450   3.447   2.197  11.797  0.5427 -0.8662 -2.4552
 2938SOL    HW220451   3.432   2.073  11.737 -2.1783 -2.4645  0.8123
 2939SOL     OW20452   3.123   3.570   0.749  0.0885 -0.7093 -0.3151
 2939SOL    HW120453   3.210   3.610   0.752 -0.4765  0.4150  0.9689
 2939SOL    HW220454   3.116   3.511   0.674  3.2235 -0.0710 -1.1157
 2940SOL     OW20455   3.026   0.770   2.627  0.0591  0.8135  0.0808
 2940SOL    HW120456   3.041   0.692   2.574 -0.8320  1.8194 -1.6104
 2940SOL    HW220457   3.088   0.835   2.593  1.5846  0.3866  1.9834
 2941SOL     OW20458   2.636   3.542   6.910 -0.1656  0.1317 -0.1663
 2941SOL    HW120459   2.564   3.504   6.860  0.7117  0.4300 -1.6714
 2941SOL    HW220460   2.598   3.606   6.970  0.1764 -0.1741  0.3833
 2942SOL     OW20461   1.906   0.580   9.837 -0.2398 -0.1020 -0.0632
 2942SOL    HW120462   1.882   0.493   9.870 -2.0344 -0.0063 -1.0866
 2942SOL    HW220463   1.903   0.640   9.912  1.1131 -2.0718  1.5633
 2943SOL     OW20464   4.023   0.157  16.009  0.0736  0.1274 -0.5069
 2943SOL    HW120465   4.054   0.069  15.990 -2.1981 -0.6003 -0.8644
 2943SOL    HW220466   4.072   0.178  16.089  0.1778 -1.0000 -0.2818
 2944SOL     OW20467   0.434   2.898   8.750  0.2944  0.0693  0.3848
 2944SOL    HW120468   0.513   2.952   8.754 -0.9123  1.8296  0.5058
 2944SOL    HW220469   0.454   2.824   8.692 -0.3467 -1.5354  2.1892
 2945SOL     OW20470   1.319   1.400   4.706 -0.3736  0.0815 -0.1658
 2945SOL    HW120471   1.255   1.337   4.673  1.2627 -1.0605 -1.1560
 2945SOL    HW220472   1.359   1.343   4.771  2.5834  4.0731  1.4836
 2946SOL     OW20473   0.938   2.473  11.764 -0.1204  0.3114  0.6033
 2946SOL    HW120474   0.890   2.526  11.700 -0.4637 -2.3530 -1.3628
 2946SOL    HW220475   0.954   2.541  11.829  2.2923 -0.4285  0.7611
 2947SOL     OW20476   3.504   1.375  11.003  0.2866  0.0496 -0.1251
 2947SOL    HW120477   3.588   1.361  10.960  0.5103  1.0713 -0.0118
 2947SOL    HW220478   3.478   1.453  10.954  2.6123  1.2750  0.5797
 2948SOL     OW20479   3.292   3.975   8.451 -0.1996  0.0557 -0.4073
 2948SOL    HW120480   3.201   3.996   8.470 -0.2841  0.4719 -1.2355
 2948SOL    HW220481   3.308   4.039   8.381 -0.4563  0.6990  0.1203
 2949SOL     OW20482   0.491   1.582   3.117  0.9391 -0.5086  0.0801
 2949SOL    HW120483   0.567   1.637   3.099  0.3386  1.0808  2.4270
 2949SOL    HW220484   0.410   1.633   3.112  1.0946 -0.1134  1.5352
 2950SOL     OW20485   0.029   2.483  17.123 -0.1292 -0.4526 -0.7534
 2950SOL    HW120486   4.685   2.499  17.166  1.3330 -1.1107  2.2830
 2950SOL    HW220487   0.086   2.515  17.193  1.3764 -1.1341 -1.6608
 2951SOL     OW20488   2.326   2.417  15.028 -0.3446 -0.1416 -0.2757
 2951SOL    HW120489   2.390   2.454  15.089  0.3383  0.5888 -1.4382
 2951SOL    HW220490   2.298   2.341  15.078 -1.2852  0.7534  0.5291
 2952SOL     OW20491   3.008   2.229   4.994  0.6252 -0.1987  0.0086
 2952SOL    HW120492   3.067   2.170   5.042 -0.4597  0.9944  2.8138
 2952SOL    HW220493   3.055   2.232   4.911 -0.3398  1.0431 -0.4884
 2953SOL     OW20494   3.511   4.621   2.796  0.1404 -0.4086 -0.3977
 2953SOL    HW120495   3.594   4.576   2.778 -0.8207 -2.6074  0.7046
 2953SOL    HW220496   3.494   4.603   2.888  1.0127 -1.4489 -0.4407
 2954SOL     OW20497   1.225   1.951   9.172  0.0763 -0.0744  0.1575
 2954SOL    HW120498   1.310   1.992   9.157  0.7850 -0.9810  1.7188
 2954SOL    HW220499   1.170   1.973   9.096 -1.5226  0.6374  1.5249
 2955SOL     OW20500   3.463   0.805  15.268 -0.1885 -0.2250 -0.3379
 2955SOL    HW120501   3.507   0.735  15.219  0.4380 -0.1477  0.1183
 2955SOL    HW220502   3.518   0.810  15.346 -1.6036 -1.8483  0.7536
 2956SOL     OW20503   2.901   3.210   7.135 -0.0850  0.3878  0.0105
 2956SOL    HW120504   2.908   3.121   7.169  0.0635  0.9338  1.4297
 2956SOL    HW220505   2.805   3.211   7.138 -0.0842  1.1665 -0.3614
 2957SOL     OW20506   4.542   0.595   0.563  0.7615  0.4127  0.4559
 2957SOL    HW120507   4.609   0.592   0.496 -0.9887 -0.8577 -1.2584
 2957SOL    HW220508   4.466   0.591   0.504  0.3175  0.5036  1.0210
 2958SOL     OW20509   1.761   0.803   1.816 -0.7730 -0.0695  0.0417
 2958SOL    HW120510   1.721   0.816   1.902 -0.6887  0.0400  0.0646
 2958SOL    HW220511   1.849   0.828   1.843 -1.2513  1.3887  0.2955
 2959SOL     OW20512   0.864   2.033   5.915  0.0029 -0.3287 -0.1780
 2959SOL    HW120513   0.773   2.060   5.897 -1.0611 -5.2393 -1.9957
 2959SOL    HW220514   0.854   1.939   5.925 -0.3554 -0.2360  0.3836
 2960SOL     OW20515   3.767   0.863   2.500  0.1373 -0.2842  0.4898
 2960SOL    HW120516   3.752   0.882   2.408  2.0391 -2.8380 -0.3421
 2960SOL    HW220517   3.711   0.786   2.511  0.4826 -0.7164 -0.7649
 2961SOL     OW20518   4.439   0.808   2.244  0.1432  0.1929 -0.1923
 2961SOL    HW120519   4.483   0.845   2.168  0.8274  1.7405  0.9545
 2961SOL    HW220520   4.486   0.857   2.312 -1.1789  1.6712 -0.3262
 2962SOL     OW20521   1.531   4.044  11.641 -0.3065 -0.0438 -0.1411
 2962SOL    HW120522   1.506   3.954  11.619 -1.4184 -0.2108  1.8498
 2962SOL    HW220523   1.540   4.047  11.736 -1.8975  0.5221  0.0079
 2963SOL     OW20524   0.864   2.988  12.838  0.1307  0.0871  0.4731
 2963SOL    HW120525   0.861   2.998  12.743  0.9306  1.1356  0.5552
 2963SOL    HW220526   0.918   3.061  12.870  2.4960 -0.9571 -1.1427
 2964SOL     OW20527   2.413   2.848   4.293 -0.0130 -0.2953 -0.2540
 2964SOL    HW120528   2.453   2.881   4.213  1.2540  0.9564  0.8891
 2964SOL    HW220529   2.453   2.916   4.348  0.0519  0.1466 -0.8500
 2965SOL     OW20530   1.358   0.704   7.190 -0.3805 -0.7913 -0.1628
 2965SOL    HW120531   1.349   0.711   7.285  1.4148 -0.4855 -0.0143
 2965SOL    HW220532   1.338   0.794   7.165  0.2437 -0.0515  1.9987
 2966SOL     OW20533   3.511   3.480   7.293 -0.2070 -0.1536 -0.2547
 2966SOL    HW120534   3.579   3.487   7.227  1.0670  1.5521  1.2300
 2966SOL    HW220535   3.565   3.489   7.372  0.1302 -1.2209 -0.3650
 2967SOL     OW20536   3.282   2.087   5.077  0.2778  0.1159  0.5906
 2967SOL    HW120537   3.245   2.032   5.146 -1.5642  0.3278 -0.2376
 2967SOL    HW220538   3.320   2.153   5.136  0.5872  0.2505  0.2412
 2968SOL     OW20539   2.244   1.549  10.377 -0.2238  0.7361 -0.0971
 2968SOL    HW120540   2.170   1.536  10.316 -1.7352  0.3770  1.8133
 2968SOL    HW220541   2.232   1.642  10.396 -2.0822  0.6257 -0.6838
 2969SOL     OW20542   1.307   1.764   2.880  0.1005 -0.2089 -0.1017
 2969SOL    HW120543   1.355   1.754   2.798 -0.3443 -0.5403 -0.3280
 2969SOL    HW220544   1.228   1.816   2.859 -0.2968 -0.8489 -0.1980
 2970SOL     OW20545   4.476   3.276   1.462 -0.0021  0.0669  0.2873
 2970SOL    HW120546   4.501   3.285   1.370  1.7177 -2.5042  0.5063
 2970SOL    HW220547   4.393   3.230   1.447  0.8393 -1.1503 -0.5903
 2971SOL     OW20548   0.319   3.860   6.310 -0.3865 -0.0101 -0.3429
 2971SOL    HW120549   0.320   3.884   6.218  1.3515  1.0277 -0.0556
 2971SOL    HW220550   0.375   3.927   6.349  0.5212 -2.4170  2.4878
 2972SOL     OW20551   0.615   2.817   8.154  0.2531 -0.3066 -0.2739
 2972SOL    HW120552   0.609   2.779   8.241  0.6822 -1.8030 -0.9070
 2972SOL    HW220553   0.702   2.787   8.127  1.0065  1.2674  0.3877
 2973SOL     OW20554   0.583   4.625   4.840  0.2590  0.5490  0.5881
 2973SOL    HW120555   0.552   4.684   4.909 -3.0013  2.0928 -2.1476
 2973SOL    HW220556   0.532   4.673   4.774 -2.0315 -2.8190 -0.1015
 2974SOL     OW20557   3.071   0.081  12.351 -0.0735  0.3920  0.1127
 2974SOL    HW120558   3.137   0.024  12.310 -0.9153 -0.3322 -0.2156
 2974SOL    HW220559   2.996   0.053  12.300 -1.6057  3.9124  0.4180
 2975SOL     OW20560   4.613   2.738   5.789 -0.1089  0.3491 -0.9149
 2975SOL    HW120561   4.590   2.824   5.756  0.8515  0.7052 -0.6478
 2975SOL    HW220562   4.593   2.736   5.883 -1.0797 -0.3611 -1.1279
 2976SOL     OW20563   0.422   2.541   6.727  0.2322  0.4507 -0.7661
 2976SOL    HW120564   0.441   2.495   6.645  1.5976  2.5902 -1.6355
 2976SOL    HW220565   0.425   2.472   6.793  0.1542  1.9114  0.7750
 2977SOL     OW20566   0.746   4.126   1.755 -0.4398 -0.1359 -0.9473
 2977SOL    HW120567   0.771   4.192   1.691 -2.1037  1.0642 -0.3730
 2977SOL    HW220568   0.766   4.053   1.697  0.4258  0.3558 -1.2517
 2978SOL     OW20569   2.260   3.636   1.168  0.4712  0.5349 -0.1522
 2978SOL    HW120570   2.210   3.716   1.179  2.0496  1.6367 -0.9150
 2978SOL    HW220571   2.187   3.575   1.163  0.8254  0.1625 -0.8637
 2979SOL     OW20572   1.217   4.553  16.368  0.3237  0.1914  0.6144
 2979SOL    HW120573   1.123   4.568  16.378  0.0800 -1.2818  0.5303
 2979SOL    HW220574   1.230   4.488  16.438 -2.8806  0.0965  1.0843
 2980SOL     OW20575   0.107   1.197   8.701  0.5346 -0.1399 -0.0005
 2980SOL    HW120576   0.119   1.156   8.787 -0.6422  1.2640  0.8319
 2980SOL    HW220577   0.020   1.228   8.724  1.0063  0.2871  1.2132
 2981SOL     OW20578   2.516   0.353   7.392  0.4427 -0.6062 -0.3398
 2981SOL    HW120579   2.441   0.325   7.445 -0.7929 -0.4698 -2.0268
 2981SOL    HW220580   2.503   0.448   7.400 -0.1453 -0.6630 -0.5943
 2982SOL     OW20581   0.314   2.890   1.856  0.0689 -0.4594 -0.2381
 2982SOL    HW120582   0.299   2.796   1.844  1.7279 -0.9476  1.4726
 2982SOL    HW220583   0.325   2.924   1.767  4.7251 -2.6087 -0.4816
 2983SOL     OW20584   4.220   4.435  14.660  0.4156  0.2756 -0.1330
 2983SOL    HW120585   4.209   4.469  14.572 -0.2138 -0.7139 -0.4234
 2983SOL    HW220586   4.311   4.405  14.660 -0.4799 -2.3739 -1.7031
 2984SOL     OW20587   2.945   3.841   5.966  0.0312  0.3023 -0.0470
 2984SOL    HW120588   2.968   3.748   5.966  0.1816  0.3373 -0.5919
 2984SOL    HW220589   2.878   3.856   5.899 -1.2488 -0.4627  1.0407
 2985SOL     OW20590   0.209   1.755  15.604 -0.0412  0.0003  0.0627
 2985SOL    HW120591   0.259   1.835  15.590  0.2511 -0.4478 -1.4283
 2985SOL    HW220592   0.122   1.783  15.575 -0.6933 -1.9488  0.1241
 2986SOL     OW20593   2.880   4.625   4.096 -0.2417 -0.5674  0.2726
 2986SOL    HW120594   2.808   4.687   4.109  1.9778  2.3506 -1.2190
 2986SOL    HW220595   2.890   4.623   4.000  0.0899 -1.9625  0.3419
 2987SOL     OW20596   0.985   0.253   4.395 -0.4860 -0.1278  0.0775
 2987SOL    HW120597   0.897   0.215   4.401  0.4303 -2.3000 -0.2250
 2987SOL    HW220598   0.995   0.282   4.304 -0.2609  3.6715  1.2943
 2988SOL     OW20599   1.194   0.804  13.813 -0.2328 -0.1891  0.2839
 2988SOL    HW120600   1.121   0.842  13.862  0.5519  1.1907  0.3954
 2988SOL    HW220601   1.188   0.716  13.851 -1.4922 -0.6909 -1.0657
 2989SOL     OW20602   1.140   2.853  13.922 -0.1272  0.5364  0.0430
 2989SOL    HW120603   1.207   2.892  13.978 -0.3162 -0.1022  0.7043
 2989SOL    HW220604   1.170   2.762  13.926  0.7721  0.7524 -1.5494
 2990SOL     OW20605   2.187   2.927  11.240  0.0980  0.2027 -0.4607
 2990SOL    HW120606   2.220   2.943  11.329  1.5351  1.3599 -1.2057
 2990SOL    HW220607   2.255   2.869  11.204  1.4052  1.4305  0.0344
 2991SOL     OW20608   0.139   0.841   6.428  0.1598 -0.1866  0.1257
 2991SOL    HW120609   0.114   0.753   6.400  1.2177 -0.4113 -0.1179
 2991SOL    HW220610   0.229   0.825   6.457  0.7522  0.2951 -1.4579
 2992SOL     OW20611   3.783   4.308   7.204  0.0008  0.1685 -0.0788
 2992SOL    HW120612   3.721   4.239   7.229  2.6517 -0.9687  3.3936
 2992SOL    HW220613   3.733   4.363   7.144  0.9861  2.5244  1.2829
 2993SOL     OW20614   2.517   1.899   8.624 -0.5020  0.9187  0.5184
 2993SOL    HW120615   2.538   1.984   8.586  1.4610  0.1504 -0.1398
 2993SOL    HW220616   2.422   1.890   8.613 -0.3058  1.4933 -1.5624
 2994SOL     OW20617   4.441   4.606   3.091  0.6390  0.6261 -0.0741
 2994SOL    HW120618   4.415   4.689   3.131  0.3444  0.2413  0.5357
 2994SOL    HW220619   4.477   4.570   3.172 -0.9118  2.4616  1.4223
 2995SOL     OW20620   1.490   1.014   1.144 -0.2318 -0.1200 -0.1687
 2995SOL    HW120621   1.434   0.953   1.191  0.1979 -0.1094  0.3510
 2995SOL    HW220622   1.528   0.965   1.070 -0.0089  1.9036 -1.3809
 2996SOL     OW20623   0.276   2.530   7.228 -0.1345  0.3095 -0.3926
 2996SOL    HW120624   0.226   2.612   7.231 -0.8859 -0.1180 -1.0979
 2996SOL    HW220625   0.360   2.567   7.204 -0.3683  2.1050  1.5617
 2997SOL     OW20626   2.877   2.875   6.687 -0.1454 -1.0240  0.3644
 2997SOL    HW120627   2.843   2.939   6.750 -0.1695 -1.3887  0.7260
 2997SOL    HW220628   2.966   2.890   6.717  0.4185  0.1293 -1.9081
 2998SOL     OW20629   0.708   2.958   9.306  0.0111  0.0724 -0.1150
 2998SOL    HW120630   0.619   2.978   9.334 -0.6153  0.9602 -2.7717
 2998SOL    HW220631   0.754   3.039   9.329  0.1508 -0.2502  0.7618
 2999SOL     OW20632   4.576   4.340   3.587  0.2756 -0.2263 -0.2068
 2999SOL    HW120633   4.541   4.379   3.667  2.1743 -0.2878  0.6509
 2999SOL    HW220634   4.537   4.254   3.598 -1.2681  0.7853  2.1458
 3000SOL     OW20635   0.059   0.093  10.825 -0.0213  0.0570 -0.1232
 3000SOL    HW120636   0.056   4.738  10.839  0.1402  0.2847  1.5169
 3000SOL    HW220637   0.015   0.108  10.741 -0.2242  2.7647  0.4655
 3001SOL     OW20638   2.566   1.069   2.717  0.1473 -0.4279 -0.6487
 3001SOL    HW120639   2.570   1.035   2.806  0.9009 -2.4631 -1.4630
 3001SOL    HW220640   2.640   1.022   2.679 -0.3689 -2.1870  0.5311
 3002SOL     OW20641   4.574   2.172   0.069 -0.2899 -0.8158 -0.1547
 3002SOL    HW120642   4.518   2.099   0.043  0.2652 -1.7216  1.1406
 3002SOL    HW220643   4.524   2.199   0.147  1.3885  0.4170  0.5056
 3003SOL     OW20644   0.030   2.202  15.601 -0.1069 -0.4454  0.3037
 3003SOL    HW120645   0.020   2.107  15.607 -0.0349 -0.3416  2.0999
 3003SOL    HW220646   0.028   2.204  15.505 -0.9973  0.2604  0.3319
 3004SOL     OW20647   0.347   2.007  17.303  0.1130  0.0377 -0.0797
 3004SOL    HW120648   0.427   2.059  17.294  0.0056  0.4942  1.6652
 3004SOL    HW220649   0.285   2.054  17.358  1.3200  0.0636  1.2328
 3005SOL     OW20650   4.046   4.707   0.616 -0.6611 -0.3203  0.7907
 3005SOL    HW120651   4.136   4.734   0.602 -0.3743 -1.7248 -0.0629
 3005SOL    HW220652   4.050   4.683   0.709 -1.4900 -1.6792  0.4740
 3006SOL     OW20653   0.678   2.338   6.948 -0.2033  0.0396 -0.1779
 3006SOL    HW120654   0.753   2.280   6.938 -1.5378 -1.9885  1.6949
 3006SOL    HW220655   0.613   2.274   6.920  1.6882 -1.5579 -0.9052
 3007SOL     OW20656   3.877   3.881  15.454  0.1916  0.5278 -0.3992
 3007SOL    HW120657   3.869   3.976  15.453  0.1773  0.5332  1.5879
 3007SOL    HW220658   3.788   3.862  15.482 -0.9299 -0.0684 -4.3161
 3008SOL     OW20659   4.272   2.196   9.701  0.1193 -0.2055 -0.6754
 3008SOL    HW120660   4.323   2.119   9.680 -0.5982 -0.7547 -0.3937
 3008SOL    HW220661   4.234   2.205   9.614  0.0982 -0.5842 -0.7030
 3009SOL     OW20662   0.890   1.897  16.544 -0.1405  0.0917 -0.2514
 3009SOL    HW120663   0.828   1.877  16.474 -0.4314  1.4633 -0.3794
 3009SOL    HW220664   0.868   1.826  16.604  1.8992  1.2738  1.8833
 3010SOL     OW20665   0.411   0.822   8.802 -0.4881 -0.0777 -0.2146
 3010SOL    HW120666   0.480   0.863   8.750 -1.4694 -1.3254 -2.4931
 3010SOL    HW220667   0.403   0.730   8.779  0.9294 -0.3066  0.2372
 3011SOL     OW20668   1.109   4.350  15.253  0.3074  0.1046 -0.3610
 3011SOL    HW120669   1.057   4.428  15.273 -0.3485  0.0764 -2.0034
 3011SOL    HW220670   1.048   4.283  15.286 -0.6050  1.2675  0.3028
 3012SOL     OW20671   3.327   4.220   4.292 -0.3475 -0.3894  0.1522
 3012SOL    HW120672   3.393   4.267   4.241  0.9012 -1.2437  0.9883
 3012SOL    HW220673   3.318   4.140   4.239 -1.1405  0.0386 -0.3620
 3013SOL     OW20674   1.145   2.318  10.533  0.0213 -0.0339  0.1551
 3013SOL    HW120675   1.050   2.332  10.527 -0.2773 -1.8808  0.4698
 3013SOL    HW220676   1.172   2.392  10.479  2.2836  0.8841  2.5328
 3014SOL     OW20677   2.020   4.256   3.148 -0.3527 -0.2239  0.8186
 3014SOL    HW120678   1.970   4.295   3.076  0.8269 -1.4056 -0.6411
 3014SOL    HW220679   2.078   4.192   3.108  0.4312 -0.6166  2.5914
 3015SOL     OW20680   1.518   0.834   6.094 -0.1455 -0.0207 -0.2622
 3015SOL    HW120681   1.597   0.887   6.085  0.4307 -1.1628 -1.9428
 3015SOL    HW220682   1.452   0.903   6.081 -0.8982 -0.0698  3.2167
 3016SOL     OW20683   3.791   3.283   3.725  0.3745 -0.2003  0.0221
 3016SOL    HW120684   3.752   3.293   3.638  0.2586  0.1418  0.1137
 3016SOL    HW220685   3.793   3.189   3.737  0.8054 -0.2795 -0.6143
 3017SOL     OW20686   0.134   0.272  11.012  0.2331 -0.3126  0.1976
 3017SOL    HW120687   0.117   0.200  10.951  2.3585 -1.4406  0.9647
 3017SOL    HW220688   0.129   0.234  11.099  1.7444 -0.0588  0.3827
 3018SOL     OW20689   0.802   2.850  12.407  0.3108  0.3291  0.2440
 3018SOL    HW120690   0.856   2.920  12.444 -0.3549  0.9807 -0.0299
 3018SOL    HW220691   0.725   2.856  12.464 -0.9649  1.6957 -1.6464
 3019SOL     OW20692   3.385   4.120  15.059 -0.6363 -0.6277  0.0721
 3019SOL    HW120693   3.301   4.151  15.093 -1.1471 -0.8534 -1.0072
 3019SOL    HW220694   3.403   4.190  14.996 -1.5005 -2.6525 -2.4249
 3020SOL     OW20695   2.620   0.449   8.120 -0.3415 -0.3855  0.4042
 3020SOL    HW120696   2.638   0.530   8.073 -1.5496  1.4180  3.0163
 3020SOL    HW220697   2.661   0.387   8.060  2.3055  1.2691  0.5092
 3021SOL     OW20698   2.266   2.440   8.965 -0.3143 -0.0052 -0.6707
 3021SOL    HW120699   2.324   2.470   9.035  0.1334 -1.7758 -0.2721
 3021SOL    HW220700   2.199   2.408   9.025  1.4393 -0.8374  0.8681
 3022SOL     OW20701   2.881   0.325   0.145  0.2462  0.1795  0.0514
 3022SOL    HW120702   2.794   0.297   0.116 -0.9160  2.2014  1.6026
 3022SOL    HW220703   2.933   0.245   0.141 -1.3977 -0.8424 -0.5643
 3023SOL     OW20704   1.520   1.840   5.585  0.1093 -0.3868 -0.2949
 3023SOL    HW120705   1.599   1.856   5.534  0.8673  0.5064  1.1353
 3023SOL    HW220706   1.558   1.822   5.671  1.8334  2.4715 -0.4773
 3024SOL     OW20707   3.276   2.551  10.774  0.0153 -0.2084 -0.5110
 3024SOL    HW120708   3.223   2.627  10.799  1.9211  0.3770  1.7627
 3024SOL    HW220709   3.350   2.551  10.835 -0.3484 -0.0161 -0.0773
 3025SOL     OW20710   0.104   3.154   3.285 -0.2075  0.8896  0.9527
 3025SOL    HW120711   0.132   3.205   3.209  1.1289 -0.9816  0.2021
 3025SOL    HW220712   0.141   3.213   3.350 -0.9443  0.9945  1.2831
 3026SOL     OW20713   2.694   0.099  15.946  0.0972  0.5829 -0.0456
 3026SOL    HW120714   2.618   0.126  15.894  0.9703  3.0172 -0.0638
 3026SOL    HW220715   2.714   0.173  16.004  0.4721  0.3412  0.1381
 3027SOL     OW20716   2.161   3.179  14.782  0.0136 -0.4322  0.1621
 3027SOL    HW120717   2.242   3.128  14.795  0.6565  0.3735 -0.6363
 3027SOL    HW220718   2.115   3.130  14.850  1.7795  0.0022  1.6771
 3028SOL     OW20719   2.312   2.788   7.306  0.1373 -0.8268  0.1525
 3028SOL    HW120720   2.220   2.811   7.294  0.6019  0.3151 -1.1783
 3028SOL    HW220721   2.329   2.797   7.400 -1.3666  0.1387  0.3324
 3029SOL     OW20722   0.910   0.993   8.687  0.1387  0.0910 -0.4555
 3029SOL    HW120723   0.908   1.058   8.617  0.5920  1.9741  1.2688
 3029SOL    HW220724   1.002   1.003   8.713 -0.2403  1.5985  0.2827
 3030SOL     OW20725   2.297   0.794  16.248  0.4770  0.2879 -0.0323
 3030SOL    HW120726   2.362   0.827  16.310  2.4184 -2.1780 -0.7522
 3030SOL    HW220727   2.245   0.754  16.318  0.6713  0.9473  0.4877
 3031SOL     OW20728   4.074   1.162   8.494  0.3136  0.1846 -0.1966
 3031SOL    HW120729   4.136   1.158   8.566 -0.0821 -0.7509  0.1045
 3031SOL    HW220730   3.985   1.151   8.530 -1.2035  1.4286 -3.6124
 3032SOL     OW20731   2.646   4.310   3.410 -0.1831 -0.3627  0.1390
 3032SOL    HW120732   2.722   4.284   3.462 -0.4983 -2.8163 -0.6200
 3032SOL    HW220733   2.680   4.310   3.321 -0.5176  0.3741  0.0075
 3033SOL     OW20734   1.044   1.285   8.958  0.5553 -0.0891 -0.0727
 3033SOL    HW120735   1.104   1.320   8.893 -0.9346 -1.3861 -2.1454
 3033SOL    HW220736   1.068   1.192   8.956 -1.7570 -0.6667 -1.1855
 3034SOL     OW20737   4.099   4.263   0.604 -0.2581  0.2713  0.4565
 3034SOL    HW120738   4.057   4.314   0.673 -1.2871 -0.4553  0.3756
 3034SOL    HW220739   4.181   4.243   0.649  0.1463 -0.3158 -0.5431
 3035SOL     OW20740   4.426   1.618   1.983  0.0551  0.2242  0.3858
 3035SOL    HW120741   4.420   1.690   2.047  0.2780  1.1237 -0.6000
 3035SOL    HW220742   4.489   1.562   2.029  0.3895 -0.8376 -1.3557
 3036SOL     OW20743   0.732   4.288   8.956 -0.5297 -0.2348 -0.1130
 3036SOL    HW120744   0.647   4.306   8.916  0.2093  0.9408 -1.1436
 3036SOL    HW220745   0.713   4.205   9.000 -0.7669 -0.6316 -0.9579
 3037SOL     OW20746   3.794   0.227   4.159 -0.6154  0.2708  0.5717
 3037SOL    HW120747   3.814   0.287   4.230 -3.2529  0.2249  1.3754
 3037SOL    HW220748   3.746   0.150   4.189  0.5917 -0.6388  0.1308
 3038SOL     OW20749   0.306   2.086   3.379  0.1150  0.5578  0.1332
 3038SOL    HW120750   0.328   2.169   3.421 -1.5956  1.6173 -1.0926
 3038SOL    HW220751   0.312   2.035   3.460  2.5594 -0.0899 -0.4591
 3039SOL     OW20752   1.657   0.777  10.400  0.4934  0.0381 -0.2633
 3039SOL    HW120753   1.748   0.778  10.369  1.2212 -1.2475  1.8309
 3039SOL    HW220754   1.662   0.854  10.457  1.3234  1.4825 -2.2739
 3040SOL     OW20755   3.242   4.073   5.678 -0.5623 -0.0740  0.4868
 3040SOL    HW120756   3.209   4.104   5.762  1.2358  0.4253  1.0180
 3040SOL    HW220757   3.189   3.997   5.656  0.1908 -0.7250  0.8923
 3041SOL     OW20758   3.191   0.103   4.304  0.8100  0.5689  0.2727
 3041SOL    HW120759   3.157   0.178   4.353 -0.5704 -0.9626  1.6927
 3041SOL    HW220760   3.114   0.088   4.249  0.2917  2.1682  0.5706
 3042SOL     OW20761   2.146   4.400   0.267 -0.1782  0.0057 -0.6636
 3042SOL    HW120762   2.112   4.315   0.294  0.8385 -0.8022 -1.9085
 3042SOL    HW220763   2.179   4.384   0.179  0.3637 -1.7902 -0.1205
 3043SOL     OW20764   1.213   4.269   5.489  0.4628  0.2167 -1.0395
 3043SOL    HW120765   1.223   4.364   5.494 -0.7504  0.3191 -0.5969
 3043SOL    HW220766   1.120   4.253   5.506  1.3920 -1.4650  2.5125
 3044SOL     OW20767   1.927   2.424  17.392 -0.0573  0.1934  0.2371
 3044SOL    HW120768   1.947   2.341  17.436  1.0442  1.2330  1.7048
 3044SOL    HW220769   1.875   2.395  17.317  0.3832  2.2395 -0.8515
 3045SOL     OW20770   0.243   1.303   8.038 -0.1422 -0.5601  0.2861
 3045SOL    HW120771   0.170   1.357   8.068 -0.8088 -1.7902  0.8862
 3045SOL    HW220772   0.231   1.315   7.943  0.4678  2.4608  0.6075
 3046SOL     OW20773   3.209   0.259   0.666 -0.5831  0.0850  0.4342
 3046SOL    HW120774   3.281   0.313   0.700 -0.1438  0.0112 -0.3712
 3046SOL    HW220775   3.142   0.324   0.647 -0.5058  0.1021  0.2149
 3047SOL     OW20776   0.216   2.581  14.795  0.4225  0.2369 -1.0593
 3047SOL    HW120777   0.190   2.629  14.874  1.0277  1.0731 -1.3595
 3047SOL    HW220778   0.292   2.532  14.826 -1.3375  0.4297  3.5001
 3048SOL     OW20779   4.324   2.729   0.223 -0.4520  0.2616  0.3999
 3048SOL    HW120780   4.378   2.731   0.144 -0.0861  1.7984  0.6945
 3048SOL    HW220781   4.242   2.689   0.193  0.2186 -1.0512  0.3486
 3049SOL     OW20782   0.924   1.971  11.780  0.0000 -0.0400  0.3185
 3049SOL    HW120783   0.933   1.987  11.874 -0.9167 -1.8635  0.7243
 3049SOL    HW220784   0.896   2.060  11.760 -0.1030  0.2796  1.8448
 3050SOL     OW20785   2.642   0.123   5.282 -0.4310  0.3330 -0.0013
 3050SOL    HW120786   2.708   0.142   5.348 -0.5566 -0.3031  0.3083
 3050SOL    HW220787   2.615   0.213   5.263 -3.3322 -0.3811  0.6333
 3051SOL     OW20788   3.025   4.354  14.654 -0.0980  0.1202 -0.3085
 3051SOL    HW120789   2.968   4.431  14.654  1.2959  1.1568  2.1081
 3051SOL    HW220790   3.064   4.365  14.741  2.5659 -2.3211 -1.2034
 3052SOL     OW20791   3.585   0.751   4.494  0.5474  0.5559 -0.0668
 3052SOL    HW120792   3.517   0.766   4.560  2.8032 -2.4868  2.9203
 3052SOL    HW220793   3.539   0.733   4.412  2.5648  0.6325 -1.1926
 3053SOL     OW20794   1.744   3.595   8.605 -0.6558  0.1140 -0.0559
 3053SOL    HW120795   1.654   3.591   8.638 -1.0830 -0.5876 -1.3043
 3053SOL    HW220796   1.740   3.562   8.516  1.4087 -1.0814  0.3078
 3054SOL     OW20797   1.443   1.590  12.749  0.4183 -0.1000  0.1437
 3054SOL    HW120798   1.514   1.597  12.685 -0.4860 -1.3934 -1.0086
 3054SOL    HW220799   1.378   1.536  12.705 -0.1133  0.6246  0.0359
 3055SOL     OW20800   1.804   4.613  15.404  0.1369  0.2353 -0.4012
 3055SOL    HW120801   1.787   4.520  15.388 -0.0226  0.3744 -1.0529
 3055SOL    HW220802   1.898   4.605  15.385  0.2034 -1.2019  0.5523
 3056SOL     OW20803   3.684   1.966   1.380 -0.1899  0.2866  0.7100
 3056SOL    HW120804   3.643   1.936   1.299 -0.7853  2.3149  0.2644
 3056SOL    HW220805   3.775   1.936   1.381 -0.8859 -1.7646  2.0177
 3057SOL     OW20806   1.860   0.190  10.142  0.3443 -0.4344  0.4011
 3057SOL    HW120807   1.882   0.220  10.229  0.5041  1.0103 -0.1427
 3057SOL    HW220808   1.890   0.100  10.156  1.5371  0.1389  1.4311
 3058SOL     OW20809   3.995   1.243   8.769 -0.3054  0.1405  0.0398
 3058SOL    HW120810   4.080   1.259   8.729 -0.7740 -0.3367 -1.1717
 3058SOL    HW220811   4.024   1.261   8.858 -0.4136 -2.0296  0.5134
 3059SOL     OW20812   4.491   3.496   0.091  0.2669  0.0943  0.2679
 3059SOL    HW120813   4.413   3.476   0.143 -0.4121 -0.1244 -0.8542
 3059SOL    HW220814   4.470   3.571   0.035  0.0968  0.8527  1.3378
 3060SOL     OW20815   3.729   4.045   1.283  0.1287 -1.1570 -0.6155
 3060SOL    HW120816   3.752   4.117   1.225 -0.0350 -0.8119 -0.2507
 3060SOL    HW220817   3.714   3.971   1.223 -1.5675 -0.1103 -1.4921
 3061SOL     OW20818   2.200   0.953   8.886  0.5947  0.0850  0.1825
 3061SOL    HW120819   2.137   1.014   8.923  0.3574  0.8729 -1.5274
 3061SOL    HW220820   2.233   0.915   8.967 -1.4088 -3.3143 -0.5932
 3062SOL     OW20821   4.295   3.619   6.170  0.1635 -0.1768  0.1344
 3062SOL    HW120822   4.265   3.575   6.090  3.1123 -2.0112  0.0229
 3062SOL    HW220823   4.223   3.676   6.197 -0.5617  0.1996 -2.5818
 3063SOL     OW20824   0.671   2.080   3.072 -0.5675  0.1601 -0.1498
 3063SOL    HW120825   0.633   2.048   2.990 -0.4485 -0.7283  0.1417
 3063SOL    HW220826   0.672   2.000   3.125 -0.5959  0.4775  0.3319
 3064SOL     OW20827   1.175   1.459   5.882  0.5608  0.0056 -0.3517
 3064SOL    HW120828   1.207   1.398   5.816  1.4526  1.0570 -0.8923
 3064SOL    HW220829   1.233   1.528   5.851  1.5121 -0.8118 -0.4015
 3065SOL     OW20830   2.407   0.605   0.823  0.0403  0.3676  0.1474
 3065SOL    HW120831   2.494   0.634   0.852  0.1833  1.5669 -1.4935
 3065SOL    HW220832   2.396   0.663   0.748  0.6714 -0.7834 -0.8427
 3066SOL     OW20833   0.843   2.787  17.220  0.8011 -0.1383 -0.0478
 3066SOL    HW120834   0.903   2.861  17.224  0.7854 -0.3085  3.5397
 3066SOL    HW220835   0.801   2.804  17.136  0.6627 -2.2506 -0.4056
 3067SOL     OW20836   4.666   3.408   6.349 -0.0905 -0.0658 -0.7961
 3067SOL    HW120837   4.591   3.415   6.290 -0.3105 -0.7334 -0.6027
 3067SOL    HW220838   4.736   3.436   6.291  0.8911 -0.5431  0.1499
 3068SOL     OW20839   2.015   1.147   2.748 -0.1137 -0.1244 -0.4031
 3068SOL    HW120840   1.927   1.124   2.777  0.3245  0.1049  1.0981
 3068SOL    HW220841   2.072   1.140   2.824  1.0450  0.4161 -1.2154
 3069SOL     OW20842   4.310   1.370   4.718  0.3269 -0.0258 -0.4481
 3069SOL    HW120843   4.305   1.278   4.744 -0.3819  0.5273  1.3250
 3069SOL    HW220844   4.288   1.356   4.625 -0.8819 -2.3824  0.1821
 3070SOL     OW20845   2.249   4.173   1.574  0.0329  0.1751  0.3864
 3070SOL    HW120846   2.210   4.233   1.510 -0.9303 -2.0050 -1.0849
 3070SOL    HW220847   2.287   4.231   1.640 -0.6088 -0.0882  0.9722
 3071SOL     OW20848   2.532   2.689   3.089  0.0689 -0.1765  0.1206
 3071SOL    HW120849   2.580   2.707   3.170 -1.7004  0.9140  0.9263
 3071SOL    HW220850   2.603   2.682   3.024 -1.1279 -1.0038 -1.1030
 3072SOL     OW20851   0.237   0.844  13.859 -0.1925 -0.2360 -0.2370
 3072SOL    HW120852   0.142   0.850  13.853 -0.2360  0.0718  0.7645
 3072SOL    HW220853   0.224   0.765  13.911 -1.0784 -0.2872 -0.5299
 3073SOL     OW20854   4.008   3.877   8.918  0.3825 -0.0748 -0.2692
 3073SOL    HW120855   4.064   3.907   8.847  1.6311 -1.5108  0.1215
 3073SOL    HW220856   3.922   3.867   8.876  0.9536 -3.2414 -0.6969
 3074SOL     OW20857   0.695   3.547  12.012  0.2291 -0.6394  0.2476
 3074SOL    HW120858   0.702   3.528  12.105  0.2523 -2.5967 -0.1542
 3074SOL    HW220859   0.600   3.560  12.001 -0.2290 -2.6042  1.7259
 3075SOL     OW20860   2.062   1.611   3.730 -0.2941  0.5599  0.7884
 3075SOL    HW120861   2.137   1.551   3.731  0.1788  1.1427  0.6951
 3075SOL    HW220862   2.058   1.623   3.825 -0.3934 -0.3055  0.8937
 3076SOL     OW20863   1.332   2.396   7.796 -0.3537  0.0551 -0.2593
 3076SOL    HW120864   1.310   2.304   7.778  0.6387 -0.1315 -0.5110
 3076SOL    HW220865   1.403   2.407   7.733 -1.2324  0.2500 -1.2089
 3077SOL     OW20866   4.320   2.347   8.126 -0.1156  0.5718  0.0187
 3077SOL    HW120867   4.279   2.427   8.092  1.0999  1.3503  0.3590
 3077SOL    HW220868   4.292   2.333   8.217 -0.0822 -0.5381 -0.1502
 3078SOL     OW20869   0.123   4.549   1.528 -0.5306 -0.1545  0.6714
 3078SOL    HW120870   0.045   4.516   1.573 -1.1697  0.1874 -0.1711
 3078SOL    HW220871   0.136   4.633   1.572 -0.3704  1.0206 -1.5904
 3079SOL     OW20872   2.393   1.189   7.967 -0.2941 -0.0949 -0.0564
 3079SOL    HW120873   2.321   1.142   7.926 -0.6771  1.1914 -0.8342
 3079SOL    HW220874   2.445   1.205   7.888 -1.7857 -1.1687 -1.2347
 3080SOL     OW20875   1.009   0.958   0.091  0.1615  0.0060  0.4091
 3080SOL    HW120876   0.971   1.037   0.131  0.1880 -0.5652  1.5903
 3080SOL    HW220877   0.951   0.948   0.016 -0.8435  2.5324  0.8428
 3081SOL     OW20878   2.806   2.454   1.106  0.8542 -0.1048 -0.1132
 3081SOL    HW120879   2.802   2.393   1.180  2.7724  0.6501  0.6191
 3081SOL    HW220880   2.803   2.535   1.156  0.7246 -0.7063  0.8474
 3082SOL     OW20881   4.254   3.675  10.869  0.7994 -0.7199 -0.1029
 3082SOL    HW120882   4.337   3.691  10.824  1.0854 -0.1913  0.6193
 3082SOL    HW220883   4.212   3.652  10.786  0.7891  0.6419 -0.4832
 3083SOL     OW20884   2.114   2.345   7.900 -0.2137 -0.2959  0.4144
 3083SOL    HW120885   2.109   2.426   7.849 -0.9038  0.6455  1.9585
 3083SOL    HW220886   2.175   2.377   7.967 -1.2787 -1.8917  2.1657
 3084SOL     OW20887   3.142   2.125  17.250  1.0337 -0.2774  0.2390
 3084SOL    HW120888   3.195   2.164  17.180 -0.4659  2.0596  0.3730
 3084SOL    HW220889   3.089   2.065  17.197 -0.0645  0.3557  0.5971
 3085SOL     OW20890   0.420   3.925   7.968  0.3054  0.3296 -0.9089
 3085SOL    HW120891   0.426   3.948   7.876 -2.5728 -0.2706 -1.2357
 3085SOL    HW220892   0.375   3.842   7.959  1.2336 -0.4243  1.3109
 3086SOL     OW20893   1.141   2.350   1.342 -0.2613  0.0366 -0.4010
 3086SOL    HW120894   1.092   2.278   1.301  0.4151 -0.4829 -0.2970
 3086SOL    HW220895   1.160   2.306   1.425 -1.1572  0.1628 -0.1224
 3087SOL     OW20896   3.529   0.892   2.712  0.2970 -0.8298  0.3171
 3087SOL    HW120897   3.483   0.812   2.688  2.1529 -1.2957 -1.6514
 3087SOL    HW220898   3.545   0.868   2.803  2.4041 -2.4114 -0.4648
 3088SOL     OW20899   4.634   0.955   4.688 -0.6372 -0.2360  0.4824
 3088SOL    HW120900   4.665   0.904   4.613 -1.2218  0.4757 -0.2536
 3088SOL    HW220901   4.578   1.019   4.644 -0.6467 -1.2205 -0.9740
 3089SOL     OW20902   4.028   4.108   9.083  0.2222  0.5582 -0.2831
 3089SOL    HW120903   3.960   4.091   9.148  1.7420  0.4302  1.2922
 3089SOL    HW220904   4.026   4.024   9.037  0.1444  0.2020  0.3611
 3090SOL     OW20905   4.683   1.990  17.582 -0.0977  0.4914  0.0161
 3090SOL    HW120906   4.620   1.978  17.654  0.3791 -0.2242  0.3178
 3090SOL    HW220907   4.631   1.965  17.506 -2.7366 -1.3234  2.4012
 3091SOL     OW20908   0.438   3.219  14.515  0.2825 -0.3832 -0.1832
 3091SOL    HW120909   0.345   3.197  14.508 -0.1526  1.1939  0.5752
 3091SOL    HW220910   0.438   3.307  14.477 -1.5476 -0.8557 -1.2764
 3092SOL     OW20911   1.165   2.169   5.241 -0.3902  0.2450  0.1794
 3092SOL    HW120912   1.178   2.222   5.319  0.9944  0.2275 -0.0397
 3092SOL    HW220913   1.251   2.172   5.199 -1.0023  2.8825 -0.8892
 3093SOL     OW20914   3.724   2.642   7.595  0.1561  0.7600 -0.1021
 3093SOL    HW120915   3.775   2.633   7.515 -0.4173 -2.3991 -0.1156
 3093SOL    HW220916   3.680   2.727   7.591  0.7888  0.9961 -1.9604
 3094SOL     OW20917   2.633   3.029   6.107 -0.8706  0.2132  0.4794
 3094SOL    HW120918   2.571   3.045   6.036  1.6148  2.9157 -1.0477
 3094SOL    HW220919   2.618   3.097   6.172  0.6222 -1.7454  2.8966
 3095SOL     OW20920   3.871   4.132  10.645  0.2480  0.2836 -0.0772
 3095SOL    HW120921   3.857   4.103  10.735 -1.4037  0.8682 -0.1421
 3095SOL    HW220922   3.781   4.163  10.629  1.5506  3.6027 -0.8347
 3096SOL     OW20923   1.487   3.043   9.328  0.6256  0.0993  0.2005
 3096SOL    HW120924   1.533   3.044   9.244  1.5059  1.7874  0.7049
 3096SOL    HW220925   1.395   3.048   9.304  0.2403 -0.1739  1.6368
 3097SOL     OW20926   4.396   1.686   5.317 -0.1417 -0.2374 -0.1183
 3097SOL    HW120927   4.306   1.654   5.314  0.0489 -0.8144  0.3662
 3097SOL    HW220928   4.397   1.754   5.250 -0.0631 -0.7506 -0.6408
 3098SOL     OW20929   4.063   2.187   1.159 -0.1851 -0.4863  0.1223
 3098SOL    HW120930   3.980   2.231   1.142  0.6383  1.2296  0.5008
 3098SOL    HW220931   4.043   2.138   1.238  1.5720 -0.6609  0.4686
 3099SOL     OW20932   1.636   1.728   9.531 -0.2112  0.4246 -0.1760
 3099SOL    HW120933   1.588   1.648   9.513  0.5967  0.0519 -0.6518
 3099SOL    HW220934   1.715   1.700   9.485  0.2128 -0.3569  1.0249
 3100SOL     OW20935   3.866   1.803  10.822 -0.1570 -0.6513 -0.7587
 3100SOL    HW120936   3.913   1.823  10.741 -2.0852  0.8619 -1.4858
 3100SOL    HW220937   3.868   1.707  10.819  0.3482 -0.6098 -1.6649
 3101SOL     OW20938   0.065   3.459   5.457  0.5939  0.6486  0.0959
 3101SOL    HW120939   0.095   3.383   5.407  1.5500  1.4942 -0.6129
 3101SOL    HW220940   0.009   3.419   5.524  2.1172  0.7940  1.4679
 3102SOL     OW20941   0.031   1.193  15.328 -0.1490 -0.2416  0.1515
 3102SOL    HW120942   0.068   1.115  15.284 -0.8625 -0.3727 -0.2208
 3102SOL    HW220943   0.114   1.222  15.366  0.0981 -2.7745  1.5629
 3103SOL     OW20944   4.133   2.521   0.066 -0.0179 -0.2975 -0.4376
 3103SOL    HW120945   4.043   2.493   0.050 -1.2335  3.3223 -0.0010
 3103SOL    HW220946   4.173   2.459   0.127  0.3601 -0.5220 -0.9155
 3104SOL     OW20947   1.339   1.998  16.255 -0.4916  0.1652  0.3091
 3104SOL    HW120948   1.284   1.968  16.182  1.5272 -0.8843 -0.7920
 3104SOL    HW220949   1.290   1.976  16.334 -0.0961  0.6102  0.6803
 3105SOL     OW20950   2.035   1.111   7.670  0.0715  0.1520  0.0410
 3105SOL    HW120951   1.991   1.192   7.644 -0.1260  0.3612  1.0043
 3105SOL    HW220952   2.083   1.133   7.750  0.9128  0.0263 -0.4298
 3106SOL     OW20953   2.277   2.669   5.619 -0.0286 -0.2087  0.1011
 3106SOL    HW120954   2.365   2.643   5.595 -0.6972 -2.3587 -0.0686
 3106SOL    HW220955   2.292   2.762   5.601  1.2476 -0.6486 -1.0784
 3107SOL     OW20956   3.482   2.100   1.162 -0.2798  0.1899 -0.2852
 3107SOL    HW120957   3.496   2.007   1.179  1.6524  0.3384 -1.0591
 3107SOL    HW220958   3.496   2.084   1.068 -2.0572 -1.9450 -0.2074
 3108SOL     OW20959   0.075   1.747  10.205 -0.0678  0.3658  0.1485
 3108SOL    HW120960   0.070   1.652  10.208 -0.8723  0.3760 -1.0581
 3108SOL    HW220961   0.096   1.761  10.297  0.9270 -0.7820  0.0905
 3109SOL     OW20962   4.694   3.763  14.327 -0.0959  0.4960 -0.1192
 3109SOL    HW120963   0.042   3.731  14.311 -1.1224 -1.9623 -0.8357
 3109SOL    HW220964   4.677   3.825  14.256  2.2170 -0.0453 -1.1372
 3110SOL     OW20965   1.005   0.227   0.863  0.3660 -0.2238 -0.4341
 3110SOL    HW120966   1.007   0.217   0.768 -1.6131 -0.2140 -0.4807
 3110SOL    HW220967   1.041   0.314   0.877 -0.8969  0.1145  0.7947
 3111SOL     OW20968   4.684   4.377   4.994 -0.4064  0.0629  0.2291
 3111SOL    HW120969   4.694   4.471   4.981 -1.1386  0.1254  0.0781
 3111SOL    HW220970   4.655   4.374   5.085  0.1854  0.2211  0.4192
 3112SOL     OW20971   2.890   3.453   6.963  0.2401  0.0185  0.0491
 3112SOL    HW120972   2.892   3.395   7.039  0.3421  1.6964  1.3288
 3112SOL    HW220973   2.799   3.481   6.969  0.1145 -0.4103  0.0895
 3113SOL     OW20974   3.798   1.888  13.138  0.1410  0.0865 -0.1445
 3113SOL    HW120975   3.798   1.804  13.090 -2.0784 -0.0209  0.0315
 3113SOL    HW220976   3.705   1.894  13.160 -0.1137  2.8507 -1.9584
 3114SOL     OW20977   2.980   2.078   3.767 -0.6965 -0.3192  0.1692
 3114SOL    HW120978   2.919   2.011   3.735  0.2543 -0.2993 -1.7101
 3114SOL    HW220979   2.952   2.145   3.705 -0.1650 -1.7921 -1.7128
 3115SOL     OW20980   0.770   4.267   5.251 -0.3162  0.2043  0.8188
 3115SOL    HW120981   0.816   4.192   5.289 -2.3321 -0.3268  2.2069
 3115SOL    HW220982   0.726   4.224   5.178  0.6854  0.4748  0.0630
 3116SOL     OW20983   3.427   0.797   5.033 -0.5351 -0.0247  0.4926
 3116SOL    HW120984   3.414   0.702   5.043 -1.4779  0.0541  0.0839
 3116SOL    HW220985   3.521   0.809   5.043 -1.2700  2.5804  4.1269
 3117SOL     OW20986   3.623   0.232   3.273 -0.3676 -0.2121  0.0759
 3117SOL    HW120987   3.689   0.163   3.266  1.0695  1.2019 -0.1003
 3117SOL    HW220988   3.568   0.199   3.201 -2.4632  0.0337  1.5419
 3118SOL     OW20989   3.190   0.450   6.728  0.1810  0.3499  0.1467
 3118SOL    HW120990   3.117   0.391   6.710  0.2621 -0.4914  2.5611
 3118SOL    HW220991   3.189   0.466   6.822 -1.8131  2.7975 -0.2916
 3119SOL     OW20992   3.849   3.932  14.938 -0.3060  0.1771  0.1029
 3119SOL    HW120993   3.890   3.875  15.002 -0.8353 -0.9906 -0.5994
 3119SOL    HW220994   3.766   3.953  14.980 -1.4587 -4.9329  0.3594
 3120SOL     OW20995   4.295   2.708  13.803  0.7192 -0.0865 -0.3252
 3120SOL    HW120996   4.256   2.786  13.763 -1.3573 -0.9697 -0.0043
 3120SOL    HW220997   4.257   2.642  13.746  1.4361 -0.6650 -0.1315
 3121SOL     OW20998   3.566   4.354   5.862 -0.1183  0.0301  0.1643
 3121SOL    HW120999   3.493   4.377   5.920 -0.8454 -1.0900 -0.2962
 3121SOL    HW221000   3.538   4.385   5.776  5.4493 -2.0191 -2.3612
 3122SOL     OW21001   3.687   0.056   7.975 -0.2383 -0.2892 -0.0410
 3122SOL    HW121002   3.771   0.017   7.951 -1.5858 -3.7892  0.9259
 3122SOL    HW221003   3.711   0.136   8.022 -3.2197  0.3212  0.4586
 3123SOL     OW21004   3.584   1.579   4.740 -0.1358  0.4210 -0.4086
 3123SOL    HW121005   3.499   1.586   4.785 -0.5390  0.9124 -1.2462
 3123SOL    HW221006   3.616   1.495   4.774  0.1577  0.2427 -1.1273
 3124SOL     OW21007   3.510   4.138   8.248  0.2971  0.0749  0.2158
 3124SOL    HW121008   3.540   4.170   8.332  1.1684  1.1288 -0.5085
 3124SOL    HW221009   3.584   4.122   8.189 -0.1359 -0.6162 -0.1465
 3125SOL     OW21010   1.399   3.603  16.575  0.3235 -0.1190  0.5911
 3125SOL    HW121011   1.400   3.538  16.504 -0.6644 -0.1537  0.6145
 3125SOL    HW221012   1.314   3.585  16.613  0.4404 -1.7611  0.0669
 3126SOL     OW21013   1.582   1.615  12.513 -0.7262 -0.7765 -0.5878
 3126SOL    HW121014   1.636   1.691  12.491  2.1359 -3.1044 -1.5859
 3126SOL    HW221015   1.525   1.617  12.436 -0.2875  1.6094 -0.8640
 3127SOL     OW21016   3.507   2.883  14.413 -0.1117  0.2436  0.5002
 3127SOL    HW121017   3.500   2.794  14.446 -3.1310 -0.1709 -1.2811
 3127SOL    HW221018   3.432   2.919  14.461 -1.1780  0.9922 -1.7007
 3128SOL     OW21019   2.621   2.151   6.927  0.1222 -0.0605 -0.5891
 3128SOL    HW121020   2.621   2.229   6.871  0.6050  0.2891 -0.0930
 3128SOL    HW221021   2.690   2.170   6.990  0.8634  1.7510 -1.9511
 3129SOL     OW21022   2.507   4.077   8.245 -0.4143 -0.2476 -0.3783
 3129SOL    HW121023   2.475   3.986   8.246  0.8824 -0.6999  1.7926
 3129SOL    HW221024   2.439   4.123   8.197  1.0572 -0.0217 -2.2313
 3130SOL     OW21025   2.334   0.754   9.409 -1.0818  0.8561 -0.1682
 3130SOL    HW121026   2.263   0.697   9.438 -0.9670 -0.0319 -1.5967
 3130SOL    HW221027   2.290   0.838   9.422  0.5828  1.7905 -0.4536
 3131SOL     OW21028   4.514   3.398  15.005  0.3822  0.3246  0.0573
 3131SOL    HW121029   4.547   3.340  15.073 -1.8354 -1.8258 -0.6906
 3131SOL    HW221030   4.514   3.480  15.054  1.2696 -1.1045  2.4259
 3132SOL     OW21031   3.018   2.242  12.322 -0.1507 -0.7924 -0.8948
 3132SOL    HW121032   3.001   2.148  12.331  0.0472 -0.8584 -1.2199
 3132SOL    HW221033   2.950   2.286  12.374 -0.1815 -0.6177 -1.0848
 3133SOL     OW21034   0.756   3.302   6.668 -0.3583  0.5544  0.4724
 3133SOL    HW121035   0.753   3.362   6.594 -0.9301  1.3820  1.1645
 3133SOL    HW221036   0.697   3.235   6.636  1.0398  0.4131 -1.7793
 3134SOL     OW21037   0.668   3.601  10.764  0.1092  0.5961  0.0291
 3134SOL    HW121038   0.599   3.652  10.806 -1.1231 -2.8281  2.1798
 3134SOL    HW221039   0.718   3.679  10.740  1.8926 -0.8120 -0.7671
 3135SOL     OW21040   2.144   0.741  12.142 -0.7108  0.1780  0.2059
 3135SOL    HW121041   2.101   0.659  12.120  1.9765 -0.3158 -3.3301
 3135SOL    HW221042   2.235   0.728  12.112 -0.9070 -0.4113 -0.1310
 3136SOL     OW21043   2.568   0.518   2.377  0.1179  0.5230  0.2339
 3136SOL    HW121044   2.651   0.485   2.343 -0.0575 -0.4073  0.7030
 3136SOL    HW221045   2.509   0.442   2.376 -0.1120  0.7162 -0.7276
 3137SOL     OW21046   1.032   4.258   3.600 -0.2298  0.0230 -0.1050
 3137SOL    HW121047   0.980   4.182   3.575  1.4323 -0.5952 -1.6390
 3137SOL    HW221048   1.120   4.223   3.583 -0.2138  0.2099 -0.4084
 3138SOL     OW21049   3.823   3.336   5.920 -0.9407 -0.0048  0.0084
 3138SOL    HW121050   3.816   3.409   5.981 -1.2481  0.6870 -0.8496
 3138SOL    HW221051   3.760   3.275   5.957  0.7295  0.1134  3.0497
 3139SOL     OW21052   3.897   4.118   6.396 -0.5630  0.0807 -0.3509
 3139SOL    HW121053   3.963   4.085   6.456  0.2970 -0.7660 -1.7919
 3139SOL    HW221054   3.925   4.082   6.312  2.0551  1.1863  0.0708
 3140SOL     OW21055   4.533   1.364  13.592  0.4354  0.4934  0.1697
 3140SOL    HW121056   4.609   1.362  13.650 -0.7079  0.5395  1.6704
 3140SOL    HW221057   4.501   1.276  13.610  0.6986  0.3170 -0.2355
 3141SOL     OW21058   1.900   3.627  10.466 -0.1927  0.1810  0.7257
 3141SOL    HW121059   1.964   3.694  10.488 -0.8194  0.6298  1.1685
 3141SOL    HW221060   1.924   3.545  10.508 -0.4934 -0.4893 -0.3956
 3142SOL     OW21061   0.413   2.219   1.995  0.0281 -0.5972 -0.3488
 3142SOL    HW121062   0.445   2.145   2.046 -0.0081  1.0044  2.0183
 3142SOL    HW221063   0.323   2.225   2.025  0.0836  1.1948 -0.5376
 3143SOL     OW21064   1.550   3.416   8.718 -0.8751 -0.4482 -0.3028
 3143SOL    HW121065   1.560   3.495   8.772  1.7184 -2.6311  2.4081
 3143SOL    HW221066   1.456   3.424   8.699 -1.2255 -1.2237  1.0907
 3144SOL     OW21067   4.487   0.842   7.847  0.6486  0.2807 -0.5376
 3144SOL    HW121068   4.529   0.837   7.933 -1.4923 -0.7709  0.4347
 3144SOL    HW221069   4.524   0.926   7.818 -1.5509  1.9447  1.4264
 3145SOL     OW21070   3.487   1.935   4.314  0.3585 -0.0844 -0.2698
 3145SOL    HW121071   3.487   1.968   4.404 -0.8266  0.4655 -0.4838
 3145SOL    HW221072   3.511   1.845   4.337  1.2409  0.4077  0.7535
 3146SOL     OW21073   3.109   3.302   7.286  0.2850 -0.5402  0.0009
 3146SOL    HW121074   3.074   3.337   7.368  0.8592  1.2889 -0.5244
 3146SOL    HW221075   3.031   3.282   7.235 -0.2085 -0.5862  0.7767
 3147SOL     OW21076   3.329   3.808   5.424 -0.1893  0.3281 -0.2467
 3147SOL    HW121077   3.274   3.740   5.463  0.5044  0.8081  1.5715
 3147SOL    HW221078   3.266   3.879   5.411  0.3860  0.7818 -0.5385
 3148SOL     OW21079   0.465   1.594   5.435  0.2059 -0.0689  0.2968
 3148SOL    HW121080   0.423   1.571   5.518  1.1228 -0.1591  0.7309
 3148SOL    HW221081   0.413   1.669   5.405  0.9544  0.6563  0.8106
 3149SOL     OW21082   4.432   0.252  10.045 -0.3059 -0.1034  0.0375
 3149SOL    HW121083   4.448   0.158  10.053  0.7664  0.1241  0.5499
 3149SOL    HW221084   4.468   0.272   9.959 -0.3004 -1.4669 -0.2791
 3150SOL     OW21085   1.688   1.753   4.662 -0.1947 -0.3003 -0.4362
 3150SOL    HW121086   1.752   1.777   4.730  0.2118 -1.8180 -0.2699
 3150SOL    HW221087   1.641   1.678   4.698 -1.0248  1.3569  1.9796
 3151SOL     OW21088   3.594   2.450   7.755 -0.4488  0.3447 -0.4548
 3151SOL    HW121089   3.543   2.523   7.789  1.6840  0.7051  1.9746
 3151SOL    HW221090   3.659   2.493   7.699 -0.4816  1.1987  0.1754
 3152SOL     OW21091   3.505   1.215   1.451  0.2299  0.0474  0.6788
 3152SOL    HW121092   3.568   1.152   1.416  1.1956  0.7771  1.1049
 3152SOL    HW221093   3.426   1.163   1.434 -0.3358  1.1009  0.0933
 3153SOL     OW21094   0.358   1.997  13.701  0.0367  0.1556  0.0570
 3153SOL    HW121095   0.350   2.086  13.665  0.9018 -0.2916 -1.2248
 3153SOL    HW221096   0.448   2.008  13.733  0.3399 -1.1396 -0.3759
 3154SOL     OW21097   3.948   0.047  17.082  0.6127  0.6550  0.2599
 3154SOL    HW121098   3.921   0.127  17.037  0.9079  1.6356  1.8218
 3154SOL    HW221099   3.886   4.726  17.042  0.0648  0.8641  0.7798
 3155SOL     OW21100   1.744   4.173  15.748 -0.0710 -0.0375  0.2316
 3155SOL    HW121101   1.766   4.141  15.836 -0.7715 -1.2191 -0.0341
 3155SOL    HW221102   1.651   4.195  15.750 -0.3534 -1.1192 -1.0613
 3156SOL     OW21103   0.865   3.682   8.616  0.5085  0.3266  0.6001
 3156SOL    HW121104   0.868   3.740   8.540  2.3480  1.7968  1.7890
 3156SOL    HW221105   0.851   3.601   8.568  2.1612  0.0567  0.5704
 3157SOL     OW21106   2.879   2.016   2.745  0.2134  0.2364 -0.0654
 3157SOL    HW121107   2.787   2.043   2.741 -0.8535 -3.4744 -1.3621
 3157SOL    HW221108   2.929   2.096   2.753  0.7638 -0.0839 -0.3735
 3158SOL     OW21109   0.288   1.803   9.515  0.0259  0.2156 -0.3291
 3158SOL    HW121110   0.201   1.820   9.551  0.1153  0.6439 -0.3165
 3158SOL    HW221111   0.310   1.894   9.493  3.0300 -0.3573  0.2446
 3159SOL     OW21112   2.039   1.254   6.446 -0.3821  0.2507  0.3432
 3159SOL    HW121113   1.976   1.326   6.443 -0.3231  0.1343 -2.8515
 3159SOL    HW221114   2.121   1.304   6.441 -0.8366  0.9052 -0.6634
 3160SOL     OW21115   2.618   1.211   7.646 -0.1722 -0.3374  0.0540
 3160SOL    HW121116   2.690   1.148   7.654  0.4462  0.5316  1.3449
 3160SOL    HW221117   2.547   1.164   7.602  0.5574 -1.2263 -0.1772
 3161SOL     OW21118   3.049   1.701  10.786 -0.0850 -0.4621 -0.2986
 3161SOL    HW121119   2.991   1.707  10.862 -1.1189  1.0775 -1.1899
 3161SOL    HW221120   3.103   1.632  10.824  1.2976 -0.2665 -1.8717
 3162SOL     OW21121   0.070   1.942   1.006 -0.0905  0.0421 -0.7655
 3162SOL    HW121122   0.148   1.960   0.953 -0.6192 -0.1103 -1.6039
 3162SOL    HW221123   0.069   2.014   1.069  0.5791 -1.0689  0.5192
 3163SOL     OW21124   2.957   3.388  12.224 -0.2336  1.2637 -0.3086
 3163SOL    HW121125   2.923   3.322  12.163  0.3711  0.5407  0.1386
 3163SOL    HW221126   3.047   3.401  12.195 -1.6036  3.9441 -3.4125
 3164SOL     OW21127   0.692   0.394  16.784  0.0652 -0.3816  0.2261
 3164SOL    HW121128   0.599   0.402  16.762 -0.1136 -1.7118  0.4882
 3164SOL    HW221129   0.736   0.469  16.744 -0.6045 -0.3898 -0.5244
 3165SOL     OW21130   0.831   0.982   6.976 -0.1101  0.3960  0.1916
 3165SOL    HW121131   0.827   1.077   6.975 -1.2737  0.3403 -1.6123
 3165SOL    HW221132   0.901   0.959   6.915 -0.9798  0.0518 -0.6918
 3166SOL     OW21133   4.081   0.483  15.275 -0.5338 -0.5277 -0.3154
 3166SOL    HW121134   4.004   0.460  15.223  0.0096 -1.4632 -0.7283
 3166SOL    HW221135   4.093   0.393  15.305 -0.6906 -0.0958  1.0172
 3167SOL     OW21136   0.859   1.194   8.508  0.4858 -0.2197  0.4629
 3167SOL    HW121137   0.822   1.275   8.544 -2.2416 -0.5195 -1.6617
 3167SOL    HW221138   0.910   1.237   8.440  0.5805 -1.5300 -0.3005
 3168SOL     OW21139   4.414   3.487  11.015  0.0884 -0.2833 -0.0194
 3168SOL    HW121140   4.384   3.397  11.028  0.6817 -0.7410 -1.9411
 3168SOL    HW221141   4.361   3.506  10.938 -0.8523 -0.8278  0.4884
 3169SOL     OW21142   1.250   0.412   2.781  0.0467 -0.8541 -0.2110
 3169SOL    HW121143   1.282   0.358   2.709  0.2656 -2.8745  1.4209
 3169SOL    HW221144   1.159   0.383   2.790 -0.9648  2.1283 -0.7008
 3170SOL     OW21145   2.399   3.025   7.858 -0.4266  0.0310  0.2391
 3170SOL    HW121146   2.376   3.115   7.834 -1.0165  0.2274  1.5745
 3170SOL    HW221147   2.474   3.038   7.916 -0.2026 -0.2956  0.0191
 3171SOL     OW21148   0.269   4.372   8.526 -0.4839  0.3787 -0.3257
 3171SOL    HW121149   0.202   4.303   8.529  1.1753 -1.1644  0.8935
 3171SOL    HW221150   0.268   4.397   8.618 -1.0416 -0.6747 -0.0484
 3172SOL     OW21151   3.454   4.096  12.589 -0.0568  0.4019  0.3871
 3172SOL    HW121152   3.548   4.078  12.584 -0.3373 -1.1470  0.7292
 3172SOL    HW221153   3.447   4.149  12.509 -0.4177 -0.9882 -0.5053
 3173SOL     OW21154   3.695   1.964  13.636  0.4190  0.1531  0.0921
 3173SOL    HW121155   3.709   1.896  13.702  1.7186  0.9880  0.6660
 3173SOL    HW221156   3.627   2.015  13.681  0.9909  1.7239 -0.8241
 3174SOL     OW21157   1.669   2.474   8.481  0.2108  0.2986 -0.4613
 3174SOL    HW121158   1.645   2.543   8.420 -0.6258  0.4932  0.0903
 3174SOL    HW221159   1.604   2.405   8.468 -0.6978  1.0995 -0.1861
 3175SOL     OW21160   0.000   4.484  11.872  0.5958  0.1056  0.1763
 3175SOL    HW121161   4.665   4.474  11.814 -0.6591 -1.4287  2.0783
 3175SOL    HW221162   4.722   4.572  11.905 -1.3772 -0.1396 -0.2706
 3176SOL     OW21163   3.770   0.100   7.044  0.4354 -0.0091  0.4975
 3176SOL    HW121164   3.799   0.009   7.030  2.8482  0.8959 -0.4391
 3176SOL    HW221165   3.816   0.141   6.970  0.0602 -0.8470 -0.2075
 3177SOL     OW21166   3.476   0.288   6.611 -0.1615 -0.0368 -0.0136
 3177SOL    HW121167   3.478   0.296   6.706 -1.6790  1.3402 -0.0846
 3177SOL    HW221168   3.518   0.370   6.587 -0.8358  0.9922  2.3086
 3178SOL     OW21169   1.248   0.202   8.629  0.9915 -0.2591 -0.1149
 3178SOL    HW121170   1.317   0.153   8.674 -1.4981 -1.6051  2.2601
 3178SOL    HW221171   1.190   0.129   8.606 -0.7343  0.9542  0.3650
 3179SOL     OW21172   4.538   2.264   6.499  0.7076  0.2416  0.1212
 3179SOL    HW121173   4.606   2.198   6.514  0.2801 -0.2145  0.0228
 3179SOL    HW221174   4.467   2.216   6.457 -0.9413  1.4673  1.5058
 3180SOL     OW21175   1.933   4.102  15.291  0.1387  0.5393 -0.5053
 3180SOL    HW121176   1.892   4.133  15.210  0.8398  1.4355 -0.5121
 3180SOL    HW221177   1.857   4.103  15.349  0.0527 -0.8736 -0.5850
 3181SOL     OW21178   2.386   4.601  17.247  0.6913  0.1914  0.7941
 3181SOL    HW121179   2.425   4.674  17.295 -0.0530  1.8178 -1.0248
 3181SOL    HW221180   2.455   4.601  17.180  0.8435  0.8452  0.9467
 3182SOL     OW21181   4.665   3.620   0.598 -0.5924 -0.1445 -0.8303
 3182SOL    HW121182   4.647   3.703   0.553  1.1067  0.2977 -0.6694
 3182SOL    HW221183   4.581   3.585   0.627 -1.4710  0.4793 -2.6123
 3183SOL     OW21184   0.530   0.995   7.031  0.2667  0.1910 -0.1428
 3183SOL    HW121185   0.625   1.006   7.032  0.3126 -0.2010  0.4756
 3183SOL    HW221186   0.523   0.929   7.101  1.3615 -0.3064 -0.4997
 3184SOL     OW21187   3.729   3.146   4.879  0.0810  0.7453 -0.2146
 3184SOL    HW121188   3.784   3.175   4.806 -0.2416  0.5470 -0.5368
 3184SOL    HW221189   3.680   3.073   4.840  0.9251  0.3690 -0.5574
 3185SOL     OW21190   3.506   2.030   9.543 -0.3123  0.0158  0.1112
 3185SOL    HW121191   3.558   2.110   9.543  0.8892 -0.7437  3.1390
 3185SOL    HW221192   3.462   2.029   9.629  1.1345  0.3719  0.8563
 3186SOL     OW21193   2.811   2.775   7.046 -0.0343  0.0511  0.1346
 3186SOL    HW121194   2.821   2.697   6.990  0.2609 -1.3310  2.1199
 3186SOL    HW221195   2.726   2.804   7.012 -0.1915 -0.6060 -0.0480
 3187SOL     OW21196   1.237   4.595   1.292  0.3962  0.2875 -0.6546
 3187SOL    HW121197   1.271   4.682   1.313  3.6816 -0.9899 -0.6392
 3187SOL    HW221198   1.226   4.561   1.381 -0.3516  0.5395 -0.6502
 3188SOL     OW21199   0.445   0.580   9.925  0.0819 -0.0963  0.5679
 3188SOL    HW121200   0.425   0.581  10.019  1.6455 -0.9341  0.9100
 3188SOL    HW221201   0.359   0.598   9.888 -0.2825  0.8889  1.8959
 3189SOL     OW21202   3.488   3.925   8.645 -0.4339  0.0755 -0.3230
 3189SOL    HW121203   3.559   3.893   8.590  1.5474  0.1375  2.1833
 3189SOL    HW221204   3.414   3.902   8.588  0.9628  1.1427 -2.5506
 3190SOL     OW21205   3.836   4.454   4.345 -0.0333  0.3728 -0.2214
 3190SOL    HW121206   3.776   4.434   4.417  0.6873  0.5666  0.4349
 3190SOL    HW221207   3.922   4.474   4.382  0.2295 -0.2443 -0.4905
 3191SOL     OW21208   0.027   1.277   9.234  0.6377 -0.0561  0.4163
 3191SOL    HW121209   0.049   1.185   9.250  1.2589 -0.1213 -0.8230
 3191SOL    HW221210   0.107   1.316   9.270 -0.4569  0.9913  1.7034
 3192SOL     OW21211   3.543   3.433   5.278 -0.5948 -0.0485 -0.0951
 3192SOL    HW121212   3.556   3.379   5.200 -1.5712  0.8212 -0.8534
 3192SOL    HW221213   3.487   3.500   5.237  0.8407  0.8124 -0.6703
 3193SOL     OW21214   2.487   3.220   8.270 -0.0895 -0.3249  0.5343
 3193SOL    HW121215   2.499   3.270   8.351  1.3587 -0.1326  0.1984
 3193SOL    HW221216   2.393   3.218   8.250 -0.0172 -0.1153  0.1731
 3194SOL     OW21217   0.806   3.917  12.467 -0.2329  0.5263 -0.0357
 3194SOL    HW121218   0.781   3.824  12.462 -0.1300  0.4314  1.1599
 3194SOL    HW221219   0.889   3.908  12.513 -0.4737  0.5072  0.4009
 3195SOL     OW21220   3.211   2.837  14.077  0.4308 -0.4399 -0.4490
 3195SOL    HW121221   3.300   2.871  14.065 -0.1413  1.3752  0.4553
 3195SOL    HW221222   3.187   2.784  14.001  1.3589 -1.6448  0.0933
 3196SOL     OW21223   4.353   2.637   8.628 -0.0873 -0.7843  0.0136
 3196SOL    HW121224   4.345   2.584   8.707  0.9696 -1.4338 -0.3158
 3196SOL    HW221225   4.436   2.613   8.587  1.1189  2.2062  0.7225
 3197SOL     OW21226   2.038   1.248  14.122 -0.2937  0.6890 -0.6828
 3197SOL    HW121227   2.093   1.170  14.125 -0.5219  0.6506  2.2578
 3197SOL    HW221228   1.959   1.218  14.168 -0.3788  0.4996 -0.9499
 3198SOL     OW21229   1.269   3.918  14.376 -0.0080 -0.2708 -0.3338
 3198SOL    HW121230   1.292   3.856  14.307 -0.4598  0.8931 -1.5140
 3198SOL    HW221231   1.351   3.921  14.425  0.3629  1.6087 -1.0575
 3199SOL     OW21232   0.856   3.517  17.301 -0.1353  0.0093  0.7187
 3199SOL    HW121233   0.901   3.492  17.382  0.6505 -1.7925 -0.2599
 3199SOL    HW221234   0.901   3.466  17.234 -2.0977 -1.7688  0.7224
 3200SOL     OW21235   4.475   1.516   5.538 -0.2564 -0.3214 -0.2647
 3200SOL    HW121236   4.445   1.601   5.507  1.7185 -0.6280 -3.0228
 3200SOL    HW221237   4.475   1.462   5.460 -0.9592  1.2005 -1.3099
 3201SOL     OW21238   0.013   2.082   6.553  0.1484  0.6592  0.4519
 3201SOL    HW121239   0.041   2.039   6.471  0.2997 -2.8749  2.3542
 3201SOL    HW221240   0.096   2.070   6.600 -0.1619 -0.8116  0.6407
 3202SOL     OW21241   2.894   4.530   6.543  0.3546  0.6236  0.4161
 3202SOL    HW121242   2.818   4.589   6.538  0.8817  1.3843  1.4307
 3202SOL    HW221243   2.921   4.539   6.452  1.3365 -0.2473  0.6212
 3203SOL     OW21244   0.992   0.041   2.764  0.2563  0.0067  0.3929
 3203SOL    HW121245   1.049   0.009   2.694  0.0349 -1.6881  1.0015
 3203SOL    HW221246   0.984   0.135   2.751 -1.6403 -0.2988 -0.6157
 3204SOL     OW21247   0.391   0.308   2.624 -0.0399  0.0274  0.8128
 3204SOL    HW121248   0.408   0.224   2.582  0.1483  0.5793 -0.1989
 3204SOL    HW221249   0.302   0.300   2.660 -0.8830  1.0859 -1.0144
 3205SOL     OW21250   3.990   0.759   5.532  0.0410  0.3254 -0.3106
 3205SOL    HW121251   4.079   0.782   5.505  0.2536  0.7980  0.8282
 3205SOL    HW221252   4.010   0.692   5.597  0.0477  0.3555 -0.2818
 3206SOL     OW21253   0.906   2.702   0.981 -0.3663  0.5771 -0.1692
 3206SOL    HW121254   0.987   2.750   0.961 -0.8796  1.7300  0.4852
 3206SOL    HW221255   0.948   2.642   1.042 -0.5902 -0.5046 -1.0871
 3207SOL     OW21256   0.441   4.729   4.649 -0.2948 -0.4197 -0.4252
 3207SOL    HW121257   0.389   0.064   4.620 -0.1398 -0.0338  0.2970
 3207SOL    HW221258   0.473   4.681   4.572  1.6545  0.2086 -0.0064
 3208SOL     OW21259   4.457   2.680   5.057 -0.0229 -0.3286  0.3384
 3208SOL    HW121260   4.514   2.736   5.110  1.9099 -1.9192 -0.0578
 3208SOL    HW221261   4.486   2.694   4.967 -1.3821 -1.1175 -0.2203
 3209SOL     OW21262   1.672   0.137   2.131  0.2181  0.1730 -0.2775
 3209SOL    HW121263   1.611   0.181   2.072 -1.8507 -1.0850  0.9140
 3209SOL    HW221264   1.612   0.106   2.199 -0.5644  1.2367 -0.4864
 3210SOL     OW21265   3.077   4.582  14.060  0.0881 -0.4704 -0.5046
 3210SOL    HW121266   3.017   4.642  14.105  1.2573 -0.1870  0.6518
 3210SOL    HW221267   3.092   4.504  14.113  2.7628  0.3452 -0.0592
 3211SOL     OW21268   1.444   3.933  16.068 -0.0697  0.1634 -0.1393
 3211SOL    HW121269   1.410   3.861  16.121  0.9789  0.5415  1.0683
 3211SOL    HW221270   1.515   3.889  16.022 -0.0024  0.8320 -0.6831
 3212SOL     OW21271   3.296   2.803  10.164  0.4677  0.7196 -0.4441
 3212SOL    HW121272   3.323   2.893  10.145 -1.8941  1.4944 -0.1178
 3212SOL    HW221273   3.292   2.802  10.260 -2.6696  3.1187 -0.5461
 3213SOL     OW21274   1.504   2.347   0.106 -0.6397  0.1172  0.2653
 3213SOL    HW121275   1.455   2.426   0.084  0.1331  0.8499  1.2004
 3213SOL    HW221276   1.596   2.359   0.081 -0.6509 -0.5538 -0.1015
 3214SOL     OW21277   2.058   2.328   9.074  0.2109  0.4451  0.5244
 3214SOL    HW121278   2.028   2.341   9.164 -2.2423  0.1631 -0.2678
 3214SOL    HW221279   1.981   2.284   9.039  0.8187 -0.7449  0.6990
 3215SOL     OW21280   4.703   0.222   7.075 -0.2643 -0.1034 -0.6546
 3215SOL    HW121281   4.710   0.235   7.169  2.2546 -4.5245 -0.2189
 3215SOL    HW221282   4.619   0.265   7.060  1.3344  2.9374 -0.8912
 3216SOL     OW21283   4.097   2.341   1.637  0.2280  0.1335 -0.2092
 3216SOL    HW121284   4.132   2.260   1.676  1.2570  0.2742 -0.8453
 3216SOL    HW221285   4.136   2.413   1.686  0.5110  0.0356 -0.2906
 3217SOL     OW21286   0.498   2.857   0.899 -0.4633  0.2159 -0.4149
 3217SOL    HW121287   0.489   2.810   0.982 -1.4591  0.1220 -0.5725
 3217SOL    HW221288   0.583   2.896   0.917  0.2315 -0.0676 -3.0453
 3218SOL     OW21289   2.200   3.229  10.794 -0.7228  0.2159 -0.4305
 3218SOL    HW121290   2.234   3.263  10.876  0.5342  0.6812 -1.1538
 3218SOL    HW221291   2.125   3.175  10.820  0.8069 -1.9691 -0.5654
 3219SOL     OW21292   4.011   4.344  11.281  1.0915 -0.4494  0.5146
 3219SOL    HW121293   4.105   4.331  11.289  1.2406  0.7795  0.6863
 3219SOL    HW221294   3.980   4.286  11.351  2.5756 -0.6341  1.0071
 3220SOL     OW21295   1.429   0.774  11.276 -0.1557 -0.2861  0.4709
 3220SOL    HW121296   1.346   0.749  11.316 -0.9459  1.1919 -0.2725
 3220SOL    HW221297   1.470   0.816  11.352  0.0855 -0.4587  0.4386
 3221SOL     OW21298   4.047   4.431   5.972  0.2303 -0.5818  0.2273
 3221SOL    HW121299   4.083   4.427   6.061  1.0522  1.4679 -0.0035
 3221SOL    HW221300   4.096   4.365   5.923  1.0361  0.2576 -0.0982
 3222SOL     OW21301   0.910   3.635   4.159 -0.4850 -0.1642  0.2302
 3222SOL    HW121302   0.820   3.667   4.152 -0.4703  0.2246  1.6832
 3222SOL    HW221303   0.897   3.549   4.118 -1.7114 -0.2362  0.7637
 3223SOL     OW21304   2.303   1.562   6.294 -0.5082 -0.0772 -0.1147
 3223SOL    HW121305   2.332   1.497   6.231 -0.4537 -0.7296  0.5781
 3223SOL    HW221306   2.240   1.614   6.244  0.4983  2.1593  0.9222
 3224SOL     OW21307   0.650   4.035   2.233 -0.4141  0.7836  0.0371
 3224SOL    HW121308   0.689   4.089   2.164  1.5367  1.2100  1.4614
 3224SOL    HW221309   0.614   3.960   2.185 -1.6512  0.7070  1.0923
 3225SOL     OW21310   2.709   3.294  16.658  0.0557 -0.1846 -0.3609
 3225SOL    HW121311   2.756   3.335  16.730 -0.3778  0.5442 -0.4973
 3225SOL    HW221312   2.657   3.369  16.630  0.9806  0.5739 -0.0225
 3226SOL     OW21313   0.266   2.620   1.846  0.2331  0.4578  0.2919
 3226SOL    HW121314   0.330   2.555   1.817  1.4846  1.3408  1.1297
 3226SOL    HW221315   0.248   2.583   1.932 -1.9440 -1.1240 -0.8344
 3227SOL     OW21316   4.249   4.496   3.373 -0.4094 -0.0721  0.0371
 3227SOL    HW121317   4.168   4.480   3.422  0.2157 -1.7270  0.5325
 3227SOL    HW221318   4.272   4.412   3.334 -1.4265 -0.8058  1.0191
 3228SOL     OW21319   4.483   2.973   8.076 -0.0271  0.0869  0.3571
 3228SOL    HW121320   4.432   3.043   8.116 -1.6011  0.8414 -2.9795
 3228SOL    HW221321   4.531   2.949   8.155  1.8111  1.0308 -0.4777
 3229SOL     OW21322   4.595   4.226   7.961 -0.1275 -0.2398 -0.2133
 3229SOL    HW121323   4.639   4.147   7.932 -1.2521 -0.9461 -0.0241
 3229SOL    HW221324   4.629   4.239   8.049 -2.7945 -1.5457  1.0446
 3230SOL     OW21325   2.254   4.051   0.204 -0.4731  0.6302  0.6139
 3230SOL    HW121326   2.312   4.089   0.271  0.6926  2.0138 -1.1905
 3230SOL    HW221327   2.166   4.067   0.238 -1.6206  0.7517 -2.4062
 3231SOL     OW21328   1.890   1.813  16.581 -0.8800  0.3369  0.6719
 3231SOL    HW121329   1.885   1.799  16.676 -2.2932  0.2196  0.5831
 3231SOL    HW221330   1.921   1.727  16.552 -0.5161  0.1094  1.7549
 3232SOL     OW21331   1.085   3.503   4.465  0.1293  0.1169  0.8280
 3232SOL    HW121332   1.100   3.411   4.442 -0.9285  0.2103 -0.2055
 3232SOL    HW221333   1.115   3.506   4.556  1.0519  1.2012  0.4952
 3233SOL     OW21334   4.724   1.003   4.943  0.1588 -0.0853  0.3822
 3233SOL    HW121335   0.068   0.957   4.950 -0.2998 -1.1701 -1.2829
 3233SOL    HW221336   4.711   0.988   4.849  2.7949  0.3481 -0.0610
 3234SOL     OW21337   0.651   1.202   7.535  0.0936 -0.7115  0.5640
 3234SOL    HW121338   0.646   1.298   7.534 -4.2344 -0.9213  0.8230
 3234SOL    HW221339   0.610   1.185   7.620  1.6413 -0.7861  1.2991
 3235SOL     OW21340   2.086   3.304   3.870  0.5099  0.3464  0.4185
 3235SOL    HW121341   2.095   3.253   3.789 -0.7760  2.3152 -0.9677
 3235SOL    HW221342   1.998   3.341   3.860  0.7440  0.6437 -0.6198
 3236SOL     OW21343   0.313   1.002   8.229 -0.2159  0.3483  0.1896
 3236SOL    HW121344   0.371   0.962   8.293  0.2574 -1.9276 -1.6467
 3236SOL    HW221345   0.226   1.004   8.269  0.3848  3.5745  1.2827
 3237SOL     OW21346   2.180   1.464   7.921 -0.6443 -0.3021  0.2130
 3237SOL    HW121347   2.110   1.529   7.927 -0.6975 -0.3741  0.3715
 3237SOL    HW221348   2.158   1.438   7.831 -0.3729 -1.9105  0.6073
 3238SOL     OW21349   0.331   1.872   5.474 -0.1116 -0.3661  0.5864
 3238SOL    HW121350   0.343   1.885   5.380  1.9450  0.5234  0.9727
 3238SOL    HW221351   0.417   1.892   5.511  0.7243 -0.4443 -1.2926
 3239SOL     OW21352   0.100   4.329   2.140 -0.6492  0.4685  0.1776
 3239SOL    HW121353   0.093   4.331   2.235  1.7787  0.4665  0.3651
 3239SOL    HW221354   0.025   4.281   2.105 -0.4417  0.8118 -0.7508
 3240SOL     OW21355   1.365   1.180   8.924  0.6338  0.1697  0.1053
 3240SOL    HW121356   1.359   1.193   9.019 -1.1717  2.9990 -0.3976
 3240SOL    HW221357   1.456   1.205   8.910  0.5214 -1.3684 -3.2934
 3241SOL     OW21358   2.651   2.564  12.708  0.3794 -0.5443 -0.6192
 3241SOL    HW121359   2.663   2.510  12.786  2.7598  1.4439  0.3886
 3241SOL    HW221360   2.580   2.622  12.735  0.1952 -0.8417 -0.4667
 3242SOL     OW21361   2.245   1.199  10.637 -0.5399  0.5860 -0.6805
 3242SOL    HW121362   2.337   1.202  10.610 -0.0291  1.6668  1.2109
 3242SOL    HW221363   2.224   1.291  10.624 -0.7931  0.8662  1.8841
 3243SOL     OW21364   0.684   0.729   4.214 -0.1180 -0.1055 -0.3262
 3243SOL    HW121365   0.764   0.740   4.161 -0.3900  1.0217 -0.4949
 3243SOL    HW221366   0.725   0.702   4.296  1.7236  0.9594 -0.8931
 3244SOL     OW21367   4.518   3.350  16.309  0.0015  0.4483  0.2891
 3244SOL    HW121368   4.559   3.427  16.348 -1.9238  1.1392  0.9007
 3244SOL    HW221369   4.583   3.281  16.326 -0.7361 -0.5013 -0.7472
 3245SOL     OW21370   1.364   2.904   5.149  0.5352 -0.1809  0.2847
 3245SOL    HW121371   1.378   2.810   5.138 -1.3128 -0.2063 -1.7300
 3245SOL    HW221372   1.452   2.929   5.178 -0.8383  3.2547  1.4845
 3246SOL     OW21373   1.102   2.338   3.765 -0.2095  0.0002 -0.0075
 3246SOL    HW121374   1.078   2.256   3.722  1.2055 -0.9055  0.9192
 3246SOL    HW221375   1.176   2.376   3.717  0.1613 -0.7754 -0.0436
 3247SOL     OW21376   1.110   2.061   6.801 -0.4770 -0.0084 -0.1731
 3247SOL    HW121377   1.193   2.036   6.840 -0.7461  0.2271  0.5360
 3247SOL    HW221378   1.138   2.078   6.711 -0.2326  0.3999 -0.0203
 3248SOL     OW21379   3.983   3.762   7.011 -0.7715  0.2020  0.6400
 3248SOL    HW121380   4.046   3.820   7.053 -0.1835 -0.2212  0.3379
 3248SOL    HW221381   3.902   3.794   7.052 -0.5245 -0.3205  1.5316
 3249SOL     OW21382   2.833   2.756   2.672 -0.6263  0.0467  0.7109
 3249SOL    HW121383   2.825   2.664   2.695 -1.4057  0.1727  0.9445
 3249SOL    HW221384   2.752   2.793   2.706 -1.9501 -0.5183 -1.8781
 3250SOL     OW21385   0.830   2.796   5.449 -0.4878  0.2129 -0.6968
 3250SOL    HW121386   0.810   2.760   5.535 -1.4933  0.2335 -0.9116
 3250SOL    HW221387   0.803   2.722   5.394  1.3317 -1.3139  0.4693
 3251SOL     OW21388   1.244   3.507  15.967 -0.1420 -0.1561  0.2794
 3251SOL    HW121389   1.171   3.453  15.999  1.3040 -1.8069  0.8027
 3251SOL    HW221390   1.321   3.459  15.997 -0.7480 -0.8262  0.7539
 3252SOL     OW21391   1.497   0.773   4.977  0.1059  0.6509 -0.4822
 3252SOL    HW121392   1.482   0.684   5.008  0.4119  1.2717  1.4702
 3252SOL    HW221393   1.531   0.819   5.054 -0.3991  2.7673 -1.5164
 3253SOL     OW21394   4.094   2.774  17.129  0.4690 -0.1435 -0.6896
 3253SOL    HW121395   4.109   2.833  17.202  0.9637 -1.0670 -0.0526
 3253SOL    HW221396   4.063   2.696  17.175 -2.0952  1.3429  0.0592
 3254SOL     OW21397   3.691   0.557   2.560 -0.3198  0.1648 -0.0667
 3254SOL    HW121398   3.693   0.482   2.501  1.9795  0.2508 -0.0902
 3254SOL    HW221399   3.701   0.505   2.639  0.4181 -0.3306 -0.4870
 3255SOL     OW21400   4.459   1.908   0.257  0.0394  0.5333 -0.3552
 3255SOL    HW121401   4.491   1.954   0.335  0.9484 -1.1365  0.2524
 3255SOL    HW221402   4.395   1.965   0.215 -0.0960  0.2673 -0.5082
 3256SOL     OW21403   2.092   1.890   4.589  0.1911  0.0151  0.6441
 3256SOL    HW121404   2.065   1.874   4.498  0.0174  2.9599  0.1667
 3256SOL    HW221405   2.046   1.826   4.644  1.3055  2.8838  4.8645
 3257SOL     OW21406   3.966   0.537   2.181 -0.5456 -0.2225  0.4426
 3257SOL    HW121407   3.957   0.623   2.139 -4.6105 -0.6694  0.3675
 3257SOL    HW221408   4.026   0.489   2.123  1.4427  1.5188  1.0678
 3258SOL     OW21409   2.860   0.111   8.578  0.2530 -0.0531  0.4446
 3258SOL    HW121410   2.835   0.043   8.515 -0.7876  0.9832 -0.2658
 3258SOL    HW221411   2.914   0.172   8.528  0.5836 -0.3001  0.4981
 3259SOL     OW21412   0.693   1.710  16.401  0.1349  0.2105 -0.4945
 3259SOL    HW121413   0.627   1.779  16.392  1.0180  1.0660 -0.4564
 3259SOL    HW221414   0.642   1.646  16.450  1.4950 -0.8657 -0.4984
 3260SOL     OW21415   2.495   3.686   7.139  0.3184  0.0879 -1.1126
 3260SOL    HW121416   2.544   3.667   7.219  1.6950  0.1558 -1.9413
 3260SOL    HW221417   2.463   3.773   7.161  0.5893 -0.4292  1.3153
 3261SOL     OW21418   4.270   3.907  10.549  0.1161 -0.8095  0.4207
 3261SOL    HW121419   4.192   3.939  10.504  0.9680 -0.8733 -1.1130
 3261SOL    HW221420   4.249   3.817  10.574 -0.4202 -0.6090  0.6968
 3262SOL     OW21421   4.271   1.285  13.213  0.2736  0.9551  0.0031
 3262SOL    HW121422   4.360   1.249  13.218  0.4381  1.2395 -1.0000
 3262SOL    HW221423   4.278   1.364  13.267  2.2793  2.3486 -2.3071
 3263SOL     OW21424   1.051   3.273   7.298 -0.6918  0.1532  0.6402
 3263SOL    HW121425   0.985   3.323   7.347 -2.4597 -0.4762 -1.0569
 3263SOL    HW221426   1.078   3.341   7.235  0.8019 -1.5168 -0.5046
 3264SOL     OW21427   3.533   0.412   4.241  0.4261  0.2876  0.6483
 3264SOL    HW121428   3.531   0.323   4.277 -1.0808 -0.6864 -1.8378
 3264SOL    HW221429   3.619   0.449   4.260  0.2601  0.4498  1.0757
 3265SOL     OW21430   2.378   0.182   9.924  0.2907  0.2638  0.1126
 3265SOL    HW121431   2.296   0.176   9.973  0.3530 -1.4109 -0.0125
 3265SOL    HW221432   2.362   0.244   9.852  1.2337 -1.0925 -1.2565
 3266SOL     OW21433   0.610   2.458   7.209 -0.0824  0.2430 -0.0472
 3266SOL    HW121434   0.705   2.458   7.199 -0.0219 -0.0834  0.5329
 3266SOL    HW221435   0.579   2.392   7.146  0.5246  1.7966 -1.9785
 3267SOL     OW21436   0.791   2.745   7.336  0.4144  0.4061 -0.3612
 3267SOL    HW121437   0.802   2.807   7.264  2.2146  1.0805  0.4912
 3267SOL    HW221438   0.876   2.702   7.346  1.0045  1.8667  0.8051
 3268SOL     OW21439   1.802   4.575   8.375 -0.2124  0.3275 -0.0928
 3268SOL    HW121440   1.872   4.605   8.433 -1.7469  1.9553  0.9231
 3268SOL    HW221441   1.746   4.651   8.389 -0.6644 -0.1470  0.6737
 3269SOL     OW21442   3.612   3.670   7.706 -0.0472  0.1779  0.3566
 3269SOL    HW121443   3.537   3.618   7.675  0.0888 -0.1433  0.5666
 3269SOL    HW221444   3.583   3.674   7.797 -1.0092 -1.2433  0.1107
 3270SOL     OW21445   2.618   1.184   7.058 -0.2988 -0.0099  0.2381
 3270SOL    HW121446   2.684   1.131   7.013 -1.7593 -2.4814  0.9691
 3270SOL    HW221447   2.545   1.176   6.997  1.0231 -0.4443 -1.3033
 3271SOL     OW21448   4.530   3.440   8.767 -0.1079  0.5791 -0.3442
 3271SOL    HW121449   4.514   3.402   8.853  1.9278  0.2292 -0.1393
 3271SOL    HW221450   4.454   3.408   8.718 -0.7553  0.7944  0.5182
 3272SOL     OW21451   1.340   1.990   6.967 -0.4564  0.5091  0.5149
 3272SOL    HW121452   1.300   1.917   7.015 -1.3034  0.3373 -0.4482
 3272SOL    HW221453   1.367   2.041   7.044 -1.6300  0.0401  1.2465
 3273SOL     OW21454   3.562   4.116  10.939  0.2340  0.0822  0.8435
 3273SOL    HW121455   3.580   4.210  10.942 -1.1611  0.4445 -2.3585
 3273SOL    HW221456   3.569   4.103  10.845 -1.4075  2.7136  0.3415
 3274SOL     OW21457   1.307   4.228   8.158 -0.3211 -0.2748  0.3371
 3274SOL    HW121458   1.355   4.150   8.185 -2.1357 -2.1005 -1.6706
 3274SOL    HW221459   1.214   4.206   8.168  0.1310 -1.4582  1.8350
 3275SOL     OW21460   3.424   2.929   3.168 -0.5556 -0.4219 -0.4632
 3275SOL    HW121461   3.335   2.920   3.134 -1.1202 -2.7350  1.5885
 3275SOL    HW221462   3.473   2.867   3.114  0.0920 -0.3626  0.0648
 3276SOL     OW21463   2.125   1.301   2.553  0.5074 -0.0447  0.5285
 3276SOL    HW121464   2.074   1.266   2.626 -0.1679 -0.6444 -0.2369
 3276SOL    HW221465   2.210   1.313   2.595  0.6970 -0.2465  0.1999
 3277SOL     OW21466   1.511   3.900  11.911  0.4534 -0.0887  0.0239
 3277SOL    HW121467   1.587   3.841  11.911 -0.0910 -0.8057  2.4059
 3277SOL    HW221468   1.528   3.950  11.990  1.4008  1.0758 -0.9255
 3278SOL     OW21469   4.097   1.898   5.244 -0.1329  0.0646  0.4107
 3278SOL    HW121470   4.089   1.817   5.295  1.0572  0.4129  1.1461
 3278SOL    HW221471   4.165   1.937   5.299 -0.8341 -0.1314  1.4039
 3279SOL     OW21472   3.751   1.757  13.468 -0.0099  0.3175 -0.2279
 3279SOL    HW121473   3.726   1.835  13.519  1.0560  0.8606 -0.5385
 3279SOL    HW221474   3.749   1.805  13.386 -0.8563  0.6260 -0.0272
 3280SOL     OW21475   2.877   2.534   6.829  0.2271 -0.7208  0.1136
 3280SOL    HW121476   2.948   2.596   6.812  0.3252 -0.5633  1.0695
 3280SOL    HW221477   2.926   2.466   6.875 -0.8103 -0.9520  0.8728
 3281SOL     OW21478   0.433   4.089   8.696 -0.9795  0.7331  0.1821
 3281SOL    HW121479   0.422   4.092   8.791  1.2335  0.0595  0.4564
 3281SOL    HW221480   0.524   4.060   8.684 -2.3651 -2.2383 -3.1622
 3282SOL     OW21481   1.878   1.771   6.194  0.0380  0.0362  0.1426
 3282SOL    HW121482   1.810   1.835   6.213 -0.7652 -0.5552 -0.7811
 3282SOL    HW221483   1.926   1.786   6.275  2.0306  1.0046 -1.1999
 3283SOL     OW21484   4.257   1.607  16.583 -0.1139  0.0720  0.8310
 3283SOL    HW121485   4.248   1.701  16.569  0.7424 -0.0342 -0.4584
 3283SOL    HW221486   4.289   1.608  16.673 -1.0876  0.2634  1.1806
 3284SOL     OW21487   0.738   2.961  12.144  0.1117  0.0587  0.5273
 3284SOL    HW121488   0.760   2.957  12.237  0.9496  0.3244  0.3421
 3284SOL    HW221489   0.667   3.026  12.140 -1.7141 -1.9361  0.4972
 3285SOL     OW21490   1.847   4.437   1.348  0.0600 -0.3597 -0.2529
 3285SOL    HW121491   1.757   4.454   1.377  0.9508 -0.2800  2.4699
 3285SOL    HW221492   1.829   4.409   1.258  1.6389 -2.0610 -0.0405
 3286SOL     OW21493   3.880   1.678   2.585 -0.2439  0.4956 -0.2437
 3286SOL    HW121494   3.850   1.624   2.659  2.2849 -1.8304 -0.9175
 3286SOL    HW221495   3.927   1.606   2.543  1.7770  2.4969 -1.3607
 3287SOL     OW21496   1.721   4.579  12.208  0.1322  0.2476  0.0780
 3287SOL    HW121497   1.641   4.620  12.241  0.9047  1.5787  0.3318
 3287SOL    HW221498   1.736   4.632  12.130 -1.2298 -1.2554 -1.2109
 3288SOL     OW21499   4.184   2.597  17.572  0.0468 -0.1133 -0.2063
 3288SOL    HW121500   4.148   2.587  17.660  0.9534 -0.0726  0.1702
 3288SOL    HW221501   4.278   2.591  17.590 -0.2446 -2.3610  0.6600
 3289SOL     OW21502   1.769   2.312   4.020 -0.0744 -0.0695  0.0090
 3289SOL    HW121503   1.729   2.230   3.991 -0.3459 -0.4235  1.3920
 3289SOL    HW221504   1.830   2.298   4.092 -0.1293 -1.1183 -0.1492
 3290SOL     OW21505   4.582   0.799   0.760 -0.3981  0.3325  0.5043
 3290SOL    HW121506   4.672   0.818   0.733  0.3712 -0.4443  2.5343
 3290SOL    HW221507   4.557   0.727   0.701 -0.0585  2.4108 -2.1849
 3291SOL     OW21508   1.402   0.590   6.760 -0.1987  0.3214 -0.1068
 3291SOL    HW121509   1.387   0.684   6.767  0.8778  0.7271 -3.2303
 3291SOL    HW221510   1.498   0.597   6.761 -0.1218 -0.9821  0.5225
 3292SOL     OW21511   2.839   1.776   1.856 -0.6460  0.4540 -0.0069
 3292SOL    HW121512   2.893   1.726   1.795  0.2501  1.3375  0.0516
 3292SOL    HW221513   2.790   1.709   1.904 -0.2883 -0.7949 -1.3947
 3293SOL     OW21514   3.990   1.537  10.839  0.2147  0.1660 -0.7867
 3293SOL    HW121515   4.083   1.559  10.847 -0.1373  0.5286  2.1950
 3293SOL    HW221516   3.969   1.540  10.932  2.9177  2.9727 -0.2890
 3294SOL     OW21517   4.655   0.611   0.314 -0.2905 -0.3046 -0.2986
 3294SOL    HW121518   4.736   0.622   0.263  1.0812 -1.4476  1.6401
 3294SOL    HW221519   4.658   0.516   0.326 -1.2206 -0.1329  1.2634
 3295SOL     OW21520   3.746   4.688   3.191  0.3226 -0.0890 -0.3487
 3295SOL    HW121521   3.805   4.615   3.176  0.2629  0.1137 -1.5733
 3295SOL    HW221522   3.797   0.015   3.146 -0.9688  1.1434  0.0093
 3296SOL     OW21523   3.108   0.198   8.879  0.1429  0.0423 -0.2385
 3296SOL    HW121524   3.131   0.138   8.950 -2.4647  0.1982  0.7164
 3296SOL    HW221525   3.018   0.169   8.866 -0.0572  0.1277  0.9616
 3297SOL     OW21526   3.825   4.083  15.724 -0.0977  0.6122 -0.2054
 3297SOL    HW121527   3.794   4.020  15.789  0.4069  0.9157  0.3379
 3297SOL    HW221528   3.914   4.049  15.716 -0.2812  0.7153 -2.5721
 3298SOL     OW21529   1.423   0.375   9.416 -0.2562 -0.4404  0.6128
 3298SOL    HW121530   1.346   0.318   9.412 -1.8870  1.7099  1.7504
 3298SOL    HW221531   1.416   0.424   9.334  0.3784  0.0645  0.8605
 3299SOL     OW21532   4.550   2.352  10.875 -0.4413 -0.1552  0.5511
 3299SOL    HW121533   4.503   2.362  10.958 -1.8567  0.1137 -0.2773
 3299SOL    HW221534   4.545   2.260  10.850  0.8796 -0.2081  0.4999
 3300SOL     OW21535   0.707   1.907   7.377  0.0902  0.0051  0.5402
 3300SOL    HW121536   0.664   1.961   7.443  0.4154 -1.1039  1.6642
 3300SOL    HW221537   0.630   1.875   7.330 -0.0992  1.3107 -0.0543
 3301SOL     OW21538   1.669   4.729   7.928  0.3227 -0.5661 -0.2155
 3301SOL    HW121539   1.722   4.696   8.000  1.2038  0.0642 -0.5834
 3301SOL    HW221540   1.668   4.656   7.866 -0.0395  0.1003 -0.9928
 3302SOL     OW21541   0.447   2.964   8.462 -0.0050 -0.3806 -0.1859
 3302SOL    HW121542   0.433   3.037   8.402 -0.8410  0.5558  1.1505
 3302SOL    HW221543   0.537   2.940   8.442  0.1823 -1.0006  1.4460
 3303SOL     OW21544   4.700   0.220   4.122  0.1628 -0.0689  0.4322
 3303SOL    HW121545   0.052   0.211   4.098  0.8242 -0.4531  3.1394
 3303SOL    HW221546   4.651   0.216   4.040  1.1590  3.1128 -0.2811
 3304SOL     OW21547   3.170   1.744  11.494  0.3702  0.3599 -0.0463
 3304SOL    HW121548   3.132   1.715  11.577 -0.7759  0.6338 -0.4822
 3304SOL    HW221549   3.262   1.761  11.514  0.2480  0.1339  0.7264
 3305SOL     OW21550   0.011   1.616   5.523  0.0936 -0.1686  0.3977
 3305SOL    HW121551   0.046   1.591   5.438  1.8893  0.3043  1.0024
 3305SOL    HW221552   4.661   1.584   5.523  0.3775 -1.0032  2.4455
 3306SOL     OW21553   1.733   3.954   6.554 -0.2171  0.4819 -0.3845
 3306SOL    HW121554   1.763   3.863   6.561 -0.3015  0.5196  0.5235
 3306SOL    HW221555   1.815   4.002   6.543  0.6337 -0.4733  1.7140
 3307SOL     OW21556   4.368   1.224   5.047  0.5956 -0.0002  0.2075
 3307SOL    HW121557   4.304   1.280   5.003  0.2788 -1.8046 -1.5987
 3307SOL    HW221558   4.314   1.151   5.078  0.1888 -1.2136 -3.3944
 3308SOL     OW21559   1.326   0.363  15.736 -0.6734 -0.1949  0.1288
 3308SOL    HW121560   1.278   0.288  15.771  1.1305 -1.5855 -0.3843
 3308SOL    HW221561   1.391   0.309  15.692  0.3353  0.7213  0.5053
 3309SOL     OW21562   1.425   1.977   8.539 -0.1892  0.8462  0.1065
 3309SOL    HW121563   1.406   1.886   8.560 -1.2718  0.8318 -0.9826
 3309SOL    HW221564   1.343   2.017   8.568  0.2940  2.2292 -0.4083
 3310SOL     OW21565   4.272   2.766   7.971 -0.1769  0.0153  0.1879
 3310SOL    HW121566   4.320   2.764   8.054 -1.1401  0.7599  0.7653
 3310SOL    HW221567   4.223   2.686   7.988 -0.9913  0.4985  0.0886
 3311SOL     OW21568   3.100   4.639   5.111 -0.8333  0.5597  0.2151
 3311SOL    HW121569   3.189   4.602   5.112 -0.6954  0.8599 -1.2821
 3311SOL    HW221570   3.103   4.684   5.196  0.9561 -0.8078  0.8811
 3312SOL     OW21571   0.437   0.146   4.148 -0.1505  0.3678 -0.0364
 3312SOL    HW121572   0.532   0.152   4.136 -0.0813 -0.3909  0.0976
 3312SOL    HW221573   0.423   0.061   4.190 -0.9551  1.3772  1.7316
 3313SOL     OW21574   3.297   1.115   5.237 -0.5284  0.1709 -0.5328
 3313SOL    HW121575   3.287   1.087   5.146 -2.8347  2.5343 -1.0288
 3313SOL    HW221576   3.219   1.166   5.259  2.1724  3.8235  0.4754
 3314SOL     OW21577   2.403   2.948   4.899 -0.2082 -0.3713  0.0052
 3314SOL    HW121578   2.446   2.958   4.815  0.0375  0.5625  0.2497
 3314SOL    HW221579   2.466   2.975   4.965  1.8114 -0.7073 -1.8141
 3315SOL     OW21580   2.666   4.184   5.993  0.3627 -0.9947 -0.0630
 3315SOL    HW121581   2.741   4.138   5.955  0.1926 -0.3787 -1.1537
 3315SOL    HW221582   2.613   4.214   5.918  0.9502 -0.9381 -0.4570
 3316SOL     OW21583   3.426   2.058   0.903  0.2317 -0.0881 -0.1156
 3316SOL    HW121584   3.358   2.106   0.854  1.3033  1.9012  0.3656
 3316SOL    HW221585   3.400   1.968   0.881 -1.3143  0.7462 -1.7404
 3317SOL     OW21586   2.672   2.949   3.020 -0.1614  0.1188 -0.5173
 3317SOL    HW121587   2.578   2.932   3.014 -0.0457  0.0041 -1.9511
 3317SOL    HW221588   2.671   3.030   3.072  2.8143 -1.4565  2.0147
 3318SOL     OW21589   2.336   1.646   8.813 -0.4170  0.7896 -0.1178
 3318SOL    HW121590   2.283   1.601   8.747  1.0670  0.8327 -1.3279
 3318SOL    HW221591   2.406   1.583   8.825 -0.9127  0.0853 -0.9119
 3319SOL     OW21592   2.599   2.301   7.468 -0.0330 -0.1048  0.1400
 3319SOL    HW121593   2.671   2.241   7.449 -1.5513 -1.8578 -0.1461
 3319SOL    HW221594   2.571   2.301   7.376  1.8065 -0.0763 -0.4102
 3320SOL     OW21595   1.436   2.678   3.144  0.0962  0.5474  0.5305
 3320SOL    HW121596   1.495   2.663   3.070 -0.2255  0.1527  0.3523
 3320SOL    HW221597   1.352   2.663   3.101  0.4913  1.4857 -0.5644
 3321SOL     OW21598   2.502   3.091   2.620 -0.3009 -0.1869 -0.2018
 3321SOL    HW121599   2.553   3.156   2.572 -2.4601 -1.1728 -3.8796
 3321SOL    HW221600   2.418   3.106   2.577 -1.1350  0.1698  1.5514
 3322SOL     OW21601   0.592   1.099   0.128 -0.4939 -0.2609  0.4304
 3322SOL    HW121602   0.513   1.145   0.154  1.3672  3.0600  0.2050
 3322SOL    HW221603   0.612   1.051   0.209 -1.8970  1.8033  2.0201
 3323SOL     OW21604   3.425   2.374   2.963  0.4715  0.2089 -0.0163
 3323SOL    HW121605   3.478   2.298   2.938 -0.0822  0.2717 -1.3805
 3323SOL    HW221606   3.467   2.395   3.046 -0.8809 -0.4787  0.8516
 3324SOL     OW21607   3.079   0.812   4.012  0.3760 -0.0345  0.1158
 3324SOL    HW121608   3.078   0.752   3.937 -0.3183 -0.6685  0.6280
 3324SOL    HW221609   3.146   0.771   4.067 -0.1301 -0.5344  0.3705
 3325SOL     OW21610   2.499   4.259   6.861 -0.4275  0.2343  0.1102
 3325SOL    HW121611   2.575   4.264   6.919  0.9755 -0.9363 -1.6104
 3325SOL    HW221612   2.529   4.294   6.777  1.4614  2.2381  1.6473
 3326SOL     OW21613   3.535   1.503   0.717  0.0034  0.4208  0.3560
 3326SOL    HW121614   3.626   1.524   0.693  0.1840 -0.0183  0.6601
 3326SOL    HW221615   3.546   1.447   0.794  2.0891  1.8799  1.1393
 3327SOL     OW21616   3.075   3.345   5.732 -0.2069 -0.1747  0.5067
 3327SOL    HW121617   3.127   3.335   5.652 -1.0736  2.2972 -0.3520
 3327SOL    HW221618   3.080   3.255   5.766  2.2288 -0.4842 -0.6164
 3328SOL     OW21619   1.684   3.513   1.457 -0.5718  0.3388 -0.2017
 3328SOL    HW121620   1.636   3.593   1.435  0.8632  0.6628 -2.0938
 3328SOL    HW221621   1.712   3.540   1.545 -0.0403  2.3879 -1.0070
 3329SOL     OW21622   0.380   4.730   9.190 -0.3769 -0.1771  0.0128
 3329SOL    HW121623   0.413   0.074   9.158 -0.2086  0.3621  1.5933
 3329SOL    HW221624   0.324   0.013   9.265  1.5783 -0.5133  1.5552
 3330SOL     OW21625   1.168   1.701  16.250 -0.5054 -0.0135  0.0126
 3330SOL    HW121626   1.083   1.667  16.225  0.1251 -2.3969  1.1066
 3330SOL    HW221627   1.140   1.791  16.266 -0.2594 -0.2199  1.6508
 3331SOL     OW21628   0.385   1.316   3.567  0.4489 -0.3333 -0.0518
 3331SOL    HW121629   0.442   1.347   3.497 -0.5280  0.8155 -0.3484
 3331SOL    HW221630   0.390   1.222   3.555 -0.3993 -0.5002  0.8641
 3332SOL     OW21631   3.020   4.318   1.908  0.0985  0.0210  0.3902
 3332SOL    HW121632   2.956   4.271   1.855 -0.3922  1.7586 -0.5228
 3332SOL    HW221633   3.080   4.344   1.838 -0.2870  0.2002  0.1346
 3333SOL     OW21634   2.870   4.569   1.676  0.1167  0.0327  0.5093
 3333SOL    HW121635   2.837   4.626   1.607 -0.1751 -1.3010 -0.4437
 3333SOL    HW221636   2.940   4.518   1.636  1.4017  2.7322 -0.6899
 3334SOL     OW21637   0.447   3.487   6.646  0.7830  0.0814 -0.3999
 3334SOL    HW121638   0.479   3.412   6.596  0.0907 -1.1121  0.9545
 3334SOL    HW221639   0.458   3.453   6.735  1.6479 -3.3357 -1.8135
 3335SOL     OW21640   1.948   0.843   1.544 -0.6656  0.3332 -0.3283
 3335SOL    HW121641   1.937   0.750   1.561 -1.5891  0.7196  1.1928
 3335SOL    HW221642   1.868   0.876   1.584 -1.8396 -2.6744 -0.2230
 3336SOL     OW21643   3.839   4.311   3.449 -0.2489  0.3053 -0.1170
 3336SOL    HW121644   3.887   4.389   3.478 -0.4696 -0.1340  1.4240
 3336SOL    HW221645   3.918   4.256   3.451  0.0155  0.6598 -0.7536
 3337SOL     OW21646   0.591   3.096   4.781 -1.2648  0.4331 -0.4659
 3337SOL    HW121647   0.541   3.044   4.718 -0.5406 -0.8629  0.0265
 3337SOL    HW221648   0.629   3.161   4.722  0.5616 -0.5956 -0.4397
 3338SOL     OW21649   0.884   3.095   0.359 -0.2225 -0.6293 -0.4723
 3338SOL    HW121650   0.932   3.170   0.394 -0.2651 -0.2343 -1.2556
 3338SOL    HW221651   0.855   3.128   0.274 -0.7663  1.1561  0.4257
 3339SOL     OW21652   1.500   3.266   6.283  0.1574 -0.1585 -0.4179
 3339SOL    HW121653   1.573   3.205   6.297  1.0950  1.0999  0.1871
 3339SOL    HW221654   1.499   3.292   6.375  0.6937 -1.3381 -0.0868
 3340SOL     OW21655   4.682   3.514   7.524  0.3171 -0.6232  0.5051
 3340SOL    HW121656   0.033   3.529   7.549  0.7551 -0.4845 -1.2152
 3340SOL    HW221657   4.665   3.420   7.526 -3.7510  0.0845  0.2268
 3341SOL     OW21658   1.402   2.739  14.110 -0.2456  0.3656 -0.0393
 3341SOL    HW121659   1.460   2.682  14.159 -3.6649 -2.0940  1.1549
 3341SOL    HW221660   1.345   2.671  14.074  0.7335  0.0975 -1.1149
 3342SOL     OW21661   1.908   3.082   6.948  0.0528  0.4613 -0.0895
 3342SOL    HW121662   1.950   3.136   7.014 -1.3335  1.3677  0.0608
 3342SOL    HW221663   1.843   3.139   6.907  0.2288 -0.3228 -1.4864
 3343SOL     OW21664   0.395   0.927   9.045  0.5036 -0.2132  0.5019
 3343SOL    HW121665   0.404   0.877   8.964 -0.8126 -2.2670  1.5991
 3343SOL    HW221666   0.301   0.920   9.063  0.0566 -0.8264 -2.1288
 3344SOL     OW21667   0.600   3.619   6.187  0.6367 -0.0667  0.4011
 3344SOL    HW121668   0.574   3.625   6.095  0.2723 -0.0151  0.5060
 3344SOL    HW221669   0.519   3.638   6.236  0.9099  0.2281  0.7351
 3345SOL     OW21670   0.265   0.437   3.559  0.0494  0.5122  0.2537
 3345SOL    HW121671   0.287   0.476   3.474 -1.1023 -0.9090 -0.7018
 3345SOL    HW221672   0.225   0.355   3.530 -0.8811  1.2546 -0.5550
 3346SOL     OW21673   4.456   2.691  12.573 -0.4462  0.1190  0.2363
 3346SOL    HW121674   4.435   2.781  12.600 -2.4663 -0.0484 -0.7479
 3346SOL    HW221675   4.397   2.680  12.498 -1.0264 -0.4610  0.7772
 3347SOL     OW21676   3.849   4.586   4.110 -0.4553  0.1012 -0.5298
 3347SOL    HW121677   3.817   4.668   4.148  1.1956  0.2250  0.5989
 3347SOL    HW221678   3.856   4.538   4.193  0.0094  3.2842  1.2643
 3348SOL     OW21679   2.348   1.694   2.501  0.0462 -0.6224  0.2133
 3348SOL    HW121680   2.313   1.639   2.431  1.9931  1.8429 -2.6422
 3348SOL    HW221681   2.300   1.667   2.580  1.8600 -3.8966  0.2166
 3349SOL     OW21682   1.843   0.745   4.862  0.0688  0.1408 -0.2739
 3349SOL    HW121683   1.807   0.739   4.950 -2.2848 -0.3947 -1.2948
 3349SOL    HW221684   1.763   0.757   4.811 -0.1407 -2.3508 -0.5319
 3350SOL     OW21685   2.727   3.472   4.901 -0.4992 -0.3367  0.5002
 3350SOL    HW121686   2.805   3.474   4.845 -1.7199 -2.4637 -1.2639
 3350SOL    HW221687   2.705   3.565   4.909 -0.2377 -0.3278  1.1546
 3351SOL     OW21688   3.448   3.518  13.129  0.5536 -0.3605 -0.0978
 3351SOL    HW121689   3.454   3.469  13.047 -0.1626  1.3284 -1.1680
 3351SOL    HW221690   3.445   3.446  13.192  0.7431 -1.7573 -1.6648
 3352SOL     OW21691   0.838   4.090   3.498 -0.5542  0.3276  0.3578
 3352SOL    HW121692   0.743   4.099   3.492 -0.3894  0.7961 -1.5470
 3352SOL    HW221693   0.843   4.076   3.592  1.1477 -1.3537 -0.0059
 3353SOL     OW21694   2.009   2.292  10.433 -0.9209 -0.1986 -0.1196
 3353SOL    HW121695   1.920   2.268  10.457 -0.3664 -1.3665  0.7538
 3353SOL    HW221696   1.997   2.331  10.347  1.3355 -2.1625 -1.3074
 3354SOL     OW21697   1.498   4.399  15.029  0.1529  0.2858  0.1532
 3354SOL    HW121698   1.412   4.365  15.006 -0.1466 -1.1637  3.4370
 3354SOL    HW221699   1.491   4.478  14.975  0.1090 -0.1311 -0.4469
 3355SOL     OW21700   0.096   0.778   3.889 -0.0469  0.1955  0.3490
 3355SOL    HW121701   0.154   0.702   3.895  1.8022  1.3946 -2.4505
 3355SOL    HW221702   0.085   0.793   3.983  0.2970 -0.7642  0.5432
 3356SOL     OW21703   3.198   3.625   8.308 -0.3651 -0.2891 -0.1738
 3356SOL    HW121704   3.159   3.539   8.289 -2.7350  0.6373  0.5332
 3356SOL    HW221705   3.201   3.654   8.216 -3.7965  0.5390 -0.0238
 3357SOL     OW21706   4.137   1.712  12.783  0.1409 -0.3497 -0.3416
 3357SOL    HW121707   4.108   1.800  12.758  2.0472  0.1991 -0.5940
 3357SOL    HW221708   4.088   1.710  12.865 -2.1898 -1.1908 -1.7379
 3358SOL     OW21709   1.392   4.564  10.171 -0.3153  0.6438 -0.3438
 3358SOL    HW121710   1.464   4.574  10.232  1.5004 -1.1364 -2.1915
 3358SOL    HW221711   1.325   4.610  10.221  0.9975  1.3509  0.7286
 3359SOL     OW21712   4.237   1.091   5.623  0.4454  0.2358  0.2968
 3359SOL    HW121713   4.274   1.169   5.665  1.2528  0.2928 -0.5239
 3359SOL    HW221714   4.276   1.113   5.538 -0.1698  0.9666  0.1995
 3360SOL     OW21715   0.604   3.197   3.373  0.0254  0.0526  0.5935
 3360SOL    HW121716   0.562   3.199   3.459  0.2602 -0.4758  0.7196
 3360SOL    HW221717   0.552   3.119   3.353  2.5961 -1.5390  0.1746
 3361SOL     OW21718   2.600   3.925   2.392  0.6662  0.0242 -0.6555
 3361SOL    HW121719   2.641   3.882   2.466 -3.6877 -1.4148  0.9069
 3361SOL    HW221720   2.641   4.011   2.395  0.8776  0.0176 -3.4693
 3362SOL     OW21721   2.423   1.281   5.994 -0.2715 -0.0493 -0.3807
 3362SOL    HW121722   2.333   1.255   5.974  0.3602 -0.9098 -2.1096
 3362SOL    HW221723   2.447   1.340   5.923  1.2644  1.0044  1.0120
 3363SOL     OW21724   0.045   3.086   5.647  0.0205  0.1116  0.0586
 3363SOL    HW121725   0.008   3.084   5.558  1.3001 -0.2688 -0.4723
 3363SOL    HW221726   0.137   3.085   5.618  0.0913 -1.6983  0.3844
 3364SOL     OW21727   3.587   2.898  11.791  0.1864 -0.4950  0.1204
 3364SOL    HW121728   3.634   2.981  11.796  1.7239 -1.2670 -1.4306
 3364SOL    HW221729   3.560   2.893  11.883 -0.0244  0.8095  0.1298
 3365SOL     OW21730   2.279   4.553   1.583  0.4257 -0.2176  0.0612
 3365SOL    HW121731   2.241   4.489   1.522 -0.4752  0.6495 -0.2795
 3365SOL    HW221732   2.241   4.633   1.547  0.2196 -0.8295 -1.0885
 3366SOL     OW21733   1.843   0.198   0.338  0.1304 -0.1908 -0.3084
 3366SOL    HW121734   1.777   0.184   0.271 -1.6649 -2.7731  2.0275
 3366SOL    HW221735   1.920   0.215   0.283  0.4147  0.7493  0.3683
 3367SOL     OW21736   3.474   0.110  14.646  0.6653  0.0032  0.4216
 3367SOL    HW121737   3.502   0.018  14.638 -0.7517 -0.5423  1.7042
 3367SOL    HW221738   3.380   0.098  14.649  0.7708 -0.6912  0.9117
 3368SOL     OW21739   1.651   0.220  15.723 -0.2837 -0.1415 -0.0819
 3368SOL    HW121740   1.569   0.193  15.765  0.6971 -0.5411  1.5620
 3368SOL    HW221741   1.637   0.288  15.657  0.1553  0.5930  0.5802
 3369SOL     OW21742   0.529   0.170   6.201 -0.2270 -0.3641 -1.0346
 3369SOL    HW121743   0.505   0.244   6.146  0.6346  1.4103  0.9745
 3369SOL    HW221744   0.447   0.161   6.249  2.0709 -2.1286  2.5370
 3370SOL     OW21745   0.021   3.905  12.164 -0.6586  0.2353 -0.2420
 3370SOL    HW121746   4.730   3.853  12.090  0.6257  0.0178 -0.6213
 3370SOL    HW221747   0.066   3.973  12.114 -0.2971 -1.2962 -1.9967
 3371SOL     OW21748   1.416   2.081   9.036 -0.3749  0.2039 -0.4539
 3371SOL    HW121749   1.486   2.140   9.064 -2.6275  1.7911  1.8030
 3371SOL    HW221750   1.452   2.047   8.954 -0.5817 -0.2470 -0.3579
 3372SOL     OW21751   0.740   2.958  17.420 -0.6692 -0.1899  0.4365
 3372SOL    HW121752   0.762   2.883  17.365  1.7919  1.2230 -0.5093
 3372SOL    HW221753   0.708   2.903  17.492 -0.4680 -1.5774 -0.5335
 3373SOL     OW21754   3.968   2.353   2.521  0.1365 -0.4813  0.0643
 3373SOL    HW121755   3.925   2.268   2.530 -2.0264  0.8698  2.5020
 3373SOL    HW221756   3.939   2.393   2.603  1.0242 -1.2273  0.7394
 3374SOL     OW21757   3.350   0.445   4.061  0.3923 -0.5354 -0.2533
 3374SOL    HW121758   3.288   0.396   4.115  0.3710  0.3269  0.4981
 3374SOL    HW221759   3.429   0.444   4.115 -0.5301 -1.8585  1.0670
 3375SOL     OW21760   3.707   1.007   6.573  0.1564 -0.4263  0.3332
 3375SOL    HW121761   3.748   1.090   6.548  0.8811 -0.5037  1.2590
 3375SOL    HW221762   3.707   0.962   6.488 -1.0504  0.8788 -0.3461
 3376SOL     OW21763   4.469   4.418  16.854 -0.1299  0.0962  0.3339
 3376SOL    HW121764   4.490   4.418  16.761  0.0041 -0.2116  0.3671
 3376SOL    HW221765   4.374   4.432  16.863 -0.0788  1.1294 -0.7557
 3377SOL     OW21766   3.199   3.089   5.247  0.3065 -0.5980 -0.7324
 3377SOL    HW121767   3.229   3.058   5.161 -0.3950  0.1950 -1.2578
 3377SOL    HW221768   3.265   3.057   5.309 -0.3369 -3.9588 -1.7447
 3378SOL     OW21769   3.366   2.206   6.422 -0.8153 -0.2418  0.7016
 3378SOL    HW121770   3.390   2.114   6.408 -0.5186 -0.0714  0.0843
 3378SOL    HW221771   3.279   2.193   6.461 -1.2874 -1.3720 -0.6910
 3379SOL     OW21772   1.076   1.286   9.331 -0.5416  0.2438  0.8985
 3379SOL    HW121773   1.064   1.194   9.308  0.9356 -0.0421  1.2779
 3379SOL    HW221774   0.987   1.318   9.315 -0.2558  0.2844 -0.5941
 3380SOL     OW21775   1.151   2.231   3.998 -0.1176  0.7266 -0.3722
 3380SOL    HW121776   1.142   2.265   3.909 -0.6911  2.8020  0.4863
 3380SOL    HW221777   1.192   2.305   4.042 -1.2051 -0.4765  2.6489
 3381SOL     OW21778   1.095   0.700   6.228  0.8062 -0.0333  0.2996
 3381SOL    HW121779   1.063   0.790   6.225  1.1147  0.0117 -1.5522
 3381SOL    HW221780   1.102   0.688   6.323  2.7673 -0.2956  0.1271
 3382SOL     OW21781   2.299   1.360   8.170 -0.1970  0.3132 -0.4255
 3382SOL    HW121782   2.365   1.290   8.165 -1.5558 -1.0657  1.2834
 3382SOL    HW221783   2.291   1.375   8.076  0.3875  2.7675 -0.0695
 3383SOL     OW21784   1.479   2.212   5.205 -0.2314 -0.1985 -0.0772
 3383SOL    HW121785   1.478   2.208   5.301  0.8658 -0.7280 -0.0891
 3383SOL    HW221786   1.532   2.135   5.186  2.6971  1.2795  2.1346
 3384SOL     OW21787   2.679   1.332   8.614 -0.3818  0.3845 -0.4002
 3384SOL    HW121788   2.719   1.248   8.636  1.0652  0.7267 -1.7405
 3384SOL    HW221789   2.758   1.371   8.578 -1.0302  3.4884  1.5659
 3385SOL     OW21790   4.492   1.975  13.304  0.4262 -0.5295  0.5581
 3385SOL    HW121791   4.464   1.956  13.394  1.2965  2.1205  1.3960
 3385SOL    HW221792   4.577   1.931  13.301  0.3998 -0.7597  2.6867
 3386SOL     OW21793   2.450   2.140   6.663  0.3779  0.1423  0.4329
 3386SOL    HW121794   2.501   2.170   6.738 -0.0042 -1.0168  1.1458
 3386SOL    HW221795   2.431   2.049   6.684 -1.1007 -0.1910 -2.4011
 3387SOL     OW21796   1.881   3.417   3.777  0.4821 -0.1240 -0.0928
 3387SOL    HW121797   1.907   3.431   3.686  0.9714  0.7670  0.1904
 3387SOL    HW221798   1.877   3.507   3.809  0.2246 -0.3417  0.4926
 3388SOL     OW21799   2.425   3.148   6.819  0.0561  0.2175 -0.1896
 3388SOL    HW121800   2.479   3.142   6.898  0.2279 -0.4227 -0.3503
 3388SOL    HW221801   2.442   3.063   6.778  0.7369 -0.6966  1.9635
 3389SOL     OW21802   2.693   4.199   8.718  0.1542  0.4631  0.3184
 3389SOL    HW121803   2.653   4.128   8.668 -1.6017  1.3756  0.4586
 3389SOL    HW221804   2.684   4.163   8.806 -1.5619  1.0773  0.3827
 3390SOL     OW21805   2.656   2.708   4.787 -0.1625  0.3613 -0.0240
 3390SOL    HW121806   2.701   2.772   4.732  0.5546 -0.2899 -0.1999
 3390SOL    HW221807   2.623   2.653   4.716  0.2578 -0.1439  0.1685
 3391SOL     OW21808   0.778   4.277   1.536  0.1214 -0.0003 -0.3973
 3391SOL    HW121809   0.840   4.232   1.479  0.5843 -1.6127  1.3671
 3391SOL    HW221810   0.719   4.319   1.473 -0.1519  1.5897  0.9209
 3392SOL     OW21811   1.367   0.356   7.560  0.2623 -0.1966  0.3998
 3392SOL    HW121812   1.431   0.417   7.594  0.9438 -0.3041 -0.7146
 3392SOL    HW221813   1.286   0.390   7.598  0.1640 -0.3674  0.3450
 3393SOL     OW21814   4.698   0.878   4.390  0.2109  0.3331  0.0379
 3393SOL    HW121815   4.613   0.887   4.347  0.3259 -1.4328 -0.5610
 3393SOL    HW221816   4.692   0.787   4.418 -0.1051  0.7880  1.4342
 3394SOL     OW21817   0.063   0.744   7.236  0.5976  0.3400  0.7204
 3394SOL    HW121818   0.057   0.781   7.324  0.7047  0.9412  0.4743
 3394SOL    HW221819   0.037   0.821   7.185 -0.7787 -0.4052  0.3047
 3395SOL     OW21820   0.386   2.417   6.453 -0.0876 -0.0285 -0.0850
 3395SOL    HW121821   0.472   2.436   6.415  0.5062  1.1273  1.8134
 3395SOL    HW221822   0.349   2.505   6.458 -1.6885 -0.6972 -0.4484
 3396SOL     OW21823   3.093   1.583  15.011 -0.7373 -0.3702  0.5592
 3396SOL    HW121824   3.129   1.667  15.040 -0.1372 -0.6803  0.6989
 3396SOL    HW221825   3.039   1.613  14.937 -0.3055  0.5510  0.6106
 3397SOL     OW21826   1.218   4.451   6.599  0.7365 -0.0791 -0.1361
 3397SOL    HW121827   1.199   4.505   6.522  1.1312  0.4846  0.1694
 3397SOL    HW221828   1.258   4.516   6.656 -1.0744  0.6087  0.3385
 3398SOL     OW21829   0.603   2.917  14.905  0.0634 -0.6540 -0.3432
 3398SOL    HW121830   0.567   2.911  14.817 -2.2247 -1.7561  0.6796
 3398SOL    HW221831   0.609   3.012  14.905  1.9985 -0.7723 -0.4992
 3399SOL     OW21832   3.114   0.980   7.606  0.0677 -0.2855 -0.7521
 3399SOL    HW121833   3.162   0.900   7.629  0.9416  0.6470  0.7016
 3399SOL    HW221834   3.174   0.998   7.534  1.5560 -0.4557  0.4236
 3400SOL     OW21835   2.443   0.953  14.298  0.1368 -0.1039 -0.4949
 3400SOL    HW121836   2.392   0.872  14.303 -2.1652  1.2979 -1.8361
 3400SOL    HW221837   2.443   0.983  14.389  0.4620 -2.5070  0.2938
 3401SOL     OW21838   0.849   3.022   6.846  0.0855  0.2281  0.4048
 3401SOL    HW121839   0.798   2.950   6.810  2.4063 -1.0520 -0.3354
 3401SOL    HW221840   0.802   3.090   6.797 -0.0925 -0.9912 -1.1029
 3402SOL     OW21841   2.659   3.783   5.819 -0.3804 -0.2374 -0.6554
 3402SOL    HW121842   2.668   3.790   5.724  0.8123 -1.7552 -0.6553
 3402SOL    HW221843   2.641   3.690   5.834 -2.1357 -0.0123 -1.2748
 3403SOL     OW21844   3.647   0.883  12.332 -0.3435 -0.4381 -0.2993
 3403SOL    HW121845   3.637   0.876  12.427  0.8325 -0.8094 -0.2079
 3403SOL    HW221846   3.732   0.923  12.317  0.1760 -1.9763 -1.5095
 3404SOL     OW21847   3.378   0.496   6.146  0.4668 -0.1341 -0.4069
 3404SOL    HW121848   3.299   0.449   6.120 -0.4081  0.5486  0.9823
 3404SOL    HW221849   3.442   0.426   6.140  0.2284 -0.3691 -0.1826
 3405SOL     OW21850   3.912   2.417  11.309  0.2813  1.0144  0.1803
 3405SOL    HW121851   3.998   2.386  11.280 -0.2372  2.1354 -2.5406
 3405SOL    HW221852   3.864   2.360  11.249  0.5319  0.4597  0.5134
 3406SOL     OW21853   2.892   3.434   0.840 -0.8319  0.3275  0.6244
 3406SOL    HW121854   2.860   3.521   0.864 -0.5520  0.1593  1.6318
 3406SOL    HW221855   2.967   3.458   0.786 -1.0792 -0.4284 -0.0607
 3407SOL     OW21856   2.852   1.583  11.447  0.5158 -0.4254 -0.0366
 3407SOL    HW121857   2.936   1.560  11.407  0.2059  2.6742 -2.4675
 3407SOL    HW221858   2.826   1.665  11.404 -2.0958  0.0311  2.3688
 3408SOL     OW21859   2.678   1.140   5.530  0.1767  0.2507  0.4868
 3408SOL    HW121860   2.733   1.104   5.460  0.4079  1.0481  0.2582
 3408SOL    HW221861   2.622   1.201   5.482  2.3361  0.9946 -1.0788
 3409SOL     OW21862   3.232   2.778   3.658  0.0967  0.1818  0.1794
 3409SOL    HW121863   3.179   2.844   3.702 -0.3949 -0.5560  0.6848
 3409SOL    HW221864   3.181   2.702   3.684  0.1219 -0.4381 -1.5515
 3410SOL     OW21865   0.571   3.330  13.778  0.8739  0.1558 -0.8165
 3410SOL    HW121866   0.643   3.299  13.833  0.7471 -0.0771 -0.7828
 3410SOL    HW221867   0.511   3.256  13.772  1.3931 -0.3395  0.2099
 3411SOL     OW21868   3.290   4.586  12.107  0.3201 -0.5430  0.4513
 3411SOL    HW121869   3.288   4.501  12.062  2.1175 -0.7648  0.7938
 3411SOL    HW221870   3.229   4.630  12.048 -0.0155 -1.8503 -0.1806
 3412SOL     OW21871   3.058   1.089   6.247 -0.0358  0.2843  0.0403
 3412SOL    HW121872   3.113   1.026   6.294 -0.7161  0.3548  0.9242
 3412SOL    HW221873   3.059   1.072   6.153  0.0550 -0.7639  0.2233
 3413SOL     OW21874   2.650   0.593   5.396  0.1956 -0.5816 -0.3285
 3413SOL    HW121875   2.583   0.652   5.362 -0.2299 -0.0485  1.4133
 3413SOL    HW221876   2.626   0.607   5.488  1.1572 -1.0711 -0.0029
 3414SOL     OW21877   0.666   0.748   1.964  0.3855 -0.4471  0.2945
 3414SOL    HW121878   0.620   0.805   1.903 -0.7359 -1.3159  0.3099
 3414SOL    HW221879   0.754   0.752   1.928  0.4811 -1.3915  0.4217
 3415SOL     OW21880   1.916   4.435   7.176 -0.1948  0.5384 -0.4538
 3415SOL    HW121881   1.973   4.507   7.206 -0.3483  0.6175 -0.3513
 3415SOL    HW221882   1.984   4.375   7.146  0.3336  0.3056  1.2025
 3416SOL     OW21883   3.199   0.750   3.580 -0.0690 -0.5780  0.0730
 3416SOL    HW121884   3.273   0.766   3.521 -1.6760  3.2652 -0.9221
 3416SOL    HW221885   3.208   0.655   3.589 -0.2275 -0.6076 -0.0763
 3417SOL     OW21886   1.415   4.052   9.106 -0.1331  0.1133 -0.4437
 3417SOL    HW121887   1.349   4.122   9.098 -0.1562  0.1554  0.1580
 3417SOL    HW221888   1.482   4.099   9.155  1.7382 -0.6990 -2.2349
 3418SOL     OW21889   0.019   2.613   8.863  0.5828 -0.8575 -0.0272
 3418SOL    HW121890   0.020   2.669   8.785  1.8255  0.2121  0.7675
 3418SOL    HW221891   0.010   2.527   8.821  0.1298 -0.6155 -0.4295
 3419SOL     OW21892   4.485   1.542  16.393  0.0051 -0.1400  0.6740
 3419SOL    HW121893   4.483   1.601  16.317  3.2417 -0.2906  0.4694
 3419SOL    HW221894   4.398   1.560  16.429 -1.7984 -0.6495 -3.3787
 3420SOL     OW21895   3.174   3.807   1.519 -0.1408 -0.1087  0.6417
 3420SOL    HW121896   3.261   3.767   1.520  0.6043  1.4307 -1.5721
 3420SOL    HW221897   3.148   3.789   1.428 -2.0715  3.0840  0.5692
 3421SOL     OW21898   4.208   0.271  16.173  0.7088 -0.0696  0.1279
 3421SOL    HW121899   4.272   0.309  16.113  0.3854  1.8500  1.0089
 3421SOL    HW221900   4.217   0.337  16.242 -1.5638 -1.1827  1.4819
 3422SOL     OW21901   1.256   2.937   2.473  0.5240 -0.3267  0.2586
 3422SOL    HW121902   1.331   2.881   2.492 -0.1673 -0.8143  1.5833
 3422SOL    HW221903   1.294   3.017   2.509  1.5070 -0.9108  0.5181
 3423SOL     OW21904   3.377   1.852   7.403  0.3961 -0.6426  0.4522
 3423SOL    HW121905   3.298   1.905   7.416  0.6841 -0.8398  2.9883
 3423SOL    HW221906   3.387   1.881   7.312 -0.3069 -2.3521 -0.1703
 3424SOL     OW21907   2.946   2.414   7.781 -0.2448  0.3415  0.0821
 3424SOL    HW121908   2.904   2.330   7.769 -1.4725  0.9266  0.3447
 3424SOL    HW221909   2.922   2.452   7.696  1.3832  0.3598 -0.3830
 3425SOL     OW21910   0.396   2.130  12.329  0.3810  0.3396 -0.4561
 3425SOL    HW121911   0.398   2.083  12.413 -0.9762 -0.5407 -0.9108
 3425SOL    HW221912   0.446   2.064  12.280 -1.7049 -0.5010 -1.4443
 3426SOL     OW21913   2.058   2.460   8.746  0.0044 -0.1292 -0.2353
 3426SOL    HW121914   2.132   2.456   8.807 -0.0814  0.7057 -0.0758
 3426SOL    HW221915   2.060   2.551   8.715 -0.2227  0.2670  0.8855
 3427SOL     OW21916   3.193   0.503   7.008 -0.2243  0.8294  0.5619
 3427SOL    HW121917   3.260   0.475   7.070 -0.1851 -0.2411  0.0231
 3427SOL    HW221918   3.198   0.596   7.030  0.1013  0.9422  0.0188
 3428SOL     OW21919   2.902   0.108   2.850  0.2865  0.0680  0.0280
 3428SOL    HW121920   2.921   0.026   2.806  1.6136  0.7611 -0.6899
 3428SOL    HW221921   2.835   0.083   2.914 -1.1282 -2.7852 -2.5974
 3429SOL     OW21922   4.006   1.157   3.795  0.5484 -0.3737  0.2568
 3429SOL    HW121923   4.069   1.190   3.859 -0.0194  1.2222 -0.0171
 3429SOL    HW221924   4.070   1.103   3.748 -0.2742 -0.5684 -0.6348
 3430SOL     OW21925   1.384   2.077   6.592  0.6216  0.3917 -0.0977
 3430SOL    HW121926   1.422   2.081   6.680 -1.6452  2.3792  0.8170
 3430SOL    HW221927   1.381   2.172   6.580  0.6954  0.4867  0.6610
 3431SOL     OW21928   2.222   2.143   5.411 -0.1519  0.5107 -1.0957
 3431SOL    HW121929   2.283   2.089   5.461 -0.9076  0.7222  0.0759
 3431SOL    HW221930   2.268   2.227   5.408  0.8581 -0.0371 -0.9388
 3432SOL     OW21931   1.349   2.637   3.772  0.1774 -0.5197 -0.0638
 3432SOL    HW121932   1.269   2.673   3.732  0.7398  0.1119 -0.6230
 3432SOL    HW221933   1.413   2.690   3.724  1.5072 -0.1907  2.1031
 3433SOL     OW21934   4.248   4.149  16.540  0.3735  0.1331 -0.0967
 3433SOL    HW121935   4.236   4.146  16.635 -0.8283  0.3509 -0.2424
 3433SOL    HW221936   4.342   4.155  16.528  0.5221 -0.6535  0.6521
 3434SOL     OW21937   3.895   3.299  13.976  0.4618  0.0637 -0.9108
 3434SOL    HW121938   3.805   3.321  13.999  0.8957 -1.3696  2.1112
 3434SOL    HW221939   3.916   3.376  13.923 -0.1679  0.5430 -0.4619
 3435SOL     OW21940   3.438   1.085  11.141 -0.0514  0.4942  0.1760
 3435SOL    HW121941   3.479   1.092  11.228  0.2277 -1.7673  0.2131
 3435SOL    HW221942   3.453   1.174  11.110 -2.4421  0.3094 -1.5394
 3436SOL     OW21943   0.505   1.307   4.256  0.1463  0.1310 -0.4991
 3436SOL    HW121944   0.530   1.300   4.164 -2.6647  1.3549 -1.3494
 3436SOL    HW221945   0.592   1.332   4.289 -1.1333  3.4678  0.3553
 3437SOL     OW21946   3.463   0.889   8.535  0.1371 -0.4881 -0.5378
 3437SOL    HW121947   3.373   0.886   8.567  0.4106 -4.3965 -0.1672
 3437SOL    HW221948   3.477   0.797   8.512 -1.0119 -0.9687  0.6617
 3438SOL     OW21949   2.736   2.456   8.913 -0.4157 -0.8571  0.0310
 3438SOL    HW121950   2.679   2.523   8.877 -1.0105 -0.8680  0.9758
 3438SOL    HW221951   2.691   2.373   8.900 -1.0688 -0.3472 -0.9208
 3439SOL     OW21952   1.595   2.958   5.266 -0.1382 -0.0260 -0.4294
 3439SOL    HW121953   1.600   3.050   5.293 -2.4295  0.1909 -0.7369
 3439SOL    HW221954   1.570   2.917   5.349  1.7755  1.3173  0.8076
 3440SOL     OW21955   1.202   2.913   2.869  0.6184 -0.1687 -0.1340
 3440SOL    HW121956   1.193   3.001   2.907  4.7948 -0.1901  0.9277
 3440SOL    HW221957   1.112   2.894   2.842  0.9604  0.0923 -1.4286
 3441SOL     OW21958   2.298   0.389   0.317  0.1199 -0.7218  0.0676
 3441SOL    HW121959   2.312   0.377   0.411 -1.9169 -0.0299  0.4770
 3441SOL    HW221960   2.312   0.484   0.311 -0.5248 -0.5884  0.6115
 3442SOL     OW21961   3.591   2.918   9.101 -0.1415  0.4031 -0.1130
 3442SOL    HW121962   3.525   2.896   9.168  2.1685  0.0935  2.0661
 3442SOL    HW221963   3.632   2.997   9.136 -3.2865  0.9441  2.4436
 3443SOL     OW21964   2.981   4.011   1.238 -0.2121  0.3219  0.6119
 3443SOL    HW121965   2.951   4.067   1.166  2.2384 -0.6614 -1.1644
 3443SOL    HW221966   3.051   3.956   1.203 -0.0355  1.6930 -1.1770
 3444SOL     OW21967   1.402   0.674   2.329 -0.1279  0.3734 -0.0010
 3444SOL    HW121968   1.356   0.702   2.250  0.2832  1.5723  0.1843
 3444SOL    HW221969   1.473   0.738   2.325 -1.4258  1.8077 -0.2288
 3445SOL     OW21970   2.595   0.785   3.426 -1.0490  0.1084  0.2378
 3445SOL    HW121971   2.585   0.773   3.520 -1.8035 -1.1536 -0.0015
 3445SOL    HW221972   2.684   0.819   3.436 -0.8894  0.2574 -1.6374
 3446SOL     OW21973   3.379   3.825   7.666  0.0610 -0.6523 -0.5978
 3446SOL    HW121974   3.474   3.828   7.653  0.0139 -0.1127 -0.8216
 3446SOL    HW221975   3.362   3.910   7.707 -0.1867 -0.7944 -0.4071
 3447SOL     OW21976   1.492   0.748   2.632 -0.5407 -0.1686 -0.0109
 3447SOL    HW121977   1.434   0.745   2.557 -0.6931  0.2112  0.0936
 3447SOL    HW221978   1.437   0.737   2.710 -2.7593 -2.2212 -1.8598
 3448SOL     OW21979   0.938   3.084   8.506 -0.3523 -0.4128  0.1361
 3448SOL    HW121980   0.869   3.113   8.445 -1.0363  0.4263  1.3140
 3448SOL    HW221981   0.973   3.018   8.447 -1.2725 -1.1281  0.4023
 3449SOL     OW21982   2.721   2.646   1.286 -0.1749  0.9266  0.0647
 3449SOL    HW121983   2.784   2.714   1.310 -0.6685  1.1573  0.6878
 3449SOL    HW221984   2.664   2.655   1.361  0.3647  0.3950  0.5425
 3450SOL     OW21985   3.062   1.507  11.276  0.4229 -0.5542 -0.0070
 3450SOL    HW121986   3.058   1.412  11.284 -0.3422 -0.3975  1.4442
 3450SOL    HW221987   3.153   1.529  11.291  0.4154 -0.1986 -0.4913
 3451SOL     OW21988   2.680   2.399  11.388  0.7096  0.0552 -0.5270
 3451SOL    HW121989   2.620   2.354  11.329 -1.1384 -0.4679  1.7809
 3451SOL    HW221990   2.627   2.441  11.456  1.8647 -2.1714  1.7334
 3452SOL     OW21991   1.933   4.268   4.876  0.5401 -0.7466 -0.1544
 3452SOL    HW121992   1.961   4.358   4.896  0.7036 -0.8466  0.0693
 3452SOL    HW221993   2.017   4.223   4.880  0.8763  0.0268  1.5775
 3453SOL     OW21994   0.709   2.360   9.367 -0.1508 -1.1840  0.4103
 3453SOL    HW121995   0.635   2.382   9.311 -0.6326 -0.2649  1.4147
 3453SOL    HW221996   0.721   2.449   9.400 -0.4015 -0.3224 -1.8285
 3454SOL     OW21997   1.997   0.743   6.029 -0.1619 -0.3697 -0.0602
 3454SOL    HW121998   1.966   0.695   6.106 -0.4704  1.8300  1.1791
 3454SOL    HW221999   2.083   0.768   6.062  0.4568 -3.8879  1.0139
 3455SOL     OW22000   1.802   3.546   6.303  0.1878  0.1937 -0.1373
 3455SOL    HW122001   1.709   3.558   6.284 -0.2234 -1.1992  0.9783
 3455SOL    HW222002   1.828   3.629   6.342 -1.1546  1.7720 -2.6142
 3456SOL     OW22003   0.042   0.172   2.918 -0.7636 -0.3635  0.2059
 3456SOL    HW122004   0.101   0.207   2.984  1.6222 -0.1760 -2.0295
 3456SOL    HW222005   0.008   0.099   2.970 -1.5355 -0.5874 -0.5978
 3457SOL     OW22006   3.898   1.751  11.499  0.0618 -0.0667 -0.3075
 3457SOL    HW122007   3.880   1.845  11.502 -1.6321 -0.4099  0.4739
 3457SOL    HW222008   3.893   1.721  11.589  1.7990  1.6187  0.3629
 3458SOL     OW22009   3.859   3.114   6.196 -0.4348 -0.4288  0.5670
 3458SOL    HW122010   3.905   3.195   6.177 -0.1799 -0.8136 -0.4762
 3458SOL    HW222011   3.912   3.074   6.265 -0.5231 -1.9855 -0.2732
 3459SOL     OW22012   4.234   4.247   8.672 -0.2506  0.3230  0.9921
 3459SOL    HW122013   4.180   4.267   8.595 -0.6360 -0.7079  0.9907
 3459SOL    HW222014   4.204   4.301   8.745  2.3124  0.5987  1.8202
 3460SOL     OW22015   1.352   0.619   3.726 -0.2880 -0.3462 -0.3319
 3460SOL    HW122016   1.388   0.593   3.641  0.6800  1.7092 -0.5546
 3460SOL    HW222017   1.395   0.556   3.785 -0.0141  0.1604  0.0100
 3461SOL     OW22018   3.585   2.272  11.907 -0.8066 -0.0760  0.5255
 3461SOL    HW122019   3.629   2.278  11.822 -0.4624  0.9765  0.7701
 3461SOL    HW222020   3.652   2.311  11.962  0.2312 -0.3664 -0.5331
 3462SOL     OW22021   2.441   3.513   8.140 -0.0808 -0.0790  0.2717
 3462SOL    HW122022   2.353   3.477   8.145 -1.0699  2.3090  0.2215
 3462SOL    HW222023   2.489   3.457   8.080 -0.1546  1.3553 -1.1232
 3463SOL     OW22024   0.208   2.393   7.811 -0.1042  0.0120  0.0110
 3463SOL    HW122025   0.117   2.412   7.833 -0.5311 -0.4526 -1.3413
 3463SOL    HW222026   0.231   2.340   7.887 -2.7136 -0.9813  0.1368
 3464SOL     OW22027   2.561   3.339  14.064  0.0816  0.0416  0.4559
 3464SOL    HW122028   2.582   3.423  14.024  0.4924 -1.1516 -1.8085
 3464SOL    HW222029   2.649   3.313  14.091 -1.0831 -2.0969  2.1433
 3465SOL     OW22030   4.085   4.085   0.885 -0.9005 -0.1926  0.0598
 3465SOL    HW122031   4.151   4.153   0.875 -0.4756 -0.1627  2.8892
 3465SOL    HW222032   4.079   4.077   0.980 -1.7440  1.4048  0.1463
 3466SOL     OW22033   1.973   0.058   4.516 -0.3592 -0.3150  0.4580
 3466SOL    HW122034   2.034   0.065   4.443 -0.1175  0.7736  0.7680
 3466SOL    HW222035   1.965   0.152   4.532 -1.0438 -0.1542 -0.7943
 3467SOL     OW22036   1.893   2.978  16.467 -0.6114  0.0677  0.7445
 3467SOL    HW122037   1.979   3.010  16.493 -0.8734 -0.8602  2.7342
 3467SOL    HW222038   1.834   3.010  16.536 -2.0930 -1.2498  0.1092
 3468SOL     OW22039   3.204   4.419   2.643  0.3834  0.3553  0.1737
 3468SOL    HW122040   3.173   4.495   2.692  0.3987  0.9089 -0.6844
 3468SOL    HW222041   3.228   4.357   2.712 -1.4841  1.2468  1.5918
 3469SOL     OW22042   4.160   0.980  17.617 -0.2227  1.2646  0.2590
 3469SOL    HW122043   4.216   0.903  17.614  1.9102  2.7731  1.2141
 3469SOL    HW222044   4.223   1.050  17.599 -0.1835  0.4370 -2.7583
 3470SOL     OW22045   0.667   0.296   4.046  0.2676  0.2976  0.0590
 3470SOL    HW122046   0.589   0.351   4.051  0.8283  0.9650  1.3019
 3470SOL    HW222047   0.724   0.344   3.986  0.4011  0.6379  0.4622
 3471SOL     OW22048   3.225   2.902   4.652  0.1936 -0.5350  0.3730
 3471SOL    HW122049   3.164   2.854   4.708 -1.0188  1.0640  0.4126
 3471SOL    HW222050   3.241   2.837   4.584  0.1122 -0.1591 -0.0075
 3472SOL     OW22051   1.431   4.702   4.441 -0.1399  0.3017  0.5247
 3472SOL    HW122052   1.448   4.630   4.380  1.7109 -0.3117  1.7741
 3472SOL    HW222053   1.337   4.693   4.455 -0.4485  2.8970  0.0111
 3473SOL     OW22054   0.642   0.346   5.041  0.4218  0.4921  0.6410
 3473SOL    HW122055   0.733   0.332   5.015  0.5571 -0.2188  1.5187
 3473SOL    HW222056   0.664   0.411   5.107 -0.6868  0.5191  0.9888
 3474SOL     OW22057   0.751   3.489   5.800  0.2733  0.7673 -0.4643
 3474SOL    HW122058   0.710   3.566   5.840  0.9854  3.0768 -4.1857
 3474SOL    HW222059   0.827   3.478   5.858 -0.1996  0.7390  0.1457
 3475SOL     OW22060   3.904   2.380   0.134  0.1164  0.4347 -0.4229
 3475SOL    HW122061   3.949   2.318   0.076 -1.6175 -1.7641  0.5855
 3475SOL    HW222062   3.870   2.320   0.201 -0.5854 -0.3739 -1.4990
 3476SOL     OW22063   4.470   4.070   6.403 -0.0755  0.1560  0.3178
 3476SOL    HW122064   4.493   3.983   6.369 -0.4889  1.1198 -2.4372
 3476SOL    HW222065   4.537   4.090   6.469 -0.7715 -0.1183  1.1003
 3477SOL     OW22066   1.055   1.722   0.515 -0.0968 -0.1131 -0.3425
 3477SOL    HW122067   1.095   1.768   0.589 -2.1396  1.3686 -0.1838
 3477SOL    HW222068   1.131   1.678   0.477  1.3776  0.8256  1.4853
 3478SOL     OW22069   1.344   2.329   6.717  0.3023  0.0805 -0.0923
 3478SOL    HW122070   1.433   2.365   6.708  0.0045  0.9127  0.2321
 3478SOL    HW222071   1.295   2.389   6.661 -1.9903  0.5831  2.4736
 3479SOL     OW22072   0.825   3.546  16.588  0.0127 -0.3585  0.0819
 3479SOL    HW122073   0.832   3.451  16.588 -0.9400 -0.4338 -1.0652
 3479SOL    HW222074   0.775   3.567  16.510 -1.6912  0.0565  1.2745
 3480SOL     OW22075   1.039   0.819   0.486  0.2723 -0.5782 -0.1082
 3480SOL    HW122076   1.125   0.789   0.457  0.7961 -0.5100  1.3501
 3480SOL    HW222077   1.046   0.799   0.580 -0.6613 -0.3030  0.0122
 3481SOL     OW22078   4.344   2.249   1.972 -0.2385  0.7901 -0.3556
 3481SOL    HW122079   4.249   2.239   1.959 -0.2825  1.5301 -0.6176
 3481SOL    HW222080   4.354   2.338   1.940  0.6494  1.0415  0.6085
 3482SOL     OW22081   1.370   3.441   9.107  0.5993  0.1252  0.4574
 3482SOL    HW122082   1.335   3.397   9.030  0.7092  1.2214 -0.2223
 3482SOL    HW222083   1.330   3.380   9.170  0.7577  0.4056  0.8294
 3483SOL     OW22084   2.543   2.845   1.896  0.2570  0.2127 -0.1582
 3483SOL    HW122085   2.583   2.927   1.868 -0.5080  0.5172 -0.3624
 3483SOL    HW222086   2.582   2.778   1.840  0.6693  0.3947 -0.0899
 3484SOL     OW22087   2.424   1.203   6.890  0.8139  0.5073  0.7477
 3484SOL    HW122088   2.330   1.185   6.893  0.0210  4.2444 -2.0727
 3484SOL    HW222089   2.430   1.297   6.874 -1.2288  0.0450 -2.6789
 3485SOL     OW22090   3.195   1.978   3.313  0.0775 -0.6298  0.2285
 3485SOL    HW122091   3.138   1.923   3.366  0.3368 -0.9902  0.1304
 3485SOL    HW222092   3.246   1.908   3.272  1.1760 -0.0374  0.5933
 3486SOL     OW22093   3.840   3.974   0.844  0.1937 -0.2767  0.2536
 3486SOL    HW122094   3.862   3.902   0.904  2.2857  0.0881 -0.0791
 3486SOL    HW222095   3.924   4.013   0.823  0.0016  0.3186  0.5797
 3487SOL     OW22096   3.965   2.928   1.765 -0.1466  0.5261  0.2134
 3487SOL    HW122097   3.911   2.850   1.768  1.3585 -0.5542 -0.7926
 3487SOL    HW222098   3.993   2.936   1.674 -1.4092 -2.2718 -0.4111
 3488SOL     OW22099   2.116   2.736   4.858  0.0243 -0.5111 -0.0044
 3488SOL    HW122100   2.183   2.747   4.925 -0.7423  0.5318  0.5799
 3488SOL    HW222101   2.035   2.760   4.903  0.7285  1.9018 -0.0380
 3489SOL     OW22102   2.105   2.697   8.610 -0.1103  0.6694  0.0097
 3489SOL    HW122103   2.133   2.765   8.671 -0.2669  1.1497 -0.4567
 3489SOL    HW222104   2.166   2.712   8.538 -0.5735  1.7455 -0.1570
 3490SOL     OW22105   3.874   1.498   1.387 -0.4234  0.0774  0.7599
 3490SOL    HW122106   3.845   1.588   1.402  0.1294  0.5168 -0.8198
 3490SOL    HW222107   3.955   1.483   1.436 -0.7157 -1.1547  0.8663
 3491SOL     OW22108   4.312   1.453   8.490  0.0605  0.5703 -0.3666
 3491SOL    HW122109   4.344   1.539   8.464 -1.1112  0.2822 -2.7379
 3491SOL    HW222110   4.234   1.484   8.537  1.3117  0.4230  1.8192
 3492SOL     OW22111   2.583   2.225   8.875  0.0783  0.1908 -0.0924
 3492SOL    HW122112   2.584   2.182   8.961 -0.2505 -1.6031 -0.9888
 3492SOL    HW222113   2.491   2.215   8.850 -0.1835  0.7590  0.6231
 3493SOL     OW22114   0.027   0.887  12.848 -0.0897 -0.3526  0.2321
 3493SOL    HW122115   0.056   0.826  12.915  1.5465 -0.3356 -0.4540
 3493SOL    HW222116   4.684   0.922  12.880 -0.1209 -1.0943  0.9442
 3494SOL     OW22117   4.124   2.216   6.434  0.2468 -0.0083  0.2321
 3494SOL    HW122118   4.062   2.145   6.450 -2.0526  1.2069 -3.2840
 3494SOL    HW222119   4.206   2.166   6.433  0.4191  0.3359 -2.1513
 3495SOL     OW22120   0.196   0.382  14.953  0.0481  0.2472 -0.9428
 3495SOL    HW122121   0.123   0.378  15.014  0.8351 -1.0258 -0.0802
 3495SOL    HW222122   0.196   0.475  14.929  2.0841  0.6307  0.5083
 3496SOL     OW22123   1.076   4.372   7.415 -0.3719 -0.2011  0.8382
 3496SOL    HW122124   1.134   4.337   7.483 -0.1356  1.2702  1.3954
 3496SOL    HW222125   1.124   4.454   7.403 -2.2112  0.6986 -0.3591
 3497SOL     OW22126   1.443   4.255   2.506  0.0346 -0.0576  0.3629
 3497SOL    HW122127   1.491   4.222   2.581 -0.5937  0.5212  1.0201
 3497SOL    HW222128   1.368   4.199   2.526 -0.4545  0.3534 -0.3190
 3498SOL     OW22129   3.489   2.740   5.054  0.0871  0.1609 -0.5701
 3498SOL    HW122130   3.550   2.806   5.086  0.4650 -0.0036 -0.9513
 3498SOL    HW222131   3.534   2.660   5.080 -0.3830  0.1605  0.2486
 3499SOL     OW22132   3.107   0.736   8.290 -0.5667 -0.3607 -0.0686
 3499SOL    HW122133   3.081   0.644   8.294  0.1272 -0.5414  0.2028
 3499SOL    HW222134   3.023   0.777   8.313 -1.4543 -2.7363  0.8656
 3500SOL     OW22135   4.530   1.885   5.115 -0.4941  0.0854  0.2111
 3500SOL    HW122136   4.593   1.847   5.053  0.7689 -1.5162  2.5013
 3500SOL    HW222137   4.445   1.853   5.083 -0.8911  0.7820  0.5713
 3501SOL     OW22138   4.676   1.265   8.419 -0.1545 -0.2610  0.3216
 3501SOL    HW122139   4.662   1.356   8.393 -0.4934 -0.5358 -0.4200
 3501SOL    HW222140   0.030   1.249   8.406 -0.0024  0.1287  0.9234
 3502SOL     OW22141   0.176   2.905   8.843  0.1400  0.2192  0.1600
 3502SOL    HW122142   0.127   2.889   8.763 -0.3784 -1.2769  0.7879
 3502SOL    HW222143   0.266   2.914   8.811  0.4914  1.0482  1.3616
 3503SOL     OW22144   3.115   1.514   9.239  0.1679 -0.3194  0.5329
 3503SOL    HW122145   3.188   1.453   9.251  2.3213  2.3079  0.5160
 3503SOL    HW222146   3.155   1.580   9.183 -0.4812  0.2980  0.7996
 3504SOL     OW22147   2.865   1.805   8.983  0.5481 -0.2653  0.7973
 3504SOL    HW122148   2.921   1.731   8.958 -0.7215 -0.4140 -1.6392
 3504SOL    HW222149   2.787   1.782   8.932  0.8286  2.4973 -0.8451
 3505SOL     OW22150   1.315   3.933   6.349 -0.4268 -0.2817 -0.2357
 3505SOL    HW122151   1.295   3.997   6.280 -1.7354 -0.6243 -0.1684
 3505SOL    HW222152   1.410   3.946   6.360 -0.6380  1.4404 -0.4535
 3506SOL     OW22153   2.464   2.269   8.448 -0.4962  0.2641  0.1806
 3506SOL    HW122154   2.374   2.277   8.415  0.0680 -1.1284 -1.6802
 3506SOL    HW222155   2.453   2.219   8.529 -1.3969  0.8633  0.4314
 3507SOL     OW22156   4.426   2.189   2.365 -0.0219 -0.2463 -0.0931
 3507SOL    HW122157   4.428   2.256   2.434 -0.5112 -0.2656 -0.0619
 3507SOL    HW222158   4.348   2.140   2.392  0.0491 -1.9157 -2.9376
 3508SOL     OW22159   1.535   3.263  16.677 -0.3224  0.3729 -0.5135
 3508SOL    HW122160   1.554   3.290  16.587 -0.3287  1.0542 -0.3143
 3508SOL    HW222161   1.439   3.256  16.675 -0.3885  1.0068  0.1158
 3509SOL     OW22162   2.670   2.394   0.875  0.6706 -0.3665 -0.0158
 3509SOL    HW122163   2.576   2.397   0.893  0.3683  1.2543 -1.8183
 3509SOL    HW222164   2.706   2.431   0.956  2.2046  1.6024 -1.6024
 3510SOL     OW22165   0.243   1.536   3.642  0.4240  0.1341  0.1990
 3510SOL    HW122166   0.298   1.464   3.611 -2.3650 -1.4593 -1.1115
 3510SOL    HW222167   0.163   1.493   3.672  1.0556 -0.6113  0.8141
 3511SOL     OW22168   0.664   0.592  17.568 -0.0464  0.6167 -0.4690
 3511SOL    HW122169   0.610   0.550  17.502  0.1219 -2.8938  1.6145
 3511SOL    HW222170   0.689   0.514  17.618 -0.7576 -0.1698 -1.3567
 3512SOL     OW22171   3.407   2.945  15.759 -0.1608 -0.1964 -0.1252
 3512SOL    HW122172   3.412   3.034  15.796 -0.2896 -0.0762 -0.3979
 3512SOL    HW222173   3.444   2.892  15.829 -1.8253 -2.8081 -1.2349
 3513SOL     OW22174   0.021   4.256  17.600  0.3684  0.0960 -0.3166
 3513SOL    HW122175   0.076   4.307  17.540 -0.2365  1.0627 -0.0447
 3513SOL    HW222176   4.684   4.239  17.545  0.7056 -1.6286 -0.2580
 3514SOL     OW22177   2.827   0.758   9.322  0.1781 -0.3274  0.5136
 3514SOL    HW122178   2.872   0.795   9.398  2.5957 -0.9328 -0.6118
 3514SOL    HW222179   2.898   0.755   9.258  0.3867  1.7342  0.6510
 3515SOL     OW22180   3.375   1.964   3.718  0.2026 -0.2028 -0.4595
 3515SOL    HW122181   3.471   1.964   3.721  0.1614  0.8341  0.8526
 3515SOL    HW222182   3.353   1.905   3.790  3.0997 -0.9916 -0.2181
 3516SOL     OW22183   0.244   2.486  17.313 -0.0858  0.4692  0.0721
 3516SOL    HW122184   0.287   2.421  17.369  0.9988  0.5869 -0.6198
 3516SOL    HW222185   0.309   2.490  17.243 -0.3066  1.1313 -0.0953
 3517SOL     OW22186   2.225   4.597   7.949 -0.0921  0.3332  0.2229
 3517SOL    HW122187   2.267   4.668   7.996  0.3438 -0.5379  1.1497
 3517SOL    HW222188   2.300   4.548   7.914 -0.4531 -0.3998  0.4644
 3518SOL     OW22189   3.187   1.556  14.694  0.1289 -0.0111  0.3357
 3518SOL    HW122190   3.099   1.583  14.720  0.1514 -0.9263  1.3546
 3518SOL    HW222191   3.172   1.465  14.670 -1.1373  0.6780 -1.5368
 3519SOL     OW22192   0.672   0.670   6.057 -0.5690  0.6960  0.6115
 3519SOL    HW122193   0.760   0.637   6.074 -1.8655 -1.9887  2.0449
 3519SOL    HW222194   0.686   0.691   5.965 -3.1169  0.8834  0.2779
 3520SOL     OW22195   0.620   3.228   8.948  0.3897  0.0147  0.3173
 3520SOL    HW122196   0.591   3.304   8.897 -1.2409 -2.5354 -2.5532
 3520SOL    HW222197   0.686   3.186   8.893 -0.8961  0.8143 -1.8750
 3521SOL     OW22198   2.490   3.833   0.287 -0.2840  0.6179 -0.2078
 3521SOL    HW122199   2.526   3.787   0.211  0.0718 -0.6215  0.7318
 3521SOL    HW222200   2.556   3.902   0.297  0.6910 -0.3485 -0.0494
 3522SOL     OW22201   3.156   0.616   2.073  0.2859  0.4511 -0.1427
 3522SOL    HW122202   3.107   0.694   2.098  0.7616  0.3342  1.1949
 3522SOL    HW222203   3.221   0.661   2.020 -1.4701  1.8572 -1.0705
 3523SOL     OW22204   4.030   2.810   5.155 -0.3938 -0.5231 -0.0210
 3523SOL    HW122205   4.091   2.798   5.081 -2.5979 -1.3089 -1.6994
 3523SOL    HW222206   3.990   2.890   5.120 -0.9783 -1.4476 -1.4730
 3524SOL     OW22207   1.003   0.673   3.084  0.2133  0.2779  0.1162
 3524SOL    HW122208   0.976   0.648   2.995  0.3007  1.4674 -0.2380
 3524SOL    HW222209   1.060   0.741   3.048 -1.8590  1.9817  0.0887
 3525SOL     OW22210   3.001   1.185  10.590 -0.5455 -0.5292  0.0584
 3525SOL    HW122211   3.023   1.164  10.499  2.8731  1.7720  0.3626
 3525SOL    HW222212   2.930   1.248  10.580  0.7616  1.3669  2.7579
 3526SOL     OW22213   1.304   3.788   0.415  0.6938 -0.1228 -0.1815
 3526SOL    HW122214   1.238   3.857   0.413 -0.4607 -1.2183 -0.1514
 3526SOL    HW222215   1.388   3.831   0.432 -0.7160  1.6816  2.2313
 3527SOL     OW22216   3.715   1.064   1.380  0.1315 -0.4735  0.2140
 3527SOL    HW122217   3.762   1.123   1.440 -0.1062  0.0246 -0.0918
 3527SOL    HW222218   3.763   0.981   1.389  1.5172  0.2535 -0.3836
 3528SOL     OW22219   1.168   1.016   8.794  0.6081 -0.2688  0.3241
 3528SOL    HW122220   1.209   0.944   8.842 -1.3388 -0.2420  1.9921
 3528SOL    HW222221   1.218   1.094   8.819 -0.1477  0.0879  0.6876
 3529SOL     OW22222   3.140   4.013  11.987  0.0281  0.3415  0.0230
 3529SOL    HW122223   3.067   4.023  12.048  0.8793 -1.2547  1.2865
 3529SOL    HW222224   3.084   3.990  11.914  1.3395  0.1821 -0.9355
 3530SOL     OW22225   1.239   2.389   3.519  0.1293  0.2489  0.2383
 3530SOL    HW122226   1.249   2.295   3.507 -0.4417  0.2078  0.0895
 3530SOL    HW222227   1.331   2.417   3.513  0.3257 -0.2685  0.9263
 3531SOL     OW22228   1.471   4.243   7.227 -0.1172  0.0386 -0.1548
 3531SOL    HW122229   1.526   4.319   7.248 -1.8794  0.6032  2.4690
 3531SOL    HW222230   1.463   4.240   7.132 -0.3644  3.6589 -0.2635
 3532SOL     OW22231   4.726   2.430  11.513  0.3374 -0.0162 -0.3633
 3532SOL    HW122232   0.077   2.449  11.539 -0.0706 -1.1261  1.9115
 3532SOL    HW222233   4.683   2.487  11.578  0.2628 -0.0339 -0.3976
 3533SOL     OW22234   3.833   4.122   4.152 -0.3353 -0.2188 -0.0338
 3533SOL    HW122235   3.923   4.101   4.176  0.0227  0.6201 -0.6012
 3533SOL    HW222236   3.837   4.215   4.177 -1.2346 -0.1075 -0.2965
 3534SOL     OW22237   3.902   2.585   3.759  0.1047  0.1601 -0.3640
 3534SOL    HW122238   3.888   2.673   3.725 -1.8402  0.6835  1.7543
 3534SOL    HW222239   3.951   2.541   3.690  0.7751 -1.4222  1.1044
 3535SOL     OW22240   3.642   4.246  10.565 -0.2464  0.0647 -0.0828
 3535SOL    HW122241   3.550   4.220  10.574 -0.4443  0.8973  0.2725
 3535SOL    HW222242   3.634   4.330  10.521  2.3824 -0.5989 -1.7799
 3536SOL     OW22243   0.038   0.615   5.545 -0.3704 -0.1869 -0.4610
 3536SOL    HW122244   0.115   0.671   5.534 -1.9847  1.6132 -2.4734
 3536SOL    HW222245   0.054   0.570   5.628 -0.1062 -0.9362 -0.9190
 3537SOL     OW22246   4.033   4.011   3.764 -0.4428 -0.1918  0.2539
 3537SOL    HW122247   4.069   4.013   3.853  1.5048 -0.4422 -0.5304
 3537SOL    HW222248   3.991   4.097   3.773  1.5388  0.8108 -0.0634
 3538SOL     OW22249   4.038   0.170  10.148  0.0432 -0.0618 -0.5338
 3538SOL    HW122250   4.096   0.245  10.134 -0.6499  0.4353 -0.7578
 3538SOL    HW222251   4.014   0.146  10.058 -1.1688 -2.5800  0.4843
 3539SOL     OW22252   0.754   0.621  14.731 -0.5225 -0.3774  0.2899
 3539SOL    HW122253   0.704   0.695  14.696 -0.2373  0.3005  1.3093
 3539SOL    HW222254   0.793   0.589  14.649 -0.7477  1.5222 -0.5806
 3540SOL     OW22255   2.086   0.583   8.804 -0.0507 -0.9601  0.4771
 3540SOL    HW122256   2.053   0.522   8.870 -1.2732 -1.1469 -0.2882
 3540SOL    HW222257   2.030   0.660   8.812  0.8320 -0.4964  2.1290
 3541SOL     OW22258   1.822   2.343   9.217 -0.2030  0.0483  0.4206
 3541SOL    HW122259   1.759   2.397   9.265  2.1862  2.2969  1.0405
 3541SOL    HW222260   1.815   2.255   9.253 -0.1652 -0.5188 -0.9448
 3542SOL     OW22261   1.342   1.762   1.426  0.0342  0.3636 -0.1440
 3542SOL    HW122262   1.389   1.785   1.507  0.6441 -1.4748  0.0093
 3542SOL    HW222263   1.326   1.853   1.400 -0.7797 -0.6049 -3.0401
 3543SOL     OW22264   0.075   4.523  10.066  0.5161 -0.0284  0.3034
 3543SOL    HW122265   0.076   4.521   9.970 -0.6709 -0.7021  0.3006
 3543SOL    HW222266   4.722   4.500  10.068  0.3756  0.3705 -1.6306
 3544SOL     OW22267   4.060   3.332   7.280  0.1893  0.1131 -0.5695
 3544SOL    HW122268   4.081   3.386   7.204 -3.9409  3.4421  0.6388
 3544SOL    HW222269   4.144   3.334   7.324 -0.8146  0.3821  1.3246
 3545SOL     OW22270   1.649   3.329   8.262  0.0966 -0.3302 -0.0906
 3545SOL    HW122271   1.609   3.321   8.176  0.5028  1.3728 -0.4258
 3545SOL    HW222272   1.604   3.256   8.305 -1.1111 -0.0247 -0.8347
 3546SOL     OW22273   3.203   1.785   6.109 -0.4395  0.1590 -0.2316
 3546SOL    HW122274   3.198   1.829   6.024 -1.0715  0.8976  0.1899
 3546SOL    HW222275   3.114   1.781   6.143  0.1662  2.7842  1.6633
 3547SOL     OW22276   3.220   2.107   8.049  0.1295 -0.8737  0.0168
 3547SOL    HW122277   3.281   2.172   8.015 -3.1065  2.6729  0.9068
 3547SOL    HW222278   3.283   2.056   8.100  0.3428 -2.4155 -1.8205
 3548SOL     OW22279   2.860   4.485   8.196 -0.2556 -0.5519 -0.5937
 3548SOL    HW122280   2.834   4.535   8.273  1.4009  2.0985 -1.7541
 3548SOL    HW222281   2.786   4.487   8.136 -0.2023  0.0645 -0.6385
 3549SOL     OW22282   1.644   3.415   2.393  0.2603 -0.0390  0.3414
 3549SOL    HW122283   1.555   3.449   2.382  1.0686  1.9819  0.1457
 3549SOL    HW222284   1.686   3.444   2.312 -1.1892  1.4140  0.0990
 3550SOL     OW22285   0.273   4.140   1.498 -0.3758  0.7532 -0.3482
 3550SOL    HW122286   0.335   4.191   1.549 -0.1733  1.1804 -1.0199
 3550SOL    HW222287   0.239   4.072   1.556 -2.1065  0.9717 -1.0904
 3551SOL     OW22288   4.017   1.681   7.633 -0.4687  0.2917  0.2335
 3551SOL    HW122289   3.948   1.649   7.574  0.0843 -1.6060  0.6220
 3551SOL    HW222290   3.986   1.659   7.721  2.2422 -1.0004  0.8392
 3552SOL     OW22291   2.784   2.597   9.278  0.1061  0.0094  0.1815
 3552SOL    HW122292   2.828   2.638   9.203  0.1608  2.7422  1.6842
 3552SOL    HW222293   2.753   2.519   9.233  0.2292  0.4155 -0.5977
 3553SOL     OW22294   1.735   0.438   0.628  0.0252 -0.1439  0.5014
 3553SOL    HW122295   1.729   0.366   0.565  1.5556  0.1333  0.0513
 3553SOL    HW222296   1.674   0.504   0.598  0.5122  0.9944  2.0126
 3554SOL     OW22297   3.605   3.061   5.758  0.0928  0.1871  0.0263
 3554SOL    HW122298   3.623   3.078   5.850  0.8260  0.2890 -0.1399
 3554SOL    HW222299   3.635   2.971   5.749  0.6809  0.2080  1.9002
 3555SOL     OW22300   3.594   4.274   3.574  0.2712 -0.1672 -0.0467
 3555SOL    HW122301   3.684   4.266   3.541  0.2181 -1.2253  0.0627
 3555SOL    HW222302   3.579   4.359   3.534  1.0540  0.3100  0.6684
 3556SOL     OW22303   1.193   0.262  13.239 -0.1444 -0.3513 -0.0420
 3556SOL    HW122304   1.216   0.326  13.171  0.1469  0.0002  0.3851
 3556SOL    HW222305   1.205   0.311  13.320  0.5193 -0.7767  0.1108
 3557SOL     OW22306   1.743   2.321  12.417 -0.0472  0.5813  0.4740
 3557SOL    HW122307   1.768   2.283  12.333  2.7108  1.2927  0.9796
 3557SOL    HW222308   1.654   2.354  12.407 -0.7453 -1.6081 -0.3996
 3558SOL     OW22309   3.965   3.079   3.529 -0.1136 -0.2532 -0.4570
 3558SOL    HW122310   3.960   3.124   3.445 -0.0573 -0.5057 -0.5962
 3558SOL    HW222311   3.878   3.039   3.520  0.4572 -1.3327 -1.2373
 3559SOL     OW22312   3.612   3.395  12.554  0.0424 -0.0767 -0.0597
 3559SOL    HW122313   3.646   3.350  12.477  3.4545  2.7295 -0.2409
 3559SOL    HW222314   3.692   3.399  12.607  1.5722 -2.2380 -2.2472
 3560SOL     OW22315   4.644   1.321   6.025 -0.2156 -0.0740  0.1605
 3560SOL    HW122316   4.671   1.230   6.036  0.9514 -0.1047 -2.9403
 3560SOL    HW222317   4.719   1.371   6.056  0.0844 -0.2320 -0.3060
 3561SOL     OW22318   4.733   3.140  15.410 -0.2746 -0.3572  0.0687
 3561SOL    HW122319   4.707   3.175  15.325  2.4874 -3.0549 -1.9279
 3561SOL    HW222320   0.087   3.158  15.418 -0.1155 -0.4172 -1.6504
 3562SOL     OW22321   2.571   0.550   8.831  0.0859  0.0362 -0.0126
 3562SOL    HW122322   2.497   0.543   8.771 -0.5122  1.4988  0.5576
 3562SOL    HW222323   2.542   0.606   8.904  1.4880 -0.8444  1.2211
 3563SOL     OW22324   3.516   2.501   7.039  0.5201 -0.3665  0.1205
 3563SOL    HW122325   3.485   2.564   6.973 -1.1692  0.2883  1.5318
 3563SOL    HW222326   3.562   2.555   7.103  0.1423 -2.0102  1.7609
 3564SOL     OW22327   3.741   1.608   6.068  0.1613 -0.2788 -0.0705
 3564SOL    HW122328   3.646   1.591   6.069 -0.3935  2.8904  1.8802
 3564SOL    HW222329   3.744   1.673   6.138 -0.8486 -1.2366  0.8514
 3565SOL     OW22330   1.793   1.938   2.357 -0.1992  0.1986  0.0670
 3565SOL    HW122331   1.829   1.987   2.284 -1.4126 -0.3227 -0.8679
 3565SOL    HW222332   1.703   1.966   2.345 -0.2018  0.9178  1.7956
 3566SOL     OW22333   2.622   0.880   4.126  0.1583  0.3912  0.0680
 3566SOL    HW122334   2.661   0.812   4.181 -0.5369 -0.0933 -0.0357
 3566SOL    HW222335   2.637   0.957   4.181 -2.2269  1.0682 -0.2515
 3567SOL     OW22336   1.222   3.148   5.682 -0.2769  0.4388  0.0315
 3567SOL    HW122337   1.287   3.114   5.744 -1.5853  0.6193  1.5004
 3567SOL    HW222338   1.183   3.218   5.733 -0.3121 -1.5077  2.7011
 3568SOL     OW22339   3.418   1.121   1.807 -0.2914  0.0876  0.2930
 3568SOL    HW122340   3.446   1.072   1.884  2.9006 -0.6568 -1.3085
 3568SOL    HW222341   3.323   1.114   1.812 -0.2524 -0.7380 -0.1192
 3569SOL     OW22342   3.909   1.274   4.271 -0.1808 -0.0466  0.2633
 3569SOL    HW122343   3.856   1.354   4.267  0.9314  0.7064  0.5121
 3569SOL    HW222344   3.882   1.230   4.190 -1.7729 -1.2913  1.4810
 3570SOL     OW22345   0.918   2.110   8.121 -0.4150 -0.1645 -0.2430
 3570SOL    HW122346   0.928   2.019   8.146 -0.1339 -0.0372  0.1103
 3570SOL    HW222347   0.824   2.125   8.121 -0.5192 -0.8545  1.5136
 3571SOL     OW22348   2.958   4.159   6.621  0.6091 -0.3138  0.0064
 3571SOL    HW122349   2.970   4.132   6.712  0.3982 -1.0953 -0.1958
 3571SOL    HW222350   3.035   4.215   6.617 -0.5686  1.4226  1.7562
 3572SOL     OW22351   2.201   0.551   2.152  0.1746  0.3040  0.2851
 3572SOL    HW122352   2.264   0.620   2.172 -0.7756 -0.0162  4.3883
 3572SOL    HW222353   2.242   0.466   2.167  0.5597  0.6032  0.9190
 3573SOL     OW22354   4.449   4.225   5.646 -0.0415  0.5244 -0.4214
 3573SOL    HW122355   4.455   4.131   5.628 -0.5319  0.7630 -1.8129
 3573SOL    HW222356   4.355   4.225   5.629 -0.1648 -0.5994  0.2854
 3574SOL     OW22357   2.390   2.716   8.567  0.0046 -0.0893  0.8019
 3574SOL    HW122358   2.427   2.628   8.560 -2.0155 -0.7647 -1.3012
 3574SOL    HW222359   2.358   2.738   8.480  1.6655 -3.4601 -0.6360
 3575SOL     OW22360   3.195   4.108  15.296 -0.1941 -0.1652 -0.3748
 3575SOL    HW122361   3.186   4.172  15.225 -0.0501  1.2347  0.8761
 3575SOL    HW222362   3.135   4.039  15.270 -1.2422 -0.4629  2.8869
 3576SOL     OW22363   2.120   2.350   5.761 -0.5760  1.0677  0.8714
 3576SOL    HW122364   2.135   2.352   5.856  1.5629 -2.0275  0.5944
 3576SOL    HW222365   2.204   2.392   5.742 -0.0873 -0.1960  0.2122
 3577SOL     OW22366   3.723   0.424  17.211  0.0139 -0.1155  0.0425
 3577SOL    HW122367   3.713   0.519  17.226  2.3136  0.5636 -2.8411
 3577SOL    HW222368   3.733   0.406  17.304  0.6006  1.2595  0.2577
 3578SOL     OW22369   4.090   3.826  16.056  0.2387 -0.0593 -0.3786
 3578SOL    HW122370   4.086   3.732  16.039  0.7747  0.0403 -1.0499
 3578SOL    HW222371   4.142   3.832  16.136 -0.5369 -0.4079  0.1598
 3579SOL     OW22372   3.203   2.912   9.835  0.4126  0.5171 -0.3361
 3579SOL    HW122373   3.292   2.878   9.851 -0.0547 -0.6763 -0.2292
 3579SOL    HW222374   3.208   2.919   9.740 -0.7437 -1.9425 -0.5722
 3580SOL     OW22375   2.416   3.439   5.287 -0.2341  0.0964  0.2106
 3580SOL    HW122376   2.424   3.348   5.316 -1.1679  0.6353  2.1312
 3580SOL    HW222377   2.369   3.419   5.205  1.5726  0.0358 -0.8004
 3581SOL     OW22378   0.291   0.878   6.688  0.7459  0.1050 -0.2903
 3581SOL    HW122379   0.296   0.972   6.668 -0.3823  0.1519 -0.3495
 3581SOL    HW222380   0.382   0.855   6.705  0.1452 -0.4543  2.0785
 3582SOL     OW22381   2.816   2.576   7.564  0.6391  0.2648 -0.2458
 3582SOL    HW122382   2.764   2.654   7.545  1.0362  0.7470  0.6334
 3582SOL    HW222383   2.752   2.513   7.530 -1.1196  2.0818 -0.3324
 3583SOL     OW22384   1.272   2.411  10.127 -0.3738  0.2728  0.3057
 3583SOL    HW122385   1.342   2.390  10.189 -0.1380 -1.5293 -0.5691
 3583SOL    HW222386   1.206   2.353  10.164  1.1367 -1.1930  0.7172
 3584SOL     OW22387   3.869   0.292   1.869  0.0594 -0.8966  0.6203
 3584SOL    HW122388   3.893   0.359   1.804  0.0709 -0.0949  1.4537
 3584SOL    HW222389   3.950   0.296   1.920  0.4630 -1.7757  0.0509
 3585SOL     OW22390   0.478   2.523  10.656 -0.2479 -0.4748 -0.7304
 3585SOL    HW122391   0.454   2.492  10.569 -0.9445  1.4054 -1.2204
 3585SOL    HW222392   0.574   2.524  10.663 -0.2266  0.7122 -1.1551
 3586SOL     OW22393   1.755   2.218   1.692  0.0074  0.0743 -0.2381
 3586SOL    HW122394   1.732   2.310   1.706  0.8939  0.0963  1.0543
 3586SOL    HW222395   1.830   2.232   1.633 -1.4873  1.1470 -1.8938
 3587SOL     OW22396   4.053   2.215  10.217  0.7239 -0.1003  0.1524
 3587SOL    HW122397   4.005   2.297  10.224  1.6458  0.4077  0.5615
 3587SOL    HW222398   3.979   2.156  10.212 -0.6474  1.5731  0.7868
 3588SOL     OW22399   0.573   3.107   7.003  0.0682 -0.4313 -0.0692
 3588SOL    HW122400   0.480   3.108   7.022  0.0547  1.9005 -0.3332
 3588SOL    HW222401   0.617   3.065   7.077 -1.7845 -1.4370  0.4550
 3589SOL     OW22402   3.162   4.075   7.095 -0.2370  0.2423  0.2731
 3589SOL    HW122403   3.174   4.121   7.178  1.0904 -1.9720  1.2978
 3589SOL    HW222404   3.249   4.053   7.064 -0.7577  0.1328 -1.0871
 3590SOL     OW22405   1.087   0.184   6.188 -0.2585  0.0691 -0.0971
 3590SOL    HW122406   1.003   0.140   6.200  0.1086 -0.3378  1.0625
 3590SOL    HW222407   1.093   0.250   6.258 -2.3242 -1.3912  1.4672
 3591SOL     OW22408   1.491   3.366  16.014 -0.2159  0.0594  0.2310
 3591SOL    HW122409   1.451   3.318  16.087 -1.3079  0.4805 -0.1015
 3591SOL    HW222410   1.573   3.316  16.008 -1.0387 -1.7376  3.5843
 3592SOL     OW22411   0.886   0.663  12.795  0.0321 -0.5141  0.1604
 3592SOL    HW122412   0.921   0.727  12.857  0.8229  0.1145 -0.9308
 3592SOL    HW222413   0.907   0.697  12.708 -2.3941  3.7912  1.3191
 3593SOL     OW22414   1.244   4.020  10.776  0.2300 -0.1577 -0.1612
 3593SOL    HW122415   1.312   4.086  10.793 -0.7372  0.6890  0.4108
 3593SOL    HW222416   1.216   4.028  10.685  0.9273  0.8147 -0.2840
 3594SOL     OW22417   4.501   2.592   0.397 -0.7283  0.4126 -0.1655
 3594SOL    HW122418   4.431   2.633   0.347 -0.3111  0.6004 -0.5893
 3594SOL    HW222419   4.518   2.653   0.469 -2.3081 -0.1176  0.6717
 3595SOL     OW22420   3.134   2.923   6.031  0.3609 -0.1053 -0.0240
 3595SOL    HW122421   3.181   2.845   6.058 -1.8919 -1.7331 -0.8501
 3595SOL    HW222422   3.198   2.955   5.967  1.8526  0.3728  1.7365
 3596SOL     OW22423   4.128   4.341   3.783  0.0211  0.5562 -0.2212
 3596SOL    HW122424   4.134   4.376   3.872  0.9165 -1.7261  0.6179
 3596SOL    HW222425   4.221   4.322   3.771  0.1089  1.0762 -0.3903
 3597SOL     OW22426   3.743   0.221   4.462  0.4101 -0.4795 -0.4072
 3597SOL    HW122427   3.690   0.297   4.486  0.3834 -0.7699  0.4599
 3597SOL    HW222428   3.681   0.154   4.492 -0.5207  0.1505 -0.9575
 3598SOL     OW22429   0.421   4.450  14.446  0.8863  0.5780  0.3451
 3598SOL    HW122430   0.395   4.539  14.469 -1.5266 -0.2096  0.6604
 3598SOL    HW222431   0.503   4.464  14.400  0.7748  0.0186 -0.0221
 3599SOL     OW22432   0.316   0.943   5.966  0.1745 -0.2631  0.2198
 3599SOL    HW122433   0.354   0.861   5.999  0.8880  0.5964  1.5201
 3599SOL    HW222434   0.237   0.904   5.927  0.1846 -0.3167  0.2522
 3600SOL     OW22435   2.750   0.817   5.265  0.2248  1.2492 -0.1283
 3600SOL    HW122436   2.753   0.727   5.297  0.1892  1.5614  0.7483
 3600SOL    HW222437   2.810   0.821   5.191  0.5213 -0.1276  0.0334
 3601SOL     OW22438   2.778   2.673   5.041 -0.8403  0.6151  0.8854
 3601SOL    HW122439   2.790   2.579   5.024 -0.0982  1.0748 -1.1175
 3601SOL    HW222440   2.724   2.704   4.969 -0.7873 -0.8208  0.2261
 3602SOL     OW22441   1.670   0.087   4.533 -0.5251 -0.5080  0.2167
 3602SOL    HW122442   1.604   0.024   4.503 -1.7653  0.3417  1.1492
 3602SOL    HW222443   1.753   0.041   4.528  0.9417  2.1060  0.7472
 3603SOL     OW22444   4.602   3.560   7.815  0.1525 -0.0108  0.1687
 3603SOL    HW122445   4.675   3.617   7.793 -0.3960 -0.5042 -2.9322
 3603SOL    HW222446   4.548   3.571   7.737  1.3940 -2.7234 -1.0761
 3604SOL     OW22447   4.203   3.961   8.738 -0.7173 -0.6276  0.4418
 3604SOL    HW122448   4.289   3.972   8.779 -1.4641  1.0327  1.5941
 3604SOL    HW222449   4.178   4.051   8.717 -2.0271 -0.6296  1.9479
 3605SOL     OW22450   3.251   4.638   8.153  0.1746 -0.1912 -0.5240
 3605SOL    HW122451   3.329   4.671   8.198 -1.5842  2.7284  0.4078
 3605SOL    HW222452   3.251   4.687   8.071  0.6265  2.2722  0.9177
 3606SOL     OW22453   1.204   4.432   4.306 -0.7511  0.2985 -0.2622
 3606SOL    HW122454   1.147   4.473   4.241 -0.4110  1.4997  0.1939
 3606SOL    HW222455   1.163   4.346   4.303 -0.6123  0.2309 -0.2223
 3607SOL     OW22456   1.099   2.910   0.337  0.2037  0.4089 -0.2617
 3607SOL    HW122457   1.029   2.847   0.320 -0.5137  0.9049  0.8340
 3607SOL    HW222458   1.044   2.984   0.365  1.3303  0.4181  1.9471
 3608SOL     OW22459   4.067   4.090   4.281 -0.5921 -0.2914 -0.4410
 3608SOL    HW122460   4.038   4.005   4.314  0.7071 -0.3460  0.5670
 3608SOL    HW222461   4.090   4.139   4.360  0.9509 -1.5921 -0.0730
 3609SOL     OW22462   3.357   0.066   8.744 -0.5350  0.5543  0.0807
 3609SOL    HW122463   3.439   0.017   8.757  0.9531  3.8747  3.0954
 3609SOL    HW222464   3.293   4.736   8.730  2.1973 -1.9597 -0.0397
 3610SOL     OW22465   0.315   2.460   2.369 -0.0840  0.0791  0.1680
 3610SOL    HW122466   0.343   2.386   2.424 -1.5544  0.0343  0.8596
 3610SOL    HW222467   0.399   2.497   2.340 -0.3432  0.3683 -0.2090
 3611SOL     OW22468   0.856   3.635   9.450 -0.4213 -0.0833  0.3467
 3611SOL    HW122469   0.835   3.544   9.427  0.7401  0.0200 -1.1109
 3611SOL    HW222470   0.950   3.626   9.435 -1.0065  1.4922 -4.3556
 3612SOL     OW22471   2.685   1.880  15.799 -0.4134  0.0879 -0.0166
 3612SOL    HW122472   2.621   1.951  15.809  0.7605  0.9259  1.5739
 3612SOL    HW222473   2.642   1.800  15.769 -2.3691  0.5085  1.6902
 3613SOL     OW22474   0.178   3.146   2.988  0.1703  0.4477  0.2592
 3613SOL    HW122475   0.179   3.065   2.937 -1.1595  0.1792  0.6821
 3613SOL    HW222476   0.133   3.195   2.920 -1.2808 -0.2436  0.7315
 3614SOL     OW22477   1.789   3.300   7.160  0.1844  0.2516  0.4527
 3614SOL    HW122478   1.751   3.357   7.227 -1.6389  0.1980 -0.5264
 3614SOL    HW222479   1.709   3.275   7.114  0.2488  1.0069 -0.0697
 3615SOL     OW22480   2.655   1.932   7.381  0.2802 -0.7037 -0.1412
 3615SOL    HW122481   2.667   1.939   7.475  2.8895 -1.0241 -0.4486
 3615SOL    HW222482   2.721   1.865   7.364  1.3661  0.5924 -1.0263
 3616SOL     OW22483   1.853   4.196  13.011  0.5925 -0.1018 -0.4332
 3616SOL    HW122484   1.779   4.185  13.071 -1.2669  2.1836 -2.2831
 3616SOL    HW222485   1.923   4.181  13.074  1.6697  1.8613 -1.1595
 3617SOL     OW22486   3.864   1.633   3.029  0.2573 -0.0467 -0.2581
 3617SOL    HW122487   3.896   1.723   3.038 -0.9370  0.2821  0.7525
 3617SOL    HW222488   3.851   1.609   3.121  0.7433  0.3853 -0.0791
 3618SOL     OW22489   1.743   1.116   5.826  0.4154  0.1939  0.4356
 3618SOL    HW122490   1.775   1.052   5.889 -1.2603  0.2180  1.3069
 3618SOL    HW222491   1.806   1.189   5.829 -0.1198  0.6796 -0.0307
 3619SOL     OW22492   1.776   1.351   9.297 -0.0803  0.0671  0.0340
 3619SOL    HW122493   1.696   1.308   9.328  0.5151 -1.4480 -0.5266
 3619SOL    HW222494   1.815   1.377   9.380  0.1815 -1.3754  0.3458
 3620SOL     OW22495   4.192   0.920   2.316  0.1943 -0.1855 -0.6457
 3620SOL    HW122496   4.260   0.870   2.271 -0.1551 -1.9273  0.7656
 3620SOL    HW222497   4.113   0.923   2.263  1.2850 -0.4275 -2.2908
 3621SOL     OW22498   1.134   1.432   8.403 -0.3351 -0.2857  0.2954
 3621SOL    HW122499   1.179   1.515   8.390 -0.6997 -0.1185  0.1305
 3621SOL    HW222500   1.091   1.420   8.319  0.0618  0.0174  0.0552
 3622SOL     OW22501   0.893   3.042   4.857  0.2691  0.4666 -0.0474
 3622SOL    HW122502   0.931   3.093   4.929 -0.0551  2.0798 -1.0113
 3622SOL    HW222503   0.803   3.074   4.862  0.1343  0.1829 -0.7396
 3623SOL     OW22504   2.424   1.865   6.767  0.4816  0.1946  0.1168
 3623SOL    HW122505   2.356   1.813   6.811  1.2616 -0.1329  0.9243
 3623SOL    HW222506   2.417   1.831   6.677 -2.4141 -1.0965  0.8122
 3624SOL     OW22507   0.692   1.926   5.028  0.5822  0.0174  0.0789
 3624SOL    HW122508   0.712   1.969   4.945  1.8509 -2.7550 -1.0410
 3624SOL    HW222509   0.727   1.838   5.014 -1.2037 -0.7933  0.6783
 3625SOL     OW22510   2.371   2.569   3.766 -0.6783 -0.4213 -0.4152
 3625SOL    HW122511   2.334   2.509   3.701  2.6562 -1.1672 -1.6020
 3625SOL    HW222512   2.294   2.619   3.795 -1.1487 -0.4637 -1.5860
 3626SOL     OW22513   2.169   4.556   5.371  0.1937 -0.0408  0.4101
 3626SOL    HW122514   2.090   4.610   5.372  1.4502  1.7412  1.5277
 3626SOL    HW222515   2.192   4.557   5.464 -0.1522  2.2767  0.4610
 3627SOL     OW22516   3.127   4.003   4.838 -0.2709 -0.5927  0.3489
 3627SOL    HW122517   3.100   4.093   4.856  0.4392 -0.2562 -0.2944
 3627SOL    HW222518   3.058   3.969   4.781  0.7201 -0.8695 -0.6785
 3628SOL     OW22519   4.512   1.549   6.635 -0.2595  0.5336 -0.4807
 3628SOL    HW122520   4.536   1.642   6.643  1.0116  0.2613 -0.9797
 3628SOL    HW222521   4.602   1.522   6.613  0.8056  3.5467  0.1149
 3629SOL     OW22522   3.824   4.487   8.857  0.2802 -0.3317  0.6634
 3629SOL    HW122523   3.733   4.512   8.872  0.1500 -2.4048  3.3943
 3629SOL    HW222524   3.827   4.396   8.885  1.1870  0.4122  3.0249
 3630SOL     OW22525   3.710   4.335   4.566 -0.5415 -0.1381  0.2100
 3630SOL    HW122526   3.733   4.383   4.645 -1.6647  2.4490 -1.0376
 3630SOL    HW222527   3.616   4.322   4.579 -0.6651  0.4035 -0.1316
 3631SOL     OW22528   0.920   1.026  10.740  0.3244 -0.1801  0.4290
 3631SOL    HW122529   0.945   0.940  10.708 -0.7702 -0.7455  1.0852
 3631SOL    HW222530   0.970   1.085  10.683 -1.3976  0.3243 -0.5395
 3632SOL     OW22531   4.423   2.525   9.092 -0.0593 -0.5828 -0.0800
 3632SOL    HW122532   4.496   2.469   9.066 -0.7091 -1.1192 -0.7476
 3632SOL    HW222533   4.352   2.479   9.047 -1.8165  1.3065  0.7396
 3633SOL     OW22534   2.907   3.272   4.959 -0.0482  0.2410  0.3347
 3633SOL    HW122535   2.832   3.331   4.949 -0.2543 -0.2483 -1.0166
 3633SOL    HW222536   2.906   3.259   5.053  1.1546 -2.3236 -0.0071
 3634SOL     OW22537   4.376   1.269  16.824 -0.1164  0.3861 -0.5418
 3634SOL    HW122538   4.398   1.210  16.752 -0.8109 -1.1203  0.4589
 3634SOL    HW222539   4.454   1.254  16.878 -0.7933  0.7198  0.5244
 3635SOL     OW22540   0.623   4.105   9.508  0.1594 -0.0005 -0.3599
 3635SOL    HW122541   0.698   4.061   9.468  0.2830 -0.1704  0.0677
 3635SOL    HW222542   0.639   4.194   9.476  1.2209  0.7480  2.2586
 3636SOL     OW22543   4.378   3.015   9.135 -0.2094 -0.4041 -0.0896
 3636SOL    HW122544   4.443   2.960   9.178 -1.9145 -1.0079  1.7400
 3636SOL    HW222545   4.350   3.073   9.206 -0.3225 -0.5631 -0.0038
 3637SOL     OW22546   2.770   2.885  14.012 -0.1679 -0.3261  0.4706
 3637SOL    HW122547   2.849   2.931  13.981 -0.5717  0.1714  0.1888
 3637SOL    HW222548   2.790   2.799  13.975 -1.2970  0.5776 -2.2373
 3638SOL     OW22549   1.229   0.083   5.641 -0.0554 -0.2988 -0.2141
 3638SOL    HW122550   1.267   0.171   5.631  1.7867 -0.8014  2.5163
 3638SOL    HW222551   1.148   0.107   5.685 -0.6582 -0.9105 -0.9885
 3639SOL     OW22552   1.994   1.140  12.221 -0.5617  0.2380  0.2418
 3639SOL    HW122553   1.934   1.117  12.292 -0.1197 -0.5753  0.3523
 3639SOL    HW222554   2.060   1.074  12.243 -0.6850  0.5264  1.4618
 3640SOL     OW22555   3.902   3.036   5.114  0.6598 -0.1787  0.1055
 3640SOL    HW122556   3.960   3.064   5.043 -1.7419 -0.3145 -1.9119
 3640SOL    HW222557   3.821   3.058   5.068  1.1578  1.0656 -0.1750
 3641SOL     OW22558   2.332   2.751   9.565  0.9629  0.1309 -0.5407
 3641SOL    HW122559   2.372   2.815   9.507  0.5494 -0.7938 -1.8339
 3641SOL    HW222560   2.353   2.787   9.652 -0.1863 -2.0585  0.6551
 3642SOL     OW22561   4.278   0.493   2.880 -0.3588  0.2784 -0.0504
 3642SOL    HW122562   4.192   0.531   2.863  0.4987  2.9306  1.5771
 3642SOL    HW222563   4.252   0.411   2.921  0.1586 -0.4061 -1.0934
 3643SOL     OW22564   3.498   2.686  15.949 -0.2838 -0.3501  0.3421
 3643SOL    HW122565   3.441   2.609  15.951  0.3833 -0.8376  1.7887
 3643SOL    HW222566   3.542   2.669  15.866 -0.9703  0.4359 -0.1668
 3644SOL     OW22567   1.010   4.507   6.141 -0.6008 -0.1255  0.0328
 3644SOL    HW122568   1.020   4.511   6.046  1.0525 -0.5718  0.1817
 3644SOL    HW222569   1.032   4.416   6.162  1.4169 -0.0119 -1.5810
 3645SOL     OW22570   1.363   0.697   7.471  0.3516 -0.3949  0.1250
 3645SOL    HW122571   1.295   0.637   7.501  0.2858 -2.2711 -3.7239
 3645SOL    HW222572   1.436   0.660   7.520 -0.4838 -1.0618  0.8613
 3646SOL     OW22573   2.436   4.183   7.606  0.3471 -0.2110 -0.0526
 3646SOL    HW122574   2.359   4.221   7.650  0.5864  0.9953 -0.6741
 3646SOL    HW222575   2.486   4.141   7.676  0.5119  1.2817  0.7417
 3647SOL     OW22576   2.179   0.763  11.163  0.1148  0.3989  0.1179
 3647SOL    HW122577   2.098   0.711  11.159  1.1429 -1.1898 -0.3015
 3647SOL    HW222578   2.147   0.843  11.121 -2.1637 -1.1760 -1.1336
 3648SOL     OW22579   2.133   3.131  12.174 -0.2964 -0.1143  0.4488
 3648SOL    HW122580   2.141   3.195  12.102 -0.9633 -1.4417 -0.8052
 3648SOL    HW222581   2.132   3.053  12.118 -1.0664  0.2579 -0.0566
 3649SOL     OW22582   3.652   4.468   6.548 -0.1550  0.0733 -0.4995
 3649SOL    HW122583   3.669   4.390   6.601 -0.5907  1.8943  2.3135
 3649SOL    HW222584   3.738   4.508   6.551 -0.0279 -0.2209 -0.2675
 3650SOL     OW22585   3.468   1.091   3.319 -0.1913 -0.2263  0.6151
 3650SOL    HW122586   3.516   1.075   3.400  1.4030 -1.6858 -0.6332
 3650SOL    HW222587   3.382   1.120   3.352  0.2244  0.0473  1.4490
 3651SOL     OW22588   2.239   0.355  15.721  0.4323  0.2736  0.6470
 3651SOL    HW122589   2.212   0.265  15.702 -0.7156  0.9698 -1.0858
 3651SOL    HW222590   2.152   0.393  15.732 -0.4074 -1.5583  0.4165
 3652SOL     OW22591   1.628   3.770   1.469 -0.6370  0.3846 -0.3205
 3652SOL    HW122592   1.602   3.805   1.555  0.3974 -0.1444  0.2060
 3652SOL    HW222593   1.683   3.844   1.442  2.7300 -1.2550  2.0497
 3653SOL     OW22594   3.780   0.229   2.128 -0.0543 -0.5310  0.1262
 3653SOL    HW122595   3.809   0.260   2.042 -0.4735 -1.0246 -0.1949
 3653SOL    HW222596   3.699   0.281   2.133  0.6519  0.3330  2.5039
 3654SOL     OW22597   0.056   0.564   6.344  0.5064 -0.2691 -0.0378
 3654SOL    HW122598   0.073   0.521   6.428 -1.1129  1.2610  1.0603
 3654SOL    HW222599   0.086   0.507   6.274 -0.2212 -0.3815 -0.2551
 3655SOL     OW22600   0.596   2.965   0.297 -0.2284 -0.2739 -0.3856
 3655SOL    HW122601   0.686   2.945   0.322 -0.7941 -3.3354 -0.7783
 3655SOL    HW222602   0.591   3.056   0.324 -0.1246  0.0376 -1.4001
 3656SOL     OW22603   3.969   4.507   9.466  0.6067  0.4160  0.1383
 3656SOL    HW122604   3.911   4.551   9.404  1.4212 -0.2367 -1.1009
 3656SOL    HW222605   4.039   4.492   9.402 -0.5212  0.5264 -1.1029
 3657SOL     OW22606   0.145   4.066   1.843 -0.1105 -0.2373 -0.0094
 3657SOL    HW122607   0.091   4.138   1.876 -0.4691 -1.5684  2.2996
 3657SOL    HW222608   0.122   3.987   1.891  0.7445 -0.5372 -0.1038
 3658SOL     OW22609   4.005   1.290   7.218  0.1144  0.2095 -0.3599
 3658SOL    HW122610   4.093   1.275   7.182  0.7897  1.2237  0.8498
 3658SOL    HW222611   4.018   1.234   7.295  1.5620  1.2204  0.1279
 3659SOL     OW22612   4.123   1.603   2.887  0.2471 -0.3863 -0.2065
 3659SOL    HW122613   4.164   1.631   2.969 -3.3016  0.4112  1.2876
 3659SOL    HW222614   4.049   1.567   2.935  1.4740  1.5913  3.1744
 3660SOL     OW22615   0.161   3.012   8.041 -0.5046  0.1281 -0.2683
 3660SOL    HW122616   0.198   3.092   8.079  0.0201  0.2729 -1.0906
 3660SOL    HW222617   0.234   2.954   8.062 -1.1719  0.4506  3.0394
 3661SOL     OW22618   2.240   4.193   8.592  0.2374 -0.4377 -0.0513
 3661SOL    HW122619   2.210   4.144   8.516  0.5236  0.1156 -0.5184
 3661SOL    HW222620   2.324   4.151   8.611  0.8039  0.6242 -0.2353
 3662SOL     OW22621   3.286   2.928   5.059 -0.3563 -0.1440  0.1109
 3662SOL    HW122622   3.208   2.875   5.043  0.7689 -2.1434  1.3095
 3662SOL    HW222623   3.351   2.859   5.051  2.7824  2.7180  0.8270
 3663SOL     OW22624   2.003   3.934   7.397 -0.8917  0.5027 -0.1145
 3663SOL    HW122625   2.045   3.942   7.482 -1.6419  0.6206  0.2437
 3663SOL    HW222626   2.012   3.841   7.378 -2.2192  0.2094  0.6895
 3664SOL     OW22627   1.802   1.579   7.357  0.5212 -0.2421  0.1967
 3664SOL    HW122628   1.819   1.673   7.362 -0.3403 -0.0793 -0.0226
 3664SOL    HW222629   1.743   1.577   7.432  1.9838 -0.1927  1.3513
 3665SOL     OW22630   3.682   4.137   7.995 -0.3435 -0.2407 -0.6631
 3665SOL    HW122631   3.655   4.212   7.943  0.7966  1.3807  1.1076
 3665SOL    HW222632   3.761   4.113   7.945 -0.4427  0.3014 -1.0712
 3666SOL     OW22633   2.952   3.488   8.891  0.0840 -0.0406 -0.1525
 3666SOL    HW122634   3.026   3.483   8.830  0.2004  1.0699 -0.1106
 3666SOL    HW222635   3.007   3.469   8.966 -1.1074 -0.0922  0.7152
 3667SOL     OW22636   2.384   4.027   6.951  0.1483  0.0317  0.4777
 3667SOL    HW122637   2.399   4.117   6.922  0.9817  0.5342  2.4930
 3667SOL    HW222638   2.445   3.986   6.889  0.9188  1.9906 -0.0560
 3668SOL     OW22639   3.549   0.284   6.120  0.0193 -0.1623  0.1861
 3668SOL    HW122640   3.595   0.272   6.203 -1.2858 -2.2509  0.6203
 3668SOL    HW222641   3.619   0.277   6.056 -0.9706  2.5701 -1.1916
 3669SOL     OW22642   2.223   0.449   3.432 -0.3807  0.4645 -0.0494
 3669SOL    HW122643   2.230   0.537   3.394  3.0093  0.6987  1.1709
 3669SOL    HW222644   2.143   0.413   3.393  0.6000 -1.6272 -0.1240
 3670SOL     OW22645   4.137   2.465   5.483 -0.4147 -0.1902  1.0713
 3670SOL    HW122646   4.183   2.523   5.422 -0.0728  0.5440  2.0316
 3670SOL    HW222647   4.124   2.385   5.431  1.0749 -0.2079  0.7290
 3671SOL     OW22648   1.418   2.221   4.593  0.2256 -0.2842 -0.5091
 3671SOL    HW122649   1.465   2.290   4.546  0.0040  1.3517  1.6738
 3671SOL    HW222650   1.464   2.143   4.562 -0.5671 -1.4702  1.2964
 3672SOL     OW22651   4.055   0.160   4.864  0.0542 -0.1036 -0.0307
 3672SOL    HW122652   3.984   0.221   4.886  0.6887  0.6378 -0.0269
 3672SOL    HW222653   4.128   0.193   4.916 -0.1296 -0.4537  0.4439
 3673SOL     OW22654   4.016   0.462  16.060  0.3866  0.4902 -0.4956
 3673SOL    HW122655   4.055   0.474  15.973  1.1569 -0.8047 -0.3303
 3673SOL    HW222656   4.050   0.374  16.078  0.0150 -0.0761 -2.5528
 3674SOL     OW22657   3.992   1.098   9.130 -0.3599 -0.1447 -0.0385
 3674SOL    HW122658   3.919   1.146   9.170 -0.7999 -1.6207  0.9451
 3674SOL    HW222659   3.963   1.064   9.046 -2.0107  2.1033 -0.3758
 3675SOL     OW22660   4.340   2.250   0.203 -0.1295 -0.0136  0.1807
 3675SOL    HW122661   4.291   2.191   0.146 -1.7148  0.2027  1.3340
 3675SOL    HW222662   4.267   2.281   0.257 -1.2961  0.3332 -1.5661
 3676SOL     OW22663   4.558   2.577   8.482 -0.3179 -0.0368  0.2729
 3676SOL    HW122664   4.566   2.483   8.494 -0.1340  0.0538  0.8466
 3676SOL    HW222665   4.542   2.592   8.389  0.3564  1.8002  0.4437
 3677SOL     OW22666   2.960   4.723   0.615  0.3015 -0.3966  0.0451
 3677SOL    HW122667   3.020   4.648   0.620  1.4033  0.5859  1.3823
 3677SOL    HW222668   2.994   0.031   0.540  1.3719  0.4154  1.0598
 3678SOL     OW22669   2.702   1.978  12.841  0.3963 -0.1676 -0.3750
 3678SOL    HW122670   2.699   2.068  12.808  1.1417  0.6111  1.7112
 3678SOL    HW222671   2.794   1.956  12.826  0.2224 -0.3069 -1.2431
 3679SOL     OW22672   3.859   4.576  15.333  0.3314 -0.1836 -0.1832
 3679SOL    HW122673   3.832   4.486  15.315  0.2304 -0.1719 -0.0879
 3679SOL    HW222674   3.830   4.624  15.256  0.8083  1.5190  0.7013
 3680SOL     OW22675   4.505   1.561   4.888  0.0292  0.2692  0.1049
 3680SOL    HW122676   4.511   1.533   4.796 -0.4955  1.0525 -0.1651
 3680SOL    HW222677   4.421   1.604   4.899 -0.0902 -0.0841  0.5506
 3681SOL     OW22678   4.553   2.105   5.277 -0.4502  0.4278 -0.4782
 3681SOL    HW122679   4.546   2.033   5.214  3.0864  0.6193 -1.1305
 3681SOL    HW222680   4.483   2.163   5.248 -0.1511  1.6522  1.2616
 3682SOL     OW22681   1.934   0.884   3.197 -0.2696  0.2438 -0.3913
 3682SOL    HW122682   1.904   0.833   3.272 -0.1738 -0.7380 -1.0176
 3682SOL    HW222683   1.891   0.837   3.125 -1.6126  0.4361  0.2885
 3683SOL     OW22684   0.324   3.026   7.003 -0.3960 -0.3415  0.0788
 3683SOL    HW122685   0.314   2.934   7.030 -1.4652 -0.4513 -0.6988
 3683SOL    HW222686   0.240   3.058   7.036  0.8125  1.9619  0.8932
 3684SOL     OW22687   0.650   1.312   9.117  0.2144  0.5112  0.2640
 3684SOL    HW122688   0.649   1.227   9.161  2.1059  0.5457  0.3777
 3684SOL    HW222689   0.632   1.362   9.197 -0.9257 -0.9441  0.9081
 3685SOL     OW22690   1.888   3.360   9.297  0.6296 -0.2826  0.3207
 3685SOL    HW122691   1.840   3.365   9.380  1.5323 -0.8630  0.8866
 3685SOL    HW222692   1.827   3.311   9.243 -1.8413  1.5917  1.4013
 3686SOL     OW22693   4.110   4.042   8.072  0.1662 -0.5269  0.0103
 3686SOL    HW122694   4.168   3.979   8.028 -0.4221 -2.1895  1.5948
 3686SOL    HW222695   4.182   4.098   8.101 -0.2441  1.1377 -2.1572
 3687SOL     OW22696   2.889   2.574  14.947  0.0017 -0.1198 -0.1922
 3687SOL    HW122697   2.837   2.499  14.918 -0.5637 -0.7840  2.5900
 3687SOL    HW222698   2.816   2.623  14.984  0.5790  2.8728 -2.9223
 3688SOL     OW22699   0.514   0.221   9.072 -0.2548 -0.2316 -0.1951
 3688SOL    HW122700   0.530   0.164   8.997  0.7848  1.4176 -1.2269
 3688SOL    HW222701   0.594   0.274   9.078  0.0559 -0.6253 -0.7880
 3689SOL     OW22702   1.993   1.579  15.326  0.5898  0.0343  0.1392
 3689SOL    HW122703   1.929   1.605  15.260 -1.0516 -0.1848  1.6547
 3689SOL    HW222704   1.940   1.612  15.399 -1.3866 -0.4363 -1.0917
 3690SOL     OW22705   4.469   3.745  14.197 -0.2799  0.3566  0.4173
 3690SOL    HW122706   4.528   3.725  14.269 -2.6419  0.1989  2.3203
 3690SOL    HW222707   4.391   3.689  14.206  1.5492 -1.9249  1.8855
 3691SOL     OW22708   3.512   4.613   5.372  0.0007  0.0185 -0.5325
 3691SOL    HW122709   3.467   4.548   5.427  1.0896 -0.3707 -0.0892
 3691SOL    HW222710   3.582   4.556   5.339  2.1013  1.2333  1.7609
 3692SOL     OW22711   3.456   0.523   4.805  0.4554 -0.0302  0.4444
 3692SOL    HW122712   3.366   0.553   4.788  0.7017  0.7340  0.4743
 3692SOL    HW222713   3.518   0.596   4.807 -0.5511  0.8412  0.1507
 3693SOL     OW22714   2.409   0.714   8.003 -0.6876 -0.8962 -0.1829
 3693SOL    HW122715   2.362   0.677   8.078  0.5253 -0.3616  0.8302
 3693SOL    HW222716   2.365   0.799   7.997 -0.8064 -0.7821  2.5623
 3694SOL     OW22717   0.191   4.402   3.003 -0.5369 -0.3832 -0.3810
 3694SOL    HW122718   0.176   4.496   3.000 -3.9354 -0.8927  0.7076
 3694SOL    HW222719   0.265   4.391   2.944  1.0031  1.0953  1.2862
 3695SOL     OW22720   1.416   3.395   6.060  0.1695 -0.5421  0.5237
 3695SOL    HW122721   1.465   3.472   6.034  1.5324 -1.0834  1.4770
 3695SOL    HW222722   1.442   3.381   6.151 -2.7431  1.8430  1.7211
 3696SOL     OW22723   3.471   2.698   7.823  0.4346 -0.8748  0.2632
 3696SOL    HW122724   3.394   2.676   7.875 -0.1760 -2.3782 -1.2717
 3696SOL    HW222725   3.426   2.718   7.741 -0.7832 -1.8263  0.6956
 3697SOL     OW22726   4.579   2.913   7.840  0.1251 -0.1090  0.0127
 3697SOL    HW122727   4.661   2.865   7.855 -0.7726 -1.9859 -1.0886
 3697SOL    HW222728   4.563   2.942   7.930 -0.9929  0.8288 -0.4884
 3698SOL     OW22729   1.900   2.228   2.126  0.7381  0.0831  0.6179
 3698SOL    HW122730   1.945   2.181   2.196 -1.2079 -0.6943  1.3407
 3698SOL    HW222731   1.974   2.255   2.072  1.0210 -1.1367  0.3827
 3699SOL     OW22732   2.732   0.771   6.180  0.1600  0.2125  0.0982
 3699SOL    HW122733   2.742   0.727   6.096 -2.4194 -0.0355 -0.0694
 3699SOL    HW222734   2.785   0.851   6.168 -3.0850  2.2768 -0.5399
 3700SOL     OW22735   2.089   3.021   6.668 -0.6758  0.1104  0.0826
 3700SOL    HW122736   2.058   2.946   6.719 -2.6021  0.9925  0.2189
 3700SOL    HW222737   2.090   3.099   6.723  2.6806 -0.5043  0.8773
 3701SOL     OW22738   0.877   0.713   4.555  0.1361 -0.0948 -0.2072
 3701SOL    HW122739   0.793   0.726   4.598  1.5280  1.2725  2.1439
 3701SOL    HW222740   0.859   0.649   4.486  0.1979 -0.2032 -0.1243
 3702SOL     OW22741   3.467   3.267   6.331 -0.1929  0.0545 -0.1776
 3702SOL    HW122742   3.514   3.185   6.340  1.1183  0.9292  0.8232
 3702SOL    HW222743   3.400   3.254   6.398 -0.6117  0.0923 -0.5899
 3703SOL     OW22744   0.232   4.262   5.801 -0.5052  0.1013 -0.2551
 3703SOL    HW122745   0.206   4.330   5.864  1.1185  1.5314 -1.1371
 3703SOL    HW222746   0.303   4.218   5.847 -0.0448  0.7828 -0.3216
 3704SOL     OW22747   3.400   3.298   3.191 -0.0249  0.3631 -0.5101
 3704SOL    HW122748   3.424   3.390   3.177 -1.8964  1.3413  2.7436
 3704SOL    HW222749   3.325   3.288   3.132  0.0116 -1.2112 -0.2938
 3705SOL     OW22750   0.747   4.103   9.944  0.6678 -1.0694  0.3100
 3705SOL    HW122751   0.698   4.060   9.874  0.7620  0.6131 -0.7908
 3705SOL    HW222752   0.781   4.023   9.985  0.2176 -0.8736  1.0693
 3706SOL     OW22753   3.973   0.944   7.246  0.4745 -0.3374 -0.2135
 3706SOL    HW122754   4.009   0.958   7.158  0.6894 -0.1138 -0.0911
 3706SOL    HW222755   4.043   0.896   7.291  0.2377 -0.3444  0.1410
 3707SOL     OW22756   1.361   3.156   2.614  0.0266  0.0646 -0.4107
 3707SOL    HW122757   1.313   3.236   2.595 -0.2156 -0.2075 -0.9141
 3707SOL    HW222758   1.335   3.158   2.706 -0.5142 -0.0309 -0.5612
 3708SOL     OW22759   1.234   0.987   6.574  0.1662 -0.1367 -0.8877
 3708SOL    HW122760   1.253   0.924   6.504  2.8896 -3.1846  2.6034
 3708SOL    HW222761   1.255   1.068   6.528 -1.5371  1.7058  1.6124
 3709SOL     OW22762   3.144   0.050   4.834  0.0516 -0.2846  0.0701
 3709SOL    HW122763   3.084   0.003   4.775 -0.4627 -4.0308  3.5964
 3709SOL    HW222764   3.152   0.001   4.916 -1.4293 -2.3126 -0.9792
 3710SOL     OW22765   0.235   2.209   4.676 -0.1659 -0.3595  0.5072
 3710SOL    HW122766   0.298   2.144   4.645 -0.7084 -0.8628  0.4498
 3710SOL    HW222767   0.210   2.166   4.758  0.2308 -0.3864  0.6140
 3711SOL     OW22768   1.162   3.752   5.582 -0.1185 -0.3231 -0.0252
 3711SOL    HW122769   1.084   3.708   5.549 -0.0551 -0.5014  0.0601
 3711SOL    HW222770   1.200   3.764   5.495  2.3032 -1.0557  0.9146
 3712SOL     OW22771   0.970   0.106   8.120 -0.5391 -0.3015 -0.3725
 3712SOL    HW122772   1.011   0.027   8.087  0.7998  0.0902  0.3510
 3712SOL    HW222773   0.905   0.121   8.051 -0.0871  1.4555 -0.4209
 3713SOL     OW22774   0.947   4.325   9.963 -0.7050 -0.1119  0.3172
 3713SOL    HW122775   0.981   4.315  10.051  0.2635 -2.4677 -0.3122
 3713SOL    HW222776   0.854   4.337   9.984 -0.9113  0.5194 -0.9602
 3714SOL     OW22777   1.179   2.290   2.083 -0.1207 -0.1853  0.3737
 3714SOL    HW122778   1.131   2.349   2.141  0.4180  2.2075 -1.6096
 3714SOL    HW222779   1.124   2.277   2.005 -0.3938 -1.7293  0.8270
 3715SOL     OW22780   1.996   0.401   6.855 -0.2191 -0.3131 -0.0658
 3715SOL    HW122781   1.975   0.490   6.883  0.2693 -0.1290 -0.2939
 3715SOL    HW222782   2.090   0.393   6.871 -0.0781  0.7337 -0.3747
 3716SOL     OW22783   2.092   3.525  11.780  0.3529 -0.0070  0.4022
 3716SOL    HW122784   2.004   3.541  11.747  0.4307 -0.7547 -0.1667
 3716SOL    HW222785   2.148   3.574  11.719 -0.6167  1.2208  0.4911
 3717SOL     OW22786   0.804   3.525   5.268 -0.5694  0.7649 -0.2343
 3717SOL    HW122787   0.871   3.560   5.327 -1.1925  0.5758  0.5789
 3717SOL    HW222788   0.795   3.433   5.291  0.9375  0.4844 -0.7594
 3718SOL     OW22789   3.380   4.164  13.888 -0.2958  0.0059  0.1025
 3718SOL    HW122790   3.287   4.160  13.867 -0.5403  0.8321  1.0245
 3718SOL    HW222791   3.397   4.258  13.899  0.4121  0.2890 -3.5772
 3719SOL     OW22792   1.026   1.554   4.954  0.0515 -0.0424 -0.1131
 3719SOL    HW122793   0.959   1.614   4.985  1.7855  0.5374  2.4808
 3719SOL    HW222794   0.995   1.468   4.983  1.4068 -0.2461  0.7252
 3720SOL     OW22795   1.234   1.562   3.512 -0.2587 -0.1162 -0.4078
 3720SOL    HW122796   1.250   1.468   3.511 -1.1405 -0.2701 -0.0983
 3720SOL    HW222797   1.270   1.597   3.594  2.2473  0.0000 -1.5437
 3721SOL     OW22798   3.443   2.997  14.143 -0.1527  0.6654 -0.0533
 3721SOL    HW122799   3.471   3.088  14.155 -1.0856  0.6997  1.8751
 3721SOL    HW222800   3.444   2.959  14.231 -3.6179 -0.7094 -0.6440
 3722SOL     OW22801   3.724   3.997   3.145 -0.4506 -0.2238  0.1121
 3722SOL    HW122802   3.736   3.973   3.053 -1.8136 -0.3219 -0.0389
 3722SOL    HW222803   3.815   3.976   3.168  0.7137  2.4567 -2.0876
 3723SOL     OW22804   0.735   0.042   7.426 -0.1200 -0.1469  0.1797
 3723SOL    HW122805   0.723   0.135   7.445  3.3680 -0.4582  4.0066
 3723SOL    HW222806   0.798   0.033   7.355  0.5721  0.5999  0.6965
 3724SOL     OW22807   1.372   0.240   8.317  0.6521  0.3472  0.0812
 3724SOL    HW122808   1.322   0.280   8.246  0.8795  2.6300  1.2177
 3724SOL    HW222809   1.309   0.169   8.328  2.2633 -0.6246  3.0460
 3725SOL     OW22810   4.645   1.537   8.378  0.4828 -0.0383  0.0453
 3725SOL    HW122811   4.601   1.554   8.461 -0.9300  2.2710 -1.1560
 3725SOL    HW222812   4.656   1.625   8.342  0.1926  0.7575  1.9240
 3726SOL     OW22813   2.836   1.690   3.888 -0.1937  0.1370 -0.1529
 3726SOL    HW122814   2.853   1.656   3.801  3.2448 -0.3537  0.7351
 3726SOL    HW222815   2.801   1.773   3.855  2.2950  0.9696 -0.6824
 3727SOL     OW22816   2.481   1.957  12.169  0.5930 -0.7330 -0.1412
 3727SOL    HW122817   2.561   1.963  12.117 -0.4624 -1.7676 -1.8842
 3727SOL    HW222818   2.443   1.881  12.125  0.1826  0.4109 -1.7687
 3728SOL     OW22819   4.080   4.448   4.039 -0.0260 -0.3804  0.4868
 3728SOL    HW122820   4.016   4.515   4.062  0.4680  0.1307  0.3696
 3728SOL    HW222821   4.134   4.446   4.118 -1.8604 -0.3636  1.7262
 3729SOL     OW22822   2.811   0.611   5.958 -0.1020  0.0963 -0.6599
 3729SOL    HW122823   2.850   0.665   5.890  0.2315 -1.1628 -1.4848
 3729SOL    HW222824   2.747   0.554   5.916  3.2556 -2.3220 -2.5489
 3730SOL     OW22825   2.062   3.059   2.031 -0.8331  0.8023 -0.1001
 3730SOL    HW122826   2.099   3.039   1.946  2.3137 -0.6156  1.6260
 3730SOL    HW222827   2.140   3.052   2.085 -0.4998  2.8607 -0.3181
 3731SOL     OW22828   0.010   4.631   9.094 -0.2192  0.1769 -0.2451
 3731SOL    HW122829   4.660   4.641   9.061 -0.0702  3.2846  0.3298
 3731SOL    HW222830   0.007   4.693   9.167 -0.1635 -0.8434  0.6328
 3732SOL     OW22831   2.443   2.982  17.455  0.2768  0.3639 -0.2740
 3732SOL    HW122832   2.399   3.056  17.495  0.1394  0.4563 -0.5968
 3732SOL    HW222833   2.367   2.932  17.427  0.5045  0.0297 -0.3013
 3733SOL     OW22834   2.295   2.119   6.236  0.0341 -0.2955 -0.0120
 3733SOL    HW122835   2.365   2.099   6.298  0.2784 -0.3013 -0.2896
 3733SOL    HW222836   2.274   2.200   6.281  1.2986 -0.7501  1.3938
 3734SOL     OW22837   2.284   2.483   9.849  0.7560 -0.1209 -0.6209
 3734SOL    HW122838   2.266   2.576   9.855 -2.2900 -0.8990  2.0761
 3734SOL    HW222839   2.379   2.480   9.849  0.8181  1.7450 -3.2777
 3735SOL     OW22840   4.114   2.683  15.561 -0.1055 -0.4786  0.0138
 3735SOL    HW122841   4.131   2.776  15.547  0.3967 -0.8386 -1.8113
 3735SOL    HW222842   4.034   2.689  15.613 -1.5603 -1.9574 -2.0421
 3736SOL     OW22843   2.265   2.356   6.653 -0.1071  0.2206  0.4101
 3736SOL    HW122844   2.197   2.414   6.685  0.2856  0.2956  1.0968
 3736SOL    HW222845   2.271   2.294   6.726  0.5018  1.6367  1.5679
 3737SOL     OW22846   4.707   4.369  11.145 -0.9258 -0.0974  0.0684
 3737SOL    HW122847   4.628   4.402  11.189  0.2281  0.3586  1.7829
 3737SOL    HW222848   4.689   4.275  11.148  1.3487 -0.5743 -1.1297
 3738SOL     OW22849   4.347   4.679   4.494 -0.1747  0.0915 -0.1524
 3738SOL    HW122850   4.440   4.656   4.493 -0.4066 -0.8831  0.1455
 3738SOL    HW222851   4.358   0.007   4.560 -2.6167 -1.4958  1.9001
 3739SOL     OW22852   0.878   3.504  13.821  0.6223 -0.1783 -0.0150
 3739SOL    HW122853   0.871   3.462  13.735  1.4390  0.3736 -0.3536
 3739SOL    HW222854   0.801   3.560  13.832  0.8028  0.0612  0.0426
 3740SOL     OW22855   0.906   2.746   6.333  0.7048  0.6152 -0.6183
 3740SOL    HW122856   0.954   2.797   6.268 -0.0380  0.5414 -1.2160
 3740SOL    HW222857   0.947   2.660   6.339  2.2488  1.3783 -0.2770
 3741SOL     OW22858   0.727   3.439  15.728  0.3390 -0.7864 -0.4037
 3741SOL    HW122859   0.791   3.510  15.725 -1.6832  1.1185  1.0484
 3741SOL    HW222860   0.665   3.469  15.661  0.2022  1.2921  0.6400
 3742SOL     OW22861   3.976   2.252   3.072 -0.0406 -0.2279  0.2198
 3742SOL    HW122862   4.014   2.186   3.129  0.0396 -0.3251  0.0536
 3742SOL    HW222863   4.019   2.332   3.102 -2.9748  0.2982  3.0259
 3743SOL     OW22864   2.715   3.203   5.836  0.4341  0.4948  0.6749
 3743SOL    HW122865   2.800   3.162   5.848  0.7941  1.1451  0.3550
 3743SOL    HW222866   2.730   3.275   5.898  1.0573  0.6412  0.3447
 3744SOL     OW22867   3.326   1.478  11.665 -0.1631 -0.3071 -0.0955
 3744SOL    HW122868   3.382   1.552  11.686 -1.3113  0.8953 -1.2116
 3744SOL    HW222869   3.344   1.462  11.572  0.6582 -3.2921  0.5932
 3745SOL     OW22870   3.013   3.472   8.137 -0.2082  0.1432  0.0665
 3745SOL    HW122871   2.935   3.433   8.177  1.1963 -1.4674  1.2401
 3745SOL    HW222872   3.008   3.440   8.047  1.2436  1.7384 -0.5867
 3746SOL     OW22873   3.887   0.108   7.568  0.2005 -0.3235  0.0634
 3746SOL    HW122874   3.800   0.118   7.530  0.9681  0.0567 -1.5948
 3746SOL    HW222875   3.940   0.179   7.533  1.4929  0.5197  3.7577
 3747SOL     OW22876   1.588   4.458   6.799 -0.3824 -0.3917  0.3227
 3747SOL    HW122877   1.551   4.432   6.714  0.7533  0.8548 -0.5638
 3747SOL    HW222878   1.680   4.475   6.776 -0.3381 -0.4320  0.4710
 3748SOL     OW22879   0.154   2.576   6.294 -0.0616 -0.3247  0.2971
 3748SOL    HW122880   0.187   2.602   6.380 -0.4469 -0.3676  0.4605
 3748SOL    HW222881   0.217   2.613   6.234  0.2945 -1.6379 -0.1492
 3749SOL     OW22882   0.865   2.165   6.916 -0.0376  0.7657 -0.1828
 3749SOL    HW122883   0.867   2.104   6.989  1.2747  0.7220 -0.2605
 3749SOL    HW222884   0.940   2.144   6.860 -0.0834 -0.3241  0.1610
 3750SOL     OW22885   2.051   2.240  12.146 -1.0679  0.0531 -0.2861
 3750SOL    HW122886   2.097   2.158  12.163 -0.2093  1.1182  2.5206
 3750SOL    HW222887   2.087   2.296  12.215  1.3053 -0.5436 -1.0669
 3751SOL     OW22888   4.312   1.012   1.976 -0.6430  0.1424  0.0646
 3751SOL    HW122889   4.386   0.955   1.960 -0.2421  0.2347  1.5269
 3751SOL    HW222890   4.355   1.096   1.994 -0.4907  0.3360 -1.2388
 3752SOL     OW22891   2.023   3.386  17.648  0.3661  0.1767 -0.7283
 3752SOL    HW122892   2.034   3.413  17.740 -1.0655  0.7699 -0.7307
 3752SOL    HW222893   2.001   3.293  17.641  2.5163 -0.3414 -0.6739
 3753SOL     OW22894   1.231   2.158   7.720  1.2161  0.0241  0.7580
 3753SOL    HW122895   1.166   2.112   7.773 -1.1804 -0.5047 -2.6593
 3753SOL    HW222896   1.233   2.102   7.643 -1.2906  0.0229  0.6688
 3754SOL     OW22897   4.266   3.874   5.249 -0.4526 -0.3447 -0.7787
 3754SOL    HW122898   4.225   3.894   5.165 -1.3054 -0.4831 -0.3952
 3754SOL    HW222899   4.186   3.866   5.301 -1.1830  0.2371 -1.8049
 3755SOL     OW22900   1.159   0.481   2.069  0.0721  0.0162  0.1985
 3755SOL    HW122901   1.068   0.511   2.062 -0.5298 -1.6355  1.0599
 3755SOL    HW222902   1.145   0.391   2.040 -1.7423  0.4040 -0.1406
 3756SOL     OW22903   4.484   4.199   7.678  0.3786 -0.2106  0.3536
 3756SOL    HW122904   4.398   4.177   7.714 -0.0670 -0.3545 -0.8052
 3756SOL    HW222905   4.520   4.256   7.746  0.9510 -0.0312 -0.1028
 3757SOL     OW22906   3.909   3.789   5.708  0.0223  0.2549  0.2973
 3757SOL    HW122907   3.973   3.760   5.642 -1.0558 -0.6515 -0.3470
 3757SOL    HW222908   3.853   3.714   5.726  1.0515  0.3533  3.9223
 3758SOL     OW22909   2.456   2.640   8.854  0.4983  0.0637  0.3974
 3758SOL    HW122910   2.370   2.599   8.841  0.7722  0.6024 -2.9384
 3758SOL    HW222911   2.504   2.608   8.778  1.5739 -3.0724  2.3479
 3759SOL     OW22912   0.759   3.885   6.508  0.3881 -0.0003  0.1093
 3759SOL    HW122913   0.697   3.818   6.536  1.5486 -0.4597  1.5711
 3759SOL    HW222914   0.793   3.902   6.596  1.2821 -0.9104 -0.0518
 3760SOL     OW22915   0.167   1.890  17.070 -0.1275  0.0622  0.4316
 3760SOL    HW122916   0.253   1.900  17.110  0.0951  3.4611 -0.8792
 3760SOL    HW222917   0.114   1.962  17.105 -1.0373 -0.5958  0.3995
 3761SOL     OW22918   1.806   2.613   2.069  0.2348 -0.3955 -0.0899
 3761SOL    HW122919   1.767   2.638   1.985  0.3523 -0.3447 -0.1282
 3761SOL    HW222920   1.898   2.609   2.042  1.5266  0.9930  4.1511
 3762SOL     OW22921   1.492   1.049  13.947  0.8515 -0.4278  0.3254
 3762SOL    HW122922   1.568   1.069  14.002  0.0663 -0.0678  1.2850
 3762SOL    HW222923   1.420   1.079  14.003  0.9890 -0.5853  0.5882
 3763SOL     OW22924   3.563   2.781   2.376 -0.5381 -0.3072  0.3799
 3763SOL    HW122925   3.486   2.783   2.433 -1.6207  0.1577 -1.1097
 3763SOL    HW222926   3.625   2.823   2.436 -1.5280 -0.6692  1.6749
 3764SOL     OW22927   0.622   2.653  15.817 -0.6014  0.8932  0.0238
 3764SOL    HW122928   0.571   2.578  15.847 -3.5137  1.7392 -2.8501
 3764SOL    HW222929   0.610   2.715  15.889  1.7765  0.3973  0.8501
 3765SOL     OW22930   4.059   1.084   1.406  0.6332 -0.5946 -0.1155
 3765SOL    HW122931   4.054   1.145   1.480  3.0278  0.0568 -0.4804
 3765SOL    HW222932   4.010   1.129   1.336 -0.2701 -2.2575 -0.5390
 3766SOL     OW22933   3.295   2.561   3.286  0.2877  0.0291 -0.4793
 3766SOL    HW122934   3.263   2.649   3.306  0.5379  0.0017  0.0325
 3766SOL    HW222935   3.222   2.524   3.336  0.9609  1.1709  1.3297
 3767SOL     OW22936   0.175   0.412   6.840  0.2787  0.0146  0.1452
 3767SOL    HW122937   0.105   0.423   6.903 -2.4927 -1.7920 -2.6381
 3767SOL    HW222938   0.235   0.365   6.898 -1.2970 -1.5913  0.4700
 3768SOL     OW22939   2.236   4.649   5.120 -0.3422 -0.2351  0.0622
 3768SOL    HW122940   2.330   4.664   5.118 -0.2942 -0.6333 -0.5977
 3768SOL    HW222941   2.223   4.609   5.206 -0.5985 -0.1495  0.0656
 3769SOL     OW22942   1.099   1.334   6.738 -0.3497 -0.4434  0.0368
 3769SOL    HW122943   1.057   1.310   6.656 -0.6386 -2.9198  0.9224
 3769SOL    HW222944   1.187   1.303   6.716 -0.6274 -1.8151  0.8920
 3770SOL     OW22945   2.820   3.120   6.851  0.0464 -0.7251 -0.3062
 3770SOL    HW122946   2.743   3.122   6.908  0.6192 -1.2716  0.4935
 3770SOL    HW222947   2.793   3.192   6.795 -2.3837 -1.7025 -0.3836
 3771SOL     OW22948   2.554   3.903   6.773 -0.5268  0.2172  0.2855
 3771SOL    HW122949   2.587   3.878   6.687  0.8486  0.0561  0.8575
 3771SOL    HW222950   2.622   3.960   6.809  0.5138  0.3648 -1.9411
 3772SOL     OW22951   3.410   0.686   3.978  0.5603 -0.4300 -0.0185
 3772SOL    HW122952   3.471   0.690   3.904  0.6274  0.2341  0.0705
 3772SOL    HW222953   3.379   0.596   3.987 -1.1324  0.2575  1.0608
 3773SOL     OW22954   1.330   2.417   5.036 -0.7509  0.5554 -0.2517
 3773SOL    HW122955   1.319   2.413   4.941  0.3641 -1.0139 -0.3105
 3773SOL    HW222956   1.362   2.328   5.048 -1.8182  0.6134  3.1248
 3774SOL     OW22957   2.334   3.936  14.779 -0.1029  0.5885  0.0327
 3774SOL    HW122958   2.410   3.995  14.774  0.3629 -0.1128 -1.1344
 3774SOL    HW222959   2.311   3.914  14.689  0.4036 -0.2545  0.1156
 3775SOL     OW22960   3.991   2.391   3.577 -0.3951 -0.3847 -0.1564
 3775SOL    HW122961   3.896   2.401   3.585 -0.2430 -0.0286  1.1634
 3775SOL    HW222962   4.000   2.410   3.484  0.2086 -1.1336 -0.2522
 3776SOL     OW22963   1.156   4.687   2.599 -0.1619 -0.7123  0.4079
 3776SOL    HW122964   1.190   4.633   2.670 -1.1109  0.3558  1.6673
 3776SOL    HW222965   1.146   4.620   2.531  0.6905  2.4130 -2.7805
 3777SOL     OW22966   0.048   4.633   4.890 -0.2301  0.0735  0.5054
 3777SOL    HW122967   4.710   4.679   4.860  0.0484  0.1983 -0.0398
 3777SOL    HW222968   0.084   4.606   4.805 -0.6050 -2.4575  1.1483
 3778SOL     OW22969   3.990   3.885   3.530 -0.2004 -0.1829 -0.4662
 3778SOL    HW122970   4.026   3.930   3.606  1.9123 -1.0512 -0.9577
 3778SOL    HW222971   3.912   3.834   3.553 -1.6283  1.6783 -1.1658
 3779SOL     OW22972   2.986   0.747   3.181  0.3085 -0.1045  0.6446
 3779SOL    HW122973   3.049   0.676   3.184 -0.4034 -0.8450 -2.2099
 3779SOL    HW222974   2.963   0.760   3.089  1.0379 -0.2747  0.4380
 3780SOL     OW22975   2.316   3.227   7.389 -0.1569  0.1234 -0.1274
 3780SOL    HW122976   2.317   3.280   7.469 -1.9690  1.3619 -0.9258
 3780SOL    HW222977   2.259   3.158   7.421 -0.1014  0.6458  1.1063
 3781SOL     OW22978   3.435   1.729   3.553 -0.0920 -0.2205  0.3965
 3781SOL    HW122979   3.499   1.704   3.620 -1.2758  0.1890  1.6581
 3781SOL    HW222980   3.357   1.708   3.603  1.1122  0.2299  2.4745
 3782SOL     OW22981   1.165   2.450   6.127  0.3871 -0.0673 -0.6046
 3782SOL    HW122982   1.247   2.410   6.156  0.4711 -0.0777 -0.8616
 3782SOL    HW222983   1.176   2.458   6.033 -2.0628 -0.1639 -0.9058
 3783SOL     OW22984   1.529   4.284   5.944 -0.0152  0.0460 -0.2188
 3783SOL    HW122985   1.481   4.299   5.863 -0.0802 -2.9483 -0.7403
 3783SOL    HW222986   1.575   4.367   5.947 -1.4657  0.9161 -2.3391
 3784SOL     OW22987   4.607   2.314   9.006  0.2024 -0.1263  0.5048
 3784SOL    HW122988   4.696   2.339   8.979  0.4790  0.0510  1.5549
 3784SOL    HW222989   4.615   2.236   9.061 -0.5271 -0.3886  0.2277
 3785SOL     OW22990   1.183   0.349   3.314 -0.5163  0.0520 -0.5100
 3785SOL    HW122991   1.279   0.341   3.316 -0.4123  1.8958  1.2897
 3785SOL    HW222992   1.176   0.440   3.342  1.2945 -0.2299  0.9228
 3786SOL     OW22993   2.398   2.576  16.561  0.0935 -0.1465  0.5063
 3786SOL    HW122994   2.320   2.629  16.577  0.3094  0.5586 -0.7610
 3786SOL    HW222995   2.432   2.623  16.485 -0.8954 -2.0972 -1.1339
 3787SOL     OW22996   4.381   3.252   4.743  0.5944 -0.6945  0.0162
 3787SOL    HW122997   4.384   3.248   4.838  1.6449  1.2473  0.0518
 3787SOL    HW222998   4.377   3.346   4.725  0.5352 -0.7575 -0.2944
 3788SOL     OW22999   4.339   0.635   8.969  0.5228 -0.5739 -0.2704
 3788SOL    HW123000   4.370   0.588   8.891  2.3590  0.6497 -0.2622
 3788SOL    HW223001   4.311   0.567   9.031 -0.9462 -1.5512 -1.9636
 3789SOL     OW23002   0.438   4.150  12.418 -0.4301  0.0516 -0.2313
 3789SOL    HW123003   0.508   4.215  12.425 -0.0476 -0.5886  1.8577
 3789SOL    HW223004   0.360   4.202  12.438 -1.3445 -1.3264 -0.2245
 3790SOL     OW23005   0.029   0.972  15.739 -0.2507 -0.0208 -0.4715
 3790SOL    HW123006   4.695   0.939  15.790 -0.0081  0.9270  0.4893
 3790SOL    HW223007   4.711   1.027  15.687  0.8105  0.9936 -0.5894
 3791SOL     OW23008   4.661   2.618   8.196  0.1952  0.3478  0.0349
 3791SOL    HW123009   4.682   2.707   8.224 -1.9818  0.2682  1.9083
 3791SOL    HW223010   4.569   2.622   8.171  0.2053 -0.9037 -0.2263
 3792SOL     OW23011   1.928   0.580   2.073  0.2192  0.5838 -0.0793
 3792SOL    HW123012   1.886   0.577   2.158  0.1294  0.9928 -0.1070
 3792SOL    HW223013   2.018   0.579   2.106  0.1551  2.1809  0.1316
 3793SOL     OW23014   1.323   2.356  16.332 -0.4705 -0.4533 -0.2317
 3793SOL    HW123015   1.382   2.330  16.403 -0.1948 -1.0072 -0.6693
 3793SOL    HW223016   1.332   2.286  16.267  2.9631 -1.3823  1.2529
 3794SOL     OW23017   0.269   3.317   7.678 -0.3163 -0.0017  0.0919
 3794SOL    HW123018   0.242   3.369   7.601  0.3305 -0.3649 -0.3793
 3794SOL    HW223019   0.219   3.240   7.650 -0.6661  0.0745  0.5157
 3795SOL     OW23020   4.464   0.961  15.372  0.8041 -0.0042 -0.2011
 3795SOL    HW123021   4.456   0.992  15.463  0.5549 -2.4549  0.6166
 3795SOL    HW223022   4.523   1.028  15.339 -0.4312  0.6505 -1.0557
 3796SOL     OW23023   2.123   3.312   4.158  0.4495  0.2768 -0.2854
 3796SOL    HW123024   2.116   3.291   4.065 -0.0906  2.6008 -0.7629
 3796SOL    HW223025   2.032   3.309   4.186  0.6754 -0.2552  0.3779
 3797SOL     OW23026   2.671   2.851  17.482  0.2979  0.6701  0.1360
 3797SOL    HW123027   2.590   2.902  17.478  0.6640  1.2171 -0.4597
 3797SOL    HW223028   2.690   2.858  17.576 -4.3235 -0.2520  1.1459
 3798SOL     OW23029   0.417   0.917   7.720 -0.7097  0.1147 -0.5491
 3798SOL    HW123030   0.421   1.010   7.698 -1.1383  0.5896  1.4339
 3798SOL    HW223031   0.333   0.899   7.761 -0.4044 -0.5693 -0.2066
 3799SOL     OW23032   1.835   3.110   2.659  0.2216 -0.2745 -0.2276
 3799SOL    HW123033   1.770   3.171   2.695  1.7930 -0.1474  2.4129
 3799SOL    HW223034   1.800   3.075   2.577 -1.8969  0.3632  0.4015
 3800SOL     OW23035   1.751   3.322   7.871 -0.1293 -0.4207  0.0257
 3800SOL    HW123036   1.657   3.305   7.875  0.1472 -1.9352  0.0697
 3800SOL    HW223037   1.770   3.340   7.779 -0.2375 -1.9163 -0.2755
 3801SOL     OW23038   1.351   4.153   1.805  0.0941 -0.0764 -0.1261
 3801SOL    HW123039   1.341   4.061   1.831  2.0612 -0.6722 -1.4868
 3801SOL    HW223040   1.292   4.168   1.732  0.9709  1.0371 -0.5952
 3802SOL     OW23041   4.008   0.723   1.994 -0.3260  0.1044 -0.0690
 3802SOL    HW123042   3.921   0.691   1.969 -0.0518 -0.5642 -0.1698
 3802SOL    HW223043   4.064   0.688   1.925 -0.0440 -0.5854  0.5165
 3803SOL     OW23044   1.729   4.143  15.470 -0.0201 -0.5407  0.1902
 3803SOL    HW123045   1.761   4.155  15.560 -0.3000  0.3111  0.1793
 3803SOL    HW223046   1.653   4.090  15.494  0.7830 -1.9512 -0.4616
 3804SOL     OW23047   2.662   3.503   6.494  0.6297  0.6336 -0.6304
 3804SOL    HW123048   2.641   3.451   6.571  0.0111  0.6367 -0.8019
 3804SOL    HW223049   2.744   3.466   6.462  0.8332 -0.8193  1.5568
 3805SOL     OW23050   2.874   2.605  11.415  0.5609 -0.1241  0.1775
 3805SOL    HW123051   2.847   2.617  11.506  1.1344  0.8419  0.2189
 3805SOL    HW223052   2.856   2.511  11.403  1.4955 -0.3188  0.2570
 3806SOL     OW23053   4.372   1.808  14.398 -0.1373 -0.1959  0.2573
 3806SOL    HW123054   4.304   1.810  14.466  1.5756 -2.5002  2.0352
 3806SOL    HW223055   4.401   1.899  14.405 -1.8730  0.3413  0.4867
 3807SOL     OW23056   1.392   0.209  15.144  0.2678 -0.0881  0.0739
 3807SOL    HW123057   1.481   0.178  15.127  0.4700  0.4992  0.0840
 3807SOL    HW223058   1.340   0.135  15.112 -0.7185  0.6162  0.0632
 3808SOL     OW23059   3.843   1.980  11.826  0.2082  0.3604 -0.1368
 3808SOL    HW123060   3.924   2.031  11.821  0.3728  0.3048  1.8546
 3808SOL    HW223061   3.858   1.908  11.887 -2.9165  0.1059  0.3200
 3809SOL     OW23062   1.670   2.548  10.355  0.3346 -0.8839 -0.0880
 3809SOL    HW123063   1.756   2.547  10.398 -0.1577  0.3739  0.9508
 3809SOL    HW223064   1.684   2.630  10.307  0.5925 -0.0797  1.3458
 3810SOL     OW23065   0.650   2.879  17.728 -0.2022  0.0371 -0.9113
 3810SOL    HW123066   0.584   2.918   0.028  1.0405 -1.1103  1.2717
 3810SOL    HW223067   0.654   2.793   0.014 -0.3545 -0.7231 -2.3863
 3811SOL     OW23068   0.368   0.334   6.506  0.3545  0.7743 -0.5588
 3811SOL    HW123069   0.283   0.344   6.550  1.3278 -0.7717  1.6112
 3811SOL    HW223070   0.419   0.345   6.585 -1.4186  0.8110  0.5906
 3812SOL     OW23071   0.626   3.565   8.058  0.4242  0.1136  0.5214
 3812SOL    HW123072   0.616   3.655   8.090 -0.8272  0.9084 -2.1134
 3812SOL    HW223073   0.717   3.549   8.080  0.5997 -1.5835 -1.4406
 3813SOL     OW23074   0.129   3.381   3.099 -0.1103  0.5259  0.3223
 3813SOL    HW123075   0.039   3.407   3.078 -0.0509 -0.0721 -0.6701
 3813SOL    HW223076   0.137   3.293   3.061  0.0626  0.1801  1.1559
 3814SOL     OW23077   4.591   3.277   6.763  0.1790  0.0164 -0.3551
 3814SOL    HW123078   4.580   3.353   6.706  0.1733 -1.1477 -1.8969
 3814SOL    HW223079   4.505   3.279   6.804  0.1135 -0.7723 -0.4560
 3815SOL     OW23080   3.275   3.676   6.746 -0.3770  0.1748 -0.4849
 3815SOL    HW123081   3.212   3.615   6.784 -1.4889  0.5355 -1.7785
 3815SOL    HW223082   3.355   3.623   6.750 -0.1849  0.4385 -0.8897
 3816SOL     OW23083   0.879   4.378   4.534  0.2210  0.0741 -0.6734
 3816SOL    HW123084   0.904   4.314   4.601 -1.4586 -0.1618 -0.2593
 3816SOL    HW223085   0.916   4.463   4.561 -2.0196  1.5968 -2.4026
 3817SOL     OW23086   2.826   1.285   6.755  0.0920 -0.6206 -0.3224
 3817SOL    HW123087   2.761   1.217   6.737 -1.1827  0.3330  0.6443
 3817SOL    HW223088   2.833   1.338   6.676  1.7802 -0.2423  0.0958
 3818SOL     OW23089   2.253   2.089  15.558  0.7804  0.0846  0.0876
 3818SOL    HW123090   2.213   2.067  15.473 -0.5728  0.5308  0.6199
 3818SOL    HW223091   2.198   2.041  15.620 -1.0920  3.9905  1.4439
 3819SOL     OW23092   3.345   0.799  14.853 -0.1795 -0.4709 -0.4235
 3819SOL    HW123093   3.303   0.825  14.935 -0.9317  0.5112 -1.1163
 3819SOL    HW223094   3.432   0.768  14.877  0.1258  1.1224  0.5183
 3820SOL     OW23095   0.961   4.550   2.136  0.2538  0.1994 -0.1829
 3820SOL    HW123096   0.971   4.463   2.097 -1.7617 -0.5513  1.0072
 3820SOL    HW223097   0.882   4.566   2.085 -0.3871 -2.8008 -0.1381
 3821SOL     OW23098   2.458   0.213   8.426  0.3772  0.1921 -0.1293
 3821SOL    HW123099   2.507   0.144   8.471  0.2606 -0.5133 -1.0845
 3821SOL    HW223100   2.368   0.192   8.448 -0.2829  2.6942 -0.4510
 3822SOL     OW23101   1.816   0.897   7.024  0.1914 -0.0370  0.4354
 3822SOL    HW123102   1.851   0.969   7.076 -1.2628 -0.3576  1.8721
 3822SOL    HW223103   1.741   0.871   7.078 -0.6674  0.0162 -0.7322
 3823SOL     OW23104   3.541   3.843   4.808 -0.9537 -0.3867 -0.1803
 3823SOL    HW123105   3.568   3.756   4.783  0.6777 -0.0930  0.5832
 3823SOL    HW223106   3.447   3.830   4.792 -1.6928  0.6776  3.1076
 3824SOL     OW23107   3.182   1.006  14.660 -0.0015  0.4949  0.7712
 3824SOL    HW123108   3.271   0.976  14.644 -0.1938 -1.2240  2.8798
 3824SOL    HW223109   3.157   1.054  14.581 -0.6930  0.3425  0.8899
 3825SOL     OW23110   1.292   0.987   6.022  0.3080  0.8159  0.3712
 3825SOL    HW123111   1.303   1.081   6.038  1.4482  0.7057  0.2794
 3825SOL    HW223112   1.219   0.959   6.077  0.1116  1.6669  0.5332
 3826SOL     OW23113   3.651   3.480   4.788  0.0891 -0.0130  0.1178
 3826SOL    HW123114   3.678   3.543   4.722 -3.1291 -0.9783 -2.1242
 3826SOL    HW223115   3.599   3.415   4.742 -1.0364  1.2291 -0.3541
 3827SOL     OW23116   2.745   1.435   4.583  0.0096 -0.0329 -0.6564
 3827SOL    HW123117   2.759   1.437   4.677  0.9884  1.6607 -0.8431
 3827SOL    HW223118   2.734   1.342   4.563  0.5820 -0.1900 -0.2455
 3828SOL     OW23119   3.973   2.026   2.571  0.0117  0.1448  0.0049
 3828SOL    HW123120   3.909   1.990   2.633 -0.8977  0.5280 -0.7208
 3828SOL    HW223121   4.044   1.961   2.575 -0.5722 -0.5515 -0.9880
 3829SOL     OW23122   2.212   3.402  11.032 -0.2875  0.1967 -0.7168
 3829SOL    HW123123   2.148   3.334  11.054  0.1414  0.5851  1.7437
 3829SOL    HW223124   2.260   3.401  11.115  1.8797 -0.2563 -1.9765
 3830SOL     OW23125   1.750   2.091   5.602  0.5177 -0.5751  0.4290
 3830SOL    HW123126   1.829   2.144   5.588 -0.4903  1.1942  1.4566
 3830SOL    HW223127   1.761   2.039   5.682  0.8225  1.0548  1.4693
 3831SOL     OW23128   0.159   3.455  15.435  0.1929 -0.3291  0.0294
 3831SOL    HW123129   0.184   3.475  15.526 -0.8854 -0.0986  0.2723
 3831SOL    HW223130   0.191   3.366  15.420  0.6112 -0.1029 -0.4375
 3832SOL     OW23131   0.730   2.747  16.280 -0.3027  0.1109  0.3847
 3832SOL    HW123132   0.703   2.828  16.325  0.2250 -0.0426  0.9893
 3832SOL    HW223133   0.783   2.715  16.353  1.1617  0.9544 -0.3035
 3833SOL     OW23134   2.252   0.056   4.357 -0.5527 -0.0266  0.2016
 3833SOL    HW123135   2.242   0.058   4.262 -0.5140  2.2157  0.2239
 3833SOL    HW223136   2.327   0.115   4.360 -0.9748  0.6618 -2.6629
 3834SOL     OW23137   2.763   3.240   0.217  0.0329 -0.1150 -0.0439
 3834SOL    HW123138   2.701   3.235   0.144 -0.8692  2.3609  0.5490
 3834SOL    HW223139   2.842   3.274   0.176  1.4246 -1.0139  1.9164
 3835SOL     OW23140   0.836   2.625   1.456 -0.0287  0.1293  0.1415
 3835SOL    HW123141   0.824   2.531   1.467  0.7637 -0.1645 -1.4384
 3835SOL    HW223142   0.810   2.651   1.544 -1.5297 -2.2815  0.3859
 3836SOL     OW23143   4.300   1.765   5.045  0.2055  0.2298  0.1967
 3836SOL    HW123144   4.219   1.780   5.092  0.2960  1.4967 -0.0390
 3836SOL    HW223145   4.275   1.700   4.979 -0.7741  2.3905 -1.5470
 3837SOL     OW23146   3.437   2.141  17.479 -0.0997 -0.4366  0.8170
 3837SOL    HW123147   3.354   2.186  17.463  0.6008  0.7464  0.5467
 3837SOL    HW223148   3.405   2.056  17.510 -2.1876 -0.9598 -2.7796
 3838SOL     OW23149   1.974   3.496  13.273  0.2706  0.2283  0.2448
 3838SOL    HW123150   1.976   3.454  13.359 -0.7756  1.6136  0.9296
 3838SOL    HW223151   2.008   3.580  13.302  0.7015  0.0963  0.1327
 3839SOL     OW23152   1.761   3.559   5.158  0.3119  0.2177  0.1166
 3839SOL    HW123153   1.846   3.522   5.180  0.0921 -0.0549  0.5218
 3839SOL    HW223154   1.782   3.652   5.156  2.4433 -0.2720 -0.1877
 3840SOL     OW23155   2.048   3.348   4.919  0.2211  0.2742  0.2513
 3840SOL    HW123156   2.006   3.287   4.980 -0.5729  0.4630 -0.1078
 3840SOL    HW223157   2.102   3.289   4.865  1.5828  2.3079 -0.6156
 3841SOL     OW23158   1.305   2.383   4.786 -0.0466 -0.0965 -0.0737
 3841SOL    HW123159   1.377   2.446   4.778 -0.9987  0.9811 -0.0716
 3841SOL    HW223160   1.329   2.313   4.725 -0.3335 -0.6945  0.4888
 3842SOL     OW23161   3.174   0.084  14.000  0.0457  0.4699 -0.4789
 3842SOL    HW123162   3.160   4.729  14.006 -0.6719  0.5273 -1.1306
 3842SOL    HW223163   3.163   0.119  14.088 -0.3131 -0.1359 -0.2798
 3843SOL     OW23164   0.639   3.606  13.804 -0.4575 -0.0157 -0.3460
 3843SOL    HW123165   0.558   3.655  13.803 -0.4771 -0.0145  0.5393
 3843SOL    HW223166   0.597   3.520  13.806 -0.5858  0.0297 -1.3187
 3844SOL     OW23167   1.246   1.547   7.833 -0.5150 -0.3320 -0.0143
 3844SOL    HW123168   1.245   1.461   7.876  0.2570  0.4096  1.4675
 3844SOL    HW223169   1.183   1.541   7.761 -1.1632  2.4578  0.3113
 3845SOL     OW23170   0.532   4.575   2.966  1.1394  0.3672  0.6359
 3845SOL    HW123171   0.625   4.562   2.948  1.1331 -0.1814  0.9984
 3845SOL    HW223172   0.535   4.611   3.055  3.6280  1.1333  0.2371
 3846SOL     OW23173   2.509   3.234   9.637 -0.0681  0.0789  0.0464
 3846SOL    HW123174   2.539   3.265   9.552 -0.8102  1.1409  0.1672
 3846SOL    HW223175   2.423   3.205   9.607  0.6292 -0.3653 -1.5159
 3847SOL     OW23176   1.878   1.319   2.097  0.0055  0.2594  0.2039
 3847SOL    HW123177   1.888   1.406   2.059 -3.3332  0.2501 -0.6734
 3847SOL    HW223178   1.939   1.327   2.171 -0.4408 -0.4436  0.6411
 3848SOL     OW23179   2.849   2.157   7.787 -0.1540  0.4789 -0.6094
 3848SOL    HW123180   2.885   2.142   7.699 -1.2921 -1.5010 -0.7338
 3848SOL    HW223181   2.881   2.080   7.833  2.6245  1.7816 -0.3407
 3849SOL     OW23182   4.080   2.087  11.817 -0.5687 -0.7557  0.0842
 3849SOL    HW123183   4.111   2.092  11.727  1.2409 -0.3050  0.7116
 3849SOL    HW223184   4.161   2.051  11.854 -0.7195  1.1241  2.2507
 3850SOL     OW23185   3.315   4.649   5.673  1.0690 -0.2187  0.5383
 3850SOL    HW123186   3.305   4.690   5.759 -0.9775  0.2177  0.0957
 3850SOL    HW223187   3.340   4.727   5.622  0.7250 -0.4954 -0.0603
 3851SOL     OW23188   3.896   3.407   4.886 -0.4949 -0.3581 -0.2916
 3851SOL    HW123189   3.804   3.420   4.865 -0.2893  0.4041 -0.7565
 3851SOL    HW223190   3.920   3.378   4.798  0.4165 -0.2988 -0.0632
 3852SOL     OW23191   0.118   3.398   6.820 -0.1618  0.0271 -0.7400
 3852SOL    HW123192   0.140   3.477   6.770  0.0300  1.9074  2.3472
 3852SOL    HW223193   0.044   3.362   6.771 -0.9485  0.0504  0.4340
 3853SOL     OW23194   4.030   4.655   8.798 -0.5369 -0.3346 -0.5431
 3853SOL    HW123195   3.946   4.616   8.823  0.1773 -2.3632 -1.3221
 3853SOL    HW223196   4.002   4.718   8.732 -1.5238 -2.2457 -1.9825
 3854SOL     OW23197   0.908   3.556   8.090 -0.1752  0.6018  0.1723
 3854SOL    HW123198   0.965   3.484   8.060 -0.3077 -0.1138  1.6597
 3854SOL    HW223199   0.945   3.635   8.049  1.3165 -0.3990 -0.4319
 3855SOL     OW23200   0.860   3.723   4.823  0.1059 -0.6167  0.3002
 3855SOL    HW123201   0.777   3.766   4.803  0.9962  0.6702 -0.5669
 3855SOL    HW223202   0.833   3.678   4.904 -0.5883  0.7488  0.8197
 3856SOL     OW23203   1.214   2.373   7.211  0.3012  0.0650  0.4873
 3856SOL    HW123204   1.303   2.359   7.179  0.4721  1.8120  0.2193
 3856SOL    HW223205   1.214   2.333   7.298 -2.6538  2.1541  1.4748
 3857SOL     OW23206   4.306   3.118   0.129  0.4341 -0.4220 -0.0141
 3857SOL    HW123207   4.376   3.064   0.091  0.2865 -1.3891  1.0942
 3857SOL    HW223208   4.357   3.176   0.187 -1.9597  0.9369  0.7467
 3858SOL     OW23209   4.160   1.465  10.610  0.2637 -0.6531 -0.2318
 3858SOL    HW123210   4.083   1.505  10.652  1.1284 -0.9710  1.6434
 3858SOL    HW223211   4.185   1.408  10.683 -2.7396 -2.3687 -0.5242
 3859SOL     OW23212   4.538   4.109   3.164  0.3194  0.6113  0.1707
 3859SOL    HW123213   4.497   4.115   3.078 -2.0521 -1.2372  1.1817
 3859SOL    HW223214   4.569   4.019   3.162 -1.7174 -0.0842  0.2018
 3860SOL     OW23215   2.774   3.418   5.488 -0.1371  0.0636  0.3749
 3860SOL    HW123216   2.802   3.507   5.465 -1.1228 -0.3646 -2.4191
 3860SOL    HW223217   2.781   3.418   5.583  2.5212  2.4292  0.1891
 3861SOL     OW23218   1.514   2.564   4.758  0.0097 -0.3478 -0.0913
 3861SOL    HW123219   1.579   2.497   4.781  1.4515  1.7939  2.0378
 3861SOL    HW223220   1.545   2.612   4.681  0.8137  0.7722  0.9316
 3862SOL     OW23221   1.407   0.306   5.015  0.3327 -0.4820 -0.6798
 3862SOL    HW123222   1.315   0.289   4.993 -0.2866  1.3527  0.4581
 3862SOL    HW223223   1.446   0.223   4.989  0.6819  0.0619 -1.9174
 3863SOL     OW23224   0.482   3.905  11.044  0.4411  0.1110  0.2065
 3863SOL    HW123225   0.433   3.823  11.046 -1.5831  1.2519 -2.8891
 3863SOL    HW223226   0.541   3.903  11.120 -0.0872 -0.6594  0.6024
 3864SOL     OW23227   0.091   1.044   2.750 -0.0796  0.2655  0.5581
 3864SOL    HW123228   0.040   1.048   2.831  3.0799 -1.6819  2.6266
 3864SOL    HW223229   0.083   0.950   2.739 -0.7084  0.3029  0.6734
 3865SOL     OW23230   3.439   2.418   1.855 -0.2370  0.4168  0.1677
 3865SOL    HW123231   3.377   2.491   1.857  0.3426  0.9497 -1.4318
 3865SOL    HW223232   3.467   2.410   1.947 -0.7650 -1.4148  0.1840
 3866SOL     OW23233   0.748   2.442   7.992 -0.1567  0.0722 -0.1943
 3866SOL    HW123234   0.795   2.511   8.039 -0.3136  0.8704 -1.1976
 3866SOL    HW223235   0.820   2.400   7.945  0.9479 -0.9584  2.4105
 3867SOL     OW23236   3.626   4.633   6.204  0.0810 -0.0108 -0.2742
 3867SOL    HW123237   3.681   4.611   6.129  1.7302 -0.7089  1.1313
 3867SOL    HW223238   3.695   4.671   6.258 -0.0972  0.1337 -0.1506
 3868SOL     OW23239   0.091   0.130  15.229 -0.0368  0.6406  0.0705
 3868SOL    HW123240   0.048   0.189  15.166 -0.1640  0.3899 -0.0771
 3868SOL    HW223241   0.153   0.083  15.174  2.5425  0.6233  3.0242
 3869SOL     OW23242   1.860   3.723   1.281 -0.0469 -0.2520 -0.0936
 3869SOL    HW123243   1.943   3.760   1.252 -0.3388  0.9363  0.6102
 3869SOL    HW223244   1.808   3.802   1.294  2.5129  1.4841 -0.4466
 3870SOL     OW23245   0.961   2.906   7.948 -0.1574  0.0251  0.0440
 3870SOL    HW123246   0.969   2.991   7.990 -1.5946 -0.4344  1.2418
 3870SOL    HW223247   0.901   2.935   7.879 -0.3758  0.7421  0.5378
 3871SOL     OW23248   1.465   3.735   7.208 -0.5774  0.2557  0.6466
 3871SOL    HW123249   1.453   3.827   7.232 -2.4042  0.4028 -0.8107
 3871SOL    HW223250   1.372   3.711   7.206  0.0148 -2.0406  0.8671
 3872SOL     OW23251   2.892   2.471   4.686 -0.1441 -0.3988 -0.3865
 3872SOL    HW123252   2.806   2.499   4.717 -0.7239  0.3707 -2.7247
 3872SOL    HW223253   2.874   2.461   4.593 -0.4738  0.8345 -0.4625
 3873SOL     OW23254   0.166   3.263  14.371 -0.0454  0.1504  0.0999
 3873SOL    HW123255   0.148   3.193  14.308 -0.1397  1.4027 -1.2596
 3873SOL    HW223256   0.082   3.301  14.394 -0.1998 -0.1697  0.0607
 3874SOL     OW23257   1.628   2.056  11.976 -0.5307  0.7351  0.0481
 3874SOL    HW123258   1.702   2.067  12.035 -0.2487  1.7472 -0.5098
 3874SOL    HW223259   1.604   2.140  11.937  0.0599  0.6892 -0.4116
 3875SOL     OW23260   3.670   1.454   3.699 -0.1102 -0.0964 -0.0896
 3875SOL    HW123261   3.670   1.510   3.777 -0.7231 -0.1562 -0.0425
 3875SOL    HW223262   3.694   1.512   3.626 -0.3171  0.3700  0.2099
 3876SOL     OW23263   1.400   0.463   4.657  0.7069 -0.4271  1.0669
 3876SOL    HW123264   1.328   0.418   4.614  1.3322  0.4439 -0.9131
 3876SOL    HW223265   1.392   0.440   4.749  0.0972  0.6236  1.2723
 3877SOL     OW23266   3.144   2.397   2.977 -0.0151  0.2226  0.4495
 3877SOL    HW123267   3.232   2.389   2.941 -0.3698  0.1152 -0.3810
 3877SOL    HW223268   3.135   2.344   3.057  2.9822 -0.7737  0.1238
 3878SOL     OW23269   0.985   1.658   8.700 -0.3534 -0.6045 -0.2990
 3878SOL    HW123270   0.944   1.729   8.749  2.6426 -0.3872  1.9345
 3878SOL    HW223271   0.992   1.696   8.613 -1.2300 -2.1736 -1.0505
 3879SOL     OW23272   0.028   0.378   5.309  0.0725  0.9132 -0.3428
 3879SOL    HW123273   4.739   0.464   5.278  0.0480  1.0262 -0.0168
 3879SOL    HW223274   0.076   0.393   5.391  0.2790 -1.6484  0.0101
 3880SOL     OW23275   0.012   1.045   7.696 -0.0291 -0.5878  0.2236
 3880SOL    HW123276   4.668   1.085   7.674  0.0161 -0.7420 -0.2345
 3880SOL    HW223277   0.058   1.128   7.683 -1.4994  0.4918  1.8966
 3881SOL     OW23278   4.625   1.663  16.593 -0.2057  0.0206 -0.3177
 3881SOL    HW123279   4.540   1.622  16.576 -0.9229  1.5612 -0.4653
 3881SOL    HW223280   4.688   1.593  16.574  0.1967  0.3039 -0.0364
 3882SOL     OW23281   1.370   2.058   5.457 -0.0805 -0.1321  0.2212
 3882SOL    HW123282   1.329   2.084   5.540  0.6335  1.4448  0.0808
 3882SOL    HW223283   1.408   1.973   5.477 -1.1867 -0.2455  1.8897
 3883SOL     OW23284   3.476   3.935   6.844  0.1411  0.4141 -0.3617
 3883SOL    HW123285   3.436   3.889   6.918 -0.7896  0.6326 -0.7303
 3883SOL    HW223286   3.551   3.875   6.836 -0.7452 -0.6476 -0.6985
 3884SOL     OW23287   4.240   3.348  13.620 -0.0276 -0.5627 -0.0672
 3884SOL    HW123288   4.207   3.286  13.685 -0.8721 -0.8817 -0.7835
 3884SOL    HW223289   4.317   3.297  13.595  0.4685  0.3375 -0.3555
 3885SOL     OW23290   2.737   2.864  17.756 -0.4105 -0.8035 -0.0814
 3885SOL    HW123291   2.711   2.849   0.089 -2.5080 -2.0681 -0.9007
 3885SOL    HW223292   2.827   2.894   0.010 -0.8306  0.0723  0.8162
 3886SOL     OW23293   2.224   3.150   8.179  0.4715 -0.3203  0.5669
 3886SOL    HW123294   2.194   3.229   8.135 -1.6171  0.0892  2.7508
 3886SOL    HW223295   2.255   3.098   8.105  2.3947  0.4044  0.8720
 3887SOL     OW23296   3.255   2.868  12.130  0.1839 -0.2168 -0.0187
 3887SOL    HW123297   3.283   2.784  12.095  0.9834 -0.1304  0.4265
 3887SOL    HW223298   3.237   2.910  12.045  0.5974 -1.0286 -0.5080
 3888SOL     OW23299   1.657   3.907   4.372 -0.2770  0.4439 -0.0154
 3888SOL    HW123300   1.575   3.918   4.324 -0.3647 -1.0593 -0.1996
 3888SOL    HW223301   1.661   3.988   4.423 -1.5016  0.6318 -0.2178
 3889SOL     OW23302   1.106   2.720   5.010  0.3302  0.2956  0.8442
 3889SOL    HW123303   1.140   2.789   5.067  2.0374  0.5293 -0.4804
 3889SOL    HW223304   1.182   2.715   4.952 -0.1169 -2.6363  0.4992
 3890SOL     OW23305   3.591   3.666  15.704 -0.4969  0.1423 -0.1560
 3890SOL    HW123306   3.527   3.615  15.753 -0.3005  0.6410  0.6182
 3890SOL    HW223307   3.594   3.607  15.629  1.9612 -0.4205  0.4042
 3891SOL     OW23308   1.597   2.199   2.943  0.0051 -0.2860 -0.4962
 3891SOL    HW123309   1.678   2.148   2.946 -1.1038 -2.0044  0.6981
 3891SOL    HW223310   1.633   2.284   2.918  1.8170 -1.3473 -1.5328
 3892SOL     OW23311   4.673   1.721   3.916 -0.2421  0.0833  0.5807
 3892SOL    HW123312   4.704   1.667   3.843 -0.1206 -0.1696  0.8196
 3892SOL    HW223313   0.013   1.765   3.942  0.8310 -1.7091  0.3263
 3893SOL     OW23314   4.571   1.176   6.776  0.6006 -0.3545  0.2304
 3893SOL    HW123315   4.632   1.122   6.725 -1.2709 -0.5631 -1.8086
 3893SOL    HW223316   4.625   1.227   6.836  0.6528  0.5037 -0.5409
 3894SOL     OW23317   2.822   4.436   5.579  0.7765  0.3381 -0.6681
 3894SOL    HW123318   2.847   4.344   5.570 -0.7345 -0.2543  1.2628
 3894SOL    HW223319   2.887   4.474   5.638 -1.3516 -0.2367  2.0656
 3895SOL     OW23320   4.541   2.765   4.782  0.5337 -0.0823  0.0757
 3895SOL    HW123321   4.559   2.859   4.793  2.1396 -0.3373 -0.3103
 3895SOL    HW223322   4.458   2.789   4.741 -0.2540 -0.3777  1.5005
 3896SOL     OW23323   3.542   0.723  10.075  0.1317  0.4064 -0.2840
 3896SOL    HW123324   3.537   0.727  10.171  2.7973  2.1054 -0.2100
 3896SOL    HW223325   3.606   0.792  10.056  1.7717 -0.7381  1.0790
 3897SOL     OW23326   1.236   4.074   2.872  0.3325 -0.1286  0.2061
 3897SOL    HW123327   1.273   4.162   2.877 -0.5850  0.3109 -0.5295
 3897SOL    HW223328   1.235   4.064   2.776  1.8866 -1.2442  0.3048
 3898SOL     OW23329   4.609   0.594  11.006 -0.1935 -0.2996 -0.1631
 3898SOL    HW123330   4.610   0.652  10.930  0.2254  0.9966  0.8341
 3898SOL    HW223331   4.634   0.659  11.072  0.9481 -0.6045 -0.3011
 3899SOL     OW23332   2.983   4.622   1.928 -0.0673 -0.0416 -0.4686
 3899SOL    HW123333   2.956   4.603   1.838 -3.0518  0.1666  0.3995
 3899SOL    HW223334   3.000   4.717   1.923 -0.7663  0.2270  2.0457
 3900SOL     OW23335   2.209   0.170   2.712 -0.0182  0.0966  0.2440
 3900SOL    HW123336   2.233   0.263   2.715 -0.0848  0.1001  0.6572
 3900SOL    HW223337   2.251   0.128   2.786 -0.9141 -0.9834  0.1399
 3901SOL     OW23338   1.035   0.224   0.592 -0.4148 -0.1457 -0.1715
 3901SOL    HW123339   0.941   0.241   0.593 -0.4435 -0.2873 -0.7098
 3901SOL    HW223340   1.073   0.286   0.530  1.9074  0.6643  2.0640
 3902SOL     OW23341   3.321   1.296   7.662  0.1068 -0.3414  0.1646
 3902SOL    HW123342   3.328   1.389   7.683 -1.2476 -0.0361 -0.6988
 3902SOL    HW223343   3.276   1.301   7.577 -1.4670  0.2888  1.0440
 3903SOL     OW23344   2.509   4.644   5.141 -0.6206 -0.0478  0.3132
 3903SOL    HW123345   2.532   4.695   5.064 -0.4807  0.2471  0.5487
 3903SOL    HW223346   2.559   4.690   5.208  0.4657 -0.2292 -0.3814
 3904SOL     OW23347   2.119   3.225   1.145  0.6677  0.2778 -0.6851
 3904SOL    HW123348   2.142   3.164   1.075  1.5820 -1.2104  0.9048
 3904SOL    HW223349   2.030   3.193   1.159  1.2086 -0.7663  0.3995
 3905SOL     OW23350   2.228   4.056   2.684  0.3447  0.7294 -0.8924
 3905SOL    HW123351   2.262   3.967   2.691  0.8294  0.9867  0.1474
 3905SOL    HW223352   2.132   4.051   2.689  0.5052 -0.9485  0.6274
 3906SOL     OW23353   0.005   3.714   0.063 -0.1450  0.4915  0.4652
 3906SOL    HW123354   0.013   3.808   0.045 -1.4750  0.9656  2.3175
 3906SOL    HW223355   4.652   3.699   0.046  0.3541 -2.2321  0.1695
 3907SOL     OW23356   0.849   2.416   3.455  0.4073 -0.1403 -0.2932
 3907SOL    HW123357   0.802   2.382   3.531  0.8116  1.7319  0.7951
 3907SOL    HW223358   0.939   2.441   3.476 -0.5381  1.7474  1.5455
 3908SOL     OW23359   2.593   0.836   9.260 -0.2455  0.3294 -0.0358
 3908SOL    HW123360   2.676   0.796   9.287  0.3849  0.9063 -1.1354
 3908SOL    HW223361   2.535   0.760   9.271  0.1184  0.3066  1.6891
 3909SOL     OW23362   3.660   1.277   9.016  0.4644  0.1836  0.4693
 3909SOL    HW123363   3.735   1.281   9.076  0.5349  0.7213  0.3539
 3909SOL    HW223364   3.698   1.216   8.953 -1.7999 -1.8626  1.0811
 3910SOL     OW23365   1.596   4.573   3.411 -0.0292 -0.5761 -0.0517
 3910SOL    HW123366   1.661   4.611   3.469  1.3952 -0.7296 -1.5497
 3910SOL    HW223367   1.539   4.523   3.469  3.1646 -0.5237  3.0661
 3911SOL     OW23368   0.657   4.044   8.407  0.1586 -0.5546  0.1135
 3911SOL    HW123369   0.624   4.133   8.390  0.2889 -0.7155 -1.0230
 3911SOL    HW223370   0.686   4.054   8.497 -1.0036 -0.4700  0.4776
 3912SOL     OW23371   4.554   1.995   6.176  0.0384  0.1759  0.1388
 3912SOL    HW123372   4.608   2.070   6.150  1.1669 -0.2096  1.3984
 3912SOL    HW223373   4.542   1.947   6.094 -1.6283 -0.0519  0.5363
 3913SOL     OW23374   1.273   0.201   4.550  0.1760 -0.8794 -0.2172
 3913SOL    HW123375   1.295   0.216   4.458  0.2908 -2.5527 -0.4640
 3913SOL    HW223376   1.182   0.174   4.537 -1.0601  2.9222  0.5312
 3914SOL     OW23377   1.304   0.606   8.436  0.1082  0.2661  0.4431
 3914SOL    HW123378   1.231   0.579   8.381  1.4605 -2.0851 -0.1752
 3914SOL    HW223379   1.371   0.539   8.447 -1.4200 -0.8752  2.9240
 3915SOL     OW23380   0.291   0.732   5.501 -0.6590 -0.0821 -0.1811
 3915SOL    HW123381   0.319   0.820   5.476 -0.4568 -0.2683 -0.6122
 3915SOL    HW223382   0.375   0.693   5.524 -2.4917 -2.9035  1.7235
 3916SOL     OW23383   4.699   4.382   3.150 -0.3513  0.0296 -0.0700
 3916SOL    HW123384   4.696   4.289   3.174  1.5930  0.4256  1.6154
 3916SOL    HW223385   0.045   4.394   3.111  0.6473 -0.8347  1.8648
 3917SOL     OW23386   2.421   1.919   4.615  0.0110  0.2368 -0.1428
 3917SOL    HW123387   2.450   1.840   4.569  0.9998 -0.7168  2.1433
 3917SOL    HW223388   2.333   1.903   4.647 -0.4355 -0.4434 -1.6871
 3918SOL     OW23389   2.753   1.537   6.221 -0.4375 -0.7340  0.3983
 3918SOL    HW123390   2.723   1.562   6.133 -1.0313 -0.5183  0.6610
 3918SOL    HW223391   2.753   1.442   6.213 -2.3243 -0.6957 -0.1460
 3919SOL     OW23392   0.338   2.309   7.378 -0.5851  0.6318  0.6741
 3919SOL    HW123393   0.408   2.298   7.314 -0.6190  0.5791  0.6466
 3919SOL    HW223394   0.297   2.387   7.339  1.4569  0.8247 -1.0994
 3920SOL     OW23395   0.711   3.243   7.232  0.2340 -0.2225  0.0102
 3920SOL    HW123396   0.627   3.217   7.271  0.3361 -0.2240  0.2294
 3920SOL    HW223397   0.755   3.293   7.300  0.5180  0.9177 -1.0228
 3921SOL     OW23398   2.624   1.686   4.148 -0.7729  0.3435  0.2415
 3921SOL    HW123399   2.639   1.778   4.125 -0.5354  0.0824 -0.6616
 3921SOL    HW223400   2.713   1.651   4.144 -1.3697 -1.1142 -0.3792
 3922SOL     OW23401   4.396   3.489   4.579 -0.1859  0.4609 -0.0617
 3922SOL    HW123402   4.462   3.537   4.529 -1.3998  0.9872 -1.1765
 3922SOL    HW223403   4.333   3.461   4.512  0.8438 -0.2442 -0.7297
 3923SOL     OW23404   2.034   0.968   6.384  0.1554 -0.5240 -0.1709
 3923SOL    HW123405   2.045   1.063   6.395 -0.0542 -0.5124 -0.0816
 3923SOL    HW223406   1.939   0.969   6.375 -0.0180 -2.1186  1.7017
 3924SOL     OW23407   3.857   1.223   1.568  0.3474 -0.2710 -0.1866
 3924SOL    HW123408   3.845   1.312   1.602  3.7718 -0.8759  2.6237
 3924SOL    HW223409   3.919   1.196   1.636  0.3737  0.4443  0.0779
 3925SOL     OW23410   3.226   3.379  12.111  0.2648  0.2317  0.1610
 3925SOL    HW123411   3.216   3.435  12.034 -0.4518 -0.2043 -0.0656
 3925SOL    HW223412   3.258   3.302  12.064 -0.1796  0.7107 -0.9223
 3926SOL     OW23413   2.737   0.745   2.007 -0.5356  0.3964 -0.0718
 3926SOL    HW123414   2.776   0.745   1.920 -1.1653  2.1874 -0.3408
 3926SOL    HW223415   2.676   0.671   1.999  0.8369 -0.6366 -1.0723
 3927SOL     OW23416   4.717   0.636  14.752  0.0568  0.2581  0.2557
 3927SOL    HW123417   0.050   0.682  14.710 -1.0195  1.0635 -0.7203
 3927SOL    HW223418   4.652   0.640  14.682 -2.7698 -2.7856  2.7408
 3928SOL     OW23419   4.030   1.331   3.418  0.0737 -0.3750  0.1685
 3928SOL    HW123420   3.975   1.308   3.493 -0.8357 -0.3461 -0.4901
 3928SOL    HW223421   4.088   1.256   3.427 -0.0636 -0.8678 -2.9180
 3929SOL     OW23422   2.957   1.252   0.511 -0.2321  0.2593  0.1576
 3929SOL    HW123423   2.966   1.168   0.465 -2.1370  0.2210 -0.1379
 3929SOL    HW223424   2.987   1.316   0.446 -1.3220  1.1965  0.5731
 3930SOL     OW23425   0.490   0.831   4.047  0.2510 -0.1850  0.0887
 3930SOL    HW123426   0.479   0.737   4.054 -3.4786  0.0989 -2.5267
 3930SOL    HW223427   0.554   0.857   4.115  1.8672  3.5152 -2.8290
 3931SOL     OW23428   2.971   0.143   8.330  0.0094 -0.4338 -0.2167
 3931SOL    HW123429   2.970   0.054   8.365 -1.4317 -0.1688  0.3783
 3931SOL    HW223430   2.965   0.132   8.235  4.1613 -0.4207 -0.4860
 3932SOL     OW23431   0.379   0.845   1.010  0.0299  0.4913 -0.3452
 3932SOL    HW123432   0.377   0.929   1.057 -0.7455  0.0760  0.3623
 3932SOL    HW223433   0.311   0.794   1.054  0.4911  0.6891  0.5996
 3933SOL     OW23434   3.987   3.594   7.860 -0.2073 -0.0837  0.2176
 3933SOL    HW123435   4.069   3.643   7.869 -1.1655  1.2629  1.6728
 3933SOL    HW223436   3.935   3.642   7.925 -0.6377 -0.2238 -0.0246
 3934SOL     OW23437   3.513   0.040   8.242 -0.3404  0.1822  0.5120
 3934SOL    HW123438   3.592   0.042   8.188 -0.8568 -1.6745 -0.3022
 3934SOL    HW223439   3.552   0.068   8.325 -0.2015  0.3628  0.3866
 3935SOL     OW23440   1.743   2.195  10.441  0.2034 -0.3225  0.3808
 3935SOL    HW123441   1.762   2.157  10.527  0.5807 -1.7691 -0.3438
 3935SOL    HW223442   1.725   2.116  10.390  0.5990  0.0080 -0.2631
 3936SOL     OW23443   1.967   0.248   7.670  0.3944 -0.9867  0.1291
 3936SOL    HW123444   1.970   0.267   7.764 -0.7714  3.0851 -0.6640
 3936SOL    HW223445   1.889   0.295   7.640  0.4359 -0.5469  0.7012
 3937SOL     OW23446   0.401   4.132   4.451 -0.5280 -0.3818 -0.3941
 3937SOL    HW123447   0.462   4.106   4.381 -0.4564 -1.1082 -0.0563
 3937SOL    HW223448   0.463   4.189   4.497 -0.8165  0.4049 -0.9664
 3938SOL     OW23449   1.084   0.380  15.413  0.2244  0.4267  0.1861
 3938SOL    HW123450   1.136   0.407  15.489 -0.4576  2.6584 -0.1337
 3938SOL    HW223451   1.096   0.285  15.410 -2.5437  0.0892 -0.5756
 3939SOL     OW23452   0.533   2.169   3.739  0.7721  0.3367 -0.0234
 3939SOL    HW123453   0.585   2.153   3.818  0.2975 -0.5089  0.1136
 3939SOL    HW223454   0.601   2.183   3.673  1.2806 -1.1025  0.1986
 3940SOL     OW23455   0.075   0.336   9.326  0.1737 -0.1377 -0.6246
 3940SOL    HW123456   4.728   0.366   9.300  0.2717 -0.7866 -1.7171
 3940SOL    HW223457   0.128   0.412   9.350 -0.1874  0.6119 -2.2096
 3941SOL     OW23458   0.458   1.410   8.532 -0.1238  0.4284  0.0194
 3941SOL    HW123459   0.364   1.391   8.537 -0.2537  0.8213 -0.7984
 3941SOL    HW223460   0.496   1.401   8.619  0.3011 -1.4726 -0.3705
 3942SOL     OW23461   1.617   1.655  17.279 -0.0931  0.0054 -0.9417
 3942SOL    HW123462   1.684   1.587  17.290  0.3474  0.7290  0.8007
 3942SOL    HW223463   1.638   1.714  17.351 -0.6490 -2.5455  1.2874
 3943SOL     OW23464   2.185   4.572   6.381  0.9426 -0.1409  0.3041
 3943SOL    HW123465   2.139   4.594   6.300 -1.0361 -0.2266  1.4309
 3943SOL    HW223466   2.115   4.600   6.439 -1.2751 -0.7495 -2.0408
 3944SOL     OW23467   1.070   4.564   9.544 -0.2262 -0.8258 -0.0429
 3944SOL    HW123468   0.994   4.533   9.494  1.1431  0.7173 -3.0486
 3944SOL    HW223469   1.028   4.563   9.630  0.2902  1.0411  0.2240
 3945SOL     OW23470   3.534   3.494   2.698  0.3223 -0.5679  0.5734
 3945SOL    HW123471   3.595   3.550   2.745  1.1115  1.0226 -2.3129
 3945SOL    HW223472   3.459   3.524   2.750 -0.0308 -0.7619  0.1798
 3946SOL     OW23473   0.680   2.599   0.866 -0.0730  0.4425 -0.8915
 3946SOL    HW123474   0.754   2.660   0.875  0.2790 -0.0965 -0.1127
 3946SOL    HW223475   0.618   2.623   0.936 -1.4994 -0.5861 -1.7926
 3947SOL     OW23476   4.531   1.939  17.360 -0.3068  0.0032  0.5725
 3947SOL    HW123477   4.460   1.876  17.356 -1.7706  1.6074  1.6086
 3947SOL    HW223478   4.500   2.008  17.303  2.0737  0.3803 -0.2853
 3948SOL     OW23479   3.565   3.772   0.533 -0.6843 -0.2190  0.3203
 3948SOL    HW123480   3.484   3.730   0.505 -0.2576 -1.0158  0.2535
 3948SOL    HW223481   3.616   3.781   0.453 -0.5462 -1.6313  0.2437
 3949SOL     OW23482   1.015   1.997  17.311 -0.0407  0.0188  0.0919
 3949SOL    HW123483   1.064   2.021  17.390  0.1817 -0.3180  0.0546
 3949SOL    HW223484   0.940   1.958  17.355 -1.7999  1.2637 -1.7936
 3950SOL     OW23485   3.021   3.618   6.563 -0.4362 -0.3213 -0.2290
 3950SOL    HW123486   3.043   3.563   6.638 -0.2935 -1.7666 -1.3245
 3950SOL    HW223487   3.070   3.694   6.593 -3.0319  1.2870 -0.0137
 3951SOL     OW23488   0.600   3.688  13.093 -0.1120  0.3916  0.1162
 3951SOL    HW123489   0.565   3.776  13.103  0.6245  0.7811 -0.7668
 3951SOL    HW223490   0.547   3.636  13.154 -1.1134  0.2108 -0.9028
 3952SOL     OW23491   2.004   2.886   8.228 -0.4899 -0.0002 -0.5783
 3952SOL    HW123492   1.926   2.920   8.272  0.5876 -0.3051  1.5882
 3952SOL    HW223493   2.018   2.952   8.160  0.4306  2.6703  2.1950
 3953SOL     OW23494   2.284   0.957   7.054 -0.6450  0.4955  0.7325
 3953SOL    HW123495   2.318   0.909   6.979 -0.4489 -0.4948  1.4551
 3953SOL    HW223496   2.310   0.898   7.124 -0.8296 -0.6298 -0.1604
 3954SOL     OW23497   2.244   2.300   8.243  0.2257 -0.3522  0.2356
 3954SOL    HW123498   2.174   2.365   8.250 -1.2678 -1.6629 -2.4453
 3954SOL    HW223499   2.288   2.335   8.166 -1.0251  0.5714 -0.0573
 3955SOL     OW23500   2.566   2.283   7.198 -0.3358  0.4699  0.4651
 3955SOL    HW123501   2.508   2.207   7.198  1.5188 -0.9503  0.4425
 3955SOL    HW223502   2.514   2.349   7.152  1.0919  0.8775 -0.5828
 3956SOL     OW23503   1.511   4.001   3.808 -0.3665  0.2724 -0.2330
 3956SOL    HW123504   1.546   4.038   3.727  1.1066  0.3315  0.4245
 3956SOL    HW223505   1.442   3.948   3.769 -0.3207  0.8443 -1.0811
 3957SOL     OW23506   1.060   0.117   6.834  0.1067 -0.0461  0.0446
 3957SOL    HW123507   1.115   0.081   6.764 -0.2662 -1.0458  0.2657
 3957SOL    HW223508   1.126   0.158   6.889 -0.7966 -0.2995  1.3136
 3958SOL     OW23509   0.668   3.687   9.151 -0.0703  0.4609  0.0831
 3958SOL    HW123510   0.712   3.629   9.089 -2.0194 -1.5598  0.5518
 3958SOL    HW223511   0.612   3.631   9.205  0.6238  0.4562  0.7992
 3959SOL     OW23512   1.360   2.734   9.235 -0.2962 -0.4504  0.5634
 3959SOL    HW123513   1.324   2.761   9.319 -2.1465  1.8647 -0.9594
 3959SOL    HW223514   1.445   2.712   9.272 -1.0850  0.1685  2.7224
 3960SOL     OW23515   4.066   0.798  17.141  0.1523  0.6101  0.1641
 3960SOL    HW123516   4.092   0.784  17.232 -2.9918 -1.5699  0.7420
 3960SOL    HW223517   4.073   0.712  17.100 -0.9725 -0.9267  3.2146
 3961SOL     OW23518   4.667   0.193   7.751 -0.6023 -0.5506  0.1335
 3961SOL    HW123519   4.582   0.181   7.793 -0.4058 -0.3293  0.6011
 3961SOL    HW223520   4.721   0.142   7.811 -1.2451 -0.7654  0.5250
 3962SOL     OW23521   2.476   2.982  10.940 -0.2394  0.6902  0.3599
 3962SOL    HW123522   2.448   2.903  10.986 -0.4449 -0.0555 -1.0368
 3962SOL    HW223523   2.402   3.042  10.953 -1.9454 -0.9565 -1.8251
 3963SOL     OW23524   4.593   4.315   5.854  0.0871 -0.1263  0.4931
 3963SOL    HW123525   4.603   4.232   5.901  0.0822 -0.1532  0.4465
 3963SOL    HW223526   4.563   4.293   5.766  3.2363 -2.2308 -0.0462
 3964SOL     OW23527   4.462   3.966   2.016 -0.2813  0.3170  0.0994
 3964SOL    HW123528   4.526   3.904   1.983 -0.9057  0.3878 -1.2589
 3964SOL    HW223529   4.393   3.906   2.044  0.1068  1.0047  2.4747
 3965SOL     OW23530   4.472   3.086  10.657  0.0955 -0.4303 -0.0992
 3965SOL    HW123531   4.441   3.115  10.742  1.3006  0.7623 -0.0851
 3965SOL    HW223532   4.468   3.170  10.611  0.1895 -0.1114  0.4894
 3966SOL     OW23533   0.914   0.376   8.482  0.0926 -0.4915  0.9153
 3966SOL    HW123534   0.953   0.414   8.404 -2.5047  0.2445 -0.0101
 3966SOL    HW223535   0.910   0.282   8.465 -0.0034 -0.1938 -0.6205
 3967SOL     OW23536   4.660   1.332  12.265 -0.5302 -0.2713 -0.0398
 3967SOL    HW123537   4.727   1.325  12.198 -1.0380 -0.1278 -0.5567
 3967SOL    HW223538   4.678   1.422  12.294  2.0485  0.0451 -2.5968
 3968SOL     OW23539   2.472   3.099   3.626 -0.3930 -0.2341 -0.4722
 3968SOL    HW123540   2.443   3.009   3.642  0.2382 -0.1109  1.2995
 3968SOL    HW223541   2.448   3.155   3.699  2.9861 -1.0849  1.2717
 3969SOL     OW23542   3.512   0.334   7.607 -0.2196 -0.4475 -0.4598
 3969SOL    HW123543   3.604   0.308   7.611  0.1487  0.5601 -2.0392
 3969SOL    HW223544   3.514   0.407   7.669 -0.9346 -0.6276 -0.2191
 3970SOL     OW23545   2.154   3.403   2.863  0.7110  0.3703  0.2910
 3970SOL    HW123546   2.171   3.495   2.881 -2.0257  1.2317 -1.6189
 3970SOL    HW223547   2.235   3.352   2.868  0.0392 -1.0003 -2.4682
 3971SOL     OW23548   1.371   0.637   5.659  0.1679  0.5728 -0.7253
 3971SOL    HW123549   1.333   0.576   5.722 -0.2775  2.0267  0.4186
 3971SOL    HW223550   1.377   0.709   5.723 -0.0261  1.8578 -2.1602
 3972SOL     OW23551   0.132   1.170  13.572 -0.3720  0.1778  0.1336
 3972SOL    HW123552   0.210   1.194  13.622  1.2621 -0.6672 -2.0029
 3972SOL    HW223553   0.126   1.229  13.497  0.0165  0.8657  0.6467
 3973SOL     OW23554   4.206   2.489  15.377  0.1285  0.0057 -0.0859
 3973SOL    HW123555   4.193   2.558  15.443  1.2856  0.4745 -0.3462
 3973SOL    HW223556   4.218   2.410  15.430 -1.8462 -0.6709 -0.6474
 3974SOL     OW23557   0.751   1.380   4.353 -0.0980 -0.1665  0.0752
 3974SOL    HW123558   0.829   1.399   4.302  0.2538  0.9786  1.0361
 3974SOL    HW223559   0.792   1.340   4.429  1.8472  0.7954 -0.4827
 3975SOL     OW23560   2.263   3.157   9.585 -0.5019 -0.0404 -0.0376
 3975SOL    HW123561   2.264   3.173   9.490  2.1003 -1.4045 -0.2507
 3975SOL    HW223562   2.194   3.215   9.616 -0.6304 -1.8425  3.0417
 3976SOL     OW23563   2.693   0.571   7.224 -0.1528 -0.1905 -0.3760
 3976SOL    HW123564   2.746   0.506   7.177 -2.3689  0.1501 -3.3643
 3976SOL    HW223565   2.686   0.645   7.164 -2.2911  0.8998  1.2130
 3977SOL     OW23566   2.586   4.223  15.673  0.0646  0.3065  0.0368
 3977SOL    HW123567   2.553   4.310  15.693  1.5621  0.7198  0.7110
 3977SOL    HW223568   2.620   4.235  15.584  0.5592 -4.0372 -0.3546
 3978SOL     OW23569   2.279   2.221   6.918 -0.6254 -0.3492  0.4687
 3978SOL    HW123570   2.258   2.193   7.008  0.2274 -3.2522 -0.2341
 3978SOL    HW223571   2.329   2.299   6.939 -1.1051  0.1504 -0.2581
 3979SOL     OW23572   1.890   4.372   6.537 -0.7442 -0.4984 -0.2309
 3979SOL    HW123573   1.896   4.292   6.484 -0.1038  0.5218 -1.6908
 3979SOL    HW223574   1.813   4.417   6.503  1.3706  0.6018 -3.5329
 3980SOL     OW23575   3.421   0.608  16.926  0.2515 -0.1720  0.9123
 3980SOL    HW123576   3.411   0.518  16.896 -0.7046 -0.3616  1.7769
 3980SOL    HW223577   3.354   0.653  16.874  1.0991  0.2514  0.2034
 3981SOL     OW23578   2.840   2.527   2.375 -0.1480 -0.2418 -0.1844
 3981SOL    HW123579   2.753   2.567   2.382 -0.7205 -1.6952  0.9873
 3981SOL    HW223580   2.862   2.503   2.465  1.1487  1.5622 -0.0390
 3982SOL     OW23581   3.049   2.842   9.258 -0.1257  0.0017 -0.2733
 3982SOL    HW123582   3.011   2.789   9.188 -1.4217  0.6933 -0.0758
 3982SOL    HW223583   3.033   2.929   9.222 -0.9509  0.5265  1.3704
 3983SOL     OW23584   1.636   1.758   3.760 -0.1040 -0.2652 -0.1009
 3983SOL    HW123585   1.688   1.688   3.719 -0.5610 -0.2975 -0.6358
 3983SOL    HW223586   1.550   1.748   3.719  0.0945 -1.3614 -0.2623
 3984SOL     OW23587   1.803   1.670   4.161 -0.3357 -0.1912  0.1062
 3984SOL    HW123588   1.751   1.736   4.115 -2.8872 -0.4033  2.6849
 3984SOL    HW223589   1.797   1.709   4.248 -0.1529  3.7208 -1.6228
 3985SOL     OW23590   2.530   2.749   0.466 -0.2856 -0.2919 -0.3105
 3985SOL    HW123591   2.513   2.801   0.388 -0.6426  1.9062  1.2350
 3985SOL    HW223592   2.488   2.794   0.539  0.4330 -0.8518  0.4476
 3986SOL     OW23593   1.306   1.911   7.581 -0.5912  0.5483  0.0359
 3986SOL    HW123594   1.361   1.933   7.656 -0.5821  0.6696 -0.0060
 3986SOL    HW223595   1.370   1.942   7.518  0.3573 -1.0390  0.2240
 3987SOL     OW23596   2.327   4.088  12.184 -0.0792  0.0790  0.3192
 3987SOL    HW123597   2.362   4.155  12.126 -1.3500  0.0636 -0.4819
 3987SOL    HW223598   2.344   4.127  12.270 -1.4870  0.8413  0.2472
 3988SOL     OW23599   1.963   3.390  16.172  0.4327  0.2878 -0.3741
 3988SOL    HW123600   1.929   3.301  16.159  0.3934  0.4291 -1.2746
 3988SOL    HW223601   2.012   3.405  16.091  1.1423  0.5811  0.1116
 3989SOL     OW23602   3.482   2.725   2.122  0.0703  0.5764  0.6257
 3989SOL    HW123603   3.513   2.732   2.212 -1.2016  0.8318  1.0438
 3989SOL    HW223604   3.488   2.629   2.120 -0.9905  0.5838 -2.0387
 3990SOL     OW23605   0.979   3.493   2.649 -0.5084  0.1842 -0.4995
 3990SOL    HW123606   0.896   3.450   2.632 -0.2642 -0.6657  0.5051
 3990SOL    HW223607   0.954   3.583   2.625  0.1190  0.8349  1.2846
 3991SOL     OW23608   1.566   2.713   2.884 -0.5795 -0.0106  0.1446
 3991SOL    HW123609   1.528   2.800   2.869  0.6900  0.3330 -1.0409
 3991SOL    HW223610   1.660   2.729   2.876 -0.5026 -1.0505 -0.9921
 3992SOL     OW23611   3.240   3.437   4.230  0.5413  0.2054  0.3149
 3992SOL    HW123612   3.240   3.447   4.326  1.3875 -0.1610  0.3537
 3992SOL    HW223613   3.166   3.377   4.222 -0.8187  2.0741 -0.8730
 3993SOL     OW23614   1.543   3.532   5.721  0.4934 -0.2783 -0.3047
 3993SOL    HW123615   1.577   3.443   5.732  0.7604 -0.0556  0.6577
 3993SOL    HW223616   1.522   3.529   5.628  1.2951  1.2028 -0.5345
 3994SOL     OW23617   0.396   1.726  11.224  0.0940  0.6767 -0.0643
 3994SOL    HW123618   0.336   1.777  11.171  0.9283  1.8256  0.0895
 3994SOL    HW223619   0.448   1.682  11.157  0.6504  2.1448 -0.5935
 3995SOL     OW23620   3.636   0.070   5.506 -0.9005 -0.2671 -0.2935
 3995SOL    HW123621   3.726   0.035   5.512 -0.7329  0.4162  1.1342
 3995SOL    HW223622   3.595   4.740   5.456 -1.6705  0.5858 -0.8493
 3996SOL     OW23623   0.102   3.105  12.302  0.4343 -0.4880  0.7097
 3996SOL    HW123624   0.194   3.108  12.331  0.4138 -1.8164  0.8856
 3996SOL    HW223625   0.098   3.197  12.277  2.8921  0.1354  2.5585
 3997SOL     OW23626   1.121   0.620   3.886 -0.6277 -0.0782 -0.2024
 3997SOL    HW123627   1.195   0.576   3.844 -0.2291  0.1147  0.2969
 3997SOL    HW223628   1.058   0.549   3.877  0.3392 -0.9411 -0.2792
 3998SOL     OW23629   4.157   0.315   3.273 -0.1865  0.2936  0.0625
 3998SOL    HW123630   4.190   0.267   3.197 -0.0182  0.7522 -0.1553
 3998SOL    HW223631   4.079   0.358   3.236  0.3210  2.1363  1.1459
 3999SOL     OW23632   1.754   0.162   0.586 -0.1943  0.7922  0.0065
 3999SOL    HW123633   1.812   0.218   0.637 -1.0335  0.6172  1.1507
 3999SOL    HW223634   1.790   0.163   0.497  0.3498  0.0626  0.2158
 4000SOL     OW23635   3.800   4.163  15.362 -0.1275 -0.4873  0.2355
 4000SOL    HW123636   3.776   4.219  15.288  1.1211 -0.2768 -0.0133
 4000SOL    HW223637   3.722   4.108  15.369 -1.3956  1.3141  0.2363
 4001SOL     OW23638   1.066   1.823   2.725  0.1688 -0.2595 -0.1641
 4001SOL    HW123639   1.046   1.806   2.633  1.0766  0.8530 -0.5598
 4001SOL    HW223640   1.095   1.914   2.723 -1.0416  0.1760  2.4770
 4002SOL     OW23641   0.848   4.421   9.489 -0.1973 -0.2202 -0.0514
 4002SOL    HW123642   0.780   4.468   9.440 -1.3642  0.9325  2.7108
 4002SOL    HW223643   0.810   4.434   9.576 -0.9967  0.6007 -0.5133
 4003SOL     OW23644   4.052   0.666   2.550 -0.1066  0.7650  0.0412
 4003SOL    HW123645   4.026   0.577   2.525  1.2954  0.4914 -0.4598
 4003SOL    HW223646   3.974   0.718   2.568  0.8204  2.0821  0.2380
 4004SOL     OW23647   1.293   1.857   3.163 -0.0898 -0.8190 -0.4543
 4004SOL    HW123648   1.362   1.802   3.200  0.6201  0.3171 -0.0741
 4004SOL    HW223649   1.270   1.800   3.090 -2.2899  2.1875 -2.1178
 4005SOL     OW23650   0.512   3.024   4.051 -0.3384 -0.3076 -0.2299
 4005SOL    HW123651   0.485   2.946   4.002  0.9213  0.0430 -1.4527
 4005SOL    HW223652   0.533   2.988   4.137  0.0140 -0.6825 -0.4744
 4006SOL     OW23653   4.693   4.310  12.310 -0.2600  0.1782 -0.2712
 4006SOL    HW123654   4.654   4.365  12.378  0.2512  0.0346  0.1394
 4006SOL    HW223655   0.010   4.255  12.364  0.8326  0.4761 -1.1446
 4007SOL     OW23656   2.201   3.656   2.959  0.5705 -0.1207  0.1358
 4007SOL    HW123657   2.277   3.709   2.934  0.4587  1.0947  2.3634
 4007SOL    HW223658   2.159   3.706   3.029 -0.3186  0.3109 -0.7046
 4008SOL     OW23659   0.064   1.472   2.257  0.6948  1.0299 -0.1326
 4008SOL    HW123660   0.048   1.450   2.349  0.4470 -0.5593 -0.5525
 4008SOL    HW223661   0.135   1.412   2.234  0.3909  0.2557  0.9379
 4009SOL     OW23662   2.287   4.576   4.515 -0.0042  0.1820 -0.0379
 4009SOL    HW123663   2.280   4.671   4.515 -0.0888  0.1784  1.5084
 4009SOL    HW223664   2.250   4.552   4.430 -1.4781  1.9467  0.1091
 4010SOL     OW23665   4.026   0.602   5.746  0.1394  0.1895 -0.1303
 4010SOL    HW123666   3.949   0.547   5.760  0.6068 -0.6715 -0.9735
 4010SOL    HW223667   4.089   0.559   5.804 -0.5041 -0.3879  0.1473
 4011SOL     OW23668   4.009   3.454   3.710  0.0235 -0.5793  0.5105
 4011SOL    HW123669   3.937   3.400   3.742 -0.3776  0.1627  0.8335
 4011SOL    HW223670   4.089   3.409   3.738 -0.2789 -1.7477 -0.4775
 4012SOL     OW23671   4.298   1.048   2.547 -0.3958 -0.8581 -0.6594
 4012SOL    HW123672   4.371   0.988   2.532 -0.2133 -0.6704 -0.5215
 4012SOL    HW223673   4.230   0.992   2.511  0.9497 -2.7566 -0.2196
 4013SOL     OW23674   0.530   2.586  13.409 -0.5771 -1.1509 -0.4469
 4013SOL    HW123675   0.504   2.572  13.318 -0.2082 -0.2937 -0.6836
 4013SOL    HW223676   0.577   2.669  13.399 -2.5019 -0.2239 -1.7048
 4014SOL     OW23677   2.843   0.447  12.606  0.3914 -0.0744 -0.0638
 4014SOL    HW123678   2.904   0.374  12.600  1.6944  0.9047  1.5573
 4014SOL    HW223679   2.889   0.515  12.557  0.5024  0.1100  0.2987
 4015SOL     OW23680   1.845   2.851   2.210  0.6608  0.3016 -0.2657
 4015SOL    HW123681   1.839   2.768   2.163 -2.4754 -0.2045  0.9998
 4015SOL    HW223682   1.788   2.903   2.154  3.5301  3.1304 -0.5164
 4016SOL     OW23683   0.525   4.031   7.668 -0.3698 -0.0381  0.0759
 4016SOL    HW123684   0.600   4.029   7.608 -0.5482 -2.5208 -0.0724
 4016SOL    HW223685   0.539   4.122   7.695 -0.9552 -0.3168  1.3235
 4017SOL     OW23686   0.807   3.368   2.328 -1.1420  0.2689  0.2146
 4017SOL    HW123687   0.739   3.420   2.371  1.9775  1.6866  3.4257
 4017SOL    HW223688   0.823   3.300   2.393  0.9585 -1.2957 -1.9324
 4018SOL     OW23689   2.958   4.535  16.270 -0.5623  0.3003  0.0906
 4018SOL    HW123690   2.902   4.598  16.225 -0.3647  0.7852  0.5383
 4018SOL    HW223691   2.999   4.584  16.341 -2.4032  1.3239  0.4539
 4019SOL     OW23692   3.256   0.902   2.531 -0.3320  0.4221  0.5267
 4019SOL    HW123693   3.335   0.925   2.580  0.1159 -0.9224  0.4264
 4019SOL    HW223694   3.302   0.874   2.453 -0.2107  1.0600  0.3650
 4020SOL     OW23695   2.320   2.147  13.211 -0.1618  0.0933  0.4424
 4020SOL    HW123696   2.289   2.057  13.222 -1.0419  0.2826 -0.4302
 4020SOL    HW223697   2.407   2.127  13.245 -0.7640 -2.4434  0.4649
 4021SOL     OW23698   1.612   1.542   8.107 -0.0414 -0.7812  0.0471
 4021SOL    HW123699   1.674   1.471   8.089  1.3134  0.2004  0.8727
 4021SOL    HW223700   1.573   1.496   8.181  1.4420 -0.6324  0.9053
 4022SOL     OW23701   1.919   0.756   1.045 -0.4463  0.0538 -0.1402
 4022SOL    HW123702   2.015   0.756   1.046 -0.4358 -0.6356 -0.8564
 4022SOL    HW223703   1.901   0.696   0.972 -0.1056 -2.3670  1.8017
 4023SOL     OW23704   2.082   2.540   5.419 -0.0916  0.8680  0.0684
 4023SOL    HW123705   2.143   2.529   5.346  0.6329  0.5813  0.7161
 4023SOL    HW223706   2.139   2.565   5.491 -2.9861 -0.3379  2.8023
 4024SOL     OW23707   1.206   2.858   6.618  0.0748 -0.4024 -0.2471
 4024SOL    HW123708   1.243   2.901   6.540 -0.3261  0.0071 -0.2148
 4024SOL    HW223709   1.203   2.923   6.688  2.0681 -0.0963 -0.4420
 4025SOL     OW23710   1.344   2.668   3.390  0.0608  0.2310  0.0908
 4025SOL    HW123711   1.253   2.674   3.360  0.4000 -1.9187 -1.3518
 4025SOL    HW223712   1.393   2.634   3.315  1.0057 -1.4623  1.5051
 4026SOL     OW23713   4.129   0.212   7.771  0.0964 -0.0929  0.2576
 4026SOL    HW123714   4.170   0.171   7.695  2.5564  1.3403  0.7974
 4026SOL    HW223715   4.129   0.301   7.735 -0.3669  0.4784  1.6340
 4027SOL     OW23716   1.055   0.771   6.987  0.0416 -0.8592  0.0615
 4027SOL    HW123717   1.008   0.691   6.965 -0.3041 -0.6431  0.0144
 4027SOL    HW223718   1.037   0.806   6.900  2.7883  0.1458 -0.0918
 4028SOL     OW23719   3.705   3.449   8.086 -0.2251 -0.1800  0.1741
 4028SOL    HW123720   3.667   3.442   8.174  0.9492 -0.0086  0.6971
 4028SOL    HW223721   3.644   3.506   8.040 -1.7003 -2.5466 -0.7810
 4029SOL     OW23722   1.354   2.245   4.287 -0.0839  0.0326  0.5140
 4029SOL    HW123723   1.323   2.320   4.236 -0.2436 -1.0047 -0.9143
 4029SOL    HW223724   1.419   2.286   4.344  0.3955 -1.0508  0.7445
 4030SOL     OW23725   4.388   0.794   9.593 -0.0593  0.2589 -0.4589
 4030SOL    HW123726   4.348   0.792   9.679  2.7937 -0.3648  0.8454
 4030SOL    HW223727   4.308   0.782   9.542  0.5941 -2.9198 -0.7895
 4031SOL     OW23728   3.363   0.860   9.037 -0.1074 -0.2912  0.1875
 4031SOL    HW123729   3.347   0.918   8.962  1.4139  1.0871  0.9208
 4031SOL    HW223730   3.418   0.923   9.085  0.5377  0.5212 -1.6137
 4032SOL     OW23731   2.501   2.506   0.361  0.4213 -0.3430 -0.1662
 4032SOL    HW123732   2.409   2.508   0.387  0.2691 -0.3001 -0.7001
 4032SOL    HW223733   2.541   2.577   0.411  0.3622 -0.6598  0.3332
 4033SOL     OW23734   0.259   3.035   3.609 -0.0882 -0.1580 -0.1510
 4033SOL    HW123735   0.196   2.975   3.650 -0.4405  0.0967 -0.3228
 4033SOL    HW223736   0.343   3.013   3.651 -0.0634 -0.5752 -0.4237
 4034SOL     OW23737   3.389   3.061   6.721 -0.2938  0.0949 -0.3581
 4034SOL    HW123738   3.439   3.009   6.658 -1.3446 -1.3459  0.0085
 4034SOL    HW223739   3.401   3.153   6.698  0.0970 -0.3296 -1.8142
 4035SOL     OW23740   3.201   2.549   4.168 -0.2831  0.0977  0.0590
 4035SOL    HW123741   3.146   2.577   4.095 -0.8218  0.2324  0.5105
 4035SOL    HW223742   3.285   2.584   4.140 -0.4768  1.3850  1.0650
 4036SOL     OW23743   0.543   1.562   8.274 -0.3189 -0.0698 -0.2040
 4036SOL    HW123744   0.548   1.520   8.360 -1.4152  0.1709 -0.0167
 4036SOL    HW223745   0.451   1.556   8.246 -0.6353  0.2475  0.7463
 4037SOL     OW23746   0.244   1.971   8.164 -0.1678  0.8067  0.3831
 4037SOL    HW123747   0.299   1.972   8.242 -1.7994  4.0952  1.5001
 4037SOL    HW223748   0.311   1.931   8.109 -2.1390 -1.3160 -0.5012
 4038SOL     OW23749   0.446   1.169   5.100 -0.1859  0.1954  0.2886
 4038SOL    HW123750   0.432   1.238   5.164 -0.6436 -0.9523  1.4332
 4038SOL    HW223751   0.357   1.162   5.066 -1.0578  0.2107  2.5464
 4039SOL     OW23752   3.858   3.292   7.484 -0.0714  0.0054  0.3327
 4039SOL    HW123753   3.912   3.282   7.405 -1.2742 -0.2530 -0.4561
 4039SOL    HW223754   3.924   3.334   7.539  0.9718  0.3646 -1.1881
 4040SOL     OW23755   0.733   1.436   7.859  0.3250 -0.1784 -0.0307
 4040SOL    HW123756   0.763   1.411   7.771  0.4737 -1.8007  0.4902
 4040SOL    HW223757   0.667   1.504   7.849 -0.2535 -1.1618 -2.9490
 4041SOL     OW23758   3.325   0.333  16.855  0.1159  0.4893 -0.2124
 4041SOL    HW123759   3.252   0.365  16.908  1.2525  0.8289  1.1503
 4041SOL    HW223760   3.387   0.307  16.923 -1.2812  0.4158  1.0329
 4042SOL     OW23761   1.425   3.829   6.059 -0.0161  0.0120  0.4302
 4042SOL    HW123762   1.400   3.781   5.980  0.1632 -0.0891  0.4369
 4042SOL    HW223763   1.379   3.913   6.054 -0.3164 -0.1535  0.4265
 4043SOL     OW23764   1.240   0.831   2.176 -0.2894 -0.0526  0.0716
 4043SOL    HW123765   1.193   0.887   2.115 -1.4799  1.8501  2.7209
 4043SOL    HW223766   1.266   0.893   2.245 -1.8596 -0.1956  0.7733
 4044SOL     OW23767   0.504   0.829   2.309  0.5128 -0.0531 -0.5733
 4044SOL    HW123768   0.457   0.799   2.387 -2.6709  0.9581 -2.1104
 4044SOL    HW223769   0.427   0.836   2.252  1.7811 -2.4291 -2.5651
 4045SOL     OW23770   0.986   3.362   0.722  0.1434 -0.4340 -0.2564
 4045SOL    HW123771   0.962   3.326   0.636 -1.8251  1.4995 -0.5071
 4045SOL    HW223772   1.045   3.435   0.705 -1.3709  0.8027 -0.1666
 4046SOL     OW23773   3.717   2.795   5.798 -0.1530 -0.2740  0.6399
 4046SOL    HW123774   3.764   2.714   5.782  2.7467  1.2440  1.4713
 4046SOL    HW223775   3.761   2.821   5.879  2.4697  1.0080 -1.1729
 4047SOL     OW23776   0.166   2.014  13.926  0.6730 -0.1432  1.2091
 4047SOL    HW123777   0.086   2.051  13.889  1.5960 -0.1442 -0.7945
 4047SOL    HW223778   0.220   1.991  13.850  0.2766 -2.7294  1.7126
 4048SOL     OW23779   1.063   2.558   8.380  0.3476  0.1349  1.4194
 4048SOL    HW123780   1.029   2.469   8.390  0.9204 -0.3381 -0.8206
 4048SOL    HW223781   1.093   2.563   8.289  1.6917 -2.4944  1.7180
 4049SOL     OW23782   2.743   1.879   9.236 -0.3664 -0.6071 -0.1782
 4049SOL    HW123783   2.788   1.870   9.152  0.6159  2.8286 -0.0382
 4049SOL    HW223784   2.711   1.790   9.251  2.7727 -2.0134 -1.7786
 4050SOL     OW23785   2.466   2.748  11.443  0.3158  0.4624 -0.7326
 4050SOL    HW123786   2.454   2.654  11.453  1.9797  0.0442 -2.6240
 4050SOL    HW223787   2.380   2.777  11.472  0.7156 -1.0862  2.0284
 4051SOL     OW23788   0.395   2.815   3.900 -0.5965  0.4732  0.2181
 4051SOL    HW123789   0.433   2.730   3.920  0.1080  0.4385 -1.2917
 4051SOL    HW223790   0.304   2.789   3.886 -0.0195  0.3637 -3.1750
 4052SOL     OW23791   0.656   2.507   6.484 -0.0131 -0.1453  0.3396
 4052SOL    HW123792   0.717   2.435   6.497  0.6892  0.4070  0.0977
 4052SOL    HW223793   0.679   2.554   6.564  0.3371  0.0995  0.0996
 4053SOL     OW23794   3.017   4.365   6.817 -0.0831  0.1061 -0.6463
 4053SOL    HW123795   3.068   4.435   6.777  1.7485 -0.5768  0.4731
 4053SOL    HW223796   3.076   4.314   6.873  0.7408 -0.5505 -2.1079
 4054SOL     OW23797   3.867   2.902   6.012  0.7340  0.1164 -0.0541
 4054SOL    HW123798   3.872   2.953   6.093  0.1962 -0.5003  0.3616
 4054SOL    HW223799   3.941   2.926   5.956  0.2988  0.4855 -0.4752
 4055SOL     OW23800   1.564   1.918  15.252 -0.8531  0.0652 -0.1961
 4055SOL    HW123801   1.551   2.012  15.259 -1.4190  0.2373 -3.4522
 4055SOL    HW223802   1.599   1.922  15.163 -0.6052  2.6584  0.0304
 4056SOL     OW23803   2.413   2.466   0.952 -0.3386 -0.3765  0.7070
 4056SOL    HW123804   2.431   2.553   0.987 -0.5128 -0.7800  1.7884
 4056SOL    HW223805   2.390   2.500   0.865  0.9695 -2.4026 -0.4323
 4057SOL     OW23806   1.276   0.661   8.701  0.3356 -0.0369  0.6778
 4057SOL    HW123807   1.266   0.666   8.606 -1.4761  0.4018  0.8844
 4057SOL    HW223808   1.222   0.584   8.719  0.9293 -0.5040  0.4364
 4058SOL     OW23809   4.059   0.363   1.266  0.1994 -0.2877 -0.7151
 4058SOL    HW123810   4.061   0.283   1.318  2.7136 -0.6409 -1.3649
 4058SOL    HW223811   3.988   0.340   1.207  0.3301  0.7133 -1.2729
 4059SOL     OW23812   2.653   3.725  13.252 -0.1574  0.0056 -0.3655
 4059SOL    HW123813   2.707   3.646  13.243 -1.8486 -0.9095 -2.3278
 4059SOL    HW223814   2.568   3.682  13.241 -0.2796 -0.1658  1.2443
 4060SOL     OW23815   0.391   2.282   3.186  0.0964  0.2916 -0.1654
 4060SOL    HW123816   0.371   2.210   3.246  0.4903  1.9112  1.9351
 4060SOL    HW223817   0.486   2.274   3.175  0.6809  2.5603  2.9245
 4061SOL     OW23818   3.498   3.925   1.632  0.3324 -0.6247  0.0786
 4061SOL    HW123819   3.454   3.881   1.705  1.0126 -0.3794  0.6438
 4061SOL    HW223820   3.531   3.850   1.583 -0.1161  0.2843 -1.5807
 4062SOL     OW23821   3.422   1.745  10.300 -0.0493  0.2912  0.2883
 4062SOL    HW123822   3.403   1.782  10.213  0.0422  0.3190  0.2799
 4062SOL    HW223823   3.335   1.709  10.313  0.5370 -1.1010  0.3228
 4063SOL     OW23824   3.158   2.138   2.653  0.2667 -0.0494 -0.8726
 4063SOL    HW123825   3.208   2.108   2.729 -0.3042 -0.6425 -0.7341
 4063SOL    HW223826   3.199   2.084   2.586  0.7624  2.0466 -2.2476
 4064SOL     OW23827   2.745   1.294   1.540  0.5305 -0.0056  0.0544
 4064SOL    HW123828   2.734   1.360   1.471  1.1424 -0.2792 -0.2998
 4064SOL    HW223829   2.696   1.319   1.618 -0.0332 -0.0420 -0.2925
 4065SOL     OW23830   2.044   1.236   1.128 -0.2447  0.4917 -0.2937
 4065SOL    HW123831   2.018   1.151   1.162  0.3533 -0.6351 -2.6958
 4065SOL    HW223832   1.966   1.291   1.125 -0.5066  0.1525  0.4307
 4066SOL     OW23833   0.786   4.696  16.836 -0.1807  0.0779  0.5143
 4066SOL    HW123834   0.722   4.630  16.808 -2.3881  2.6671 -0.5076
 4066SOL    HW223835   0.742   0.034  16.804  0.6213  0.0908 -0.5631
 4067SOL     OW23836   0.943   4.544   8.461 -0.4690  0.6590  0.0274
 4067SOL    HW123837   0.982   4.495   8.388  1.0093  0.1247  1.1741
 4067SOL    HW223838   0.851   4.547   8.435 -0.3578 -1.1336 -0.5827
 4068SOL     OW23839   1.620   2.524   7.336 -0.1774 -0.4169  0.4333
 4068SOL    HW123840   1.530   2.544   7.309  0.3169  0.5869 -0.4868
 4068SOL    HW223841   1.612   2.428   7.332 -0.2365 -0.3652 -0.9439
 4069SOL     OW23842   0.709   0.957   7.607 -0.5681  0.2924 -0.2095
 4069SOL    HW123843   0.616   0.942   7.622 -0.9269  0.5086 -2.2802
 4069SOL    HW223844   0.689   1.034   7.554  0.5542  1.3923  0.9656
 4070SOL     OW23845   2.554   0.864   8.202  0.1350  0.5916  0.3191
 4070SOL    HW123846   2.581   0.793   8.261  1.1935  0.8322  0.1337
 4070SOL    HW223847   2.551   0.820   8.117 -0.3452  3.8070 -1.3284
 4071SOL     OW23848   3.066   3.346  13.028  0.3844  0.3612  0.3097
 4071SOL    HW123849   3.084   3.332  12.935 -0.7434  2.3746 -0.2024
 4071SOL    HW223850   3.075   3.258  13.064 -1.2828 -0.0935 -0.3827
 4072SOL     OW23851   4.075   2.993   7.615  0.0950  0.3854 -0.0998
 4072SOL    HW123852   3.999   3.025   7.664  0.2326 -1.1316  1.1010
 4072SOL    HW223853   4.144   3.033   7.669  1.6345 -1.7978 -0.4368
 4073SOL     OW23854   2.480   1.024  17.411 -0.4999 -0.5921  0.1032
 4073SOL    HW123855   2.406   0.980  17.368  0.5275 -0.4201 -1.8188
 4073SOL    HW223856   2.561   0.991  17.372 -0.7007 -1.7375  0.6621
 4074SOL     OW23857   0.809   0.937   4.059 -0.3356 -0.0752 -0.1350
 4074SOL    HW123858   0.870   1.010   4.062 -0.9502  0.4545 -0.3778
 4074SOL    HW223859   0.774   0.960   4.146  2.5656 -2.2064  1.5771
 4075SOL     OW23860   3.272   0.521   7.778 -0.5853  0.4730  0.3006
 4075SOL    HW123861   3.283   0.613   7.751 -1.4022  0.5393  0.1878
 4075SOL    HW223862   3.226   0.489   7.701  2.1785 -2.3558 -0.1905
 4076SOL     OW23863   2.099   0.051   0.493 -0.4597 -0.2141 -0.0629
 4076SOL    HW123864   2.077   0.095   0.574  2.2525 -0.1899  0.6591
 4076SOL    HW223865   2.059   0.114   0.433 -1.7724  0.4446  1.5489
 4077SOL     OW23866   0.981   3.310   1.864 -0.3691  0.2193  0.1218
 4077SOL    HW123867   0.977   3.239   1.800  0.2970  1.2768 -1.0998
 4077SOL    HW223868   0.889   3.296   1.886 -0.5087  1.2790  0.1779
 4078SOL     OW23869   3.083   2.629   7.030  0.6623 -0.1755 -0.0392
 4078SOL    HW123870   3.013   2.689   7.057 -0.6890 -1.8812  0.2210
 4078SOL    HW223871   3.160   2.674   7.065  0.2570 -0.2112  0.9015
 4079SOL     OW23872   1.474   1.141   0.317 -0.0887 -0.2061 -0.0771
 4079SOL    HW123873   1.488   1.233   0.295 -0.2179 -0.7210 -2.3195
 4079SOL    HW223874   1.415   1.123   0.244  2.0025 -0.5396 -1.6644
 4080SOL     OW23875   2.507   1.872   6.204 -0.5120 -0.1052 -0.4660
 4080SOL    HW123876   2.432   1.827   6.168  0.6749 -2.9603  0.6138
 4080SOL    HW223877   2.518   1.812   6.278  0.0863  0.5514 -0.0081
 4081SOL     OW23878   1.688   4.541   3.870 -0.3451  0.1365  0.0225
 4081SOL    HW123879   1.770   4.509   3.909  0.7425  0.8077 -1.6892
 4081SOL    HW223880   1.639   4.459   3.866 -1.3350  0.6347  2.1372
 4082SOL     OW23881   0.720   0.635  16.650 -0.4671 -0.2431  0.2836
 4082SOL    HW123882   0.646   0.669  16.600  1.3566  2.2656 -0.6650
 4082SOL    HW223883   0.787   0.683  16.602 -2.0128  2.4796  0.8349
 4083SOL     OW23884   3.932   0.048  12.541 -0.7368  0.4958  0.3815
 4083SOL    HW123885   3.972   0.118  12.490 -0.4823  0.0726  0.0022
 4083SOL    HW223886   3.849   0.096  12.550 -1.1437 -0.3062  0.8926
 4084SOL     OW23887   4.310   4.441   7.082  0.2654  0.2094 -0.0311
 4084SOL    HW123888   4.395   4.398   7.089 -0.3742 -0.8298  1.3621
 4084SOL    HW223889   4.253   4.371   7.049 -0.1290  0.6805 -0.3382
 4085SOL     OW23890   2.699   0.845   1.691 -0.3078 -0.0439  0.3287
 4085SOL    HW123891   2.790   0.821   1.709 -0.4261 -3.0855 -3.1001
 4085SOL    HW223892   2.669   0.916   1.749 -1.6415 -0.1347 -0.2434
 4086SOL     OW23893   1.147   0.847   8.199  0.3038 -0.0054 -0.2113
 4086SOL    HW123894   1.217   0.856   8.264  0.0048 -0.9181  0.2326
 4086SOL    HW223895   1.150   0.933   8.157  1.3335  0.0509 -0.0161
 4087SOL     OW23896   3.080   1.350   3.613  0.0279  0.5065  0.3064
 4087SOL    HW123897   2.995   1.308   3.618  0.4148 -0.5664 -1.9720
 4087SOL    HW223898   3.112   1.348   3.703 -1.8204 -3.1125  0.8764
 4088SOL     OW23899   1.492   3.882   4.953  0.0889  0.0154 -0.1338
 4088SOL    HW123900   1.569   3.868   4.898  0.2691  0.4961  0.0026
 4088SOL    HW223901   1.418   3.843   4.907  1.3860 -1.1800 -1.2126
 4089SOL     OW23902   2.692   0.984   8.929  0.0288  0.5722 -0.5743
 4089SOL    HW123903   2.737   1.050   8.877  0.6371  0.0197 -0.7552
 4089SOL    HW223904   2.764   0.926   8.955  1.1743  1.1891 -2.4046
 4090SOL     OW23905   3.152   1.430   3.892 -0.7515  0.0070  0.1075
 4090SOL    HW123906   3.209   1.419   3.968  1.7008 -0.0669 -1.7210
 4090SOL    HW223907   3.072   1.409   3.940 -1.2679 -0.5048 -0.9598
 4091SOL     OW23908   0.613   3.050  16.467 -0.3112 -0.0860 -0.1046
 4091SOL    HW123909   0.530   3.004  16.478  0.0783 -0.8788 -0.4734
 4091SOL    HW223910   0.671   2.997  16.522 -0.7402  0.6862  1.0920
 4092SOL     OW23911   2.490   2.348  17.144 -0.0030 -0.2015 -0.1609
 4092SOL    HW123912   2.462   2.256  17.141  1.2327 -0.6570  1.7637
 4092SOL    HW223913   2.421   2.386  17.199 -1.3794  0.2511 -2.2131
 4093SOL     OW23914   0.409   3.117   6.184 -0.3015  0.5140 -0.1633
 4093SOL    HW123915   0.348   3.051   6.216  0.2610 -0.5625 -1.3050
 4093SOL    HW223916   0.353   3.195   6.187  1.7338  1.9864 -0.4140
 4094SOL     OW23917   4.136   3.366   8.870 -0.6306 -0.1337 -0.2882
 4094SOL    HW123918   4.196   3.374   8.796 -0.5305 -0.1972 -0.2123
 4094SOL    HW223919   4.123   3.273   8.888  0.6706 -0.2452  0.0450
 4095SOL     OW23920   2.222   4.032  11.247 -0.6275 -0.3431  0.5187
 4095SOL    HW123921   2.317   4.036  11.249 -0.5544 -1.3755 -1.0985
 4095SOL    HW223922   2.194   4.011  11.158 -0.7948  1.1952  0.2019
 4096SOL     OW23923   0.227   1.123   7.115  0.0720  0.2360 -0.1852
 4096SOL    HW123924   0.273   1.174   7.048  4.3464 -4.1460 -0.5459
 4096SOL    HW223925   0.302   1.070   7.143 -0.8017 -0.4686  0.7899
 4097SOL     OW23926   0.318   0.460   7.582 -0.2440 -0.1030  0.3810
 4097SOL    HW123927   0.246   0.521   7.599  0.5186  0.8050  0.3683
 4097SOL    HW223928   0.379   0.486   7.650 -1.2652  1.2499  0.7737
 4098SOL     OW23929   2.225   0.427   6.161 -0.5248  0.0222  0.0003
 4098SOL    HW123930   2.294   0.389   6.214 -1.1542 -1.0353  0.0454
 4098SOL    HW223931   2.274   0.502   6.126  1.3276 -1.6717 -1.0534
 4099SOL     OW23932   1.127   3.022   6.804  0.0960  0.4127  0.3204
 4099SOL    HW123933   1.125   3.117   6.792 -1.2504  0.5037  1.2569
 4099SOL    HW223934   1.033   3.006   6.810  0.0250  0.8523  0.3951
 4100SOL     OW23935   3.944   3.718   4.793 -0.0371  0.2113  0.1342
 4100SOL    HW123936   3.920   3.674   4.711 -0.7782 -1.3613  1.1961
 4100SOL    HW223937   4.034   3.745   4.771 -0.2244  0.8992  0.2113
 4101SOL     OW23938   3.910   4.138   5.080  0.6442  0.1408 -0.2791
 4101SOL    HW123939   3.899   4.067   5.017 -0.6451 -1.2524  1.5003
 4101SOL    HW223940   3.846   4.106   5.144 -1.4385  0.3444 -2.2589
 4102SOL     OW23941   2.302   2.989   2.129 -0.0695 -0.1668 -0.0943
 4102SOL    HW123942   2.238   2.932   2.171  0.7780 -1.0098  0.0448
 4102SOL    HW223943   2.385   2.947   2.151 -0.8003 -2.2032 -1.2072
 4103SOL     OW23944   3.399   2.502   0.221  0.4386 -0.1564 -0.3255
 4103SOL    HW123945   3.460   2.495   0.294  1.4297  3.7496 -0.7326
 4103SOL    HW223946   3.365   2.588   0.246 -0.5209 -0.4108 -0.7791
 4104SOL     OW23947   3.255   2.274   4.235 -0.1994  0.2854  0.0214
 4104SOL    HW123948   3.314   2.280   4.160  0.8469  1.1997  0.9088
 4104SOL    HW223949   3.187   2.334   4.204 -1.2836 -1.1201 -0.3002
 4105SOL     OW23950   0.067   3.240   5.947  0.2866 -0.0980  0.1684
 4105SOL    HW123951   0.085   3.147   5.960  2.8634  0.5298  1.1271
 4105SOL    HW223952   4.715   3.221   5.930  0.0477  1.6206 -0.5185
 4106SOL     OW23953   0.441   1.864   7.219 -0.2989 -0.6612 -0.3637
 4106SOL    HW123954   0.397   1.884   7.137  2.1236  1.6069 -1.0744
 4106SOL    HW223955   0.404   1.934   7.273 -0.3745 -1.2339  0.3434
 4107SOL     OW23956   3.732   4.596   5.150  0.3193  0.2569  0.5433
 4107SOL    HW123957   3.705   4.511   5.113  2.5335  0.8148 -2.3220
 4107SOL    HW223958   3.730   4.652   5.072  1.2546 -1.3386 -0.6309
 4108SOL     OW23959   0.398   3.416   8.162 -0.2156  0.1371 -0.2077
 4108SOL    HW123960   0.327   3.422   8.098 -1.0291  2.9054  0.9813
 4108SOL    HW223961   0.469   3.460   8.116  0.4937 -1.7846 -0.9530
 4109SOL     OW23962   1.394   2.486   5.523 -0.1256  0.0535  0.4599
 4109SOL    HW123963   1.489   2.483   5.533  0.2568 -0.8921 -3.5428
 4109SOL    HW223964   1.365   2.576   5.505 -1.9418 -0.1468  2.2943
 4110SOL     OW23965   1.320   2.134   5.731  0.5725  0.1166 -0.0172
 4110SOL    HW123966   1.300   2.070   5.799  0.5642  0.4973  0.3416
 4110SOL    HW223967   1.413   2.156   5.744  0.0488  1.3197  1.6561
 4111SOL     OW23968   4.121   0.209   3.010  0.7483 -0.4142 -0.3508
 4111SOL    HW123969   4.093   0.223   2.920  1.5053 -0.3333 -0.5769
 4111SOL    HW223970   4.135   0.114   3.009  1.8671 -0.2495 -0.7352
 4112SOL     OW23971   3.164   2.384   6.754 -0.4838  0.6107  0.5359
 4112SOL    HW123972   3.123   2.325   6.690 -1.6470  0.9804  0.9327
 4112SOL    HW223973   3.253   2.349   6.755 -0.4588  0.5425 -2.9369
 4113SOL     OW23974   0.992   2.585  12.604 -0.7540  0.7092 -0.9947
 4113SOL    HW123975   1.051   2.544  12.541  1.5980 -1.6185  2.7594
 4113SOL    HW223976   1.031   2.671  12.589 -2.4471  1.6236 -0.1976
 4114SOL     OW23977   1.879   4.709   2.150  0.6362 -0.1050  0.4606
 4114SOL    HW123978   1.832   4.639   2.193 -1.8588 -0.6792 -3.2083
 4114SOL    HW223979   1.804   0.028   2.152 -0.8675 -2.1569  2.6905
 4115SOL     OW23980   1.140   3.408   3.868  0.0841  0.5808  0.1593
 4115SOL    HW123981   1.071   3.409   3.934  0.9884 -1.9900  1.1390
 4115SOL    HW223982   1.219   3.400   3.923 -0.1227 -1.7039  0.1367
 4116SOL     OW23983   0.067   3.507  12.746  0.0313  0.0672  0.4058
 4116SOL    HW123984   0.106   3.428  12.708 -1.9935 -0.0221 -1.4641
 4116SOL    HW223985   0.115   3.574  12.697  1.7131 -0.1043  1.8422
 4117SOL     OW23986   2.603   2.381   2.776  0.3770 -0.0620 -0.1601
 4117SOL    HW123987   2.558   2.458   2.741 -0.4330 -1.4798 -2.2548
 4117SOL    HW223988   2.601   2.309   2.712 -4.1492 -1.7151  1.8216
 4118SOL     OW23989   1.203   2.591   6.615  0.3161 -0.2008 -0.2585
 4118SOL    HW123990   1.143   2.582   6.542 -0.7785 -0.2808  0.6511
 4118SOL    HW223991   1.186   2.683   6.635 -1.9107 -0.1510 -2.4141
 4119SOL     OW23992   2.115   1.012   3.712 -0.1316  0.5298 -0.3355
 4119SOL    HW123993   2.083   1.062   3.637  0.6205 -1.5062 -2.0154
 4119SOL    HW223994   2.210   1.012   3.706 -0.0484  1.2651  0.9518
 4120SOL     OW23995   3.706   4.660   1.227  0.0472  0.1245 -0.2432
 4120SOL    HW123996   3.641   4.633   1.163 -0.4676  2.1268 -0.5654
 4120SOL    HW223997   3.757   4.579   1.234  1.4447  1.1314  1.2688
 4121SOL     OW23998   0.360   2.959   2.248 -0.2902  0.0223 -0.0999
 4121SOL    HW123999   0.433   2.975   2.308 -1.5054 -2.6405  2.1227
 4121SOL    HW224000   0.405   2.897   2.190 -0.5584 -0.2568 -0.0101
 4122SOL     OW24001   4.426   2.139  13.118  0.4612  0.2242 -0.6678
 4122SOL    HW124002   4.334   2.113  13.117  0.2556  0.9094  0.8200
 4122SOL    HW224003   4.464   2.075  13.177 -0.0087  1.4650  0.9971
 4123SOL     OW24004   3.756   3.890   8.527  0.3879  0.1527  0.3112
 4123SOL    HW124005   3.749   3.901   8.432 -0.5032 -2.2263  0.0976
 4123SOL    HW224006   3.812   3.813   8.535  1.3193  0.8780  0.6519
 4124SOL     OW24007   4.523   0.157   3.915 -0.2162  0.0736  0.5905
 4124SOL    HW124008   4.523   0.219   3.843  0.1952 -0.5073  0.0885
 4124SOL    HW224009   4.430   0.156   3.934 -0.4711 -0.1365 -0.6629
 4125SOL     OW24010   3.916   3.199   4.647  0.5090  0.2730  0.1110
 4125SOL    HW124011   3.955   3.145   4.579  0.7287 -0.2924  0.6881
 4125SOL    HW224012   3.907   3.278   4.595  1.8481  0.4362  0.1205
 4126SOL     OW24013   2.924   0.643   4.999  0.5579  0.1232  0.4520
 4126SOL    HW124014   2.938   0.727   5.042  0.7769  1.0483 -1.4743
 4126SOL    HW224015   2.997   0.586   5.025 -0.1401 -1.1738 -0.4288
 4127SOL     OW24016   2.749   2.473  15.303  0.3981  0.2016 -0.3219
 4127SOL    HW124017   2.767   2.516  15.387 -1.5675  2.9742 -1.3056
 4127SOL    HW224018   2.655   2.481  15.288  0.5553  0.8221 -0.9778
 4128SOL     OW24019   1.460   2.891   8.146 -0.4848 -0.6236  0.0965
 4128SOL    HW124020   1.372   2.929   8.152  0.1805  0.7055  1.4032
 4128SOL    HW224021   1.455   2.843   8.063  0.8429 -0.4064 -0.1114
 4129SOL     OW24022   3.726   0.290  15.860  0.4001  0.4846  0.3353
 4129SOL    HW124023   3.639   0.256  15.883  1.9433 -3.3779  0.5439
 4129SOL    HW224024   3.782   0.241  15.920 -1.0423 -0.2554  1.0727
 4130SOL     OW24025   3.725   2.536   2.395  0.4817 -0.3000  0.1477
 4130SOL    HW124026   3.673   2.617   2.397  0.7582 -0.1657  2.3219
 4130SOL    HW224027   3.681   2.494   2.469  1.4071  0.1509  0.9640
 4131SOL     OW24028   4.151   0.488   5.440 -0.0797 -0.1475 -0.1446
 4131SOL    HW124029   4.082   0.490   5.375  0.5078  0.0797 -0.7620
 4131SOL    HW224030   4.191   0.574   5.425 -1.6653  0.2764 -1.8640
 4132SOL     OW24031   0.776   4.570   2.863  0.3443 -0.6835 -0.2043
 4132SOL    HW124032   0.805   4.646   2.813 -0.1344  0.0799  0.6785
 4132SOL    HW224033   0.814   4.498   2.814 -0.0368 -0.0000 -1.4904
 4133SOL     OW24034   4.655   4.498   6.830 -0.0017  0.3121  0.1392
 4133SOL    HW124035   4.657   4.452   6.747  0.8887  0.3975  0.1130
 4133SOL    HW224036   4.698   4.577   6.797  2.0950  0.3392  2.9183
 4134SOL     OW24037   4.358   4.540   3.947 -0.2899 -0.5569 -0.4793
 4134SOL    HW124038   4.297   4.600   3.905  0.1352  0.0227 -0.2760
 4134SOL    HW224039   4.344   4.559   4.040  1.1181  1.0961 -0.5947
 4135SOL     OW24040   2.412   3.302   2.970 -0.0070 -0.0638  0.2827
 4135SOL    HW124041   2.381   3.337   3.053  3.4699  2.2289  0.6100
 4135SOL    HW224042   2.381   3.212   2.980  0.0128 -0.0469  0.4924
 4136SOL     OW24043   4.279   0.017   8.785  0.0964  0.0458  0.1049
 4136SOL    HW124044   4.187   4.731   8.780  0.0780  0.0076  0.6295
 4136SOL    HW224045   4.267   0.079   8.857  0.3951  1.8344 -1.3611
 4137SOL     OW24046   1.630   1.296   8.325  0.3713  0.1534  0.1568
 4137SOL    HW124047   1.606   1.257   8.409  1.2937 -1.0432 -0.1340
 4137SOL    HW224048   1.710   1.343   8.347  0.9228 -0.8634  0.3439
 4138SOL     OW24049   4.133   4.018   4.014 -0.3361  0.0364  0.0978
 4138SOL    HW124050   4.113   4.053   4.100 -0.5812 -3.4236  1.4573
 4138SOL    HW224051   4.224   3.994   4.027 -0.7693 -0.9554  1.3311
 4139SOL     OW24052   0.666   3.939   3.256 -0.1498  0.7621  0.1676
 4139SOL    HW124053   0.638   4.018   3.302  0.4031  0.6099  0.7654
 4139SOL    HW224054   0.658   3.964   3.164 -0.2996  0.8685  0.2090
 4140SOL     OW24055   4.626   4.385   5.270  0.0901 -0.1170 -0.5123
 4140SOL    HW124056   4.543   4.430   5.257 -0.5536 -0.9258  0.8875
 4140SOL    HW224057   4.660   4.452   5.328  0.2823 -0.1621 -0.5722
 4141SOL     OW24058   1.189   3.109  15.860 -0.3037  0.2146  0.1645
 4141SOL    HW124059   1.210   3.028  15.814 -1.4771  0.0455 -0.0863
 4141SOL    HW224060   1.167   3.168  15.789  1.7180 -0.2311 -0.8102
 4142SOL     OW24061   0.366   2.107   7.740  0.4700  0.2881 -0.0472
 4142SOL    HW124062   0.305   2.062   7.798 -0.4112  2.3122  0.6312
 4142SOL    HW224063   0.323   2.192   7.733 -0.8849 -0.4299 -0.2931
 4143SOL     OW24064   2.231   2.057   7.530 -0.1086  0.2413  0.3331
 4143SOL    HW124065   2.260   2.090   7.615 -0.7656 -1.7010  1.3264
 4143SOL    HW224066   2.216   1.962   7.533  1.9043 -0.0094  2.6154
 4144SOL     OW24067   4.011   0.695   7.065  0.1061 -0.0958  0.3186
 4144SOL    HW124068   4.064   0.753   7.011 -0.7394  1.4539  1.1446
 4144SOL    HW224069   4.046   0.710   7.152  0.0019 -1.2971  0.5687
 4145SOL     OW24070   3.016   0.371   1.737 -0.1218 -0.3240 -0.5593
 4145SOL    HW124071   2.921   0.381   1.726 -0.5248 -2.2773  1.0886
 4145SOL    HW224072   3.035   0.277   1.729  0.1223 -0.3629  0.4343
 4146SOL     OW24073   4.602   3.790   1.476  0.3793  0.5015 -0.1294
 4146SOL    HW124074   4.564   3.715   1.522 -0.4284  0.4972 -0.8153
 4146SOL    HW224075   4.693   3.761   1.490  0.2505  0.0026 -0.3151
 4147SOL     OW24076   3.138   0.330  12.236 -0.0520 -0.0377 -0.4632
 4147SOL    HW124077   3.085   0.392  12.285  0.8068  0.1657  0.2201
 4147SOL    HW224078   3.111   0.248  12.277  1.8843  0.5836  2.0446
 4148SOL     OW24079   1.042   1.128   4.146 -0.2644 -0.6888  0.2995
 4148SOL    HW124080   1.085   1.067   4.205  0.7033 -0.8624 -0.5717
 4148SOL    HW224081   1.083   1.209   4.177 -0.2031 -0.2398 -0.9236
 4149SOL     OW24082   0.261   3.521   9.864 -0.5070 -0.3754 -0.1825
 4149SOL    HW124083   0.256   3.570   9.782 -0.0605  0.5380  0.3363
 4149SOL    HW224084   0.191   3.544   9.925 -1.3664 -0.2606 -1.2038
 4150SOL     OW24085   0.607   4.306  11.784  0.2943 -0.6677 -0.3132
 4150SOL    HW124086   0.512   4.305  11.771  0.2697  2.1091 -0.3790
 4150SOL    HW224087   0.615   4.228  11.839 -0.8908  0.8877  2.0244
 4151SOL     OW24088   3.730   0.121  10.899  0.1880  0.0138  0.0406
 4151SOL    HW124089   3.762   0.198  10.852 -0.0862 -0.2791 -0.6297
 4151SOL    HW224090   3.804   0.060  10.904  0.3976  0.1999 -0.7920
 4152SOL     OW24091   3.875   1.971   2.138  0.0548 -0.0651 -0.5582
 4152SOL    HW124092   3.817   2.047   2.133  0.7560  0.5192  0.1570
 4152SOL    HW224093   3.813   1.899   2.149  0.2018 -0.1307 -0.1660
 4153SOL     OW24094   2.280   0.868  15.480  0.3181 -0.0717 -0.0247
 4153SOL    HW124095   2.313   0.781  15.504  0.6509  0.4430  1.3887
 4153SOL    HW224096   2.187   0.845  15.485 -0.1786  1.5219 -1.7559
 4154SOL     OW24097   4.044   3.149   7.024  0.0600 -0.5699 -0.3649
 4154SOL    HW124098   4.113   3.084   7.026 -1.6950 -2.3937  0.5872
 4154SOL    HW224099   4.086   3.203   7.091  0.2234 -1.1877  0.0237
 4155SOL     OW24100   3.338   0.323   7.965  0.5379 -0.2266 -0.0863
 4155SOL    HW124101   3.422   0.347   8.004 -0.0015  0.5046  0.6229
 4155SOL    HW224102   3.334   0.393   7.899  3.3912  0.6362  0.6626
 4156SOL     OW24103   1.742   0.749   3.038  0.0486  0.7479 -0.1432
 4156SOL    HW124104   1.652   0.777   3.050  0.5743  2.3515  0.0024
 4156SOL    HW224105   1.761   0.772   2.947  0.7639 -1.0009 -0.4340
 4157SOL     OW24106   0.792   1.594   8.120 -0.1574 -0.1351  0.2768
 4157SOL    HW124107   0.764   1.575   8.031  0.2929  1.2890 -0.1753
 4157SOL    HW224108   0.723   1.563   8.179 -1.4972  2.3877  0.0270
 4158SOL     OW24109   0.646   0.877   6.243  0.1630  0.0653 -0.1841
 4158SOL    HW124110   0.671   0.811   6.178 -0.4344 -0.4786  0.1336
 4158SOL    HW224111   0.650   0.953   6.186  1.4726 -0.1400 -0.3468
 4159SOL     OW24112   2.818   1.359  16.370  0.0204  0.1789 -0.1073
 4159SOL    HW124113   2.743   1.359  16.430  1.1551 -2.3774  1.3436
 4159SOL    HW224114   2.817   1.450  16.340 -1.3118  0.4348  0.7062
 4160SOL     OW24115   0.674   3.595  15.000  0.1894  0.1090 -0.1049
 4160SOL    HW124116   0.651   3.688  14.995 -0.5252 -0.0348  0.5802
 4160SOL    HW224117   0.680   3.565  14.909  1.3315 -1.1934  0.4024
 4161SOL     OW24118   0.749   4.606  10.437 -0.7744  0.0027 -0.3644
 4161SOL    HW124119   0.809   4.549  10.484  1.0206  1.9632 -0.2679
 4161SOL    HW224120   0.769   4.592  10.344 -1.0506  1.1459 -0.5979
 4162SOL     OW24121   2.534   3.070   4.381 -0.1610  0.3121 -0.3100
 4162SOL    HW124122   2.603   3.132   4.357  0.6262  0.1778  1.5872
 4162SOL    HW224123   2.457   3.124   4.364  0.2467  0.5326 -1.4776
 4163SOL     OW24124   1.206   2.767   1.208  1.0622  0.1170  1.1575
 4163SOL    HW124125   1.132   2.721   1.246  0.0808  0.6137 -0.1500
 4163SOL    HW224126   1.172   2.758   1.119 -1.9972  2.9767  2.0145
 4164SOL     OW24127   3.349   1.184   6.755 -0.3592  1.0653  0.4448
 4164SOL    HW124128   3.392   1.267   6.779 -1.1316  0.6700  3.2205
 4164SOL    HW224129   3.418   1.122   6.778 -0.1847  0.0620 -2.7828
 4165SOL     OW24130   1.092   0.089  15.459  0.2910 -0.0143  0.0797
 4165SOL    HW124131   1.020   0.068  15.518  0.4877 -0.8238  0.0212
 4165SOL    HW224132   1.173   0.062  15.502 -0.5497 -0.5995  1.3068
 4166SOL     OW24133   3.778   4.514   4.746  0.2411 -0.8280  0.5642
 4166SOL    HW124134   3.830   4.439   4.776  0.4822 -0.7497  0.3442
 4166SOL    HW224135   3.838   4.586   4.726 -0.3721 -1.1609 -2.4344
 4167SOL     OW24136   4.620   3.021   4.723 -0.4227  0.0500  0.2774
 4167SOL    HW124137   4.599   3.110   4.749 -0.7558  0.1017 -0.1660
 4167SOL    HW224138   4.713   3.041   4.713  0.3234 -3.3029  0.4508
 4168SOL     OW24139   1.921   3.857  10.987 -0.1463  0.3750  0.1846
 4168SOL    HW124140   1.986   3.814  11.043 -1.0641 -0.0205  0.9558
 4168SOL    HW224141   1.934   3.818  10.901 -0.5662 -2.5921  1.4620
 4169SOL     OW24142   4.497   0.602   5.740 -0.1188  0.5004 -0.1890
 4169SOL    HW124143   4.439   0.671   5.774  1.1916  0.8693  1.2961
 4169SOL    HW224144   4.580   0.646   5.759 -0.8650  0.8095  2.3904
 4170SOL     OW24145   0.708   4.736   0.504  0.2449  1.2084 -0.6629
 4170SOL    HW124146   0.726   0.085   0.535 -2.1330  1.6936 -0.6580
 4170SOL    HW224147   0.724   4.681   0.580 -1.7049  0.1726 -1.0017
 4171SOL     OW24148   3.026   4.469   3.470  0.2619  0.2171  0.7047
 4171SOL    HW124149   2.947   4.425   3.502  0.1959  1.1233  1.7689
 4171SOL    HW224150   2.993   4.559   3.469  2.0106  0.8334 -0.9699
 4172SOL     OW24151   4.013   0.367   6.578 -0.8082 -0.2831  0.7208
 4172SOL    HW124152   3.967   0.382   6.661  1.8437  0.5297  2.0628
 4172SOL    HW224153   4.050   0.456   6.577 -1.7569  0.0914 -0.6117
 4173SOL     OW24154   4.355   0.493  11.040  0.0333 -0.3841  0.4556
 4173SOL    HW124155   4.340   0.461  11.129 -3.5789  1.2061  0.3973
 4173SOL    HW224156   4.447   0.518  11.049  0.7494 -2.7344 -0.1978
 4174SOL     OW24157   4.528   1.965  11.608  0.4549 -0.2727  0.1606
 4174SOL    HW124158   4.600   2.026  11.593 -0.6976  1.3418  1.0973
 4174SOL    HW224159   4.500   1.999  11.693 -2.6682 -1.6891 -0.2919
 4175SOL     OW24160   1.946   4.263   8.256 -0.2368 -0.3323 -0.0975
 4175SOL    HW124161   1.875   4.256   8.321  0.4237  0.6649  0.7295
 4175SOL    HW224162   1.993   4.339   8.291  0.3517 -0.5458 -0.4388
 4176SOL     OW24163   0.720   4.102  13.783  0.0993  0.5867  0.8438
 4176SOL    HW124164   0.803   4.149  13.784  0.4183  0.0931 -1.2568
 4176SOL    HW224165   0.746   4.010  13.775  0.3853  0.6744  0.7736
 4177SOL     OW24166   1.195   1.963   1.764  0.7803  0.1023  0.6483
 4177SOL    HW124167   1.242   1.913   1.697  1.3982  0.1839  1.0205
 4177SOL    HW224168   1.264   1.983   1.827  0.0491 -2.9581  2.4187
 4178SOL     OW24169   3.339   4.534   0.896 -0.1456  0.3389 -0.0259
 4178SOL    HW124170   3.334   4.439   0.883 -1.7979  0.6153 -1.4449
 4178SOL    HW224171   3.325   4.562   0.805  0.2025  1.8067  0.3741
 4179SOL     OW24172   1.234   0.554   0.565  0.6591  0.4405  0.1803
 4179SOL    HW124173   1.276   0.491   0.623  0.4159 -0.8740 -1.0808
 4179SOL    HW224174   1.171   0.496   0.523 -0.0424 -0.5763  2.6383
 4180SOL     OW24175   4.022   2.892   9.161  0.0791 -0.0381  0.2791
 4180SOL    HW124176   4.089   2.846   9.211  0.7845  0.8945  0.1984
 4180SOL    HW224177   3.999   2.837   9.087 -0.1288  0.6992 -0.2095
 4181SOL     OW24178   3.021   4.311   7.974  0.0175 -0.2907  0.7142
 4181SOL    HW124179   3.080   4.376   8.013 -1.3487  0.9497  0.7180
 4181SOL    HW224180   3.053   4.309   7.884  0.2458  0.3692  0.7802
 4182SOL     OW24181   1.197   0.400   8.980 -0.5061 -0.1279 -0.2560
 4182SOL    HW124182   1.185   0.441   8.895 -2.0611  0.2684  0.1483
 4182SOL    HW224183   1.209   0.317   8.936  2.4968 -0.2366  0.7675
 4183SOL     OW24184   1.686   2.865  11.638 -0.1721 -0.4597  0.5072
 4183SOL    HW124185   1.620   2.802  11.609 -1.6463  1.0352  0.6187
 4183SOL    HW224186   1.746   2.810  11.689  0.9991 -0.8131 -1.2520
 4184SOL     OW24187   3.881   0.447   3.158  0.0291  0.4137 -0.7705
 4184SOL    HW124188   3.923   0.443   3.072  0.1124 -0.0752 -0.7116
 4184SOL    HW224189   3.809   0.385   3.147  0.6448 -0.3858 -0.3947
 4185SOL     OW24190   3.781   2.109   1.856 -0.1735  0.7266  0.4567
 4185SOL    HW124191   3.774   2.014   1.869  4.4043  0.2129 -1.0118
 4185SOL    HW224192   3.748   2.121   1.767 -0.1182  0.9379  0.4664
 4186SOL     OW24193   3.166   1.604   2.213  0.0931 -0.0287  0.7428
 4186SOL    HW124194   3.110   1.671   2.252 -2.5531 -0.7052 -1.8584
 4186SOL    HW224195   3.098   1.577   2.150 -0.7700 -0.0438  1.6883
 4187SOL     OW24196   2.586   1.302   0.667 -0.2779 -0.1034  0.2854
 4187SOL    HW124197   2.613   1.394   0.661  0.9023 -0.2031  4.1413
 4187SOL    HW224198   2.561   1.286   0.758  1.1826 -0.6963  0.5786
 4188SOL     OW24199   1.511   3.711   1.238  0.0782 -0.4723  0.2239
 4188SOL    HW124200   1.418   3.700   1.259  0.5403 -1.3925  1.7923
 4188SOL    HW224201   1.547   3.756   1.314  0.0231 -0.8436  0.4686
 4189SOL     OW24202   0.063   0.360   6.135  0.0116  0.4522  0.2312
 4189SOL    HW124203   0.111   0.279   6.150  0.3526  0.3042 -1.6842
 4189SOL    HW224204   0.015   0.333   6.056 -1.9656  0.8678  1.2793
 4190SOL     OW24205   0.383   1.737   3.425  0.4419 -0.5078  0.1739
 4190SOL    HW124206   0.468   1.698   3.446  0.8648 -0.1863 -0.9017
 4190SOL    HW224207   0.332   1.751   3.504  1.7666  2.1747  0.5849
 4191SOL     OW24208   0.946   1.779  13.113 -0.1640 -0.1460 -0.0151
 4191SOL    HW124209   0.929   1.698  13.066 -0.9793 -0.2021  0.3790
 4191SOL    HW224210   0.859   1.805  13.145  0.1504  0.2194  0.5582
 4192SOL     OW24211   2.804   1.910  15.528  0.1389 -0.7929  0.2829
 4192SOL    HW124212   2.796   1.885  15.620 -0.9533  1.4731  0.8172
 4192SOL    HW224213   2.721   1.955  15.511  0.0667 -1.3241 -0.7500
 4193SOL     OW24214   4.076   0.834   8.584  0.8723 -0.6208  0.0121
 4193SOL    HW124215   4.064   0.876   8.499  0.1581 -0.0382  0.3945
 4193SOL    HW224216   4.151   0.880   8.622 -0.2167 -0.3561  1.8406
 4194SOL     OW24217   1.311   3.296   7.569  0.1771  0.3746  0.0415
 4194SOL    HW124218   1.300   3.202   7.554  0.5967  0.3886 -0.3478
 4194SOL    HW224219   1.284   3.303   7.660 -1.5641  0.9837 -0.5194
 4195SOL     OW24220   1.769   2.483   3.762 -0.0993 -0.0452  0.1114
 4195SOL    HW124221   1.783   2.536   3.840  0.6722  0.3156 -0.2739
 4195SOL    HW224222   1.677   2.461   3.775  0.1121  0.1695  1.9087
 4196SOL     OW24223   3.630   3.344  11.574  0.2112 -0.5081  0.3675
 4196SOL    HW124224   3.666   3.424  11.535  2.7900 -1.9659 -0.2776
 4196SOL    HW224225   3.544   3.374  11.602  0.9744  0.5543  1.6272
 4197SOL     OW24226   3.221   1.990   4.290  0.1511  0.0945  1.0865
 4197SOL    HW124227   3.232   2.079   4.256 -0.3449  0.2081  1.2358
 4197SOL    HW224228   3.307   1.950   4.273  0.2253  1.4440 -1.8335
 4198SOL     OW24229   4.187   2.655   2.141 -0.1724 -0.1501 -0.8387
 4198SOL    HW124230   4.134   2.715   2.193  0.4487 -1.4833  1.3212
 4198SOL    HW224231   4.214   2.591   2.207 -1.2018  1.1303  0.8056
 4199SOL     OW24232   1.536   1.383   5.873 -0.9537  0.1259  0.0106
 4199SOL    HW124233   1.469   1.373   5.806 -0.7978 -2.3946  0.2149
 4199SOL    HW224234   1.601   1.318   5.846  0.5662  1.8476 -0.4796
 4200SOL     OW24235   3.896   4.242   3.783  0.3813 -0.0724 -0.0668
 4200SOL    HW124236   3.875   4.335   3.780 -0.9564 -0.3216  1.4724
 4200SOL    HW224237   3.989   4.265   3.788  1.1925 -3.5435  0.8853
 4201SOL     OW24238   3.497   1.209   2.510 -0.2428  0.3274 -0.6112
 4201SOL    HW124239   3.584   1.178   2.484 -0.8563 -4.0426  2.3835
 4201SOL    HW224240   3.507   1.303   2.518  1.1804  0.1099  0.0949
 4202SOL     OW24241   0.000   4.321  15.741 -0.0331 -0.2578  0.3443
 4202SOL    HW124242   4.649   4.299  15.761  1.1133 -2.5303  3.0271
 4202SOL    HW224243   4.734   4.355  15.652 -0.5518  1.2817  0.9568
 4203SOL     OW24244   2.216   0.545   7.814  0.4116 -0.1095 -0.0832
 4203SOL    HW124245   2.272   0.621   7.833  0.8046 -0.4500  0.1325
 4203SOL    HW224246   2.150   0.587   7.759  0.6091  2.7795  1.9048
 4204SOL     OW24247   0.555   2.410   1.440 -0.0478  0.1364 -0.2773
 4204SOL    HW124248   0.504   2.334   1.471 -0.7140  0.0788 -1.4872
 4204SOL    HW224249   0.642   2.370   1.440 -0.1296 -0.0770  3.7243
 4205SOL     OW24250   0.302   3.826   1.368  0.4883  0.3863 -0.7156
 4205SOL    HW124251   0.261   3.844   1.452  0.2165  0.6079 -0.8964
 4205SOL    HW224252   0.313   3.731   1.362  2.5993  0.3904  2.7646
 4206SOL     OW24253   2.245   1.090   9.946 -0.5372  0.5164 -0.2273
 4206SOL    HW124254   2.287   1.152   9.885  0.2587  0.4746  0.2710
 4206SOL    HW224255   2.224   1.151  10.016  0.2858  0.8720 -0.2807
 4207SOL     OW24256   4.426   4.162   6.154 -0.2513  0.5808  0.3093
 4207SOL    HW124257   4.425   4.166   6.250  1.1407  2.8189  0.2383
 4207SOL    HW224258   4.335   4.144   6.132 -0.0755 -1.5160  1.3192
 4208SOL     OW24259   1.152   1.665   4.113 -0.9127 -0.0612  0.4578
 4208SOL    HW124260   1.183   1.753   4.094  2.5493 -0.9035  2.2705
 4208SOL    HW224261   1.219   1.605   4.080 -0.8582  1.0318 -1.4399
 4209SOL     OW24262   3.800   3.636   2.503  0.6291  0.5629 -0.3679
 4209SOL    HW124263   3.793   3.614   2.596  0.6624 -1.4998 -0.8523
 4209SOL    HW224264   3.866   3.584   2.457  0.1536 -0.4218  0.0640
 4210SOL     OW24265   0.878   0.968  16.886 -0.3764 -0.2854 -0.2187
 4210SOL    HW124266   0.872   1.006  16.798  3.1250  0.1692 -0.2356
 4210SOL    HW224267   0.910   1.045  16.933  3.1441 -2.0189  0.2447
 4211SOL     OW24268   1.791   4.012   7.585  0.0712 -0.3787  0.1374
 4211SOL    HW124269   1.851   3.991   7.656  0.9423 -0.3997 -0.6026
 4211SOL    HW224270   1.841   3.983   7.509 -2.8282 -1.3677 -1.4032
 4212SOL     OW24271   2.525   3.027   9.295  0.7385 -0.4325  0.2943
 4212SOL    HW124272   2.550   2.942   9.331 -0.8327 -0.3012  1.6928
 4212SOL    HW224273   2.605   3.073   9.270 -0.4002  1.7018  0.5627
 4213SOL     OW24274   4.278   1.806   6.744 -0.0154 -0.5537 -0.2199
 4213SOL    HW124275   4.251   1.792   6.653  0.5806 -4.9218  0.2576
 4213SOL    HW224276   4.372   1.807   6.723 -0.2448 -0.0180 -1.2108
 4214SOL     OW24277   0.952   3.047   2.798  0.4938 -0.3240 -0.0810
 4214SOL    HW124278   0.857   3.059   2.802  0.7227  1.2137  0.6321
 4214SOL    HW224279   0.979   3.123   2.850 -0.6534 -1.5562  2.3362
 4215SOL     OW24280   1.396   4.364  15.352 -0.1109 -0.1151  0.1650
 4215SOL    HW124281   1.417   4.455  15.327 -0.2422 -0.1541 -0.0880
 4215SOL    HW224282   1.312   4.358  15.307  1.0733  1.3582 -2.2507
 4216SOL     OW24283   1.422   0.705  17.357  0.1315 -0.2384 -0.6455
 4216SOL    HW124284   1.374   0.783  17.383 -0.7283 -1.7601  2.3416
 4216SOL    HW224285   1.477   0.683  17.431 -0.6355 -0.1134 -0.0380
 4217SOL     OW24286   1.766   0.460   8.793 -0.1989 -0.0016 -0.1193
 4217SOL    HW124287   1.820   0.444   8.871 -0.4494 -1.7621 -0.3290
 4217SOL    HW224288   1.735   0.550   8.803  0.4828  0.1678  0.5798
 4218SOL     OW24289   0.198   1.212   5.013  0.6489 -0.0067 -0.0216
 4218SOL    HW124290   0.158   1.276   4.954  3.7000  3.1395  1.2593
 4218SOL    HW224291   0.122   1.166   5.047  0.3428  0.2410 -0.3776
 4219SOL     OW24292   1.333   4.111   6.039  0.0765  0.6926  0.8516
 4219SOL    HW124293   1.408   4.164   6.012  0.0349  1.0641  1.4684
 4219SOL    HW224294   1.262   4.136   5.979 -0.1118  1.6326  1.4829
 4220SOL     OW24295   3.221   4.455   1.412  0.0242 -0.2321  0.0732
 4220SOL    HW124296   3.228   4.540   1.369  0.0315 -1.6427 -2.7223
 4220SOL    HW224297   3.292   4.409   1.367  2.2481  2.7011  0.5697
 4221SOL     OW24298   4.137   2.024  17.322 -0.1056 -0.0362  0.5056
 4221SOL    HW124299   4.202   2.000  17.256 -2.2888 -2.2708 -0.8373
 4221SOL    HW224300   4.056   1.994  17.282  0.2311  0.6411 -0.7007
 4222SOL     OW24301   2.639   2.420   6.870 -1.2338  0.2600  0.2021
 4222SOL    HW124302   2.612   2.439   6.780 -0.7928  0.7700  0.1755
 4222SOL    HW224303   2.718   2.472   6.883 -1.2089  0.6571 -1.5326
 4223SOL     OW24304   3.995   0.610   7.871 -0.3282  0.0720  0.1541
 4223SOL    HW124305   4.071   0.591   7.925 -0.0823  0.2256 -0.1357
 4223SOL    HW224306   3.959   0.680   7.926 -1.1803 -0.1355 -0.1355
 4224SOL     OW24307   3.539   0.384  14.636 -0.1142  0.1179  0.3304
 4224SOL    HW124308   3.484   0.307  14.620  0.2818 -0.1918  0.4604
 4224SOL    HW224309   3.493   0.419  14.712 -1.6448 -0.0525 -0.5017
 4225SOL     OW24310   3.263   3.146   4.057  1.1399  0.0695  0.0185
 4225SOL    HW124311   3.303   3.230   4.033 -1.2412  1.2073  0.0223
 4225SOL    HW224312   3.342   3.092   4.055  1.6744  0.8647 -0.5448
 4226SOL     OW24313   4.710   4.029   6.826  0.7168 -0.3677 -0.1965
 4226SOL    HW124314   0.042   4.066   6.877  0.9931 -0.3865 -0.5731
 4226SOL    HW224315   4.728   3.935   6.824  1.0331 -0.3306  0.6840
 4227SOL     OW24316   3.106   0.097   1.857  0.3150  0.8771 -0.2460
 4227SOL    HW124317   3.139   0.047   1.783  0.3892  0.5844 -0.0137
 4227SOL    HW224318   3.180   0.127   1.909 -0.3990  1.0704  0.6738
 4228SOL     OW24319   2.094   3.483   1.860  0.3855 -0.3203 -0.1215
 4228SOL    HW124320   2.146   3.501   1.782 -1.7344  1.4842 -1.1403
 4228SOL    HW224321   2.026   3.551   1.858  0.7012 -0.0088 -0.3644
 4229SOL     OW24322   2.405   2.858   3.737  0.3879 -0.0520 -0.0697
 4229SOL    HW124323   2.336   2.799   3.768  0.5646  0.0469  0.5118
 4229SOL    HW224324   2.454   2.854   3.819 -2.2915  1.5614  1.5952
 4230SOL     OW24325   2.678   3.103   3.245 -0.1392 -0.1703 -0.0181
 4230SOL    HW124326   2.618   3.035   3.275  0.7339 -1.5935 -1.4857
 4230SOL    HW224327   2.635   3.180   3.281 -3.2953 -1.7785 -0.3872
 4231SOL     OW24328   1.733   0.987  10.543  0.3245  0.3933 -0.4608
 4231SOL    HW124329   1.771   1.074  10.531 -1.6269  1.1764 -0.9811
 4231SOL    HW224330   1.681   1.000  10.622  3.1471 -0.7487  1.5713
 4232SOL     OW24331   4.526   2.986   5.723  0.1019 -0.2909  0.0990
 4232SOL    HW124332   4.510   2.990   5.629 -0.2185 -2.9632  0.0441
 4232SOL    HW224333   4.614   3.024   5.732 -0.3658  0.6420  0.7988
 4233SOL     OW24334   4.446   3.865   8.254 -0.5858  0.0829  0.4762
 4233SOL    HW124335   4.414   3.778   8.233  1.2751 -0.0407 -1.8138
 4233SOL    HW224336   4.454   3.896   8.164 -0.7633  1.0130  0.7760
 4234SOL     OW24337   3.117   1.777   8.617  0.5031 -0.3788  0.4645
 4234SOL    HW124338   3.101   1.798   8.525  1.0318  2.6947  1.0713
 4234SOL    HW224339   3.033   1.732   8.628 -0.6344  1.2317 -1.6136
 4235SOL     OW24340   3.885   4.452   3.181 -0.5468  0.6743  0.2979
 4235SOL    HW124341   3.804   4.402   3.194 -0.0899 -0.5555 -1.6773
 4235SOL    HW224342   3.947   4.384   3.154 -2.6655 -1.6455  1.1935
 4236SOL     OW24343   4.587   4.105   5.248  0.2729 -0.1844  0.3157
 4236SOL    HW124344   4.503   4.126   5.208  0.2092 -1.9014 -0.4562
 4236SOL    HW224345   4.641   4.180   5.223 -0.7520  0.7952  1.0842
 4237SOL     OW24346   0.792   0.350   4.690 -0.4960 -0.6478  0.0202
 4237SOL    HW124347   0.714   0.356   4.635 -1.4713 -1.9112  1.2574
 4237SOL    HW224348   0.805   0.256   4.694  0.3305 -0.4535  1.9319
 4238SOL     OW24349   1.692   3.815   6.051 -0.0688 -0.0364  0.2199
 4238SOL    HW124350   1.663   3.725   6.034  0.1053  0.2288 -1.4043
 4238SOL    HW224351   1.609   3.859   6.070 -0.4810 -0.5803 -0.3428
 4239SOL     OW24352   1.764   2.168   7.460  0.4934 -0.1782 -0.6989
 4239SOL    HW124353   1.819   2.213   7.524 -0.8387 -0.5122  0.6589
 4239SOL    HW224354   1.810   2.088   7.434 -1.0323 -1.5233  0.7662
 4240SOL     OW24355   1.493   2.963   7.104  0.2219  0.0238 -0.2845
 4240SOL    HW124356   1.399   2.955   7.087 -0.1375  0.2239  1.6720
 4240SOL    HW224357   1.505   3.054   7.077 -2.1886  0.3124 -0.3850
 4241SOL     OW24358   0.385   2.877   1.582 -0.0018  0.0695  0.1060
 4241SOL    HW124359   0.447   2.803   1.579 -0.6740 -0.4892  0.0009
 4241SOL    HW224360   0.430   2.928   1.515  2.5898 -0.3617  1.4832
 4242SOL     OW24361   1.036   0.059   5.090  0.3169  0.5009 -0.3307
 4242SOL    HW124362   0.963   0.115   5.118  0.8688  0.8630  0.3959
 4242SOL    HW224363   1.017   4.717   5.134 -0.8851  0.6477 -0.5710
 4243SOL     OW24364   3.410   3.581  13.903  0.2920 -0.2664 -0.1537
 4243SOL    HW124365   3.373   3.648  13.846  0.3027 -1.1395 -1.1805
 4243SOL    HW224366   3.473   3.549  13.839  0.7436 -0.4625  0.3904
 4244SOL     OW24367   1.841   2.958  15.847  0.0743 -0.1539  0.1215
 4244SOL    HW124368   1.815   2.905  15.772 -0.1555 -1.0315  0.8296
 4244SOL    HW224369   1.934   2.974  15.833 -0.3386  1.4131 -0.9198
 4245SOL     OW24370   1.712   3.437   3.407  0.6103 -0.0193  0.5416
 4245SOL    HW124371   1.783   3.466   3.464  0.3475 -0.6085  1.1726
 4245SOL    HW224372   1.766   3.394   3.340 -2.4584 -1.2481 -1.1500
 4246SOL     OW24373   0.612   1.190  12.003  0.2033 -0.1491  0.1744
 4246SOL    HW124374   0.628   1.210  11.911 -1.9972 -0.9295 -0.3899
 4246SOL    HW224375   0.598   1.096  11.995  0.5173 -0.1453 -0.4152
 4247SOL     OW24376   3.924   2.042   6.846  0.0913  0.7508  0.1470
 4247SOL    HW124377   3.955   2.057   6.935 -1.0988  0.9736  0.5222
 4247SOL    HW224378   3.908   2.134   6.825  2.7806  1.1141 -0.3584
 4248SOL     OW24379   0.265   0.107  14.821  0.1615  0.3298  0.6774
 4248SOL    HW124380   0.191   0.049  14.836 -0.4915 -0.0833 -4.2553
 4248SOL    HW224381   0.291   0.125  14.911  2.4222 -1.2145  0.3260
 4249SOL     OW24382   4.627   4.075  10.054 -0.1409  0.4935  0.4392
 4249SOL    HW124383   4.577   4.152  10.028 -0.4511 -0.0471 -0.5476
 4249SOL    HW224384   4.584   3.999  10.016  2.3720 -0.9425  0.4378
 4250SOL     OW24385   4.411   0.836   8.390  0.4597  0.0939  0.3026
 4250SOL    HW124386   4.356   0.911   8.369 -1.2450 -0.5639  2.3803
 4250SOL    HW224387   4.491   0.883   8.411  1.0326 -0.2174 -1.1746
 4251SOL     OW24388   2.708   4.291  11.852  0.5791 -0.7017  0.6855
 4251SOL    HW124389   2.727   4.361  11.790  0.7354  0.1934  1.7284
 4251SOL    HW224390   2.776   4.229  11.823 -0.3798 -1.2119 -0.4708
 4252SOL     OW24391   2.219   1.010  17.554 -0.8377  0.1563  0.4012
 4252SOL    HW124392   2.244   0.996  17.646  1.1972  2.1281  0.1335
 4252SOL    HW224393   2.152   1.076  17.566 -0.5428  0.4087  0.6722
 4253SOL     OW24394   1.281   0.547   5.394 -0.3740 -0.7652 -0.1419
 4253SOL    HW124395   1.313   0.617   5.451  0.7575 -1.0523 -0.4303
 4253SOL    HW224396   1.326   0.472   5.432 -1.8038 -1.0429  0.9916
 4254SOL     OW24397   2.238   3.890   4.539  0.5611 -0.0352  0.0088
 4254SOL    HW124398   2.207   3.851   4.620  4.3414 -0.9704  1.0188
 4254SOL    HW224399   2.155   3.907   4.495 -1.6601 -2.3378  3.3853
 4255SOL     OW24400   1.096   2.549   2.692 -0.2773  1.0650  0.1240
 4255SOL    HW124401   1.044   2.596   2.756 -2.6184 -1.4859  0.1207
 4255SOL    HW224402   1.182   2.559   2.733  1.4460 -0.4449 -3.0548
 4256SOL     OW24403   1.810   1.381   8.033 -0.6622  0.4700  0.5722
 4256SOL    HW124404   1.865   1.437   7.979  0.2572 -2.1776 -1.2085
 4256SOL    HW224405   1.840   1.305   7.983 -1.9179 -0.8264  1.7825
 4257SOL     OW24406   0.026   3.745   3.870 -0.4451 -0.2988 -0.2729
 4257SOL    HW124407   0.111   3.713   3.841 -0.1648  1.3845 -1.2984
 4257SOL    HW224408   0.026   3.836   3.841  0.4974  0.4458  2.0876
 4258SOL     OW24409   0.566   0.660   9.678 -0.1444 -0.1301 -0.4947
 4258SOL    HW124410   0.538   0.622   9.761  3.7227  0.3055  1.0198
 4258SOL    HW224411   0.628   0.592   9.651 -0.1598 -0.0657 -0.6967
 4259SOL     OW24412   2.797   2.901   9.618  0.5285  0.6549  0.0705
 4259SOL    HW124413   2.775   2.936   9.704  2.4409  1.8530  0.0821
 4259SOL    HW224414   2.785   2.977   9.560 -0.7825  1.4579  1.4179
 4260SOL     OW24415   0.709   1.691   5.684  0.3808  0.2557  0.1731
 4260SOL    HW124416   0.779   1.657   5.628  1.5943  1.1090  1.1717
 4260SOL    HW224417   0.722   1.781   5.652 -0.3554  1.4549  3.2912
 4261SOL     OW24418   0.786   0.059   4.720  0.0975  0.7294 -0.0163
 4261SOL    HW124419   0.724   0.005   4.771  2.2791 -0.7965  1.0160
 4261SOL    HW224420   0.862   0.002   4.711 -0.9974 -1.0423  1.7215
 4262SOL     OW24421   1.495   3.513   5.201  0.4936  0.0602  0.4249
 4262SOL    HW124422   1.458   3.566   5.272 -0.0529  0.7918 -0.4018
 4262SOL    HW224423   1.586   3.540   5.205  0.4064  0.4405 -0.2098
 4263SOL     OW24424   0.423   1.041   4.743  0.5121  0.2136 -0.0484
 4263SOL    HW124425   0.368   1.119   4.730 -0.9507 -0.8730 -0.3683
 4263SOL    HW224426   0.491   1.084   4.795  0.5574 -0.8452  0.7623
 4264SOL     OW24427   1.100   0.384   5.252 -0.3003  0.1697 -0.0461
 4264SOL    HW124428   1.151   0.304   5.266  0.1767  0.4723 -0.0670
 4264SOL    HW224429   1.147   0.444   5.309  0.0896  1.1911 -1.4518
 4265SOL     OW24430   1.520   2.385   3.536  0.9250 -0.2364  0.4852
 4265SOL    HW124431   1.528   2.405   3.630 -0.1511 -1.2551  0.7973
 4265SOL    HW224432   1.549   2.466   3.494 -0.6556  0.2689  0.3549
 4266SOL     OW24433   0.837   4.266  10.303 -0.1083 -0.2533  0.2801
 4266SOL    HW124434   0.918   4.311  10.283  0.3144 -0.3336  1.7966
 4266SOL    HW224435   0.815   4.293  10.392  2.5155  0.7268  0.6323
 4267SOL     OW24436   1.410   2.713  12.606 -0.5184 -1.1128 -0.3853
 4267SOL    HW124437   1.501   2.728  12.577 -1.4585 -0.8203 -3.1732
 4267SOL    HW224438   1.379   2.802  12.622 -0.4540 -1.5292  2.0169
 4268SOL     OW24439   3.375   2.231   3.302 -0.5526  0.2936 -0.1456
 4268SOL    HW124440   3.413   2.144   3.312 -1.0819 -0.2054 -2.6808
 4268SOL    HW224441   3.307   2.229   3.235  0.4862 -1.7824 -1.1232
 4269SOL     OW24442   1.585   4.456   9.803  0.1668 -0.0880 -0.3363
 4269SOL    HW124443   1.667   4.505   9.805  0.2146 -0.0989 -1.7663
 4269SOL    HW224444   1.606   4.389   9.737  1.5235  0.6520 -0.6717
 4270SOL     OW24445   0.890   2.420   2.023 -0.2116  0.2899  0.1875
 4270SOL    HW124446   0.803   2.396   2.055 -0.4096  0.5860 -0.1169
 4270SOL    HW224447   0.924   2.472   2.096 -1.1334 -1.2287  1.7041
 4271SOL     OW24448   0.991   1.299   3.408  0.1693 -0.2807  0.1474
 4271SOL    HW124449   1.042   1.340   3.339 -0.3593 -1.6357 -1.0628
 4271SOL    HW224450   1.010   1.209   3.382  2.4614  0.1085  0.5063
 4272SOL     OW24451   0.249   4.569  11.893  0.2063 -0.3207  0.5895
 4272SOL    HW124452   0.157   4.549  11.876  0.1812 -0.7025  1.2216
 4272SOL    HW224453   0.245   4.665  11.902 -0.8006 -0.2506 -0.4957
 4273SOL     OW24454   3.977   2.728   4.201  1.0029 -0.4635  0.1631
 4273SOL    HW124455   4.053   2.670   4.197  0.4809 -1.0498 -1.2711
 4273SOL    HW224456   3.930   2.701   4.123 -1.4479 -0.3481  1.5973
 4274SOL     OW24457   0.475   3.219  11.086 -0.1739 -0.0428  0.2876
 4274SOL    HW124458   0.462   3.244  11.178  0.8154  1.2356  0.0884
 4274SOL    HW224459   0.512   3.300  11.050 -0.6438 -0.0907 -0.2916
 4275SOL     OW24460   1.729   2.387   9.493 -0.8113 -0.3444 -0.0945
 4275SOL    HW124461   1.706   2.298   9.468 -0.7075 -0.4940  0.3361
 4275SOL    HW224462   1.661   2.403   9.558 -0.1997 -2.5253  1.0887
 4276SOL     OW24463   4.720   4.062   5.508 -0.1412  0.0301  0.4226
 4276SOL    HW124464   4.659   4.067   5.435  1.4313  1.4499 -0.7901
 4276SOL    HW224465   4.693   4.146   5.546  1.8064  2.0453 -2.6394
 4277SOL     OW24466   1.534   0.641   3.435 -0.1449 -0.0358  0.1169
 4277SOL    HW124467   1.495   0.685   3.359  3.0053 -0.1877 -1.5622
 4277SOL    HW224468   1.580   0.712   3.479  1.3808 -1.6023  1.0374
 4278SOL     OW24469   0.879   0.004  15.971 -0.3318 -0.0461  0.0295
 4278SOL    HW124470   0.967   4.718  16.000 -1.0934 -2.3517  0.2921
 4278SOL    HW224471   0.841   0.024  16.056 -1.0061  2.5908 -0.8806
 4279SOL     OW24472   2.707   0.482   6.739  0.0980 -0.2693 -0.0294
 4279SOL    HW124473   2.742   0.439   6.661 -0.1170 -0.7388  0.1376
 4279SOL    HW224474   2.647   0.418   6.776 -0.1464 -0.7357 -1.2539
 4280SOL     OW24475   3.473   4.092   5.466  0.2147  0.3629  0.2220
 4280SOL    HW124476   3.548   4.072   5.522 -0.4075 -2.2508  0.1193
 4280SOL    HW224477   3.400   4.104   5.527  1.6860 -0.5509  2.1715
 4281SOL     OW24478   3.415   4.359  13.488 -0.4523 -0.5648  0.5529
 4281SOL    HW124479   3.469   4.330  13.561 -2.1882 -0.9489  1.6795
 4281SOL    HW224480   3.485   4.401  13.439  2.3880 -3.7841  1.8588
 4282SOL     OW24481   2.858   4.204  16.064  0.1395 -0.0540  0.2068
 4282SOL    HW124482   2.891   4.290  16.039 -1.0536  0.6095  0.8758
 4282SOL    HW224483   2.931   4.155  16.027 -1.5160 -1.8642 -0.6690
 4283SOL     OW24484   1.756   0.197  15.352 -0.0915 -0.2297 -0.3263
 4283SOL    HW124485   1.803   0.114  15.363 -0.0660 -0.4378 -2.0738
 4283SOL    HW224486   1.777   0.203  15.259 -0.4195  0.0601 -0.3814
 4284SOL     OW24487   1.738   0.761   0.733 -0.2107 -0.1068 -0.3809
 4284SOL    HW124488   1.732   0.722   0.646  0.3089  3.4510 -2.0140
 4284SOL    HW224489   1.778   0.685   0.774  1.2155  2.1414  2.4098
 4285SOL     OW24490   3.574   4.709  12.151  0.3235 -0.4589  0.1751
 4285SOL    HW124491   3.514   4.664  12.092 -1.0253 -0.3718  1.4956
 4285SOL    HW224492   3.573   0.062  12.126 -0.8800 -0.1202  1.4796
 4286SOL     OW24493   4.301   4.075   8.398 -0.7742 -0.3038 -0.1215
 4286SOL    HW124494   4.348   4.022   8.334 -0.9027 -0.8968  0.2729
 4286SOL    HW224495   4.372   4.111   8.451 -0.2886 -2.7359  0.8656
 4287SOL     OW24496   3.535   1.511  12.915  0.1292 -0.2852 -0.1476
 4287SOL    HW124497   3.459   1.474  12.871  1.4498 -1.6503 -1.2974
 4287SOL    HW224498   3.505   1.599  12.937 -2.7397 -1.3128  0.0417
 4288SOL     OW24499   3.679   2.432   7.352 -0.3094  0.2959  0.4191
 4288SOL    HW124500   3.651   2.365   7.414 -2.9189  2.2438  1.3356
 4288SOL    HW224501   3.773   2.417   7.361 -0.3008  1.0129  1.4384
 4289SOL     OW24502   2.898   1.234   4.317  0.8670 -0.1116  0.0684
 4289SOL    HW124503   2.966   1.225   4.384  1.1143 -1.6794 -0.3810
 4289SOL    HW224504   2.930   1.179   4.245  1.2543 -0.7411  0.7153
 4290SOL     OW24505   2.930   1.633   3.621  0.2321  0.2379 -0.5469
 4290SOL    HW124506   2.863   1.661   3.560  0.2314 -1.3329 -1.2564
 4290SOL    HW224507   2.946   1.541   3.598 -1.1971  0.1455 -1.1586
 4291SOL     OW24508   0.296   1.950  10.254  0.2084  0.0325  0.3702
 4291SOL    HW124509   0.344   1.888  10.309 -0.5016  1.0990  2.1658
 4291SOL    HW224510   0.226   1.902  10.211 -1.6095  2.0233  1.1494
 4292SOL     OW24511   0.773   3.388   8.699 -0.1991 -0.0071  0.0220
 4292SOL    HW124512   0.742   3.298   8.707 -0.9349  0.2545  0.1310
 4292SOL    HW224513   0.726   3.412   8.619  2.8162  0.8873 -1.5111
 4293SOL     OW24514   3.643   3.141   6.001  0.2521  0.0312 -0.0357
 4293SOL    HW124515   3.692   3.129   6.082 -0.3657  0.5145  0.4109
 4293SOL    HW224516   3.568   3.194   6.028  0.1523 -0.7899  1.2790
 4294SOL     OW24517   2.007   3.840   3.142  0.1424  0.3453  0.0698
 4294SOL    HW124518   1.995   3.847   3.047 -0.6106  0.1175  0.1480
 4294SOL    HW224519   1.952   3.912   3.172 -1.8250 -0.5691 -1.3873
 4295SOL     OW24520   4.267   3.343  12.632 -0.3124 -0.1186  0.5413
 4295SOL    HW124521   4.220   3.423  12.608 -0.1723  0.1119  1.0421
 4295SOL    HW224522   4.258   3.287  12.556 -0.9031 -3.2450  2.9172
 4296SOL     OW24523   1.538   3.450   3.207  0.3163  0.6622  0.0030
 4296SOL    HW124524   1.533   3.356   3.194 -0.7912  0.4140  2.1519
 4296SOL    HW224525   1.595   3.455   3.284 -0.2231  2.4591  0.2815
 4297SOL     OW24526   2.801   3.914   5.429 -0.0107  0.1079  0.1672
 4297SOL    HW124527   2.785   3.996   5.382  0.4508 -0.8800 -1.7004
 4297SOL    HW224528   2.711   3.902   5.460 -0.0574  1.8779  0.7169
 4298SOL     OW24529   4.006   0.452  13.856  0.0911  0.7853  0.4190
 4298SOL    HW124530   3.913   0.440  13.873 -0.3259  0.7596 -1.9456
 4298SOL    HW224531   4.000   0.518  13.788  1.1451 -0.8419 -1.2399
 4299SOL     OW24532   3.142   2.401   0.817 -0.0830 -0.5738 -0.4602
 4299SOL    HW124533   3.148   2.308   0.838 -0.5084 -0.4234  0.3314
 4299SOL    HW224534   3.210   2.443   0.870  1.1750 -0.8832 -1.8163
 4300SOL     OW24535   4.244   2.874   6.682 -0.0066 -0.3839  0.3717
 4300SOL    HW124536   4.149   2.858   6.682  0.3748 -2.7770  3.9471
 4300SOL    HW224537   4.237   2.962   6.646 -0.4622  0.0612  1.5273
 4301SOL     OW24538   3.718   0.115   5.929 -0.0594  0.1227  0.2666
 4301SOL    HW124539   3.801   0.162   5.939 -0.4158  0.6033  1.0041
 4301SOL    HW224540   3.749   0.024   5.933 -1.2120 -0.3067 -0.6924
 4302SOL     OW24541   3.519   1.412   1.204  0.6375  0.0624  0.9184
 4302SOL    HW124542   3.517   1.355   1.281 -1.2622  0.7039  1.3683
 4302SOL    HW224543   3.463   1.482   1.238 -1.8147 -1.2356 -0.4071
 4303SOL     OW24544   2.555   3.087   7.359  0.1145  0.8191  0.5223
 4303SOL    HW124545   2.471   3.131   7.371 -0.1080 -0.3407  3.1416
 4303SOL    HW224546   2.577   3.048   7.443  2.8546  1.6905  0.1932
 4304SOL     OW24547   1.115   0.543   7.557  0.2450  0.0168  0.4940
 4304SOL    HW124548   1.048   0.476   7.543  0.3112  0.2426 -0.9337
 4304SOL    HW224549   1.101   0.578   7.644 -0.1109 -2.6154  1.4970
 4305SOL     OW24550   2.563   2.356   4.856 -0.2367 -0.0146 -0.5777
 4305SOL    HW124551   2.584   2.266   4.831 -0.1991 -0.0477 -0.4268
 4305SOL    HW224552   2.615   2.362   4.936  0.2673 -1.0885 -0.8254
 4306SOL     OW24553   0.773   0.469   6.385  0.1949  0.0405 -0.1636
 4306SOL    HW124554   0.784   0.388   6.335 -1.3824 -1.5010  1.9997
 4306SOL    HW224555   0.806   0.540   6.329  2.2900 -0.4898  0.3953
 4307SOL     OW24556   0.420   1.663   8.734  0.2613 -0.2940 -0.0032
 4307SOL    HW124557   0.419   1.572   8.766 -0.9730 -0.9406 -1.8627
 4307SOL    HW224558   0.391   1.644   8.644  1.6404  2.5451 -1.0250
 4308SOL     OW24559   1.565   0.886   2.008 -0.2536  0.2932  0.8118
 4308SOL    HW124560   1.595   0.891   2.099  2.2330 -2.2603  0.1362
 4308SOL    HW224561   1.501   0.816   2.012  0.4932 -0.4078  0.5830
 4309SOL     OW24562   2.233   1.328   1.529 -0.5533  0.1889 -0.4887
 4309SOL    HW124563   2.297   1.270   1.488  1.0896 -0.4540  3.0037
 4309SOL    HW224564   2.156   1.273   1.540 -0.4301  0.2968  0.9781
 4310SOL     OW24565   4.610   3.670  11.977  0.0779 -0.1386 -0.8431
 4310SOL    HW124566   4.556   3.592  11.977 -0.7098  0.4049 -1.0007
 4310SOL    HW224567   4.547   3.738  11.953 -0.2982 -0.0182  0.4711
 4311SOL     OW24568   3.331   4.685   4.102  0.1198  0.3736 -0.0406
 4311SOL    HW124569   3.286   4.722   4.177  0.2079 -0.6888  0.5405
 4311SOL    HW224570   3.285   4.604   4.079 -2.0956  1.7812 -0.5479
 4312SOL     OW24571   2.642   0.542   4.960 -0.1539  1.2575 -0.0181
 4312SOL    HW124572   2.728   0.578   4.980 -0.7644  0.7311  3.5271
 4312SOL    HW224573   2.582   0.613   4.982  0.9823  2.4022 -0.6279
 4313SOL     OW24574   3.206   2.170   2.250 -0.2397  0.1412 -0.1145
 4313SOL    HW124575   3.149   2.233   2.294 -1.0585  0.6101 -1.8511
 4313SOL    HW224576   3.289   2.207   2.280  0.5388 -2.0663  0.4589
 4314SOL     OW24577   4.352   1.166  17.661  0.3970 -0.1131  0.1827
 4314SOL    HW124578   4.305   1.248  17.677  0.8775  0.4097 -1.0597
 4314SOL    HW224579   4.443   1.190  17.674 -0.3643  3.6748 -1.2986
 4315SOL     OW24580   3.971   1.107   6.304  0.0363 -0.3362  0.1712
 4315SOL    HW124581   4.020   1.124   6.385  1.2310 -0.8083 -0.4568
 4315SOL    HW224582   4.026   1.158   6.245  1.2220 -0.8765  0.8050
 4316SOL     OW24583   0.034   4.578  17.058  0.3087  0.0295  0.2036
 4316SOL    HW124584   0.052   4.660  17.012 -1.9390 -0.5463 -1.6645
 4316SOL    HW224585   0.112   4.571  17.113 -1.5108 -1.6037  2.6054
 4317SOL     OW24586   1.586   4.082  17.585 -0.0918  0.0839 -0.2472
 4317SOL    HW124587   1.504   4.043  17.617 -0.1359  0.2455 -0.1639
 4317SOL    HW224588   1.591   4.041  17.499 -1.1676 -1.0433  0.2232
 4318SOL     OW24589   3.661   0.511   7.228 -0.3804 -0.0856 -0.4406
 4318SOL    HW124590   3.669   0.417   7.214  0.0260  0.1060 -1.4466
 4318SOL    HW224591   3.694   0.519   7.317  0.8935 -1.3892 -0.8047
 4319SOL     OW24592   4.468   1.902   3.022 -0.1965 -0.3505 -0.1735
 4319SOL    HW124593   4.557   1.872   3.006 -0.6497 -0.2713 -2.9834
 4319SOL    HW224594   4.478   1.905   3.117 -2.4855 -2.3402  0.1229
 4320SOL     OW24595   1.761   2.541   6.465  0.1836  0.1482 -0.4752
 4320SOL    HW124596   1.740   2.631   6.491 -2.6797 -0.7257  0.2057
 4320SOL    HW224597   1.727   2.529   6.376  1.0048 -0.0120 -0.7684
 4321SOL     OW24598   2.152   1.462  10.634  0.0404  0.3331  0.0338
 4321SOL    HW124599   2.189   1.506  10.558 -1.3499  0.6915 -0.4337
 4321SOL    HW224600   2.190   1.513  10.706 -2.4634  1.2686  0.6989
 4322SOL     OW24601   1.255   3.734   8.203  0.0687  0.3008  0.1812
 4322SOL    HW124602   1.188   3.798   8.225 -1.0962 -0.9004  0.1484
 4322SOL    HW224603   1.316   3.799   8.168  0.7959 -0.0885  0.7250
 4323SOL     OW24604   1.688   4.667   7.138 -0.4817 -0.2877 -0.1234
 4323SOL    HW124605   1.770   4.670   7.089 -1.4664  1.1784 -1.6656
 4323SOL    HW224606   1.710   4.713   7.219  1.0554 -4.0482  1.5882
 4324SOL     OW24607   1.984   1.286   3.819  0.4676  0.7813  0.5844
 4324SOL    HW124608   2.046   1.244   3.758 -1.3558  0.7048 -1.2334
 4324SOL    HW224609   2.050   1.304   3.885 -0.3780  0.5457  1.4877
 4325SOL     OW24610   1.868   1.616   2.359  0.4099 -0.5335  0.2788
 4325SOL    HW124611   1.817   1.654   2.431  1.2337  1.9919 -0.4741
 4325SOL    HW224612   1.796   1.616   2.296  2.0011  0.3162 -1.5252
 4326SOL     OW24613   1.915   3.962   5.942 -0.0007 -0.1513  0.0762
 4326SOL    HW124614   1.820   3.949   5.944 -0.0071 -0.3251 -1.2924
 4326SOL    HW224615   1.919   4.019   6.019  0.7416 -0.7230  0.4620
 4327SOL     OW24616   4.239   0.712  12.825 -0.2763  0.3406 -0.0804
 4327SOL    HW124617   4.150   0.726  12.860  0.5398  0.5424  1.9311
 4327SOL    HW224618   4.288   0.689  12.904  0.5346  1.0608 -0.3733
 4328SOL     OW24619   1.064   3.950  10.053 -0.2115  0.0572  0.3081
 4328SOL    HW124620   1.032   4.032  10.016 -1.2375 -0.5720 -0.2187
 4328SOL    HW224621   1.011   3.936  10.131  1.1728 -0.4433  1.1557
 4329SOL     OW24622   2.619   0.061   2.042  0.2287  0.3068  0.1684
 4329SOL    HW124623   2.541   0.029   2.088  0.7082 -0.8026  0.2325
 4329SOL    HW224624   2.679   4.727   2.056  0.8470  0.8377  0.3400
 4330SOL     OW24625   2.133   0.195   3.896 -0.4061  0.2009 -0.3583
 4330SOL    HW124626   2.121   0.183   3.990  0.7161  0.6263 -0.1611
 4330SOL    HW224627   2.070   0.261   3.868 -1.8804  0.0514  2.6834
 4331SOL     OW24628   2.569   2.467   9.870 -0.2144  0.5468 -0.0230
 4331SOL    HW124629   2.629   2.399   9.839 -2.1678 -1.1057 -0.1710
 4331SOL    HW224630   2.622   2.517   9.932  0.4012 -0.7469  0.5015
 4332SOL     OW24631   2.203   1.136   0.945 -0.2579  0.2189  0.4652
 4332SOL    HW124632   2.196   1.110   1.037 -0.1431 -1.2509  0.0602
 4332SOL    HW224633   2.140   1.207   0.931  0.4878  0.8492  0.3077
 4333SOL     OW24634   3.835   1.695   7.437 -0.2020  0.0609 -0.2592
 4333SOL    HW124635   3.772   1.756   7.476 -0.2886 -0.6525  0.7082
 4333SOL    HW224636   3.778   1.653   7.372 -0.1160  0.5981 -0.6851
 4334SOL     OW24637   2.747   0.030   7.146 -0.0307  0.2667 -0.3183
 4334SOL    HW124638   2.675   4.730   7.195 -0.8524 -0.1389 -1.8606
 4334SOL    HW224639   2.822   4.710   7.149 -0.0537  0.2457 -0.1479
 4335SOL     OW24640   3.016   2.157  15.152 -0.2922 -0.3762 -0.1255
 4335SOL    HW124641   2.971   2.189  15.074 -1.5894 -0.9840  0.3747
 4335SOL    HW224642   2.936   2.136  15.200 -0.4398  3.6250  1.3208
 4336SOL     OW24643   3.894   3.246  16.289 -0.1140  0.7933  0.1087
 4336SOL    HW124644   3.917   3.274  16.201  0.4857  1.1572  0.3799
 4336SOL    HW224645   3.811   3.198  16.279  0.0182 -0.0293  2.9091
 4337SOL     OW24646   3.446   2.268  15.731 -0.4416 -0.6007 -0.1027
 4337SOL    HW124647   3.428   2.343  15.788 -2.1260 -1.0270 -0.0467
 4337SOL    HW224648   3.373   2.212  15.759  0.8376 -1.8308  0.7685
 4338SOL     OW24649   1.069   1.016  17.425  0.1460 -0.4013 -0.1340
 4338SOL    HW124650   1.139   0.977  17.477  1.2521  0.1578 -1.2103
 4338SOL    HW224651   1.098   1.004  17.334  1.7080  2.4947 -0.0177
 4339SOL     OW24652   0.186   4.182   7.272 -0.0273  0.1792  0.0788
 4339SOL    HW124653   0.165   4.203   7.363  0.4344  0.7496  0.0508
 4339SOL    HW224654   0.260   4.238   7.252  1.8229 -1.5711  2.0247
 4340SOL     OW24655   2.268   3.677   3.522  0.4955 -0.3224  0.3129
 4340SOL    HW124656   2.264   3.709   3.432  3.4105 -2.3559 -0.5711
 4340SOL    HW224657   2.262   3.759   3.570  2.6816 -1.9691  3.4158
 4341SOL     OW24658   1.256   3.578   2.922  0.4426  0.1801  0.5119
 4341SOL    HW124659   1.243   3.673   2.928 -0.4104  0.0591  0.5204
 4341SOL    HW224660   1.196   3.544   2.989 -0.6374 -0.2613 -0.6840
 4342SOL     OW24661   1.098   2.863  13.612 -0.2040  0.2773 -0.5196
 4342SOL    HW124662   1.154   2.793  13.579  0.3416  0.4870 -0.0428
 4342SOL    HW224663   1.140   2.892  13.693 -3.5340 -1.6098  1.8363
 4343SOL     OW24664   4.553   2.164   4.277  0.4226  0.1778  0.1154
 4343SOL    HW124665   4.519   2.246   4.312 -1.1971  0.0938 -1.2588
 4343SOL    HW224666   4.613   2.204   4.214  1.0008 -0.7020  0.1060
 4344SOL     OW24667   0.152   3.305   7.056  0.0100 -0.1921  0.1936
 4344SOL    HW124668   0.123   3.389   7.092  0.7360  0.9442 -1.8612
 4344SOL    HW224669   0.131   3.320   6.964  0.3710  1.3555  0.3607
 4345SOL     OW24670   1.919   2.734  13.933  0.1532 -0.4241 -0.0406
 4345SOL    HW124671   1.939   2.799  14.000 -1.1657 -0.3940  0.3417
 4345SOL    HW224672   1.859   2.781  13.875  2.9853  0.3113 -2.3491
 4346SOL     OW24673   1.964   4.454   9.264 -0.3521  0.4900 -0.0365
 4346SOL    HW124674   2.036   4.424   9.208  1.3896  2.1548  1.3379
 4346SOL    HW224675   2.007   4.508   9.330 -0.3640  0.9976 -0.4402
 4347SOL     OW24676   2.596   3.262   6.284  0.2305 -0.3460 -0.4673
 4347SOL    HW124677   2.540   3.334   6.255 -0.4663 -0.9393 -0.6074
 4347SOL    HW224678   2.531   3.205   6.326  0.5896 -0.6113 -0.2757
 4348SOL     OW24679   1.715   3.299   7.612  0.1705  0.2178 -0.3403
 4348SOL    HW124680   1.714   3.203   7.610  2.0850  0.1781  0.3302
 4348SOL    HW224681   1.650   3.321   7.546 -0.0614  0.3468 -0.0657
 4349SOL     OW24682   0.648   2.944   2.829  0.1078 -0.9801 -0.1188
 4349SOL    HW124683   0.633   2.911   2.741 -0.4953  0.0725 -0.4084
 4349SOL    HW224684   0.608   2.871   2.876 -1.0156 -0.6305 -0.5469
 4350SOL     OW24685   0.609   0.425   8.483 -0.3862  0.1016  0.0535
 4350SOL    HW124686   0.693   0.415   8.437 -1.0427 -2.4499 -0.6129
 4350SOL    HW224687   0.625   0.383   8.568 -0.2981 -2.7069 -1.3424
 4351SOL     OW24688   4.095   0.884  14.632  0.3139  0.2738  0.6226
 4351SOL    HW124689   4.010   0.863  14.669  0.1682  1.5643  1.0072
 4351SOL    HW224690   4.098   0.842  14.546 -0.3764 -0.9799  1.2149
 4352SOL     OW24691   2.907   2.816   6.413 -0.3242 -0.1734 -0.3650
 4352SOL    HW124692   2.888   2.814   6.507  0.6940 -1.5947 -0.1882
 4352SOL    HW224693   2.997   2.783   6.412 -0.7037 -1.2613  0.9918
 4353SOL     OW24694   0.154   1.877  11.545 -0.5838 -0.2959  0.3604
 4353SOL    HW124695   0.190   1.848  11.629 -0.5125 -2.2972 -0.3529
 4353SOL    HW224696   0.204   1.956  11.525  0.1342 -1.0569 -0.8315
 4354SOL     OW24697   1.566   3.612   7.427  0.1627  0.1664 -0.5996
 4354SOL    HW124698   1.545   3.646   7.340 -2.1560 -4.7456 -1.9453
 4354SOL    HW224699   1.544   3.520   7.412 -0.0328  0.1909 -0.4767
 4355SOL     OW24700   1.450   4.424   8.031 -0.3128  0.0354 -0.1419
 4355SOL    HW124701   1.409   4.348   8.073  1.1164 -0.5091  0.2578
 4355SOL    HW224702   1.493   4.456   8.110  0.4298 -0.8440 -0.1847
 4356SOL     OW24703   1.608   1.623   8.368  0.2693 -0.0651  0.6364
 4356SOL    HW124704   1.698   1.598   8.347  0.2177  0.7192 -0.5252
 4356SOL    HW224705   1.618   1.664   8.454  2.1936 -1.6559  1.1686
 4357SOL     OW24706   0.521   4.409  13.390 -0.0459 -0.7527 -0.3943
 4357SOL    HW124707   0.613   4.397  13.368  0.5623  1.3779  1.0217
 4357SOL    HW224708   0.523   4.412  13.486 -1.2015  2.2066 -0.4539
 4358SOL     OW24709   0.547   1.856  11.749  0.5307 -0.4546 -0.6638
 4358SOL    HW124710   0.583   1.931  11.702  0.2055  0.0929 -0.0344
 4358SOL    HW224711   0.504   1.811  11.676 -0.5031 -0.9604  0.2520
 4359SOL     OW24712   0.444   4.362   4.954 -0.2266  0.6508  0.5771
 4359SOL    HW124713   0.369   4.413   4.985  0.5376  2.0919  0.0529
 4359SOL    HW224714   0.497   4.436   4.926 -1.4994  1.1184 -0.5868
 4360SOL     OW24715   0.001   1.790   2.640  0.9667 -0.2961 -0.3355
 4360SOL    HW124716   0.080   1.816   2.592  0.7106 -1.2338 -1.2773
 4360SOL    HW224717   4.677   1.817   2.574 -0.3683 -1.7675  0.3545
 4361SOL     OW24718   2.183   3.887   3.954  0.2726 -0.5519  0.5617
 4361SOL    HW124719   2.168   3.954   4.021  2.5400  2.0883 -1.5389
 4361SOL    HW224720   2.184   3.947   3.878  1.1109 -0.3645  0.7137
 4362SOL     OW24721   0.414   0.854   9.561 -0.2666 -0.4974 -0.2962
 4362SOL    HW124722   0.464   0.793   9.616 -0.3385 -0.4319 -0.1571
 4362SOL    HW224723   0.400   0.814   9.475 -2.0937 -0.6399  0.0596
 4363SOL     OW24724   3.617   2.063   6.524  0.2649  0.0682  0.1711
 4363SOL    HW124725   3.545   2.084   6.584  1.9958  1.4744  1.7579
 4363SOL    HW224726   3.667   2.144   6.529 -1.8277  1.4640 -1.8150
 4364SOL     OW24727   4.701   2.207   6.078 -0.1934 -0.0906 -0.0177
 4364SOL    HW124728   0.042   2.241   6.117 -0.2191  0.5891 -0.5549
 4364SOL    HW224729   4.650   2.288   6.081 -0.2231 -0.1243  0.3435
 4365SOL     OW24730   1.012   0.573  14.796 -0.1766 -0.1250 -0.5265
 4365SOL    HW124731   0.994   0.666  14.786 -0.7216 -0.1048  0.6873
 4365SOL    HW224732   0.920   0.544  14.795  0.3461 -1.7260 -2.6296
 4366SOL     OW24733   0.603   2.068   1.809  0.5715 -0.3211  0.2503
 4366SOL    HW124734   0.520   2.055   1.763 -0.5030  1.6309  1.6145
 4366SOL    HW224735   0.632   1.977   1.819 -0.2274 -0.6338 -0.2580
 4367SOL     OW24736   0.113   1.122   8.983  0.5138 -0.2116  0.0166
 4367SOL    HW124737   0.189   1.169   9.017  0.8731 -0.5640 -0.2972
 4367SOL    HW224738   0.045   1.153   9.044 -0.4202 -3.5317  0.6535
 4368SOL     OW24739   1.745   1.534  15.077  0.1235 -0.2606 -0.0590
 4368SOL    HW124740   1.769   1.441  15.075  0.8497 -0.1466  4.1789
 4368SOL    HW224741   1.664   1.541  15.128 -1.6187 -2.2118 -2.5467
 4369SOL     OW24742   0.452   1.292   6.221 -0.0121  0.0488 -0.5059
 4369SOL    HW124743   0.447   1.230   6.294  0.7140  2.1018  1.2862
 4369SOL    HW224744   0.374   1.270   6.170 -0.6492  1.2763 -0.0576
 4370SOL     OW24745   0.634   4.594   5.524 -0.1961 -0.2762 -0.0202
 4370SOL    HW124746   0.558   4.610   5.468  0.3195 -0.6711 -0.8363
 4370SOL    HW224747   0.652   4.680   5.562 -0.7837 -1.1943  2.3717
 4371SOL     OW24748   0.659   4.345   8.540 -0.3737 -0.1528 -0.5608
 4371SOL    HW124749   0.577   4.392   8.523 -1.8736 -3.7223 -3.0702
 4371SOL    HW224750   0.705   4.425   8.565 -1.0323  0.4220 -1.1773
 4372SOL     OW24751   0.266   4.106   3.260  1.0413 -0.1205  0.8709
 4372SOL    HW124752   0.293   4.019   3.231 -2.0756  0.1078 -2.6830
 4372SOL    HW224753   0.201   4.119   3.192  0.8591  1.1601  1.2837
 4373SOL     OW24754   1.277   1.696  13.207 -0.2867  0.4842  0.7666
 4373SOL    HW124755   1.214   1.628  13.228 -1.6228  0.9989 -1.5941
 4373SOL    HW224756   1.358   1.644  13.205 -0.4188  0.2665  1.1619
 4374SOL     OW24757   2.047   4.696   2.667  0.0486  0.6538 -0.0489
 4374SOL    HW124758   2.024   4.708   2.575  4.8915  2.0919 -1.0479
 4374SOL    HW224759   2.119   0.017   2.682  0.5199 -0.0414  0.5494
 4375SOL     OW24760   0.083   3.794   7.409 -0.3121 -0.3597 -0.2539
 4375SOL    HW124761   0.168   3.835   7.389 -0.5243 -0.5743 -1.6238
 4375SOL    HW224762   0.025   3.868   7.396 -1.8719 -1.5556 -0.0651
 4376SOL     OW24763   3.676   0.759  16.915 -0.7759  0.2215  0.3415
 4376SOL    HW124764   3.701   0.741  17.006 -0.0611  1.5732  0.4162
 4376SOL    HW224765   3.583   0.735  16.914 -0.4034 -1.2945  1.4092
 4377SOL     OW24766   0.804   2.366  17.361 -0.0321 -0.0124 -0.4831
 4377SOL    HW124767   0.822   2.454  17.394  1.5733 -1.1868  1.8364
 4377SOL    HW224768   0.892   2.349  17.328 -0.2773 -2.9394  0.3396
 4378SOL     OW24769   0.770   4.347   4.250 -0.1309 -0.2525  0.1286
 4378SOL    HW124770   0.815   4.357   4.334  1.0258  1.6076 -0.7082
 4378SOL    HW224771   0.849   4.352   4.195 -1.5574 -2.4206 -2.1102
 4379SOL     OW24772   4.593   0.816  12.165  0.3795 -0.5727 -0.2813
 4379SOL    HW124773   4.541   0.800  12.243  0.2266  1.5630  0.0512
 4379SOL    HW224774   4.677   0.776  12.187  0.6134 -1.3120 -2.5140
 4380SOL     OW24775   0.882   2.589  16.014  0.0215 -0.7296 -0.3028
 4380SOL    HW124776   0.910   2.520  16.074 -2.4063 -0.4922  1.1139
 4380SOL    HW224777   0.883   2.542  15.931  0.4061  0.6891 -1.1041
 4381SOL     OW24778   3.802   2.714   4.633 -0.6293  0.0417 -0.1434
 4381SOL    HW124779   3.711   2.734   4.656 -1.2955 -2.0722 -0.9766
 4381SOL    HW224780   3.833   2.675   4.714 -0.7232  1.1498  0.4207
 4382SOL     OW24781   2.350   4.602   1.292  0.1738 -0.0865  0.1461
 4382SOL    HW124782   2.381   4.637   1.208 -0.4705 -0.1585 -0.1200
 4382SOL    HW224783   2.292   4.675   1.314 -0.4998 -0.9222  1.1153
 4383SOL     OW24784   3.521   1.995   3.424  0.0442 -0.5886  0.0256
 4383SOL    HW124785   3.580   1.939   3.374  1.4717  1.3004 -0.4084
 4383SOL    HW224786   3.453   1.938   3.461 -0.1793  0.4383  1.1899
 4384SOL     OW24787   0.429   3.386   6.905 -0.7544  0.6189 -0.3592
 4384SOL    HW124788   0.365   3.329   6.864 -0.8906  0.2774  0.3284
 4384SOL    HW224789   0.442   3.344   6.990  1.5531 -0.9166 -1.4759
 4385SOL     OW24790   2.945   2.813  15.515  0.4582  0.7178 -0.6859
 4385SOL    HW124791   3.008   2.878  15.544  0.5573  1.7574 -3.1864
 4385SOL    HW224792   2.958   2.817  15.420 -1.8477  0.7420 -1.0155
 4386SOL     OW24793   4.623   2.868   5.207 -0.1902  0.0799  0.2137
 4386SOL    HW124794   4.714   2.860   5.178  0.3415  0.0520  1.9280
 4386SOL    HW224795   4.630   2.866   5.302 -1.0278 -1.6096  0.2232
 4387SOL     OW24796   3.475   0.395  17.408  0.4378 -0.2168  0.5886
 4387SOL    HW124797   3.420   0.368  17.481 -0.0810 -0.2816  0.1794
 4387SOL    HW224798   3.433   0.465  17.358 -1.0169 -1.7861 -0.3641
 4388SOL     OW24799   2.742   0.693   9.839 -0.8102 -0.1365  0.1020
 4388SOL    HW124800   2.700   0.775   9.861  0.5328  0.6370 -0.2131
 4388SOL    HW224801   2.699   0.629   9.895 -0.6194 -1.9139 -1.7523
 4389SOL     OW24802   2.058   2.036   4.901 -0.4370  1.0005 -0.0421
 4389SOL    HW124803   2.033   1.967   4.841  1.3466 -1.1914  1.7358
 4389SOL    HW224804   2.146   2.010   4.930 -0.5778 -0.8446 -1.2637
 4390SOL     OW24805   4.381   3.832  12.289  0.6848  0.2231  0.1529
 4390SOL    HW124806   4.391   3.819  12.195  0.3533  1.5373 -0.0544
 4390SOL    HW224807   4.427   3.915  12.297 -0.0183  0.5853  0.3832
 4391SOL     OW24808   0.367   2.690   5.320  0.3031  0.2793  0.0417
 4391SOL    HW124809   0.420   2.626   5.272  3.0370  1.9068  0.9076
 4391SOL    HW224810   0.388   2.672   5.411 -0.4190  1.4742  0.4474
 4392SOL     OW24811   0.198   1.510   3.330 -0.4143  0.7745 -0.8764
 4392SOL    HW124812   0.114   1.551   3.351  0.1104  2.7157 -2.5428
 4392SOL    HW224813   0.257   1.580   3.359 -2.0540  0.5752  2.9330
 4393SOL     OW24814   0.475   3.728  14.060 -0.2802  0.2457  0.2904
 4393SOL    HW124815   0.515   3.729  14.147  0.0297  0.6882  0.1431
 4393SOL    HW224816   0.522   3.661  14.011 -0.0193 -0.3620  1.3787
 4394SOL     OW24817   1.850   4.616   8.108 -0.2950  0.1526 -1.1540
 4394SOL    HW124818   1.834   4.598   8.201  2.2670  2.8879 -0.2148
 4394SOL    HW224819   1.936   4.578   8.090 -0.4004 -0.9706  0.7602
 4395SOL     OW24820   1.840   0.275   1.513  0.0650 -0.1743 -0.1146
 4395SOL    HW124821   1.774   0.343   1.494  0.6721  0.7230  0.9588
 4395SOL    HW224822   1.799   0.225   1.584  2.4911 -0.0489  1.3593
 4396SOL     OW24823   0.802   0.303   2.184 -0.1348 -0.2289 -0.3205
 4396SOL    HW124824   0.716   0.260   2.186  0.1181 -0.7006  0.3523
 4396SOL    HW224825   0.783   0.369   2.251  1.5140 -0.0262 -0.0473
 4397SOL     OW24826   2.576   2.573   4.551  0.0133 -0.1521 -0.0829
 4397SOL    HW124827   2.566   2.574   4.456 -1.3353 -0.1632  0.0690
 4397SOL    HW224828   2.545   2.485   4.573  0.7264 -0.4224 -0.1509
 4398SOL     OW24829   0.596   2.830  16.020  0.0792  0.5227 -0.3034
 4398SOL    HW124830   0.573   2.907  15.969  0.6840  0.6812 -0.3380
 4398SOL    HW224831   0.526   2.822  16.086  2.2880 -1.4815  1.7767
 4399SOL     OW24832   4.328   3.362   7.273  0.0117 -0.0579  0.5659
 4399SOL    HW124833   4.373   3.301   7.214 -1.6564 -0.8704  0.1601
 4399SOL    HW224834   4.373   3.442   7.243  0.0492 -0.6332 -0.9418
 4400SOL     OW24835   1.269   3.447   8.681 -0.5498  0.1314 -0.4045
 4400SOL    HW124836   1.207   3.509   8.720  0.0496  1.4699 -1.5903
 4400SOL    HW224837   1.203   3.390   8.642  1.1729 -2.2390  0.1924
 4401SOL     OW24838   4.021   2.941   1.236 -0.1095 -0.8480  0.1824
 4401SOL    HW124839   4.109   2.912   1.260 -0.4018 -1.4614  0.5097
 4401SOL    HW224840   4.043   3.020   1.186  2.5573 -3.1569 -2.3279
 4402SOL     OW24841   0.065   2.998  13.909 -0.0896 -0.1562 -0.2455
 4402SOL    HW124842   4.728   2.941  13.904  0.2087 -0.3440 -2.6573
 4402SOL    HW224843   0.112   2.976  13.829  1.5997 -0.5863  0.8658
 4403SOL     OW24844   3.618   2.577   5.363 -0.7607 -0.1482 -0.8945
 4403SOL    HW124845   3.697   2.534   5.395 -0.4680  1.1512  0.1262
 4403SOL    HW224846   3.626   2.533   5.278  0.3168 -1.2412 -0.2271
 4404SOL     OW24847   0.559   4.339   3.199 -0.2940 -0.1801 -0.0512
 4404SOL    HW124848   0.471   4.376   3.209  0.1832  1.2239 -1.0620
 4404SOL    HW224849   0.608   4.411   3.159  0.7340 -0.9107 -0.0960
 4405SOL     OW24850   1.607   0.376  15.492  0.3619  0.2881 -0.0766
 4405SOL    HW124851   1.664   0.311  15.450 -1.9168 -0.9784 -1.2098
 4405SOL    HW224852   1.529   0.366  15.437 -0.9325 -0.5331  1.9075
 4406SOL     OW24853   3.273   1.173   0.601 -0.6600 -0.3636 -0.1188
 4406SOL    HW124854   3.213   1.161   0.528 -0.5555  0.4733 -0.3438
 4406SOL    HW224855   3.319   1.253   0.575 -2.4542  0.5572 -0.4869
 4407SOL     OW24856   3.349   1.490   4.110  0.0807  0.2153  0.0335
 4407SOL    HW124857   3.307   1.409   4.140 -0.4387 -0.0316 -1.3853
 4407SOL    HW224858   3.431   1.470   4.065 -0.3456 -0.4497 -0.4432
 4408SOL     OW24859   2.692   4.430  16.319  0.6356 -0.0602  0.5129
 4408SOL    HW124860   2.661   4.424  16.229 -1.4448 -2.1045  1.3651
 4408SOL    HW224861   2.780   4.467  16.313  0.5219  0.3028  1.0325
 4409SOL     OW24862   3.331   0.498   2.261  0.1015 -0.0519 -0.0430
 4409SOL    HW124863   3.392   0.466   2.195  2.0890  0.3536  1.5800
 4409SOL    HW224864   3.267   0.547   2.209 -1.4673 -1.1772  0.8319
 4410SOL     OW24865   1.015   2.103   6.264 -0.1202  0.1213 -0.2405
 4410SOL    HW124866   0.974   2.189   6.263  0.4647  0.3958 -0.4596
 4410SOL    HW224867   0.943   2.040   6.262 -0.2967  0.3869 -2.1586
 4411SOL     OW24868   3.757   2.850   9.397 -0.0904 -0.2639 -0.1813
 4411SOL    HW124869   3.792   2.935   9.372  0.5717 -0.8634 -1.2824
 4411SOL    HW224870   3.672   2.880   9.430  0.7240  1.3744  0.3804
 4412SOL     OW24871   1.027   3.209   3.661 -0.5478 -0.0681 -0.3521
 4412SOL    HW124872   0.998   3.239   3.575 -1.5250 -0.7495 -0.2622
 4412SOL    HW224873   1.035   3.286   3.717  0.8550  1.3598 -2.5254
 4413SOL     OW24874   0.493   2.712   2.938 -0.1081  0.7627 -0.0465
 4413SOL    HW124875   0.489   2.644   3.005 -0.6790  0.4368 -0.4165
 4413SOL    HW224876   0.404   2.708   2.905  0.1454 -0.8832 -0.5408
 4414SOL     OW24877   2.144   3.942   8.160 -0.3764 -0.0339  0.1809
 4414SOL    HW124878   2.063   3.897   8.183 -0.7436  0.2293 -0.6096
 4414SOL    HW224879   2.174   3.960   8.249 -1.4262  1.0940  0.2979
 4415SOL     OW24880   1.645   4.225   9.172 -0.4455  0.2839 -0.4933
 4415SOL    HW124881   1.618   4.316   9.163 -1.0375  0.1897  0.3541
 4415SOL    HW224882   1.710   4.225   9.243  0.4588  1.8230 -1.3121
 4416SOL     OW24883   2.030   2.974   9.443  0.6068  0.0464 -0.0223
 4416SOL    HW124884   2.122   2.985   9.470  0.9466  0.3030 -1.2552
 4416SOL    HW224885   2.034   3.047   9.381 -0.8047 -1.1199 -1.4785
 4417SOL     OW24886   0.946   3.750  14.940  0.4673 -0.0423  0.1868
 4417SOL    HW124887   0.855   3.768  14.967  0.6910  0.0940  0.8522
 4417SOL    HW224888   1.000   3.806  14.996  2.1961 -0.1468 -1.3886
 4418SOL     OW24889   3.474   1.947   5.954 -0.0718 -0.8178 -0.1986
 4418SOL    HW124890   3.497   1.872   5.900  0.9726 -1.0442  0.5547
 4418SOL    HW224891   3.386   1.970   5.926  0.4781  2.4362  0.6347
 4419SOL     OW24892   1.885   1.223   6.073  0.0879  0.2769  0.5528
 4419SOL    HW124893   1.828   1.160   6.116  1.0657 -1.0403 -0.1080
 4419SOL    HW224894   1.848   1.309   6.094 -0.6825 -0.0353  0.4601
 4420SOL     OW24895   3.989   0.973  10.972  1.1367 -0.5743  0.3921
 4420SOL    HW124896   4.053   0.940  11.035  0.8522  1.4007  1.7021
 4420SOL    HW224897   3.912   0.916  10.982 -1.8962  3.2342 -1.0825
 4421SOL     OW24898   3.376   3.764  13.678 -0.2532  0.3927 -0.5487
 4421SOL    HW124899   3.417   3.755  13.592  0.9857  1.2887 -0.0513
 4421SOL    HW224900   3.282   3.752  13.664  0.0864 -1.0985 -1.5144
 4422SOL     OW24901   4.336   1.837  16.407  0.5152 -0.4004  0.6081
 4422SOL    HW124902   4.395   1.897  16.453  0.7232 -0.4575  0.4153
 4422SOL    HW224903   4.253   1.878  16.432 -0.1570 -1.9035  0.8154
 4423SOL     OW24904   0.630   3.381  16.162 -0.6138  0.0214 -0.0637
 4423SOL    HW124905   0.684   3.332  16.100  0.5786  1.1137  0.1226
 4423SOL    HW224906   0.568   3.309  16.176 -0.6575  0.2630  0.9968
 4424SOL     OW24907   1.969   0.511   4.783 -0.3500 -0.5174  0.4851
 4424SOL    HW124908   1.925   0.583   4.828  1.2607  0.5369  0.3891
 4424SOL    HW224909   1.950   0.435   4.839  1.1853  0.4956  2.3602
 4425SOL     OW24910   3.840   4.281   8.610 -0.1795  0.8847 -0.0290
 4425SOL    HW124911   3.879   4.258   8.695 -0.9017  1.8402  0.5490
 4425SOL    HW224912   3.911   4.261   8.549  0.7742  0.7610  1.1115
 4426SOL     OW24913   2.758   1.465   7.726  0.2558  0.3042 -0.8966
 4426SOL    HW124914   2.729   1.374   7.733  0.9615  0.2440  1.2269
 4426SOL    HW224915   2.712   1.499   7.803 -1.9605  0.2637 -2.2204
 4427SOL     OW24916   2.122   1.731  17.318  0.0665 -0.2126 -0.0836
 4427SOL    HW124917   2.057   1.727  17.388  1.9275 -4.4206  1.3837
 4427SOL    HW224918   2.199   1.729  17.375  0.7645 -2.7040 -1.1168
 4428SOL     OW24919   2.756   3.013  15.184 -0.1946 -0.0796  0.6436
 4428SOL    HW124920   2.706   2.955  15.242 -1.9957  0.8609  0.0378
 4428SOL    HW224921   2.836   3.005  15.235  0.9625  1.0261 -1.0340
 4429SOL     OW24922   1.530   2.330   9.686 -0.2973 -0.4171  0.1371
 4429SOL    HW124923   1.501   2.249   9.644 -0.6120  0.3337 -1.0964
 4429SOL    HW224924   1.602   2.301   9.741  2.3641  1.8969 -2.1177
 4430SOL     OW24925   0.996   2.098   3.689 -0.2120  0.8444  0.5498
 4430SOL    HW124926   0.948   2.087   3.607  0.4291 -2.6011  0.6541
 4430SOL    HW224927   0.920   2.139   3.731  0.5325  0.5726  2.1692
 4431SOL     OW24928   3.446   1.581   7.453 -0.1037  0.1658 -0.6208
 4431SOL    HW124929   3.406   1.661   7.419 -0.2233 -0.0808 -1.0646
 4431SOL    HW224930   3.373   1.520   7.441  0.6352 -0.7998 -0.2440
 4432SOL     OW24931   3.748   0.451  15.338  0.4930 -0.2846 -0.1246
 4432SOL    HW124932   3.676   0.399  15.303  0.2553 -1.5535  2.2409
 4432SOL    HW224933   3.811   0.443  15.266  1.2964 -0.4944  0.5977
 4433SOL     OW24934   0.465   1.198   7.733  0.4225  0.2501 -0.3433
 4433SOL    HW124935   0.383   1.246   7.744  0.1452 -0.1139 -0.8121
 4433SOL    HW224936   0.482   1.184   7.826  0.2460  1.1209 -0.1819
 4434SOL     OW24937   1.785   2.075   8.538 -0.7008 -0.7693 -0.2703
 4434SOL    HW124938   1.842   2.124   8.596 -2.1745  0.8974 -0.2438
 4434SOL    HW224939   1.797   1.983   8.563 -1.2390 -0.5239  0.9064
 4435SOL     OW24940   3.667   2.103   8.833 -0.3854 -0.0920 -0.1699
 4435SOL    HW124941   3.657   2.011   8.858  0.2056 -0.7252 -2.3231
 4435SOL    HW224942   3.625   2.138   8.912 -2.2037  1.0994 -1.6743
 4436SOL     OW24943   2.939   2.823   1.329  0.8258  0.1891  0.2049
 4436SOL    HW124944   2.895   2.900   1.364 -0.2469 -0.3516  0.0156
 4436SOL    HW224945   2.957   2.859   1.242 -0.4003 -0.2170 -0.2064
 4437SOL     OW24946   2.576   0.251   2.908 -0.0654  0.5386  0.6708
 4437SOL    HW124947   2.609   0.305   2.837 -1.2496  2.0399  1.2537
 4437SOL    HW224948   2.497   0.296   2.940 -0.7599 -0.8920  0.9994
 4438SOL     OW24949   1.471   4.543   7.046 -0.3971  0.0738  0.8657
 4438SOL    HW124950   1.552   4.557   7.094  1.1471 -3.0257 -0.8150
 4438SOL    HW224951   1.503   4.507   6.963 -3.0139  0.0406 -0.1389
 4439SOL     OW24952   4.365   2.688   7.718  0.3177 -0.6051 -0.3382
 4439SOL    HW124953   4.411   2.762   7.679 -1.1668  0.2147 -0.5558
 4439SOL    HW224954   4.344   2.729   7.802  0.6546  0.6113 -0.8526
 4440SOL     OW24955   4.177   0.083   8.228 -0.0699  0.4420 -0.4302
 4440SOL    HW124956   4.142   0.146   8.164 -2.7769  1.0940  1.7140
 4440SOL    HW224957   4.115   0.011   8.217  1.4660 -0.4435 -3.2841
 4441SOL     OW24958   2.945   1.132   3.001  0.2445 -0.3806 -0.4019
 4441SOL    HW124959   3.005   1.203   2.979  0.2885  0.1457  1.3673
 4441SOL    HW224960   2.868   1.189   3.008  1.0205  0.5085  0.9301
 4442SOL     OW24961   3.765   3.633   5.080  0.5621 -0.0376  0.1144
 4442SOL    HW124962   3.706   3.583   5.024 -0.5574  0.8462  0.5176
 4442SOL    HW224963   3.813   3.680   5.012 -0.6571  1.6786  0.4555
 4443SOL     OW24964   4.229   2.904  17.550 -0.5901  0.6399 -0.1528
 4443SOL    HW124965   4.148   2.936  17.589  1.1238  1.0143  3.0398
 4443SOL    HW224966   4.233   2.817  17.590  3.7060 -0.4415 -2.9491
 4444SOL     OW24967   4.521   0.328   9.803  0.6913  0.1008 -0.1172
 4444SOL    HW124968   4.429   0.341   9.781  1.0174  2.1269 -0.2845
 4444SOL    HW224969   4.553   0.306   9.715  0.6728 -1.7074  0.3319
 4445SOL     OW24970   1.162   1.662   8.068 -0.1101 -0.0156 -0.2823
 4445SOL    HW124971   1.197   1.650   7.980  1.2051  1.9324 -0.0160
 4445SOL    HW224972   1.151   1.568   8.085  0.6124  0.0648  0.6316
 4446SOL     OW24973   3.986   1.228  11.122 -0.0085 -0.0780 -0.2422
 4446SOL    HW124974   4.043   1.240  11.046  2.8615 -2.2395  1.5772
 4446SOL    HW224975   4.026   1.287  11.186  2.7268 -0.6070 -1.4332
 4447SOL     OW24976   1.397   3.991   7.331  0.9085  0.0541 -0.2435
 4447SOL    HW124977   1.317   3.976   7.381  1.9303 -3.0999  0.4047
 4447SOL    HW224978   1.392   4.086   7.319  1.4855 -0.1018 -1.7613
 4448SOL     OW24979   2.554   0.279   9.259 -0.4543 -0.0329 -0.2743
 4448SOL    HW124980   2.602   0.282   9.176 -0.8620 -0.2290 -0.5156
 4448SOL    HW224981   2.545   0.373   9.276  3.6043  0.2082  0.6379
 4449SOL     OW24982   2.273   4.397  16.929 -0.0530 -0.1978  0.2101
 4449SOL    HW124983   2.246   4.351  16.850 -0.8819  1.8200 -0.7041
 4449SOL    HW224984   2.205   4.465  16.933 -0.9559 -1.0337 -0.8452
 4450SOL     OW24985   4.035   4.451   3.546 -0.2980  0.1273  0.2496
 4450SOL    HW124986   4.080   4.383   3.596  2.5135  1.0517 -1.0254
 4450SOL    HW224987   4.057   4.523   3.605 -0.0118  0.4073 -0.2046
 4451SOL     OW24988   4.703   2.366   1.912 -0.0939  0.3509  0.4153
 4451SOL    HW124989   4.680   2.453   1.881 -2.4516  0.3564  2.1525
 4451SOL    HW224990   4.664   2.360   1.999 -0.1525  1.5495  0.4694
 4452SOL     OW24991   2.117   2.638   9.279 -0.0539 -0.1580 -0.5779
 4452SOL    HW124992   2.162   2.602   9.355 -4.2294 -1.3731  1.3198
 4452SOL    HW224993   2.184   2.702   9.254 -1.2199  1.4121  0.2674
 4453SOL     OW24994   2.451   3.111   6.464  0.0822  0.1869 -0.0043
 4453SOL    HW124995   2.399   3.032   6.480  1.3274 -0.5242  0.4891
 4453SOL    HW224996   2.380   3.175   6.465 -0.1046 -0.0132 -0.1848
 4454SOL     OW24997   4.184   0.863   8.014  0.4506 -0.1101  0.1055
 4454SOL    HW124998   4.130   0.916   7.955  1.7305  1.3320  0.2370
 4454SOL    HW224999   4.270   0.888   7.982 -0.6465  1.0078 -2.0445
 4455SOL     OW25000   0.916   2.931  10.874  0.1259 -0.0770 -0.5690
 4455SOL    HW125001   0.830   2.911  10.909 -0.7383  1.7903 -1.6037
 4455SOL    HW225002   0.909   3.025  10.855 -0.0058  0.5678  2.5597
 4456SOL     OW25003   4.682   4.087   6.559 -0.3310 -0.6094  0.9432
 4456SOL    HW125004   4.686   4.073   6.654  0.5779  1.4011  1.1872
 4456SOL    HW225005   0.034   4.086   6.534 -1.0617  2.3924 -1.7611
 4457SOL     OW25006   2.158   3.068   0.877  0.3791  0.2871 -0.6535
 4457SOL    HW125007   2.133   3.041   0.789 -1.9442  0.6683 -0.1002
 4457SOL    HW225008   2.213   3.145   0.862  0.5303  0.5176  1.1460
 4458SOL     OW25009   2.857   2.096  16.505  0.2958 -0.4107 -0.6138
 4458SOL    HW125010   2.876   2.155  16.431 -2.9370 -2.0803 -2.7765
 4458SOL    HW225011   2.915   2.140  16.567 -1.0667  1.7426 -0.8286
 4459SOL     OW25012   4.615   4.371   2.333 -0.0724 -0.0321  0.6221
 4459SOL    HW125013   4.522   4.391   2.335 -0.0646 -0.0778  1.6207
 4459SOL    HW225014   4.603   4.280   2.358 -1.1053 -0.0011  0.2273
 4460SOL     OW25015   4.051   3.168   5.311  0.2990  0.2940  0.1752
 4460SOL    HW125016   4.025   3.244   5.259  0.4391 -0.1692 -0.5696
 4460SOL    HW225017   3.999   3.101   5.265  1.5979 -0.2416 -0.5048
 4461SOL     OW25018   0.884   2.176   2.601  0.4274 -0.0295 -0.6318
 4461SOL    HW125019   0.896   2.179   2.696 -0.4647 -0.7153 -0.4961
 4461SOL    HW225020   0.856   2.084   2.605  1.9901 -0.4580  0.5980
 4462SOL     OW25021   4.544   3.792   4.922  0.7855  0.2699  0.1587
 4462SOL    HW125022   4.552   3.697   4.929  0.4922  0.2738  0.5153
 4462SOL    HW225023   4.615   3.819   4.981  1.1960 -1.3515  0.4031
 4463SOL     OW25024   1.664   2.997   6.677  0.0639  0.6135 -0.3369
 4463SOL    HW125025   1.638   2.924   6.734  1.5427  2.8230  3.1236
 4463SOL    HW225026   1.585   3.051   6.683 -0.9260 -1.1061  2.0904
 4464SOL     OW25027   2.648   2.444   8.332  0.1926 -0.4314  0.8194
 4464SOL    HW125028   2.576   2.385   8.358  0.2275 -0.4564  0.8599
 4464SOL    HW225029   2.724   2.391   8.357 -0.9886 -1.6116  1.9082
 4465SOL     OW25030   1.671   4.609  15.137 -0.4083  0.0684 -0.5226
 4465SOL    HW125031   1.677   4.514  15.125  1.3412  0.0257  0.7848
 4465SOL    HW225032   1.748   4.621  15.192 -0.8490 -0.6568  0.2581
 4466SOL     OW25033   4.169   4.231  15.646  0.3568  0.3503  0.2369
 4466SOL    HW125034   4.217   4.305  15.684 -0.6686  0.6765  0.8858
 4466SOL    HW225035   4.172   4.167  15.717  0.5648  1.4796  1.2489
 4467SOL     OW25036   4.296   1.029  12.120 -0.3545 -0.1362  0.1545
 4467SOL    HW125037   4.324   1.085  12.193 -0.1695 -1.0172  0.7600
 4467SOL    HW225038   4.363   0.968  12.088 -0.1114  1.0701 -1.6400
 4468SOL     OW25039   2.195   1.828  11.066  0.2076  0.1801  0.3867
 4468SOL    HW125040   2.283   1.842  11.032  1.2531  0.1514  3.0813
 4468SOL    HW225041   2.147   1.908  11.045 -1.5881 -1.2379 -0.9441
 4469SOL     OW25042   1.129   1.657   4.713  0.1902 -0.6204  0.1253
 4469SOL    HW125043   1.107   1.677   4.804 -2.8252 -1.3799 -0.4336
 4469SOL    HW225044   1.158   1.566   4.722 -1.8220 -1.3303 -0.4217
 4470SOL     OW25045   0.404   4.502   4.005 -0.2418  0.1991  0.9938
 4470SOL    HW125046   0.350   4.531   4.079 -0.5750  3.2896 -0.4337
 4470SOL    HW225047   0.474   4.567   3.998  0.1790 -0.3979 -0.2320
 4471SOL     OW25048   0.712   3.119   6.190  0.2357 -0.1219  0.5134
 4471SOL    HW125049   0.688   3.211   6.176  3.9560  1.0493  1.9821
 4471SOL    HW225050   0.628   3.076   6.172 -0.3529  1.4916 -0.7134
 4472SOL     OW25051   4.174   2.037   7.420  0.1513 -0.0729  0.3579
 4472SOL    HW125052   4.244   2.007   7.478  1.2036  1.3985 -0.1514
 4472SOL    HW225053   4.221   2.072   7.345 -0.5459  2.2623  1.0134
 4473SOL     OW25054   2.886   0.918   2.862  0.3992 -0.1923 -0.0256
 4473SOL    HW125055   2.972   0.893   2.830 -0.8845 -2.2066 -1.8575
 4473SOL    HW225056   2.912   1.007   2.888  0.0124 -0.1636  0.2614
 4474SOL     OW25057   3.568   0.299   9.265 -0.1467 -0.3511  0.2255
 4474SOL    HW125058   3.536   0.272   9.178 -0.3378  0.4489  0.0469
 4474SOL    HW225059   3.503   0.368   9.280 -0.6978 -1.2626  1.9918
 4475SOL     OW25060   0.309   2.668   6.495  0.1744 -0.6683  0.4032
 4475SOL    HW125061   0.324   2.644   6.587 -0.6700  0.9108  0.9708
 4475SOL    HW225062   0.337   2.759   6.505  0.3907 -0.9221  2.2006
 4476SOL     OW25063   3.394   3.902   8.048 -0.1759  0.2468  0.4930
 4476SOL    HW125064   3.429   3.977   8.096 -2.4248  1.1667  0.7297
 4476SOL    HW225065   3.335   3.955   7.993 -1.3131 -1.0430  0.4688
 4477SOL     OW25066   3.237   1.508   6.723  0.4016 -0.3658  0.5948
 4477SOL    HW125067   3.184   1.511   6.643  1.1320 -0.0448  0.1353
 4477SOL    HW225068   3.210   1.593   6.758 -1.0993 -1.1624  1.4250
 4478SOL     OW25069   0.108   3.692   8.194 -0.5034 -0.9912 -0.4213
 4478SOL    HW125070   0.062   3.636   8.257 -1.1724  1.0294  0.9020
 4478SOL    HW225071   0.106   3.773   8.245 -0.0998 -2.2033  1.5581
 4479SOL     OW25072   1.248   1.256   4.308  0.4086 -0.0052  0.6615
 4479SOL    HW125073   1.242   1.348   4.331 -0.3429 -0.4266  2.1746
 4479SOL    HW225074   1.341   1.235   4.320  0.7123  0.7255 -0.4611
 4480SOL     OW25075   1.949   4.001   2.178  0.2716 -0.1354  0.0051
 4480SOL    HW125076   2.016   4.037   2.236  2.0722  1.4733 -3.0684
 4480SOL    HW225077   1.880   4.064   2.195 -0.6638 -0.9343 -0.8208
 4481SOL     OW25078   2.767   2.135   4.287  0.1469 -0.0563  0.4255
 4481SOL    HW125079   2.765   2.076   4.362 -1.0845 -0.6918 -0.1180
 4481SOL    HW225080   2.676   2.163   4.286  0.3790  0.6713 -1.1011
 4482SOL     OW25081   3.707   2.338   3.849 -0.4414 -0.2165 -0.2611
 4482SOL    HW125082   3.715   2.425   3.888 -1.1411 -0.7206  0.9873
 4482SOL    HW225083   3.646   2.296   3.909  1.0411 -0.6851  0.9122
 4483SOL     OW25084   2.005   1.222   8.573  0.5692  0.7722 -0.1326
 4483SOL    HW125085   2.027   1.171   8.495  0.1678  0.6491 -0.1655
 4483SOL    HW225086   2.094   1.253   8.591  0.7576  0.6837 -0.9104
 4484SOL     OW25087   4.266   2.808   1.883 -0.4219 -0.6499  0.1478
 4484SOL    HW125088   4.175   2.836   1.876 -0.7381 -1.6342  0.3393
 4484SOL    HW225089   4.271   2.796   1.978  1.6203  0.3421  0.1660
 4485SOL     OW25090   4.386   2.393  13.275  0.4908 -0.3866  0.0030
 4485SOL    HW125091   4.361   2.302  13.259 -0.0889 -0.2845  0.3489
 4485SOL    HW225092   4.337   2.435  13.204  2.1982  0.9268 -0.3880
 4486SOL     OW25093   2.043   2.792  10.055 -0.5341 -0.0384 -0.1075
 4486SOL    HW125094   2.118   2.805   9.998 -0.7676  0.2580 -0.3438
 4486SOL    HW225095   2.008   2.710  10.020 -1.2314 -0.1495  0.8348
 4487SOL     OW25096   2.592   0.320   6.925 -0.5256 -0.1550  0.2216
 4487SOL    HW125097   2.544   0.354   7.000 -1.1263 -0.2601 -0.1077
 4487SOL    HW225098   2.531   0.253   6.892  1.1823 -0.5915 -2.0587
 4488SOL     OW25099   3.826   4.352  15.622  0.1398  0.0791 -0.3215
 4488SOL    HW125100   3.836   4.258  15.638 -0.3926 -0.2934 -2.1836
 4488SOL    HW225101   3.893   4.363  15.555  0.5162  2.8816  0.5031
 4489SOL     OW25102   3.828   1.245  10.495  0.4214 -0.0156  0.5685
 4489SOL    HW125103   3.809   1.185  10.567  0.6047  1.8500  2.1914
 4489SOL    HW225104   3.811   1.330  10.537  0.6298  0.3710 -0.1326
 4490SOL     OW25105   1.200   4.162   2.552  0.4529 -0.2818  0.4825
 4490SOL    HW125106   1.149   4.081   2.546  2.8620 -1.6473 -1.7120
 4490SOL    HW225107   1.146   4.227   2.507  0.7122  0.2104  0.8925
 4491SOL     OW25108   4.719   1.136  13.878 -0.4423 -0.2243  0.0495
 4491SOL    HW125109   4.719   1.227  13.908 -0.5569 -0.2298  0.0668
 4491SOL    HW225110   0.017   1.146  13.791 -1.6812  0.2200 -0.4412
 4492SOL     OW25111   2.956   1.744   4.920 -0.4567 -0.0506  0.0983
 4492SOL    HW125112   3.021   1.765   4.852 -2.8472 -1.1457 -2.5582
 4492SOL    HW225113   3.015   1.720   4.991 -0.8328  2.4110  1.2502
 4493SOL     OW25114   3.701   3.526   3.286 -0.3529  0.3636  0.0641
 4493SOL    HW125115   3.794   3.543   3.298  0.0526 -0.9365 -1.2949
 4493SOL    HW225116   3.671   3.613   3.312 -3.2390 -0.9320  1.0903
 4494SOL     OW25117   1.781   4.244   3.310  0.8213  0.9652 -0.2886
 4494SOL    HW125118   1.820   4.259   3.396 -0.9641  0.8751  0.5368
 4494SOL    HW225119   1.860   4.260   3.258  1.9731  1.0382  1.4887
 4495SOL     OW25120   0.703   0.510   1.782  0.1995 -0.4902 -0.6198
 4495SOL    HW125121   0.729   0.596   1.749 -0.1464 -0.5001 -0.9267
 4495SOL    HW225122   0.782   0.492   1.833  0.8573  1.4958 -0.9370
 4496SOL     OW25123   2.657   2.696   1.717  0.1868 -0.2735  0.1968
 4496SOL    HW125124   2.668   2.730   1.628  0.8689  0.5463  0.5962
 4496SOL    HW225125   2.733   2.639   1.707 -0.5005 -1.0391 -0.7954
 4497SOL     OW25126   0.237   0.352   2.288 -0.0084 -0.6135  0.2701
 4497SOL    HW125127   0.229   0.411   2.362 -0.9222 -0.9101  0.4033
 4497SOL    HW225128   0.173   0.389   2.227  0.4310 -0.3236 -0.0148
 4498SOL     OW25129   4.152   0.757   7.326 -0.5424  0.0499 -0.4110
 4498SOL    HW125130   4.174   0.805   7.406 -0.0078 -2.3083  0.8513
 4498SOL    HW225131   4.158   0.667   7.359 -0.9655  0.7255  1.4902
 4499SOL     OW25132   4.681   2.505  17.387 -0.3059  0.0299  0.2273
 4499SOL    HW125133   4.733   2.496  17.467 -2.1050  1.8697  1.5876
 4499SOL    HW225134   4.637   2.421  17.379  0.0259  0.0482 -1.9064
 4500SOL     OW25135   0.815   4.363   7.527  0.4115  0.1601  0.2284
 4500SOL    HW125136   0.837   4.364   7.620  1.9938  1.4554 -0.1438
 4500SOL    HW225137   0.893   4.408   7.494  1.1807 -1.9935 -0.8796
 4501SOL     OW25138   3.852   2.585   9.079 -0.1332  0.6929 -0.1572
 4501SOL    HW125139   3.942   2.592   9.110  0.3634 -0.9831 -1.2470
 4501SOL    HW225140   3.860   2.654   9.013 -0.0443  0.3948 -0.4539
 4502SOL     OW25141   0.698   3.146   8.356  0.4604 -0.4538  0.3684
 4502SOL    HW125142   0.681   3.216   8.419 -1.5136  0.4529 -1.1520
 4502SOL    HW225143   0.654   3.165   8.272  0.5551 -0.4184  0.3270
 4503SOL     OW25144   0.458   0.977  10.639 -0.5281 -0.1112  0.5033
 4503SOL    HW125145   0.443   0.912  10.570  0.4397 -0.1412  0.3232
 4503SOL    HW225146   0.472   0.923  10.717  0.9303  0.4980  0.6570
 4504SOL     OW25147   0.506   3.611  16.067  0.0629  0.0808 -0.1383
 4504SOL    HW125148   0.517   3.519  16.092 -0.4055 -0.2185 -1.0430
 4504SOL    HW225149   0.597   3.635  16.082 -0.9618  2.0801  2.9001
 4505SOL     OW25150   3.223   0.682   5.811  0.1346 -0.6713 -0.4759
 4505SOL    HW125151   3.300   0.686   5.868 -0.3899  2.8481 -0.0375
 4505SOL    HW225152   3.254   0.634   5.734 -1.9164 -1.1060 -1.0186
 4506SOL     OW25153   1.636   0.701   3.766  0.1786 -0.7187  0.5556
 4506SOL    HW125154   1.718   0.742   3.793  0.0935  0.2208 -0.5956
 4506SOL    HW225155   1.660   0.673   3.678 -1.0155 -0.2093  0.0687
 4507SOL     OW25156   2.629   1.495   1.360 -0.5419 -0.0614 -0.0581
 4507SOL    HW125157   2.534   1.501   1.373 -0.2749  2.0844  1.0194
 4507SOL    HW225158   2.654   1.555   1.430 -1.3496  0.1020  0.0905
 4508SOL     OW25159   2.044   3.293  14.028 -0.8415  0.1188  0.3230
 4508SOL    HW125160   1.996   3.213  14.048 -0.0889 -0.0745  1.3621
 4508SOL    HW225161   2.001   3.360  14.082 -0.6314 -0.6742  1.4651
 4509SOL     OW25162   2.569   2.711   9.074 -0.2275 -0.4379 -0.0831
 4509SOL    HW125163   2.514   2.692   8.998  1.2270 -0.6985 -1.0708
 4509SOL    HW225164   2.646   2.745   9.028 -0.0220 -2.2296 -1.0568
 4510SOL     OW25165   1.715   1.904  15.022 -0.1408 -0.6200  0.1191
 4510SOL    HW125166   1.725   1.831  14.960  2.3031  0.8609 -1.2446
 4510SOL    HW225167   1.809   1.923  15.033  0.0929 -2.3702  1.1993
 4511SOL     OW25168   0.734   3.143  17.731  0.1900 -0.2747 -0.2731
 4511SOL    HW125169   0.721   3.048  17.736 -1.6530  0.0383  0.8503
 4511SOL    HW225170   0.661   3.161  17.672 -0.6454  0.3730  0.9562
 4512SOL     OW25171   3.980   0.417   2.432 -0.4615  0.5092 -0.8405
 4512SOL    HW125172   3.989   0.464   2.350 -1.7114 -1.4839 -2.1257
 4512SOL    HW225173   4.003   0.325   2.415 -0.4277 -0.0945  2.3733
 4513SOL     OW25174   3.995   2.269   4.435 -0.6826  0.6653  0.1255
 4513SOL    HW125175   4.025   2.286   4.346  1.2255 -1.9578  0.2691
 4513SOL    HW225176   3.971   2.356   4.468 -1.8497 -0.2209  1.6168
 4514SOL     OW25177   4.359   3.397   7.652 -0.6728 -0.2203  0.3873
 4514SOL    HW125178   4.390   3.403   7.742 -2.4952 -3.4434  1.2231
 4514SOL    HW225179   4.402   3.317   7.623  0.7475  1.1452 -1.3417
 4515SOL     OW25180   2.808   2.202   5.334 -0.1437 -0.3460  0.6325
 4515SOL    HW125181   2.763   2.250   5.404  2.3513  2.8493  0.0111
 4515SOL    HW225182   2.744   2.131   5.325 -0.0726 -0.0940 -1.9589
 4516SOL     OW25183   2.484   0.896   2.230 -0.6708 -0.2070 -0.3858
 4516SOL    HW125184   2.564   0.918   2.278 -0.7736 -2.7545  0.9416
 4516SOL    HW225185   2.416   0.956   2.261  0.0034  0.1617  0.3694
 4517SOL     OW25186   2.065   1.207   9.267  0.1438  0.0787  0.0911
 4517SOL    HW125187   1.980   1.196   9.225  0.4658  1.3181 -0.9056
 4517SOL    HW225188   2.037   1.222   9.357 -1.0468 -1.3693 -0.0407
 4518SOL     OW25189   3.767   2.028   4.008 -0.2204 -0.2827  0.4756
 4518SOL    HW125190   3.718   2.104   4.040  2.1033  0.2718  2.7270
 4518SOL    HW225191   3.784   1.989   4.093  2.6748  1.1235  0.5490
 4519SOL     OW25192   3.474   2.820  17.563  0.4597 -0.3226  0.5672
 4519SOL    HW125193   3.414   2.870  17.618 -0.4384  2.4789 -2.9089
 4519SOL    HW225194   3.510   2.886  17.503 -0.1896  0.6543  1.2581
 4520SOL     OW25195   4.687   4.324  10.478  0.0581  0.3111 -0.2378
 4520SOL    HW125196   4.704   4.243  10.429 -0.5362 -1.2925  2.2438
 4520SOL    HW225197   4.601   4.338  10.439 -0.1546 -0.4741 -0.0433
 4521SOL     OW25198   0.903   3.737   7.464  0.3182 -0.2157  0.1414
 4521SOL    HW125199   0.858   3.759   7.382 -1.7311  2.2283  1.9294
 4521SOL    HW225200   0.922   3.825   7.498  3.2902 -0.4488 -0.9946
 4522SOL     OW25201   3.163   2.076   1.523 -0.4366 -0.4980  0.3300
 4522SOL    HW125202   3.168   2.164   1.560  0.8512 -0.3664 -0.1526
 4522SOL    HW225203   3.252   2.071   1.488 -0.8359 -2.3227 -0.4138
 4523SOL     OW25204   0.270   2.427   5.683  0.0838  0.1416  0.1922
 4523SOL    HW125205   0.189   2.377   5.667 -0.5567  0.6756  1.7848
 4523SOL    HW225206   0.240   2.487   5.751  2.4902  0.1198  1.2651
 4524SOL     OW25207   0.166   2.303   6.241 -0.1688 -1.0803 -0.2656
 4524SOL    HW125208   0.257   2.330   6.228 -0.4952  0.6822  1.1431
 4524SOL    HW225209   0.129   2.387   6.269 -1.8084 -1.1878 -2.0675
 4525SOL     OW25210   3.798   0.982   6.115 -0.3307 -0.4191 -0.2013
 4525SOL    HW125211   3.869   1.007   6.174  1.6047  1.3573 -3.2864
 4525SOL    HW225212   3.859   0.941   6.054  3.1755  1.5662  1.9500
 4526SOL     OW25213   3.503   3.239  14.255 -0.3561  0.1433 -0.0959
 4526SOL    HW125214   3.427   3.219  14.309  0.0634 -0.8357  0.1328
 4526SOL    HW225215   3.559   3.267  14.327 -0.4080 -0.5865  0.2350
 4527SOL     OW25216   2.302   0.437   1.056 -0.3047 -0.3591  0.1965
 4527SOL    HW125217   2.330   0.460   1.145 -2.4421  1.5327  0.3745
 4527SOL    HW225218   2.353   0.501   1.006 -0.0964 -2.4039 -2.2069
 4528SOL     OW25219   4.219   0.517   8.019 -0.2221 -0.4620  0.2707
 4528SOL    HW125220   4.238   0.489   7.929  0.4930  0.3701  0.1659
 4528SOL    HW225221   4.289   0.577   8.043 -0.7855  0.3273 -0.0876
 4529SOL     OW25222   3.815   1.486  11.394  0.0575 -0.7237  0.3285
 4529SOL    HW125223   3.878   1.439  11.448  0.9753 -1.3717 -1.2961
 4529SOL    HW225224   3.810   1.565  11.448 -0.9993 -0.4890 -0.1196
 4530SOL     OW25225   4.622   3.070   5.419  0.0032 -0.0843  0.0771
 4530SOL    HW125226   4.575   3.146   5.453  0.3242 -0.4819  1.4163
 4530SOL    HW225227   4.606   3.072   5.325 -2.2369  0.1301  0.4580
 4531SOL     OW25228   0.492   0.649   9.177  1.1916 -0.1294 -0.5246
 4531SOL    HW125229   0.476   0.727   9.124 -1.9854 -0.5191 -0.1427
 4531SOL    HW225230   0.588   0.654   9.181  1.1447 -0.6047  1.1923
 4532SOL     OW25231   4.463   0.160   9.294 -0.3575 -0.1679  0.3235
 4532SOL    HW125232   4.480   0.074   9.257  1.5545  1.3720 -2.4004
 4532SOL    HW225233   4.471   0.216   9.217 -0.2412  2.1183  1.9732
 4533SOL     OW25234   2.178   3.770  11.964  0.1471 -0.6738  0.0515
 4533SOL    HW125235   2.088   3.751  11.939 -0.4299  0.2424  1.5199
 4533SOL    HW225236   2.200   3.769  11.870  0.2860  0.6853  0.0769
 4534SOL     OW25237   1.332   1.784  12.883  0.4794  0.3007  0.4986
 4534SOL    HW125238   1.298   1.814  12.799  1.4696  0.4503  0.1554
 4534SOL    HW225239   1.372   1.698  12.865 -0.3812 -0.1808  0.8756
 4535SOL     OW25240   0.060   0.761   6.796  0.2873  0.3047  0.6570
 4535SOL    HW125241   0.135   0.813   6.767  0.2881  0.6269  1.2343
 4535SOL    HW225242   0.098   0.682   6.835 -0.2719 -0.6138 -0.6628
 4536SOL     OW25243   2.588   0.238   1.088 -0.0605  0.9831 -0.6590
 4536SOL    HW125244   2.623   0.326   1.074 -2.1500  1.9360  0.1208
 4536SOL    HW225245   2.494   0.254   1.091  0.1601  2.0355  0.7142
 4537SOL     OW25246   3.329   2.989   0.999 -0.8632 -0.6508 -0.2962
 4537SOL    HW125247   3.422   2.978   0.981 -0.8540 -1.2723  0.1672
 4537SOL    HW225248   3.295   2.940   0.925 -1.9056  0.9183 -0.8599
 4538SOL     OW25249   1.546   2.450   4.077  0.7150  0.2232  0.3128
 4538SOL    HW125250   1.629   2.402   4.072  0.4502 -0.4946  2.8782
 4538SOL    HW225251   1.554   2.494   4.161  1.2200 -1.1120  0.9771
 4539SOL     OW25252   4.170   0.612  14.903  0.5549 -0.6841  0.2402
 4539SOL    HW125253   4.095   0.650  14.857 -1.3628 -4.2532  0.3772
 4539SOL    HW225254   4.182   0.536  14.846  0.7569  1.3419 -2.4458
 4540SOL     OW25255   1.624   0.110  15.003 -0.0044 -0.6864  0.5274
 4540SOL    HW125256   1.706   0.153  15.027  0.1006  0.1131 -1.2507
 4540SOL    HW225257   1.641   0.023  15.040 -0.8460 -0.8490  0.5372
 4541SOL     OW25258   4.302   0.383   8.408  0.2927  0.2058  0.1478
 4541SOL    HW125259   4.231   0.434   8.368  0.1042 -1.7844 -2.0643
 4541SOL    HW225260   4.342   0.456   8.455  1.7841 -1.0756  0.8555
 4542SOL     OW25261   3.987   2.361  11.566 -0.1327  0.3218 -0.2709
 4542SOL    HW125262   3.951   2.393  11.483 -0.1135  0.1191 -0.3579
 4542SOL    HW225263   4.075   2.398  11.577 -0.2539  1.1191 -1.9912
 4543SOL     OW25264   2.493   0.547   9.549  0.1802  0.1000  0.2258
 4543SOL    HW125265   2.449   0.624   9.513  2.7272  1.6456  0.4165
 4543SOL    HW225266   2.422   0.535   9.612  1.5662 -1.7282  1.4727
 4544SOL     OW25267   2.347   4.524   5.598 -0.5859  0.0012  0.1298
 4544SOL    HW125268   2.368   4.484   5.682 -1.1036 -0.8478 -0.1535
 4544SOL    HW225269   2.329   4.612   5.631  0.3204  0.4229 -0.4892
 4545SOL     OW25270   2.652   1.061   9.507  0.1403  0.6447  0.1779
 4545SOL    HW125271   2.582   1.117   9.540  0.1104  0.0688  1.1180
 4545SOL    HW225272   2.626   0.977   9.545 -2.0354  0.4208 -1.8629
 4546SOL     OW25273   2.869   2.920   7.440  0.1881 -0.0214 -0.1705
 4546SOL    HW125274   2.880   2.941   7.347 -1.2421 -1.0451 -0.5760
 4546SOL    HW225275   2.912   2.993   7.484  1.2161  0.3224 -1.7720
 4547SOL     OW25276   0.466   0.077   6.512  0.4210 -0.1073 -0.0375
 4547SOL    HW125277   0.472   0.171   6.494  2.0513  0.0985  1.6013
 4547SOL    HW225278   0.558   0.053   6.518  0.4618  0.0341 -0.0983
 4548SOL     OW25279   4.606   1.681   0.317  0.1322 -0.1248 -0.1897
 4548SOL    HW125280   4.544   1.609   0.308 -1.3190  1.1459 -0.3074
 4548SOL    HW225281   4.557   1.762   0.304 -1.4921 -0.8585  1.3316
 4549SOL     OW25282   3.708   1.396   1.789 -0.1612  0.7335 -0.0925
 4549SOL    HW125283   3.725   1.490   1.797  1.6156  0.4142 -0.0070
 4549SOL    HW225284   3.699   1.382   1.883 -1.6977 -0.4609 -0.4175
 4550SOL     OW25285   0.750   4.660   2.397 -0.0836 -0.2043 -0.4704
 4550SOL    HW125286   0.791   4.595   2.454  0.0699 -0.7941 -1.2409
 4550SOL    HW225287   0.814   4.730   2.412  1.1387 -1.4659  0.1625
 4551SOL     OW25288   0.824   2.713   5.030  0.0392 -0.0931 -0.2809
 4551SOL    HW125289   0.809   2.623   5.058 -1.0852  1.1854  3.2388
 4551SOL    HW225290   0.920   2.709   5.028  0.0457 -1.5790  2.1047
 4552SOL     OW25291   2.945   2.312   2.250 -0.6940  0.0226 -0.4779
 4552SOL    HW125292   2.898   2.387   2.287 -0.4576  0.4479 -1.0385
 4552SOL    HW225293   2.995   2.358   2.183  0.5483 -0.3575  0.1952
 4553SOL     OW25294   2.811   0.986   2.592 -0.2330 -0.2447  0.3133
 4553SOL    HW125295   2.843   0.904   2.630 -2.0730 -0.5316  1.2463
 4553SOL    HW225296   2.884   1.043   2.615  0.1349  1.0764 -4.0283
 4554SOL     OW25297   1.277   4.273   4.767  0.5291 -0.3182  0.6372
 4554SOL    HW125298   1.182   4.263   4.773  0.1638  0.6598 -3.6831
 4554SOL    HW225299   1.289   4.366   4.748 -0.4610 -0.7446 -2.0367
 4555SOL     OW25300   4.000   0.216   8.744 -0.1049  0.1721 -0.1748
 4555SOL    HW125301   4.035   0.230   8.656 -1.6846 -0.3845 -0.9038
 4555SOL    HW225302   3.918   0.265   8.739  0.8959  1.8752 -0.0807
 4556SOL     OW25303   1.492   3.732   6.535  1.0955 -0.1125  0.5265
 4556SOL    HW125304   1.569   3.683   6.565 -0.4653 -2.7913  0.1535
 4556SOL    HW225305   1.513   3.823   6.559  0.7158 -0.1222  0.8850
 4557SOL     OW25306   4.425   2.904   3.868 -0.2338  0.2238 -0.1579
 4557SOL    HW125307   4.487   2.834   3.846  0.1777 -0.0378  1.8513
 4557SOL    HW225308   4.400   2.877   3.956  0.9225  0.3029  0.1987
 4558SOL     OW25309   2.260   1.907  14.413 -0.2655 -0.3908 -0.7200
 4558SOL    HW125310   2.222   1.868  14.335  0.2586  0.3403 -1.3466
 4558SOL    HW225311   2.327   1.968  14.380  0.5402 -0.4799  0.7699
 4559SOL     OW25312   2.455   3.262   9.371  0.1074  0.0713  0.4280
 4559SOL    HW125313   2.424   3.302   9.290 -0.6734  0.3983  0.8787
 4559SOL    HW225314   2.482   3.175   9.344  0.2748  0.3976 -0.4401
 4560SOL     OW25315   4.650   1.235   5.067  0.1626  0.1748  0.5046
 4560SOL    HW125316   4.654   1.154   5.017 -0.5533 -0.0644  0.8421
 4560SOL    HW225317   4.561   1.253   5.095 -0.1198 -0.9857  0.3540
 4561SOL     OW25318   0.261   0.433   3.059  0.6019 -0.4816 -0.4148
 4561SOL    HW125319   0.216   0.417   2.977  0.3209  0.0999 -0.3743
 4561SOL    HW225320   0.340   0.476   3.026 -0.2578 -1.1867 -3.3752
 4562SOL     OW25321   1.568   3.848   7.582 -0.1457  0.1773 -0.2811
 4562SOL    HW125322   1.647   3.901   7.585 -0.3809  0.4381  1.1904
 4562SOL    HW225323   1.585   3.786   7.511 -1.9576  0.1568 -0.7001
 4563SOL     OW25324   1.620   2.604  11.001  0.1112  0.3206 -0.9441
 4563SOL    HW125325   1.568   2.618  10.922 -0.3020 -2.2312 -1.1283
 4563SOL    HW225326   1.705   2.612  10.957  0.4396 -1.4141 -0.6203
 4564SOL     OW25327   3.449   0.046   1.462 -0.3110 -0.3433 -0.1922
 4564SOL    HW125328   3.494   0.028   1.545 -0.5669 -1.2464 -0.2557
 4564SOL    HW225329   3.512   0.100   1.413 -1.5127  0.6765 -0.6104
 4565SOL     OW25330   1.485   3.861   5.629  0.1139 -0.3737 -0.0704
 4565SOL    HW125331   1.449   3.925   5.568  1.1622 -0.3505 -0.6683
 4565SOL    HW225332   1.516   3.921   5.697  1.1817 -1.3485  0.3100
 4566SOL     OW25333   2.385   3.430   3.234  0.6656  0.0653 -0.0982
 4566SOL    HW125334   2.315   3.367   3.218 -0.6743  0.9337  2.2416
 4566SOL    HW225335   2.387   3.420   3.329  1.0461 -1.7208 -0.2999
 4567SOL     OW25336   2.867   3.848   6.334 -0.1714  0.3479  0.3206
 4567SOL    HW125337   2.948   3.811   6.370  0.4654  0.1899 -1.2996
 4567SOL    HW225338   2.846   3.912   6.402  1.8696 -0.8485  2.0904
 4568SOL     OW25339   2.531   2.332   3.034  0.1128  0.9356  0.2951
 4568SOL    HW125340   2.445   2.373   3.034  0.3575  1.4537  0.1739
 4568SOL    HW225341   2.562   2.345   2.945 -2.4705  0.1965 -0.7026
 4569SOL     OW25342   4.245   3.685   8.632 -0.0997 -0.1832 -0.0022
 4569SOL    HW125343   4.218   3.650   8.717  3.7808 -0.6896  1.0118
 4569SOL    HW225344   4.239   3.781   8.632 -2.1547 -0.3077  0.4983
 4570SOL     OW25345   0.244   4.380   5.262  0.0073 -0.0210  0.1543
 4570SOL    HW125346   0.244   4.386   5.357  0.1125  0.0318  0.1509
 4570SOL    HW225347   0.234   4.284   5.262 -2.8341  0.2790  1.5205
 4571SOL     OW25348   1.130   4.190   1.597 -0.1719  0.6073 -0.1468
 4571SOL    HW125349   1.073   4.248   1.647 -1.2116  0.1059 -0.7637
 4571SOL    HW225350   1.120   4.224   1.508  0.4526  0.3771 -0.3087
 4572SOL     OW25351   3.420   3.798  14.834  0.0393 -0.1968  0.6657
 4572SOL    HW125352   3.491   3.769  14.776  1.2505  1.7243  1.2269
 4572SOL    HW225353   3.399   3.887  14.806  1.0215  0.2960  1.5230
 4573SOL     OW25354   1.062   4.314   6.851 -0.2695  0.4408 -0.2609
 4573SOL    HW125355   1.080   4.369   6.927 -2.4404  2.9023 -1.5817
 4573SOL    HW225356   1.118   4.351   6.782 -2.2058 -1.5982 -2.9383
 4574SOL     OW25357   3.944   2.788   2.554 -0.1436 -0.6272  0.4763
 4574SOL    HW125358   3.973   2.754   2.639 -0.5364 -0.1671  0.7995
 4574SOL    HW225359   3.984   2.719   2.502  1.6794 -0.1147  1.2006
 4575SOL     OW25360   2.496   3.381   3.733 -0.2585  0.1851 -0.9339
 4575SOL    HW125361   2.477   3.414   3.821  2.5549  4.0460 -1.7742
 4575SOL    HW225362   2.573   3.429   3.701  0.9210  0.1275  1.7563
 4576SOL     OW25363   2.206   1.247   5.302 -0.5639  0.4674  0.6006
 4576SOL    HW125364   2.134   1.265   5.242  0.0622  0.3137 -0.2107
 4576SOL    HW225365   2.247   1.334   5.307  2.4362 -0.8241 -0.9503
 4577SOL     OW25366   3.950   0.025   4.367  0.2829 -0.6127  0.1601
 4577SOL    HW125367   3.861   0.054   4.387  1.7060  2.8737  1.2768
 4577SOL    HW225368   3.992   0.080   4.432  0.9693 -0.2789 -0.5765
 4578SOL     OW25369   0.389   2.399  17.536 -0.5269 -0.0061  0.3929
 4578SOL    HW125370   0.449   2.328  17.561  1.7229  1.1340 -1.8308
 4578SOL    HW225371   0.451   2.471  17.547  0.9848 -1.4706  1.5100
 4579SOL     OW25372   1.361   0.830   9.596 -0.3288 -0.2876 -0.2178
 4579SOL    HW125373   1.286   0.811   9.653 -0.1145  2.6939  1.0844
 4579SOL    HW225374   1.352   0.766   9.526 -3.3369  0.1616 -0.2643
 4580SOL     OW25375   0.119   2.283   3.688  0.3166 -0.4385 -0.6944
 4580SOL    HW125376   0.165   2.356   3.729 -1.6032 -0.0590  0.7581
 4580SOL    HW225377   0.187   2.234   3.643  1.7355  0.3124  0.6215
 4581SOL     OW25378   2.447   2.705  17.721 -0.3033  0.7372 -0.2423
 4581SOL    HW125379   2.530   2.747  17.701  0.6876 -1.1755 -0.0972
 4581SOL    HW225380   2.461   2.623   0.010 -0.1181  0.3257 -1.0362
 4582SOL     OW25381   3.841   2.440   2.729 -0.2930 -0.4698  0.3912
 4582SOL    HW125382   3.767   2.495   2.704  1.5755  1.0217 -1.8768
 4582SOL    HW225383   3.821   2.419   2.821  0.2099  1.5135  0.9628
 4583SOL     OW25384   2.749   0.524   9.627  0.1865 -0.1025 -0.2302
 4583SOL    HW125385   2.654   0.523   9.626  0.1245  1.5116  3.0508
 4583SOL    HW225386   2.777   0.606   9.668 -0.1004  0.9400 -2.1093
 4584SOL     OW25387   0.734   4.209   3.993  0.7788  0.6277  0.1567
 4584SOL    HW125388   0.732   4.204   4.089  2.0510  0.8049  0.1837
 4584SOL    HW225389   0.716   4.302   3.978  0.5018  0.7067  0.9718
 4585SOL     OW25390   1.212   3.357   2.549  0.5211 -0.3009  0.0771
 4585SOL    HW125391   1.128   3.395   2.576 -0.7766 -2.0106 -1.5849
 4585SOL    HW225392   1.198   3.354   2.455  0.2956 -2.0983  0.1726
 4586SOL     OW25393   2.512   0.586   4.057  0.1818 -0.1381 -0.5047
 4586SOL    HW125394   2.520   0.519   3.990 -0.9684 -0.4091 -0.3695
 4586SOL    HW225395   2.602   0.584   4.090  0.8409  2.4743 -2.1043
 4587SOL     OW25396   2.677   1.317   3.665 -0.4321 -0.4565  0.0758
 4587SOL    HW125397   2.728   1.255   3.613  1.6529  0.3359  1.1563
 4587SOL    HW225398   2.697   1.287   3.754 -1.7399  0.1925  0.5832
 4588SOL     OW25399   3.149   2.423   1.414 -0.4639 -0.5078  0.0324
 4588SOL    HW125400   3.177   2.379   1.494 -0.4975 -1.6950 -0.6079
 4588SOL    HW225401   3.157   2.515   1.439 -2.5956 -0.5196  0.7964
 4589SOL     OW25402   3.960   1.478   5.661 -0.0104  0.1346  0.1925
 4589SOL    HW125403   4.029   1.415   5.639  0.6870  0.5538  1.2119
 4589SOL    HW225404   3.900   1.411   5.694  0.0572 -0.2674 -0.4785
 4590SOL     OW25405   0.863   4.736   6.165  0.3396 -0.2920  0.4779
 4590SOL    HW125406   0.922   4.663   6.149  2.3819  1.4469 -0.0226
 4590SOL    HW225407   0.803   4.738   6.091  1.2525  1.7737 -0.2239
 4591SOL     OW25408   2.427   1.762   7.245 -0.1305 -0.0325 -0.7726
 4591SOL    HW125409   2.522   1.752   7.234  0.1476  1.1004  0.6012
 4591SOL    HW225410   2.423   1.755   7.340  0.4964 -1.2318 -0.8279
 4592SOL     OW25411   4.173   2.424   9.859  0.7404 -0.4693  0.0172
 4592SOL    HW125412   4.176   2.423   9.763  0.8110  1.1973  0.0055
 4592SOL    HW225413   4.229   2.350   9.883  2.8292  0.4142 -2.1270
 4593SOL     OW25414   1.001   3.763  13.038  0.4618 -0.7053  0.2325
 4593SOL    HW125415   1.079   3.801  12.997 -0.9762  2.6465  0.6572
 4593SOL    HW225416   0.930   3.787  12.978 -0.2928 -2.0697  0.5910
 4594SOL     OW25417   1.734   2.030   8.038  0.2978 -0.0578 -0.1374
 4594SOL    HW125418   1.702   1.950   8.079 -0.0717  0.4335  0.5306
 4594SOL    HW225419   1.753   2.089   8.111 -0.1745  0.5176 -0.4768
 4595SOL     OW25420   3.635   0.622  15.168 -0.3133  0.2873  0.2644
 4595SOL    HW125421   3.705   0.635  15.232 -0.6224 -0.6416  0.7935
 4595SOL    HW225422   3.596   0.537  15.190  1.4568 -0.4729  0.3937
 4596SOL     OW25423   3.011   4.400   1.153  0.0914  0.3746  0.0730
 4596SOL    HW125424   2.938   4.362   1.201  1.6924 -1.5843  0.9342
 4596SOL    HW225425   3.051   4.436   1.232  2.1082  0.8671 -1.1504
 4597SOL     OW25426   0.590   0.686   2.662  0.4897 -0.0547 -0.1499
 4597SOL    HW125427   0.634   0.606   2.635 -0.8226 -0.0660 -2.2290
 4597SOL    HW225428   0.651   0.748   2.622  0.9128 -0.7834 -0.6318
 4598SOL     OW25429   1.733   4.523   2.308  0.5918 -0.1572  0.2724
 4598SOL    HW125430   1.653   4.566   2.280  1.5977 -0.3257 -2.9886
 4598SOL    HW225431   1.726   4.504   2.401 -1.4918  0.6540  0.2739
 4599SOL     OW25432   1.776   4.150   8.949  0.2832 -0.5232  0.4178
 4599SOL    HW125433   1.859   4.196   8.961  0.2038 -0.2417 -0.1114
 4599SOL    HW225434   1.729   4.161   9.032  0.5109  1.4012  0.2876
 4600SOL     OW25435   0.343   0.427   9.058 -0.3964  0.5511 -0.5698
 4600SOL    HW125436   0.409   0.358   9.065 -0.5395  0.4406 -0.2845
 4600SOL    HW225437   0.389   0.502   9.096 -2.6589  2.0432 -0.7607
 4601SOL     OW25438   3.537   0.182   2.619  0.4413 -0.2288  0.3204
 4601SOL    HW125439   3.477   0.250   2.652  2.1273  0.4371  2.0024
 4601SOL    HW225440   3.603   0.240   2.581  0.7489 -2.3670 -2.3404
 4602SOL     OW25441   2.108   1.817   3.244  0.2507  0.4903 -0.0791
 4602SOL    HW125442   2.101   1.779   3.332  0.5481 -1.5107 -0.9306
 4602SOL    HW225443   2.053   1.893   3.263 -0.8249 -0.6558  1.4777
 4603SOL     OW25444   4.100   3.295   3.326  0.2459 -0.7426 -0.4974
 4603SOL    HW125445   4.072   3.367   3.382  0.1173 -0.5976 -0.7474
 4603SOL    HW225446   4.144   3.335   3.251 -0.5582 -1.4320 -1.3287
 4604SOL     OW25447   3.930   0.169   3.544 -0.5218 -0.2751  0.1231
 4604SOL    HW125448   3.939   0.095   3.485  0.1291  1.1727 -1.5793
 4604SOL    HW225449   3.906   0.123   3.624 -2.2995 -0.5166 -0.5562
 4605SOL     OW25450   2.647   1.284   3.291 -0.0147  0.4465  0.2764
 4605SOL    HW125451   2.686   1.311   3.207  0.3930 -1.8126 -0.2602
 4605SOL    HW225452   2.590   1.361   3.301 -1.0468 -0.2096 -0.5909
 4606SOL     OW25453   3.042   2.471   9.124  0.3742 -0.5021  0.5007
 4606SOL    HW125454   2.955   2.433   9.109 -0.6295  0.8793  2.7721
 4606SOL    HW225455   3.094   2.392   9.136  0.9546 -0.0148  1.1916
 4607SOL     OW25456   0.983   2.538   1.207  0.2087 -0.2533 -0.4663
 4607SOL    HW125457   0.951   2.588   1.282  0.6831 -1.7120  0.7099
 4607SOL    HW225458   1.046   2.477   1.244 -0.5142 -0.2111  0.8317
 4608SOL     OW25459   2.799   2.707   9.852 -0.2911  0.1352  0.2034
 4608SOL    HW125460   2.875   2.709   9.911 -0.4295 -0.5024  0.4046
 4608SOL    HW225461   2.839   2.717   9.766  0.6097 -1.6028  0.4090
 4609SOL     OW25462   2.294   1.672   4.826  0.8878  0.0953 -0.2624
 4609SOL    HW125463   2.385   1.649   4.848  0.4724 -0.5817  0.7479
 4609SOL    HW225464   2.271   1.595   4.775 -1.9922  0.5176  0.3845
 4610SOL     OW25465   0.220   4.438  10.385  0.2159 -0.1698 -0.2060
 4610SOL    HW125466   0.131   4.403  10.389  0.4916 -0.4330  3.5433
 4610SOL    HW225467   0.229   4.462  10.477 -1.1388  1.9153 -0.6233
 4611SOL     OW25468   0.585   0.818  14.611  0.0259 -0.0912  0.1225
 4611SOL    HW125469   0.517   0.831  14.545 -0.8764 -0.5359  0.9851
 4611SOL    HW225470   0.608   0.910  14.625 -0.1495 -0.0831  0.3599
 4612SOL     OW25471   1.951   3.013   0.613 -0.0210 -0.3373 -0.2315
 4612SOL    HW125472   1.890   3.000   0.540 -1.7562 -0.0291  1.1455
 4612SOL    HW225473   1.892   3.028   0.687  0.4058 -1.0146  0.2434
 4613SOL     OW25474   0.765   2.718   8.679  0.0148  0.1720  0.3632
 4613SOL    HW125475   0.833   2.778   8.711  1.2681 -0.5262 -1.0219
 4613SOL    HW225476   0.808   2.633   8.692 -1.6881 -0.6107  0.9152
 4614SOL     OW25477   3.535   0.235   5.721 -0.7922  0.0407  0.0221
 4614SOL    HW125478   3.595   0.307   5.739 -1.8176  1.0961 -0.7449
 4614SOL    HW225479   3.598   0.164   5.731  0.2755  0.6524 -2.2376
 4615SOL     OW25480   2.354   3.533   7.535  0.1775  0.0128 -0.9792
 4615SOL    HW125481   2.342   3.573   7.621  1.0172 -1.0349 -0.3773
 4615SOL    HW225482   2.262   3.533   7.508  0.0458 -0.1823 -0.5237
 4616SOL     OW25483   0.116   2.438  17.607 -0.2020 -0.2754 -0.1034
 4616SOL    HW125484   0.197   2.444  17.556 -0.1055  0.0651  0.0873
 4616SOL    HW225485   0.132   2.373  17.676 -1.2414 -0.4124  0.0142
 4617SOL     OW25486   0.315   4.310  13.271 -0.5241 -0.4007 -0.0019
 4617SOL    HW125487   0.380   4.347  13.330  0.3727  1.7129 -2.3484
 4617SOL    HW225488   0.308   4.229  13.322  1.5664  1.0636  2.6080
 4618SOL     OW25489   0.278   3.958   7.364 -0.1849 -0.2429 -0.2571
 4618SOL    HW125490   0.243   4.036   7.320  1.1437  1.9951  2.6206
 4618SOL    HW225491   0.356   3.993   7.406 -0.3310 -1.4618  1.0343
 4619SOL     OW25492   4.234   1.453   1.874  0.4492 -0.4974 -0.1478
 4619SOL    HW125493   4.304   1.492   1.926 -0.5878 -0.3456  1.1545
 4619SOL    HW225494   4.279   1.374   1.844  0.6102 -0.4240 -0.1007
 4620SOL     OW25495   3.944   2.884   3.860  0.3394  0.4480 -0.7510
 4620SOL    HW125496   4.002   2.957   3.841  0.5127  0.0988 -1.5469
 4620SOL    HW225497   4.009   2.816   3.874  0.2998  0.5692  0.0164
 4621SOL     OW25498   2.050   2.703   5.757  0.1615 -0.2901  0.0611
 4621SOL    HW125499   2.072   2.796   5.763 -1.6133  0.0908  0.4505
 4621SOL    HW225500   2.118   2.678   5.695 -0.3342 -1.0208 -0.1848
 4622SOL     OW25501   3.170   3.625   5.584  0.0805  0.4705 -0.2845
 4622SOL    HW125502   3.177   3.539   5.542  0.3903  0.1467  0.4395
 4622SOL    HW225503   3.222   3.604   5.661  1.2633 -0.4942 -1.3539
 4623SOL     OW25504   0.808   1.131   6.607 -0.3815  0.2297 -0.0260
 4623SOL    HW125505   0.788   1.224   6.600 -2.4846 -0.2293 -0.0743
 4623SOL    HW225506   0.719   1.103   6.630 -1.5579  3.2890 -0.8461
 4624SOL     OW25507   2.182   2.082   8.983 -0.2351 -0.6582  0.4584
 4624SOL    HW125508   2.140   2.164   9.012  0.0027 -0.5840  0.5860
 4624SOL    HW225509   2.229   2.055   9.061  0.3184  0.8294  0.6481
 4625SOL     OW25510   0.121   2.089   2.595 -0.0804 -0.3617  0.3265
 4625SOL    HW125511   0.076   2.054   2.518  1.0646 -2.8381  0.7573
 4625SOL    HW225512   0.044   2.114   2.645 -1.2042 -0.0117 -1.5722
 4626SOL     OW25513   1.822   4.362  11.271 -0.6874  0.4092 -0.5721
 4626SOL    HW125514   1.868   4.437  11.308 -0.5351 -0.4985  1.0669
 4626SOL    HW225515   1.875   4.290  11.305 -1.0281  0.8407  0.8949
 4627SOL     OW25516   2.101   4.167   8.025  0.3624 -0.6973  0.3167
 4627SOL    HW125517   2.120   4.089   8.077 -0.9677 -0.9092  0.4903
 4627SOL    HW225518   2.044   4.218   8.082 -0.3659 -1.4636  0.2726
 4628SOL     OW25519   1.879   2.072   4.198  0.7841  0.1253 -0.1069
 4628SOL    HW125520   1.804   2.105   4.248  1.1678 -0.8869  1.1526
 4628SOL    HW225521   1.847   1.988   4.164 -0.2363 -0.0726  1.3451
 4629SOL     OW25522   4.487   2.943   0.019 -0.4787  0.0989  0.0171
 4629SOL    HW125523   4.558   2.947   0.084 -0.8820  2.2890  0.3099
 4629SOL    HW225524   4.537   2.903  17.705  3.0093  0.5483  2.1700
 4630SOL     OW25525   4.608   2.477   6.102  0.8801  0.1003 -0.3143
 4630SOL    HW125526   4.534   2.470   6.163 -0.0267 -0.3598 -1.4807
 4630SOL    HW225527   4.646   2.560   6.134 -0.0195  0.4402 -0.1303
 4631SOL     OW25528   3.038   1.088  16.857  0.5961 -0.0512 -0.1351
 4631SOL    HW125529   3.112   1.141  16.826  1.3578 -0.7211  0.5171
 4631SOL    HW225530   2.967   1.118  16.802  0.5637 -1.2921 -0.7772
 4632SOL     OW25531   4.088   1.572   1.643 -0.2128  0.1532 -0.0459
 4632SOL    HW125532   4.163   1.593   1.588  0.7765 -1.6797  0.5839
 4632SOL    HW225533   4.137   1.561   1.725  0.9342  2.3938 -0.4444
 4633SOL     OW25534   2.973   1.871   1.502  0.4249  0.0274  0.3492
 4633SOL    HW125535   3.028   1.817   1.559  0.5701  0.3164  0.4799
 4633SOL    HW225536   3.029   1.947   1.513  0.2007  0.5340 -2.0247
 4634SOL     OW25537   4.034   2.446  10.959 -0.0390 -0.4101  0.6794
 4634SOL    HW125538   3.957   2.388  10.964  0.4395 -1.0168  1.0968
 4634SOL    HW225539   4.014   2.509  10.890  1.6541  2.4485  2.8618
 4635SOL     OW25540   2.400   4.128   0.419 -0.4208  0.0135  1.0583
 4635SOL    HW125541   2.345   4.098   0.491 -1.2630 -1.1286 -0.0608
 4635SOL    HW225542   2.419   4.215   0.454  1.3460 -0.4305  1.2464
 4636SOL     OW25543   2.336   3.760   4.299 -0.3118 -0.2110  0.6073
 4636SOL    HW125544   2.254   3.721   4.267  1.0138  0.3473 -3.4672
 4636SOL    HW225545   2.301   3.807   4.375  1.4888  1.0646  0.6432
 4637SOL     OW25546   2.913   4.632   6.921 -0.0124  0.0731  0.2722
 4637SOL    HW125547   2.937   4.542   6.945  0.2833  1.0229  3.4521
 4637SOL    HW225548   2.992   4.658   6.874  0.1457  0.8569  0.9752
 4638SOL     OW25549   1.450   2.551   9.980 -0.4671 -0.0320  0.3608
 4638SOL    HW125550   1.429   2.632  10.027  1.1149 -0.5488  1.9703
 4638SOL    HW225551   1.375   2.498  10.004  0.3911 -0.9090  1.0770
 4639SOL     OW25552   0.056   2.178   3.010 -0.3540 -0.0626  0.2469
 4639SOL    HW125553   0.062   2.141   3.098  0.5502 -2.7306 -0.9081
 4639SOL    HW225554   0.010   2.104   2.968 -1.1102 -0.3474  1.5858
 4640SOL     OW25555   4.595   4.359   9.303 -0.2801 -0.2595  0.5199
 4640SOL    HW125556   4.685   4.369   9.335  0.2068  1.4101 -1.3210
 4640SOL    HW225557   4.614   4.319   9.219 -0.2698 -0.8341  0.8000
 4641SOL     OW25558   4.279   1.159   2.210 -0.0017 -0.0111  0.2816
 4641SOL    HW125559   4.221   1.129   2.280  0.8907 -1.1476  0.5339
 4641SOL    HW225560   4.252   1.102   2.139 -1.1497 -1.3870  1.8243
 4642SOL     OW25561   0.168   4.641   2.688 -0.4039 -0.6064  0.0220
 4642SOL    HW125562   0.188   4.571   2.626  0.2011 -1.7893  1.5519
 4642SOL    HW225563   0.084   4.605   2.717 -0.1079 -1.8661 -0.7362
 4643SOL     OW25564   0.662   3.702  17.225 -0.1661  0.0577  0.5148
 4643SOL    HW125565   0.726   3.631  17.233 -0.2235  0.3036  2.9427
 4643SOL    HW225566   0.660   3.731  17.316 -0.2278 -0.6010  0.7233
 4644SOL     OW25567   4.650   0.460   4.969  0.8543  0.2921  0.0421
 4644SOL    HW125568   4.723   0.408   4.937 -0.2011 -0.3058 -1.4203
 4644SOL    HW225569   4.664   0.552   4.944 -1.2689  0.5615 -0.2345
 4645SOL     OW25570   3.712   0.149   2.854 -0.0004  0.6266 -0.0804
 4645SOL    HW125571   3.675   0.233   2.828 -0.5073  0.4431  0.0355
 4645SOL    HW225572   3.636   0.090   2.853 -0.7480  1.6118 -1.1428
 4646SOL     OW25573   2.991   1.726  14.805  0.8055 -0.6879  0.2007
 4646SOL    HW125574   3.011   1.789  14.874 -2.0763 -0.6784  1.0137
 4646SOL    HW225575   2.952   1.780  14.736 -0.5218 -0.0198  1.4808
 4647SOL     OW25576   2.301   1.221   7.705 -0.5328 -0.5000 -0.2130
 4647SOL    HW125577   2.313   1.304   7.661 -1.2355  0.3564  1.2143
 4647SOL    HW225578   2.332   1.158   7.640  0.2229 -1.2338  0.8474
 4648SOL     OW25579   4.640   1.283   5.388  0.1101 -0.3041  0.2043
 4648SOL    HW125580   4.709   1.246   5.333 -0.9890 -2.3476  0.1894
 4648SOL    HW225581   4.639   1.370   5.349 -0.5408  0.0637  1.0358
 4649SOL     OW25582   1.751   1.024  16.650  0.0847 -0.2132 -0.2167
 4649SOL    HW125583   1.773   1.039  16.558 -0.4836  0.6411 -0.2112
 4649SOL    HW225584   1.787   1.100  16.696 -0.8993  0.1588 -0.0605
 4650SOL     OW25585   4.734   4.670   3.135 -0.2357 -0.1933 -0.1461
 4650SOL    HW125586   0.079   4.636   3.162  1.7758  0.6223 -5.6760
 4650SOL    HW225587   4.685   4.635   3.210 -0.1928  0.3585  0.1411
 4651SOL     OW25588   1.688   1.354  17.737 -0.4857  0.6247 -0.2570
 4651SOL    HW125589   1.733   1.273   0.003  2.5756  2.2290 -0.6383
 4651SOL    HW225590   1.765   1.409  17.722 -0.2756  0.4947  0.3112
 4652SOL     OW25591   3.797   1.963   2.844 -0.2360  0.3234 -0.1678
 4652SOL    HW125592   3.812   1.869   2.829 -2.8048 -0.3648  1.6042
 4652SOL    HW225593   3.856   1.988   2.915 -1.2323  0.0571  0.7402
 4653SOL     OW25594   2.133   1.177  14.675 -0.1999  0.6649 -0.0492
 4653SOL    HW125595   2.104   1.250  14.729 -0.8406  0.0163  0.4669
 4653SOL    HW225596   2.172   1.214  14.596 -1.0454  0.6578 -0.4697
 4654SOL     OW25597   4.199   1.791   4.255  0.9663 -0.6703 -0.5536
 4654SOL    HW125598   4.257   1.855   4.296 -0.2426 -0.4037  0.7646
 4654SOL    HW225599   4.145   1.848   4.200  1.6803 -0.1455 -0.7088
 4655SOL     OW25600   3.626   0.408   3.732  0.4054  0.5955  0.0633
 4655SOL    HW125601   3.679   0.416   3.653  1.8575 -0.1258  0.9735
 4655SOL    HW225602   3.682   0.361   3.794 -3.1836 -0.2448  2.6991
 4656SOL     OW25603   1.866   1.016   0.973  0.0592 -0.0259 -0.2563
 4656SOL    HW125604   1.851   1.084   1.038 -1.2386 -2.5074  2.0448
 4656SOL    HW225605   1.886   0.948   1.037 -2.2532  0.5331  1.0764
 4657SOL     OW25606   1.914   3.834   8.357  0.0530  0.3091  0.2410
 4657SOL    HW125607   1.914   3.872   8.445  2.0055 -1.8998  1.1924
 4657SOL    HW225608   2.000   3.792   8.361  0.3207  1.0017  1.7496
 4658SOL     OW25609   0.318   0.580   3.796  0.3490 -0.5802  0.2479
 4658SOL    HW125610   0.385   0.620   3.740  0.1743 -3.7286 -2.2554
 4658SOL    HW225611   0.262   0.543   3.727  1.7354  0.1937 -1.3093
 4659SOL     OW25612   3.418   2.238   5.291 -1.0085 -0.1566  0.2508
 4659SOL    HW125613   3.488   2.188   5.332 -2.1308 -2.1730 -0.3086
 4659SOL    HW225614   3.470   2.309   5.253 -1.5040  0.9913  1.7414
 4660SOL     OW25615   0.925   2.995   1.230 -0.1347  0.4353 -0.1793
 4660SOL    HW125616   0.983   3.057   1.274  0.6059  0.7502 -1.5744
 4660SOL    HW225617   0.872   3.057   1.179 -1.7026  0.3671  1.3879
 4661SOL     OW25618   4.352   4.336   2.206 -0.0887 -0.2251  0.0729
 4661SOL    HW125619   4.332   4.410   2.263 -0.0752  0.5128 -0.8860
 4661SOL    HW225620   4.282   4.345   2.141  0.7287 -2.2687 -1.0966
 4662SOL     OW25621   4.390   1.069  13.421  0.0308  0.3164 -0.6017
 4662SOL    HW125622   4.463   1.097  13.365  0.5893 -0.7013 -0.3899
 4662SOL    HW225623   4.439   1.055  13.502  1.7068 -2.2610 -2.0397
 4663SOL     OW25624   1.239   2.586   1.482  0.2664 -0.0116  0.3746
 4663SOL    HW125625   1.157   2.536   1.487 -0.3409  0.8874 -0.6513
 4663SOL    HW225626   1.311   2.524   1.497 -1.3609 -1.5928  1.6602
 4664SOL     OW25627   1.002   4.290  15.519 -0.0140  0.2107 -0.0896
 4664SOL    HW125628   0.960   4.354  15.576 -1.1880  1.3387 -2.2158
 4664SOL    HW225629   0.965   4.207  15.547  1.5562 -0.7178 -0.7420
 4665SOL     OW25630   2.152   2.974  10.663 -0.4068 -0.2587 -0.7499
 4665SOL    HW125631   2.179   3.041  10.727 -2.4014  1.3685 -1.5943
 4665SOL    HW225632   2.066   3.010  10.643  0.1422 -0.0673 -2.7862
 4666SOL     OW25633   2.069   4.335  15.466 -0.2647 -0.1037 -0.4307
 4666SOL    HW125634   2.069   4.283  15.546  2.2759 -0.4240 -0.6381
 4666SOL    HW225635   2.092   4.270  15.400 -0.4571  1.3621 -1.9299
 4667SOL     OW25636   3.148   2.803   3.385  0.1699  0.6969  0.5479
 4667SOL    HW125637   3.206   2.820   3.459  0.3079 -0.6726  0.7451
 4667SOL    HW225638   3.127   2.894   3.365 -1.4691  0.8292  2.8506
 4668SOL     OW25639   0.321   0.112   3.764  0.2252 -0.4361  0.0056
 4668SOL    HW125640   0.269   0.082   3.690  0.4347 -1.7467  0.3920
 4668SOL    HW225641   0.383   0.174   3.727  1.1145 -0.0723  2.1154
 4669SOL     OW25642   2.240   2.869  11.567 -0.0707  0.1984  0.1313
 4669SOL    HW125643   2.151   2.840  11.550  0.0564  0.0133 -0.2188
 4669SOL    HW225644   2.258   2.809  11.640  0.4344  0.5429  0.2933
 4670SOL     OW25645   4.683   2.078   3.558  0.4018  0.0975  0.3213
 4670SOL    HW125646   4.594   2.065   3.591 -0.0443  3.1843  0.3407
 4670SOL    HW225647   4.709   2.158   3.604  1.2282 -0.0735  0.1486
 4671SOL     OW25648   1.364   1.446  16.621  0.1371 -0.2082 -0.4524
 4671SOL    HW125649   1.437   1.387  16.601  0.4340  0.4552 -1.3182
 4671SOL    HW225650   1.363   1.495  16.539  0.5085  0.9132  0.1993
 4672SOL     OW25651   3.250   0.867  15.095  0.5741  0.0771  0.2229
 4672SOL    HW125652   3.255   0.962  15.110 -1.3057 -0.2460  2.9317
 4672SOL    HW225653   3.316   0.857  15.164  0.4814 -0.1700  0.2733
 4673SOL     OW25654   2.391   2.738  12.783  0.3417  1.1618 -0.0696
 4673SOL    HW125655   2.333   2.784  12.722  1.9487  1.0634 -1.6758
 4673SOL    HW225656   2.378   2.796  12.857  3.3267  2.2214 -0.3754
 4674SOL     OW25657   3.659   0.882   6.330  0.0797  0.1067 -0.0680
 4674SOL    HW125658   3.576   0.836   6.314  0.8305 -1.1053 -0.5223
 4674SOL    HW225659   3.684   0.920   6.246 -0.1444  2.2145  0.8241
 4675SOL     OW25660   1.363   4.569   0.113 -0.0248  0.4979  0.6426
 4675SOL    HW125661   1.306   4.530   0.047  1.7689  3.5189 -2.6244
 4675SOL    HW225662   1.354   4.497   0.176 -1.1065 -0.5127 -0.6696
 4676SOL     OW25663   3.881   1.915   9.039 -0.4471  0.4912  0.1547
 4676SOL    HW125664   3.921   1.984   9.091 -1.6506  0.8198  0.6498
 4676SOL    HW225665   3.813   1.878   9.095 -0.9195 -0.4529 -1.0479
 4677SOL     OW25666   2.651   1.105   4.281 -1.2579  0.1012 -0.2026
 4677SOL    HW125667   2.708   1.168   4.237 -2.1946  0.4578 -0.9096
 4677SOL    HW225668   2.587   1.164   4.320  1.0738  1.7450  1.1723
 4678SOL     OW25669   0.390   1.772   4.519  0.6007 -0.3106 -0.1668
 4678SOL    HW125670   0.462   1.723   4.480  0.1882 -0.2364 -1.0106
 4678SOL    HW225671   0.321   1.771   4.453 -0.3433  1.9584  0.7904
 4679SOL     OW25672   1.586   3.455  14.178  0.1080  0.0684  0.0153
 4679SOL    HW125673   1.615   3.538  14.215 -1.0704  0.1983  0.6573
 4679SOL    HW225674   1.523   3.487  14.113  1.0738  1.5428 -0.1980
 4680SOL     OW25675   1.747   1.415   4.850  0.3899  0.4733 -0.2250
 4680SOL    HW125676   1.703   1.402   4.934 -0.4717 -1.2900 -0.9705
 4680SOL    HW225677   1.680   1.467   4.806  0.3695  1.2119  0.6706
 4681SOL     OW25678   0.480   3.759   5.517 -0.5211 -0.5484 -0.3029
 4681SOL    HW125679   0.451   3.816   5.446  0.7425 -0.3191 -0.6250
 4681SOL    HW225680   0.410   3.696   5.530  1.0971 -2.0216  1.3094
 4682SOL     OW25681   2.238   3.594   6.244 -0.6856  0.0319  0.1765
 4682SOL    HW125682   2.227   3.538   6.167 -1.7309  0.3921  0.0590
 4682SOL    HW225683   2.326   3.567   6.268  0.2403  0.0457 -3.0831
 4683SOL     OW25684   0.308   3.372   5.813  0.0747  0.6274  0.6276
 4683SOL    HW125685   0.234   3.339   5.864 -0.6533  2.1071  0.5464
 4683SOL    HW225686   0.360   3.298   5.841  1.7815  1.6959  0.2711
 4684SOL     OW25687   3.805   2.293   1.464  0.5022  0.4203 -0.1439
 4684SOL    HW125688   3.769   2.212   1.500  0.7930 -0.1208 -1.0845
 4684SOL    HW225689   3.795   2.345   1.544  1.4702 -0.7129  0.7242
 4685SOL     OW25690   0.829   0.843   6.476 -0.3146  0.0623  0.4369
 4685SOL    HW125691   0.796   0.897   6.548 -1.2570 -1.9478  1.5365
 4685SOL    HW225692   0.755   0.828   6.418 -0.2577  0.2918  0.3075
 4686SOL     OW25693   4.061   1.819   5.829  0.7711 -0.5310  0.2717
 4686SOL    HW125694   4.059   1.737   5.880  0.9679 -0.4750  0.3714
 4686SOL    HW225695   4.144   1.806   5.783  0.0906 -0.9732 -0.8311
 4687SOL     OW25696   0.161   0.111   5.314 -0.6364 -0.7104  0.2468
 4687SOL    HW125697   0.142   0.170   5.387  1.0593  1.5909 -1.1935
 4687SOL    HW225698   0.187   0.037   5.369 -0.7689 -0.5317  0.5511
 4688SOL     OW25699   3.682   0.890   8.800  0.0883 -0.4801  0.5849
 4688SOL    HW125700   3.592   0.864   8.779 -0.4310  2.3558 -0.5592
 4688SOL    HW225701   3.722   0.850   8.723  0.4170 -0.5087  0.7707
 4689SOL     OW25702   0.477   0.281  13.484 -0.3908  0.5554 -0.1816
 4689SOL    HW125703   0.412   0.352  13.486 -2.0001 -0.9047 -0.0990
 4689SOL    HW225704   0.549   0.325  13.440  1.2571 -0.9980  1.0022
 4690SOL     OW25705   2.107   3.060   7.431  0.2601  0.0316 -0.5268
 4690SOL    HW125706   2.047   3.020   7.494  0.9206 -0.3527 -0.1362
 4690SOL    HW225707   2.047   3.081   7.359  0.4404  0.1456 -0.6447
 4691SOL     OW25708   2.878   1.466   6.521  0.4641  0.0123 -0.1555
 4691SOL    HW125709   2.962   1.460   6.474  1.0443  1.3319  0.6909
 4691SOL    HW225710   2.868   1.561   6.518 -0.3912 -0.0870 -0.3390
 4692SOL     OW25711   0.320   4.578  10.164  0.2231  0.5688  0.3878
 4692SOL    HW125712   0.234   4.576  10.123 -0.5838 -1.0284  2.1964
 4692SOL    HW225713   0.306   4.523  10.241 -0.2654  0.9954  0.6041
 4693SOL     OW25714   0.743   3.726  16.085  0.1909  0.8672  0.1085
 4693SOL    HW125715   0.735   3.805  16.031 -0.4147  1.0893  0.5312
 4693SOL    HW225716   0.838   3.736  16.087  0.2723 -0.7439  3.2324
 4694SOL     OW25717   4.018   0.164   6.402  0.1911 -0.1367  0.3227
 4694SOL    HW125718   4.053   0.221   6.333  0.2611 -1.1259 -0.4690
 4694SOL    HW225719   4.018   0.229   6.472  0.1476  0.0626  0.1362
 4695SOL     OW25720   1.848   0.624   6.220 -0.8776  0.0850  0.4432
 4695SOL    HW125721   1.770   0.570   6.236 -0.3918 -0.4914  0.8576
 4695SOL    HW225722   1.904   0.548   6.205 -0.3375  0.4047  0.8647
 4696SOL     OW25723   1.225   3.712   1.263 -0.6122  0.4773  0.0602
 4696SOL    HW125724   1.194   3.779   1.324 -0.2455  0.6462  0.0567
 4696SOL    HW225725   1.158   3.643   1.266 -0.5927  0.4677  0.2766
 4697SOL     OW25726   3.887   4.087   4.551  0.5050 -0.1269  0.5531
 4697SOL    HW125727   3.803   4.131   4.566  0.6893  0.0255  1.1277
 4697SOL    HW225728   3.947   4.160   4.537  0.5163 -0.6917 -2.2921
 4698SOL     OW25729   1.250   3.248   8.923 -0.0528 -0.0920  0.4836
 4698SOL    HW125730   1.160   3.276   8.903  0.4675  0.4481 -1.0990
 4698SOL    HW225731   1.276   3.209   8.840 -1.0370  3.2374 -1.3710
 4699SOL     OW25732   3.815   4.617   9.308  0.4321 -0.5781 -0.2881
 4699SOL    HW125733   3.814   4.709   9.335  1.3171 -0.7342  0.2612
 4699SOL    HW225734   3.722   4.616   9.286  0.2087 -0.4739  0.6501
 4700SOL     OW25735   0.091   2.607  16.772  1.0456  0.3142 -0.3000
 4700SOL    HW125736   0.099   2.512  16.768 -0.3336  0.1280  1.3060
 4700SOL    HW225737   0.028   2.612  16.700  1.2016  2.0652 -0.3078
 4701SOL     OW25738   2.578   3.639   7.397 -0.2209  0.0483 -0.1960
 4701SOL    HW125739   2.614   3.671   7.479 -0.0062  1.3358 -0.7855
 4701SOL    HW225740   2.490   3.618   7.428 -0.3442  1.9901  0.7170
 4702SOL     OW25741   1.304   2.727   4.823 -0.5315 -0.2258  0.2533
 4702SOL    HW125742   1.365   2.658   4.799  2.0641  2.4931 -0.8995
 4702SOL    HW225743   1.330   2.792   4.758  2.2307 -2.3266 -0.6820
 4703SOL     OW25744   2.072   0.948   5.875 -0.3979  0.2805  0.2046
 4703SOL    HW125745   2.002   0.893   5.913  1.2239 -0.3851  2.2280
 4703SOL    HW225746   2.151   0.894   5.879 -0.3074  0.2595 -1.9445
 4704SOL     OW25747   1.037   4.716  15.194  0.4810 -0.4011  0.6905
 4704SOL    HW125748   1.064   0.017  15.277 -2.1465  2.4953  0.1177
 4704SOL    HW225749   1.115   4.710  15.139 -0.7201  0.8604 -1.1492
 4705SOL     OW25750   2.526   3.690   8.342  0.2211  0.1532  0.0152
 4705SOL    HW125751   2.483   3.619   8.296  2.1399 -1.5646  0.8999
 4705SOL    HW225752   2.582   3.721   8.270  0.9048  1.2928  1.0203
 4706SOL     OW25753   0.303   3.166   6.764 -0.2819  0.9801  0.6201
 4706SOL    HW125754   0.214   3.200   6.771 -0.8185 -0.4591  0.7770
 4706SOL    HW225755   0.311   3.101   6.833  0.9554  0.5491  0.0659
 4707SOL     OW25756   0.366   2.529   8.439  0.1069 -0.1827  0.2402
 4707SOL    HW125757   0.303   2.599   8.451 -0.5729 -0.6845 -0.4093
 4707SOL    HW225758   0.358   2.529   8.343  4.3375  0.3737 -0.1386
 4708SOL     OW25759   0.649   4.139  13.529  0.0416  0.0789  0.1607
 4708SOL    HW125760   0.675   4.103  13.614 -0.5796  1.4474  0.9285
 4708SOL    HW225761   0.557   4.115  13.525 -0.0888  0.3043  1.7816
 4709SOL     OW25762   1.098   4.413   7.118 -0.0684 -0.2725  0.2778
 4709SOL    HW125763   1.137   4.501   7.123  0.2404 -0.4766  1.3662
 4709SOL    HW225764   1.154   4.361   7.176  3.8983  2.2384 -1.2701
 4710SOL     OW25765   2.138   0.333   2.419  0.0201 -0.1716 -0.8080
 4710SOL    HW125766   2.196   0.409   2.423 -0.2784 -0.0014  0.2063
 4710SOL    HW225767   2.079   0.369   2.353  0.1192  2.5697  0.6216
 4711SOL     OW25768   3.162   3.912   1.020  0.3558  0.1110  0.1140
 4711SOL    HW125769   3.136   3.820   1.028 -1.5017  0.7939  1.7704
 4711SOL    HW225770   3.244   3.897   0.972  0.2023 -2.3741  0.6141
 4712SOL     OW25771   1.076   4.592   9.812  0.1429 -0.4018 -0.4097
 4712SOL    HW125772   1.100   4.670   9.861 -1.2923 -0.6126  0.6288
 4712SOL    HW225773   1.145   4.530   9.835 -0.5287 -2.3331 -3.5285
 4713SOL     OW25774   3.454   4.491  16.573 -0.1796  0.6201 -0.8961
 4713SOL    HW125775   3.389   4.535  16.627  1.0116 -0.5145  1.4582
 4713SOL    HW225776   3.413   4.480  16.487 -2.0201 -1.5723  0.3124
 4714SOL     OW25777   3.520   2.248   9.024 -0.3514  0.4683  0.5938
 4714SOL    HW125778   3.556   2.331   8.993 -0.8838 -0.3601 -2.2513
 4714SOL    HW225779   3.543   2.248   9.117 -0.8045 -0.2361  0.7042
 4715SOL     OW25780   4.312   3.944  14.860  0.4292 -0.0645  0.1616
 4715SOL    HW125781   4.345   4.034  14.855  1.9778 -0.6628 -0.2947
 4715SOL    HW225782   4.326   3.930  14.954  2.1351 -0.6549 -0.1887
 4716SOL     OW25783   0.352   2.994   2.618  0.0541 -0.3689  0.1322
 4716SOL    HW125784   0.419   3.058   2.640  0.0167 -1.1997  2.7288
 4716SOL    HW225785   0.291   2.992   2.692  1.5061 -0.6865  1.3000
 4717SOL     OW25786   1.238   3.433   0.582  0.3465 -0.2217 -0.6287
 4717SOL    HW125787   1.267   3.512   0.627  2.3073 -1.0926 -0.3634
 4717SOL    HW225788   1.228   3.447   0.488  1.8101  2.5264 -0.3830
 4718SOL     OW25789   1.825   3.533   1.696 -0.0114  0.2617  0.4009
 4718SOL    HW125790   1.862   3.597   1.756  1.3817  0.2951 -0.5149
 4718SOL    HW225791   1.768   3.491   1.761 -1.1196  1.5823  0.3010
 4719SOL     OW25792   1.556   2.383   7.620  0.4582 -0.4520 -0.1039
 4719SOL    HW125793   1.599   2.451   7.568 -1.3032  0.2869 -0.6024
 4719SOL    HW225794   1.606   2.378   7.701 -0.4911 -1.1456  0.4460
 4720SOL     OW25795   3.277   0.033   7.911 -0.5129  0.2283  0.1331
 4720SOL    HW125796   3.297   0.122   7.938 -1.7949  0.4749  0.2583
 4720SOL    HW225797   3.330   0.024   7.832  0.7600 -0.9459  1.1075
 4721SOL     OW25798   1.348   0.480   7.037 -0.4709  0.7740  0.3481
 4721SOL    HW125799   1.371   0.501   6.946  0.8427 -0.7665  0.3170
 4721SOL    HW225800   1.355   0.566   7.080 -2.1592  0.3717  1.4261
 4722SOL     OW25801   0.827   0.455   3.913 -0.1055  0.1384 -0.1982
 4722SOL    HW125802   0.804   0.543   3.886  1.9343  0.1250 -1.9694
 4722SOL    HW225803   0.868   0.413   3.837  0.2560  0.8270 -0.3826
 4723SOL     OW25804   3.077   0.009   2.465 -0.2593 -0.3736  0.5926
 4723SOL    HW125805   3.085   0.060   2.385  1.2501 -1.5098  0.0250
 4723SOL    HW225806   3.102   4.660   2.440 -0.1890 -0.1068 -0.2648
 4724SOL     OW25807   0.254   0.214   3.397 -0.3272 -0.6048  0.6030
 4724SOL    HW125808   0.339   0.173   3.388 -0.2202 -0.0083 -1.1650
 4724SOL    HW225809   0.200   0.142   3.428 -1.3392  0.2218  0.7867
 4725SOL     OW25810   2.694   3.314   9.204  0.3413  0.8927 -0.0017
 4725SOL    HW125811   2.762   3.307   9.271  0.3794 -1.9624 -0.3329
 4725SOL    HW225812   2.654   3.397   9.228  0.0677  0.2239  1.8693
 4726SOL     OW25813   4.534   1.044  17.381  0.3172  0.9777  0.3471
 4726SOL    HW125814   4.505   1.115  17.323 -1.2816  0.5728  0.6447
 4726SOL    HW225815   4.470   0.975  17.361 -0.5140  2.1222 -0.9672
 4727SOL     OW25816   4.221   4.139   7.737  0.1519  0.6844 -0.5297
 4727SOL    HW125817   4.142   4.085   7.744 -0.4662  1.8402  1.4613
 4727SOL    HW225818   4.176   4.220   7.710 -0.6445  0.7101  0.8746
 4728SOL     OW25819   4.437   0.829   3.293  0.2191 -0.0501  0.3277
 4728SOL    HW125820   4.411   0.741   3.322  0.9725 -0.5154 -0.3799
 4728SOL    HW225821   4.360   0.856   3.244  0.8461  0.4772 -0.3694
 4729SOL     OW25822   0.576   0.079  15.764 -0.3507  0.1680  0.4096
 4729SOL    HW125823   0.604   0.007  15.707  0.7070  1.9357 -1.3174
 4729SOL    HW225824   0.483   0.086  15.744 -0.3616 -1.9383 -0.2662
 4730SOL     OW25825   4.377   0.076   3.248  0.3013 -0.1267 -0.1154
 4730SOL    HW125826   4.397   0.015   3.319  1.0278  1.9656  1.5102
 4730SOL    HW225827   4.393   0.159   3.293  1.4560 -1.2487  1.5489
 4731SOL     OW25828   2.958   0.856  17.358  0.0388  0.1982 -0.2003
 4731SOL    HW125829   2.962   0.916  17.283  0.3993 -0.5918 -0.8099
 4731SOL    HW225830   3.013   0.784  17.327  1.8146  0.5184  2.2040
 4732SOL     OW25831   4.570   2.848   4.385  0.1351 -0.1808 -0.0104
 4732SOL    HW125832   4.616   2.769   4.415 -0.1809 -0.2110  0.3986
 4732SOL    HW225833   4.640   2.907   4.357  0.3225 -0.4824 -0.1796
 4733SOL     OW25834   2.668   0.793   7.043 -0.2098 -0.3597  0.1712
 4733SOL    HW125835   2.673   0.772   6.949 -0.7169  1.0762 -0.1754
 4733SOL    HW225836   2.735   0.860   7.041  1.0503 -1.6428 -0.9010
 4734SOL     OW25837   0.558   1.074   5.527 -0.2564  0.4334 -0.2588
 4734SOL    HW125838   0.465   1.064   5.548  0.4202 -4.5015  0.4212
 4734SOL    HW225839   0.572   1.004   5.463  0.5454  0.3923 -0.0400
 4735SOL     OW25840   2.997   4.574  13.271  0.7206  0.0538 -0.0926
 4735SOL    HW125841   3.002   4.631  13.348  3.1401  0.6397 -0.6881
 4735SOL    HW225842   3.073   4.517  13.281  1.0782  0.7737  1.3718
 4736SOL     OW25843   0.876   4.227   8.128  0.1827 -0.6425  0.6205
 4736SOL    HW125844   0.788   4.227   8.167  0.5262 -0.1018  1.4139
 4736SOL    HW225845   0.859   4.177   8.049 -1.9400  2.2858 -0.7808
 4737SOL     OW25846   3.364   1.697   7.053 -0.1709  0.2249  0.0704
 4737SOL    HW125847   3.441   1.658   7.011  0.5051 -0.1139  1.6150
 4737SOL    HW225848   3.373   1.786   7.019  0.7178  0.3552  0.6349
 4738SOL     OW25849   2.798   2.789   0.491  0.2036 -0.1738 -0.0461
 4738SOL    HW125850   2.710   2.758   0.467  1.5962 -0.2993 -5.0072
 4738SOL    HW225851   2.817   2.736   0.568  2.4849 -1.4435 -1.4837
 4739SOL     OW25852   0.082   3.764   3.513  0.0351 -0.2361  0.1448
 4739SOL    HW125853   0.089   3.814   3.594 -0.2606  1.1866 -0.7241
 4739SOL    HW225854   0.158   3.791   3.463 -0.7316  0.4132 -0.6682
 4740SOL     OW25855   0.351   0.433  13.114 -0.6654  0.1428  0.0019
 4740SOL    HW125856   0.328   0.344  13.141  1.7265 -0.3798  0.3444
 4740SOL    HW225857   0.447   0.430  13.121 -0.5710  0.6591 -1.1319
 4741SOL     OW25858   1.580   1.036   7.228 -0.2965  0.0468  0.0105
 4741SOL    HW125859   1.494   1.067   7.199  0.1073  1.7952  0.7029
 4741SOL    HW225860   1.632   1.116   7.220  2.6926 -1.9269 -0.3130
 4742SOL     OW25861   4.456   0.525  13.417  0.4041 -0.2704 -0.0543
 4742SOL    HW125862   4.394   0.594  13.441  0.3632 -1.2786  2.6651
 4742SOL    HW225863   4.408   0.472  13.354  0.0835  1.8071 -1.5635
 4743SOL     OW25864   0.224   3.910  13.717  0.6888 -0.6972  0.2467
 4743SOL    HW125865   0.215   3.878  13.627 -2.5408 -0.1436  0.3885
 4743SOL    HW225866   0.234   4.003  13.696 -0.0871 -0.2552  1.7807
 4744SOL     OW25867   2.198   3.144   6.076  0.0346  0.0048  0.3966
 4744SOL    HW125868   2.170   3.193   5.999 -0.0597 -0.0670  0.3851
 4744SOL    HW225869   2.214   3.054   6.050  2.2180  0.3857  0.4529
 4745SOL     OW25870   2.446   3.962   6.420  0.4116  0.2227  0.1202
 4745SOL    HW125871   2.499   3.893   6.460  0.1900  0.1966  0.3719
 4745SOL    HW225872   2.482   3.964   6.331 -1.0365 -0.5894 -0.4732
 4746SOL     OW25873   0.217   2.567   9.401  0.6432  0.6615  0.8305
 4746SOL    HW125874   0.180   2.643   9.357 -3.0363 -2.1027 -0.8277
 4746SOL    HW225875   0.242   2.605   9.485  0.4078 -1.0490  1.6741
 4747SOL     OW25876   3.180   0.309   4.875  0.0985  0.2253  0.5431
 4747SOL    HW125877   3.188   0.219   4.844  1.3199  0.3085  0.5968
 4747SOL    HW225878   3.174   0.292   4.969 -0.4408 -1.5710  0.1824
 4748SOL     OW25879   1.709   3.758   8.204  0.2120 -0.7263  0.5359
 4748SOL    HW125880   1.697   3.839   8.154 -2.7170 -1.3776  0.1409
 4748SOL    HW225881   1.786   3.775   8.258 -0.8685 -0.2961  1.9327
 4749SOL     OW25882   3.277   0.277   8.322 -0.3796 -0.0496  0.0937
 4749SOL    HW125883   3.289   0.364   8.284 -0.8042  0.2917  0.7361
 4749SOL    HW225884   3.360   0.230   8.311  0.6024  2.2443 -2.5581
 4750SOL     OW25885   3.195   4.728   1.391  0.0069  0.2615 -0.2357
 4750SOL    HW125886   3.186   0.008   1.298  0.3026  0.9278 -0.1118
 4750SOL    HW225887   3.287   0.011   1.399  0.6265 -2.2412 -0.0499
 4751SOL     OW25888   1.190   2.187  16.574  0.1783  0.4608  0.0040
 4751SOL    HW125889   1.125   2.118  16.585  0.6546  0.1724  1.0390
 4751SOL    HW225890   1.277   2.148  16.570 -0.7786 -1.9004  2.4335
 4752SOL     OW25891   1.133   1.841   9.621  0.0316  0.4628  0.9725
 4752SOL    HW125892   1.054   1.807   9.579  0.2185  2.8360 -1.2750
 4752SOL    HW225893   1.146   1.908   9.555 -0.8451  0.9840  1.3244
 4753SOL     OW25894   0.937   1.000   4.435  0.1583 -0.1076 -0.4765
 4753SOL    HW125895   0.965   0.941   4.504 -0.2466 -1.8408 -1.7964
 4753SOL    HW225896   1.020   1.001   4.388  0.8213 -0.1886  0.7118
 4754SOL     OW25897   0.932   3.711  12.692 -0.1219  0.3236  0.3550
 4754SOL    HW125898   0.876   3.722  12.768  1.5154 -0.8905  1.7496
 4754SOL    HW225899   0.862   3.675  12.638 -0.8151  1.7569  0.3087
 4755SOL     OW25900   3.627   1.892   7.511  0.2291 -0.1801  0.0310
 4755SOL    HW125901   3.622   1.876   7.605  3.6618 -0.6413  0.1511
 4755SOL    HW225902   3.535   1.872   7.495 -0.3105  0.8460  1.8293
 4756SOL     OW25903   0.776   3.274  16.590  0.2730 -0.2372 -0.3146
 4756SOL    HW125904   0.853   3.235  16.548 -1.0910 -2.0018 -1.1615
 4756SOL    HW225905   0.709   3.265  16.522  0.2169  0.9245 -0.4062
 4757SOL     OW25906   1.899   4.316   2.909  0.1185  0.2590  0.2953
 4757SOL    HW125907   1.981   4.340   2.866  0.1753 -0.6569 -0.1075
 4757SOL    HW225908   1.853   4.281   2.833  0.3192  1.9523 -0.6015
 4758SOL     OW25909   2.902   3.129   4.690 -0.2541  0.1861 -0.1839
 4758SOL    HW125910   2.814   3.140   4.726 -1.5673 -3.6021 -2.2124
 4758SOL    HW225911   2.941   3.140   4.777  1.1202 -0.2105 -0.7540
 4759SOL     OW25912   3.606   2.400  15.567 -0.2874  0.2816  0.4297
 4759SOL    HW125913   3.564   2.341  15.629 -1.4269 -0.4853 -1.0576
 4759SOL    HW225914   3.554   2.374  15.491  0.2015 -0.4968  0.3648
 4760SOL     OW25915   1.469   2.431   1.527  0.4360 -0.3336  0.3329
 4760SOL    HW125916   1.553   2.403   1.492  0.5774 -0.9342  1.1607
 4760SOL    HW225917   1.500   2.448   1.615 -2.7513  0.9919  1.2117
 4761SOL     OW25918   3.211   1.537   8.316 -0.0209  0.2926 -0.1193
 4761SOL    HW125919   3.185   1.454   8.276  0.3541  0.7203 -1.2385
 4761SOL    HW225920   3.236   1.512   8.405 -0.1166  1.7076  0.2942
 4762SOL     OW25921   2.591   3.359   7.532  0.3517 -0.3856 -0.3562
 4762SOL    HW125922   2.603   3.404   7.616  0.5078 -0.6958 -0.2132
 4762SOL    HW225923   2.515   3.408   7.501 -0.0139  0.2296  1.5388
 4763SOL     OW25924   0.127   2.709   9.173  0.6568 -0.5813 -0.3110
 4763SOL    HW125925   0.166   2.652   9.106  0.6071 -0.4672 -0.4367
 4763SOL    HW225926   0.043   2.730   9.131 -0.8399  0.7379  3.4058
 4764SOL     OW25927   0.960   3.962   9.683  0.2891 -1.1851 -0.2084
 4764SOL    HW125928   0.962   4.057   9.673 -3.3145 -1.1568 -0.5436
 4764SOL    HW225929   0.867   3.949   9.701 -0.4403  3.3647 -0.6750
 4765SOL     OW25930   2.302   2.873   2.807 -0.0267 -0.5897 -0.1344
 4765SOL    HW125931   2.239   2.936   2.772 -1.2529 -1.5131  0.4102
 4765SOL    HW225932   2.308   2.907   2.897 -1.5347  0.2625 -0.3564
 4766SOL     OW25933   3.555   2.556  12.108  0.6241 -0.1308  0.0355
 4766SOL    HW125934   3.483   2.496  12.122 -1.7690  3.0621  1.4044
 4766SOL    HW225935   3.627   2.499  12.133  0.6837  0.5903  1.5107
 4767SOL     OW25936   2.494   3.548   5.969  0.4197 -0.2834 -0.4874
 4767SOL    HW125937   2.551   3.572   6.042 -0.7641  1.3841 -0.1042
 4767SOL    HW225938   2.420   3.503   6.010  0.5136 -0.8630 -0.9501
 4768SOL     OW25939   3.149   2.182   3.131  0.0650  0.5523  0.0467
 4768SOL    HW125940   3.142   2.139   3.217  2.1314  0.0217 -0.0442
 4768SOL    HW225941   3.121   2.114   3.069  1.6946  0.7894 -0.9404
 4769SOL     OW25942   2.176   0.883   5.424  0.4798 -0.4436  0.0638
 4769SOL    HW125943   2.122   0.938   5.480  0.4472 -0.1712 -0.2296
 4769SOL    HW225944   2.117   0.825   5.376 -1.4196 -0.4055  2.3859
 4770SOL     OW25945   2.546   1.816   9.548 -0.3421  0.3125  0.3732
 4770SOL    HW125946   2.613   1.882   9.533  0.6284 -0.9639 -0.9655
 4770SOL    HW225947   2.469   1.864   9.579 -0.3963  1.0797 -0.9573
 4771SOL     OW25948   0.200   4.222  12.016  0.3819 -0.2589 -0.3197
 4771SOL    HW125949   0.210   4.308  11.973  0.4719 -0.0860  0.0498
 4771SOL    HW225950   0.282   4.207  12.062  1.0137  1.6514 -0.8118
 4772SOL     OW25951   2.587   0.336  16.103 -0.9094  0.3346 -0.4519
 4772SOL    HW125952   2.648   0.408  16.119 -0.4163 -0.2077  0.0686
 4772SOL    HW225953   2.533   0.370  16.031 -3.3789 -0.2343  1.1407
 4773SOL     OW25954   4.608   1.532   5.800  0.1055 -0.2874  0.2954
 4773SOL    HW125955   4.574   1.505   5.714  0.0857 -0.1347  0.2540
 4773SOL    HW225956   4.631   1.446   5.835  1.9752  0.3366  0.6052
 4774SOL     OW25957   0.979   3.469   8.354 -0.3338 -0.3420 -0.4208
 4774SOL    HW125958   1.047   3.439   8.293 -0.2300 -1.2226  0.1307
 4774SOL    HW225959   0.944   3.547   8.311 -0.4095  0.4516  1.0973
 4775SOL     OW25960   4.223   2.238   6.145  0.1550 -0.0268 -0.0504
 4775SOL    HW125961   4.167   2.160   6.139 -1.4679  0.7621  4.5198
 4775SOL    HW225962   4.192   2.272   6.230 -0.9231  0.1848 -0.5267
 4776SOL     OW25963   4.114   2.978  16.279 -0.2621  0.0424 -0.5294
 4776SOL    HW125964   4.086   3.069  16.269  0.3445  0.3015  0.1306
 4776SOL    HW225965   4.209   2.987  16.280 -0.1519 -1.1951 -0.7825
 4777SOL     OW25966   2.224   2.258   3.909 -0.0374  0.0152 -0.1567
 4777SOL    HW125967   2.130   2.255   3.895 -0.4428 -0.9286  2.7656
 4777SOL    HW225968   2.253   2.295   3.826 -0.8783  0.5405 -0.2092
 4778SOL     OW25969   0.115   2.730   3.947 -0.0198 -0.0338  0.1925
 4778SOL    HW125970   0.085   2.639   3.948  0.1212 -0.1201 -2.7314
 4778SOL    HW225971   0.131   2.748   4.040  0.7907 -0.1182  0.0674
 4779SOL     OW25972   2.134   0.127  12.753  0.0081 -0.2015  0.4210
 4779SOL    HW125973   2.222   0.158  12.735 -0.3807  1.0534  0.6739
 4779SOL    HW225974   2.096   0.153  12.669  1.8740 -0.7847 -0.6043
 4780SOL     OW25975   3.496   2.333  14.878  0.2227 -0.1321 -0.6127
 4780SOL    HW125976   3.539   2.413  14.849 -0.8330 -0.0680 -2.0214
 4780SOL    HW225977   3.569   2.272  14.877  0.3682  0.0406 -0.6377
 4781SOL     OW25978   1.047   3.201  10.339  0.0068  0.4999 -0.1763
 4781SOL    HW125979   1.043   3.271  10.403  0.3123  0.8416 -0.5242
 4781SOL    HW225980   1.082   3.133  10.396 -0.8652 -0.9379 -1.3514
 4782SOL     OW25981   2.442   3.383   1.115  0.3761 -1.0022 -0.1777
 4782SOL    HW125982   2.387   3.443   1.165  0.9455  0.7844 -1.6955
 4782SOL    HW225983   2.482   3.451   1.060  1.6044 -1.6304 -0.0615
 4783SOL     OW25984   0.365   3.956   2.423 -0.1469 -0.1291 -0.1953
 4783SOL    HW125985   0.387   4.045   2.449 -2.9567  0.3841  0.4316
 4783SOL    HW225986   0.409   3.954   2.338 -1.6670  0.4843 -0.9940
 4784SOL     OW25987   4.023   3.997  10.491 -0.1768 -0.5865 -0.6012
 4784SOL    HW125988   3.971   4.048  10.553  0.3751 -0.4725 -0.2313
 4784SOL    HW225989   3.953   3.943  10.454 -0.9224  0.7390 -1.0905
 4785SOL     OW25990   1.608   4.453  14.695 -0.1256  0.1960  0.1446
 4785SOL    HW125991   1.621   4.527  14.635  1.8284  0.6409  1.1183
 4785SOL    HW225992   1.540   4.415  14.640 -0.2167 -0.2830  0.5809
 4786SOL     OW25993   4.518   0.885   2.505 -0.1124 -0.2875 -0.1910
 4786SOL    HW125994   4.574   0.959   2.529 -0.4523  0.1059 -0.5865
 4786SOL    HW225995   4.574   0.808   2.509  1.1348  0.6961  1.3890
 4787SOL     OW25996   0.339   2.049   9.494  0.4786  0.0198  0.2373
 4787SOL    HW125997   0.255   2.089   9.470  0.7806 -2.0876 -4.3499
 4787SOL    HW225998   0.378   2.102   9.563  0.8222 -0.6025  0.5173
 4788SOL     OW25999   1.895   1.166  11.450 -0.1755 -0.0147  0.7315
 4788SOL    HW126000   1.921   1.083  11.411  1.9497  1.5856 -1.2636
 4788SOL    HW226001   1.978   1.213  11.442 -0.2504  0.2260  1.3980
 4789SOL     OW26002   4.574   2.324   9.565 -0.0104 -0.2210  0.0039
 4789SOL    HW126003   4.529   2.362   9.641  1.4758  0.1437  0.6928
 4789SOL    HW226004   4.598   2.410   9.530  0.1859  0.9824  3.0806
 4790SOL     OW26005   2.357   1.009  16.536 -0.0714  0.0457 -0.2356
 4790SOL    HW126006   2.266   1.012  16.509 -0.6691 -0.3341  1.7938
 4790SOL    HW226007   2.380   0.918  16.518  1.4990  0.3572  0.1838
 4791SOL     OW26008   1.060   0.430   7.238  0.1489  0.0605 -0.4673
 4791SOL    HW126009   1.126   0.499   7.239 -1.2158  1.3140  1.2287
 4791SOL    HW226010   1.110   0.355   7.272  0.0080 -0.1082 -0.6349
 4792SOL     OW26011   1.938   4.447   6.827 -0.3393  0.5563 -0.6085
 4792SOL    HW126012   1.909   4.409   6.744  0.0539 -1.2196  0.0657
 4792SOL    HW226013   2.011   4.488   6.782  0.7877 -0.9779 -0.1781
 4793SOL     OW26014   0.351   4.573   7.004  0.1250 -0.7482  0.2328
 4793SOL    HW126015   0.273   4.619   7.036  0.4100 -0.0183 -0.1147
 4793SOL    HW226016   0.413   4.637   7.038  1.0236 -1.3743 -0.2248
 4794SOL     OW26017   4.135   2.496   4.188  0.5752 -0.3259  0.0515
 4794SOL    HW126018   4.205   2.497   4.254  2.1851  1.4605 -1.6790
 4794SOL    HW226019   4.185   2.508   4.107 -1.1553 -1.4168 -1.1676
 4795SOL     OW26020   4.403   3.871  15.146 -0.0655 -0.6783  0.5475
 4795SOL    HW126021   4.453   3.938  15.100  0.4530 -1.4013  0.0507
 4795SOL    HW226022   4.393   3.916  15.230  0.0658 -1.1187  0.8027
 4796SOL     OW26023   1.170   3.298   5.958 -0.1887  0.1604  0.2312
 4796SOL    HW126024   1.250   3.325   6.003  0.2445 -0.3004 -0.2665
 4796SOL    HW226025   1.144   3.222   6.011 -0.0457  0.9743  1.4824
 4797SOL     OW26026   0.998   2.439   7.041 -0.0344  0.0608 -0.8270
 4797SOL    HW126027   1.075   2.429   7.097 -0.6587  2.0699  0.3936
 4797SOL    HW226028   0.986   2.348   7.013 -1.6336 -0.9022  2.9521
 4798SOL     OW26029   0.904   2.755   2.876  1.1645  0.0138  0.2019
 4798SOL    HW126030   0.876   2.845   2.862  1.0813 -0.3218 -1.8390
 4798SOL    HW226031   0.860   2.724   2.956 -0.2294  0.6700 -0.3134
 4799SOL     OW26032   3.314   2.616  17.510  0.7449 -0.0425  0.3235
 4799SOL    HW126033   3.241   2.669  17.542 -0.5038 -1.1430 -0.6923
 4799SOL    HW226034   3.390   2.671  17.525 -0.3521  1.2295  1.2506
 4800SOL     OW26035   3.637   0.462   2.821 -0.0514  0.3834  0.4839
 4800SOL    HW126036   3.550   0.491   2.849  0.2661  1.3478  0.5017
 4800SOL    HW226037   3.705   0.499   2.878  1.1206 -0.5429 -0.3443
 4801SOL     OW26038   0.722   4.005   8.690 -0.2110  0.2585 -0.1346
 4801SOL    HW126039   0.796   4.060   8.715  1.0083 -0.1662 -2.7941
 4801SOL    HW226040   0.735   3.935   8.755  0.5669  2.5712  2.2114
 4802SOL     OW26041   4.250   2.054   3.810 -0.0624 -0.2146  0.5379
 4802SOL    HW126042   4.299   2.021   3.885  2.1503  3.1228  0.5453
 4802SOL    HW226043   4.169   2.089   3.847 -0.4775  0.1940 -0.7549
 4803SOL     OW26044   1.967   1.086   3.477  0.3008  0.0630 -0.5844
 4803SOL    HW126045   1.926   1.000   3.473  1.0220 -0.3592  0.9393
 4803SOL    HW226046   1.903   1.144   3.436  0.5330 -1.1117 -2.5901
 4804SOL     OW26047   1.304   2.764   8.782 -0.0869 -0.2819 -0.5544
 4804SOL    HW126048   1.371   2.789   8.845 -2.1750  0.1479  1.4778
 4804SOL    HW226049   1.284   2.670   8.790 -0.2147 -0.4210 -2.4511
 4805SOL     OW26050   1.717   2.530   1.206 -0.1451  0.0393  0.2556
 4805SOL    HW126051   1.703   2.440   1.235  1.5966 -0.9125 -1.8913
 4805SOL    HW226052   1.627   2.562   1.200 -0.3015 -0.1991  1.3405
 4806SOL     OW26053   4.334   0.460  12.310  0.1946  0.0287 -0.5693
 4806SOL    HW126054   4.308   0.513  12.385 -0.1587  0.7538 -1.2022
 4806SOL    HW226055   4.287   0.506  12.240 -0.9291 -0.9417 -0.4613
 4807SOL     OW26056   0.378   0.641   5.234  0.2379 -0.4302 -0.3170
 4807SOL    HW126057   0.340   0.636   5.146  1.6070  1.1987 -0.9981
 4807SOL    HW226058   0.306   0.621   5.294 -0.3548 -0.6880 -1.1072
 4808SOL     OW26059   2.605   4.533   5.467 -0.1394 -0.0113 -0.1338
 4808SOL    HW126060   2.676   4.496   5.520  0.1163  2.7040  1.4053
 4808SOL    HW226061   2.535   4.542   5.532  0.4402  0.1805  0.4650
 4809SOL     OW26062   2.857   3.072   9.405  0.2852  0.1722 -0.2658
 4809SOL    HW126063   2.899   3.046   9.323  1.2779  0.4932  0.1418
 4809SOL    HW226064   2.889   3.161   9.416  2.2180 -0.5540 -0.0600
 4810SOL     OW26065   0.487   0.005  13.528 -0.1775 -0.2267  0.2351
 4810SOL    HW126066   0.496   0.091  13.487  1.1153 -0.8696 -0.8249
 4810SOL    HW226067   0.573   4.706  13.516  0.5737  1.5177  0.0248
 4811SOL     OW26068   1.886   0.689  11.129  0.1602  0.4561  0.3511
 4811SOL    HW126069   1.804   0.652  11.162  0.4122 -1.3037 -0.9748
 4811SOL    HW226070   1.888   0.648  11.042  0.9681  0.2346  0.4676
 4812SOL     OW26071   0.005   0.827  10.616  0.0860 -0.3123 -0.6089
 4812SOL    HW126072   4.727   0.734  10.625  0.0534 -0.3161 -0.7132
 4812SOL    HW226073   4.717   0.860  10.702  2.9926 -1.4135  0.7478
 4813SOL     OW26074   1.506   3.995  12.823  0.3679 -0.3274 -0.3993
 4813SOL    HW126075   1.485   4.047  12.746  0.7730  1.6037  0.7931
 4813SOL    HW226076   1.599   3.974  12.815  0.6749 -0.0566  2.2431
 4814SOL     OW26077   1.289   0.684  13.008  0.0810  0.2627 -0.0359
 4814SOL    HW126078   1.354   0.703  12.940  1.7720 -0.5315  1.3576
 4814SOL    HW226079   1.228   0.757  12.999  0.4679  0.5975  0.0315
 4815SOL     OW26080   3.922   3.439   2.711  0.1422  0.6951 -0.1938
 4815SOL    HW126081   3.921   3.344   2.701  0.6556  1.0536 -3.5467
 4815SOL    HW226082   4.014   3.451   2.735  0.2615 -0.4935 -0.0718
 4816SOL     OW26083   0.689   0.178   4.482  0.1148 -0.0204  0.4574
 4816SOL    HW126084   0.708   0.130   4.563 -0.5213 -0.6174  0.2510
 4816SOL    HW226085   0.618   0.228   4.522  0.3358  0.7119 -0.0637
 4817SOL     OW26086   3.795   0.989   7.597 -0.0703 -0.2493  0.1504
 4817SOL    HW126087   3.762   0.907   7.562  2.6721 -0.3157 -2.3182
 4817SOL    HW226088   3.714   1.040   7.602 -0.3003 -0.4980 -1.1757
 4818SOL     OW26089   1.736   2.391   8.125 -0.0621  0.6127  0.3473
 4818SOL    HW126090   1.772   2.357   8.207  0.9944 -1.8258 -1.1129
 4818SOL    HW226091   1.750   2.484   8.144 -0.0716  0.6404  0.2199
 4819SOL     OW26092   4.462   0.646   6.613  0.0514 -0.8666  0.2711
 4819SOL    HW126093   4.443   0.729   6.569 -1.7183 -2.4542 -1.9503
 4819SOL    HW226094   4.463   0.586   6.539 -2.7813 -0.2559 -0.2342
 4820SOL     OW26095   2.113   3.482  10.639 -0.0459  0.1735 -0.3610
 4820SOL    HW126096   2.115   3.406  10.698 -0.5005  1.3405  1.1635
 4820SOL    HW226097   2.149   3.437  10.562  0.9611 -0.7118  0.6276
 4821SOL     OW26098   1.102   0.264   7.699  0.2425  0.0055  0.1529
 4821SOL    HW126099   1.062   0.220   7.624  2.5263 -0.0090 -1.0630
 4821SOL    HW226100   1.033   0.324   7.724 -1.5785 -1.4070 -1.5013
 4822SOL     OW26101   1.819   2.573   7.103  0.5291 -0.5120 -0.6790
 4822SOL    HW126102   1.740   2.560   7.156 -0.8332 -1.4005 -2.9205
 4822SOL    HW226103   1.785   2.525   7.027 -2.9426 -1.3257  1.4066
 4823SOL     OW26104   1.277   4.001   8.793  0.4241 -0.3326  0.1485
 4823SOL    HW126105   1.330   3.931   8.832  0.3055  0.0195  0.9551
 4823SOL    HW226106   1.347   4.062   8.769  1.2800 -1.5277 -0.4028
 4824SOL     OW26107   2.787   3.769   4.854 -0.3010 -0.1386 -0.1343
 4824SOL    HW126108   2.787   3.852   4.806  0.1235  0.7491  1.4307
 4824SOL    HW226109   2.748   3.795   4.937  1.0834 -3.0000  1.3905
 4825SOL     OW26110   3.025   3.059  13.039  0.0541  0.6161 -0.2712
 4825SOL    HW126111   3.006   3.065  12.946  0.2181  2.1487 -0.2143
 4825SOL    HW226112   2.947   3.017  13.076  1.4944 -1.3679  0.5171
 4826SOL     OW26113   1.140   3.079   2.221 -0.1150 -0.4620  0.3341
 4826SOL    HW126114   1.061   3.054   2.174 -0.7103  0.4714  0.8552
 4826SOL    HW226115   1.134   3.035   2.305 -0.2127 -0.3327  0.3956
 4827SOL     OW26116   3.949   0.565   5.227 -0.1738 -0.0888 -0.1453
 4827SOL    HW126117   3.931   0.653   5.260 -1.2743  0.3570 -1.9292
 4827SOL    HW226118   3.904   0.507   5.290  1.3550 -0.9927  0.1066
 4828SOL     OW26119   0.836   2.226  11.684 -0.3485 -0.1759  0.3045
 4828SOL    HW126120   0.923   2.230  11.646 -0.9474 -0.5081 -1.1248
 4828SOL    HW226121   0.829   2.320  11.704  0.1870 -0.7722  3.2543
 4829SOL     OW26122   3.414   1.996   8.203 -0.1176 -0.1928 -0.4609
 4829SOL    HW126123   3.467   1.966   8.277  2.4765  0.8790 -1.8879
 4829SOL    HW226124   3.485   1.976   8.141 -0.7525 -0.9864 -0.9186
 4830SOL     OW26125   3.050   2.646   5.352 -0.1070  0.0664  0.0124
 4830SOL    HW126126   3.101   2.600   5.419 -1.3043 -3.8945 -1.8005
 4830SOL    HW226127   3.109   2.625   5.280 -0.3491 -2.0584  0.4414
 4831SOL     OW26128   3.333   0.292   1.288 -0.2003  0.2132 -0.1010
 4831SOL    HW126129   3.319   0.355   1.359  0.6661  1.5526 -1.0961
 4831SOL    HW226130   3.428   0.281   1.297 -0.1567  2.5515  2.4744
 4832SOL     OW26131   0.959   3.868   6.735 -0.2544  0.1262  0.2163
 4832SOL    HW126132   0.968   3.924   6.812  1.0495 -1.1385  0.9666
 4832SOL    HW226133   1.025   3.902   6.673 -1.4735  0.5517 -0.8597
 4833SOL     OW26134   3.966   0.218   6.877 -0.5391  0.4071  0.0668
 4833SOL    HW126135   4.053   0.252   6.899 -0.4881 -0.1888  0.7921
 4833SOL    HW226136   4.000   0.154   6.814  2.0431  0.6190  1.2303
 4834SOL     OW26137   3.530   1.400   2.882 -0.3746  0.4219 -0.4564
 4834SOL    HW126138   3.497   1.351   2.957 -0.2053 -3.4660 -2.9010
 4834SOL    HW226139   3.453   1.419   2.827  0.8738  4.6983 -0.7569
 4835SOL     OW26140   2.391   3.599   9.421  0.0351  0.4071 -0.2068
 4835SOL    HW126141   2.443   3.560   9.351  0.8607  3.3999 -1.2514
 4835SOL    HW226142   2.309   3.552   9.406  0.0643  0.0784  0.6997
 4836SOL     OW26143   3.607   0.452   9.599 -0.1504 -0.6879 -0.0087
 4836SOL    HW126144   3.572   0.378   9.648 -2.2663  0.4137  0.1435
 4836SOL    HW226145   3.682   0.418   9.550  0.7121  1.8635 -0.4808
 4837SOL     OW26146   4.162   2.051  13.111  0.1782  0.1947  0.0432
 4837SOL    HW126147   4.070   2.077  13.119 -0.6700 -2.9611  0.6786
 4837SOL    HW226148   4.176   1.989  13.183 -0.8644 -0.1224 -0.0256
 4838SOL     OW26149   1.686   3.657  16.993  0.1982 -0.1279  0.0385
 4838SOL    HW126150   1.705   3.662  17.087 -0.9803 -1.0073  0.3290
 4838SOL    HW226151   1.751   3.593  16.963 -0.9052 -1.2821  0.1199
 4839SOL     OW26152   2.234   4.260  16.704  0.1269 -0.8210 -0.1034
 4839SOL    HW126153   2.149   4.261  16.660  0.4879 -0.5084 -0.8061
 4839SOL    HW226154   2.287   4.247  16.625 -0.3933  0.7427 -0.7242
 4840SOL     OW26155   1.171   1.506   9.114 -0.3228  0.1108  0.3417
 4840SOL    HW126156   1.240   1.463   9.165  0.9441  0.8149 -0.7888
 4840SOL    HW226157   1.125   1.432   9.073 -0.3161  0.2002  0.1710
 4841SOL     OW26158   1.362   3.198   4.875 -0.7179  0.3161  0.2199
 4841SOL    HW126159   1.361   3.181   4.969 -0.6467  0.6503  0.2807
 4841SOL    HW226160   1.370   3.293   4.881 -0.9973  0.4209 -1.0713
 4842SOL     OW26161   3.586   3.338   2.498  0.5093  0.3430 -0.4299
 4842SOL    HW126162   3.599   3.421   2.452 -1.2131  0.4887 -0.6622
 4842SOL    HW226163   3.557   3.373   2.582 -1.2212 -1.3136 -0.3529
 4843SOL     OW26164   0.283   4.110  13.446 -0.9035  0.3753 -0.3236
 4843SOL    HW126165   0.258   4.017  13.451 -0.4392  0.2991  0.6025
 4843SOL    HW226166   0.241   4.148  13.523 -1.2309 -0.2659 -0.1828
 4844SOL     OW26167   4.704   3.130   7.119 -0.8056  0.1590 -0.1223
 4844SOL    HW126168   0.015   3.201   7.079 -0.7457 -0.2809 -0.8248
 4844SOL    HW226169   4.614   3.155   7.096 -0.5578  0.7531 -0.4653
 4845SOL     OW26170   0.127   4.732   8.796 -0.0040  0.3830  0.1997
 4845SOL    HW126171   0.088   0.013   8.711  4.0643  2.0171 -1.2322
 4845SOL    HW226172   0.057   0.020   8.855  0.1882 -1.8355  1.4561
 4846SOL     OW26173   4.254   4.074   2.989  0.1728  0.1567  0.4450
 4846SOL    HW126174   4.300   4.133   2.929  1.1469  0.7364  1.7515
 4846SOL    HW226175   4.202   4.137   3.040  0.9749  0.6441  0.6800
 4847SOL     OW26176   3.157   4.275   7.284 -0.0879 -0.2424  0.2379
 4847SOL    HW126177   3.096   4.316   7.222 -1.3192 -2.0398  0.2712
 4847SOL    HW226178   3.103   4.243   7.355  0.0725  0.3428  0.6231
 4848SOL     OW26179   3.454   0.340  10.680  0.2375 -0.0189  0.3051
 4848SOL    HW126180   3.487   0.257  10.714 -0.2568  0.2323  1.3992
 4848SOL    HW226181   3.539   0.383  10.675 -0.1326  0.6046 -0.6441
 4849SOL     OW26182   0.408   3.704   9.354 -0.1154 -0.0428 -0.3055
 4849SOL    HW126183   0.444   3.657   9.429  1.0513  0.0479 -0.7987
 4849SOL    HW226184   0.406   3.792   9.392  0.0188 -1.2998  2.5704
 4850SOL     OW26185   3.887   1.818   6.680 -0.2588  0.3184  0.5667
 4850SOL    HW126186   3.896   1.890   6.743  2.4079  1.2255 -0.8703
 4850SOL    HW226187   3.914   1.742   6.732 -1.2819 -0.5570 -0.1760
 4851SOL     OW26188   3.195   4.444   8.924  0.0407  0.3762 -0.1615
 4851SOL    HW126189   3.288   4.427   8.933 -0.0518 -0.4746 -0.8431
 4851SOL    HW226190   3.155   4.379   8.866  1.8574  0.3522 -1.3648
 4852SOL     OW26191   0.282   1.091  14.045  0.0752  0.1021  0.2891
 4852SOL    HW126192   0.269   1.010  13.995 -1.4972 -0.7663  2.1464
 4852SOL    HW226193   0.268   1.059  14.133 -1.0772  0.2543  0.1601
 4853SOL     OW26194   3.387   1.154   6.270  0.6353  0.5730  0.3520
 4853SOL    HW126195   3.367   1.062   6.282  0.9175  0.0866 -2.8441
 4853SOL    HW226196   3.337   1.191   6.343 -0.7953 -2.9533  1.1636
 4854SOL     OW26197   4.324   0.569   3.334  0.1789 -0.2748  0.7611
 4854SOL    HW126198   4.241   0.527   3.311  0.6517 -0.3796 -0.7449
 4854SOL    HW226199   4.368   0.508   3.394  2.2009  0.5354  0.1191
 4855SOL     OW26200   4.384   4.628   3.562  0.3959 -0.2378 -0.0557
 4855SOL    HW126201   4.344   4.577   3.491 -0.5423 -1.2031  1.1741
 4855SOL    HW226202   4.311   4.627   3.624  0.2057  0.8893 -0.2656
 4856SOL     OW26203   1.317   1.461   5.408  0.0113 -0.3791 -0.5413
 4856SOL    HW126204   1.394   1.461   5.351  0.8098  0.7877  0.5598
 4856SOL    HW226205   1.308   1.553   5.433 -0.3347 -0.7272  0.6508
 4857SOL     OW26206   4.650   3.289   3.626  0.0468  0.6786  0.5359
 4857SOL    HW126207   4.710   3.241   3.684 -0.1298 -0.3354 -0.1155
 4857SOL    HW226208   4.696   3.370   3.605  0.8784 -0.1973 -1.0783
 4858SOL     OW26209   4.539   4.144   2.437  0.0961  0.2506  0.4722
 4858SOL    HW126210   4.600   4.070   2.446 -2.2675 -1.8042 -0.4690
 4858SOL    HW226211   4.457   4.096   2.445  0.6519 -0.7005  0.5795
 4859SOL     OW26212   3.634   0.602   3.349 -0.8768 -0.3696 -0.0338
 4859SOL    HW126213   3.686   0.635   3.422 -0.6084 -0.3571 -0.2283
 4859SOL    HW226214   3.687   0.630   3.274 -0.2518 -2.7229 -0.4957
 4860SOL     OW26215   2.810   2.490   5.953  0.3027 -0.7814  0.2129
 4860SOL    HW126216   2.735   2.510   6.009 -0.5586  1.2100 -1.6766
 4860SOL    HW226217   2.835   2.579   5.931  0.2288 -1.5636 -3.0565
 4861SOL     OW26218   4.384   1.227  12.282 -0.7334 -0.3063  0.3163
 4861SOL    HW126219   4.336   1.310  12.288  0.0981  0.1737  0.3488
 4861SOL    HW226220   4.473   1.250  12.310 -0.6301 -2.3409  1.6247
 4862SOL     OW26221   1.454   0.377   3.344  0.1690  1.2831 -0.6172
 4862SOL    HW126222   1.532   0.343   3.300 -0.5256 -0.3318 -0.6193
 4862SOL    HW226223   1.491   0.446   3.399  0.4850  0.3361  0.3836
 4863SOL     OW26224   2.415   2.763   6.865 -0.3264  0.0784 -0.1186
 4863SOL    HW126225   2.338   2.810   6.896 -0.7063  0.2359 -1.3185
 4863SOL    HW226226   2.457   2.824   6.804 -1.0569 -0.6120 -1.3059
 4864SOL     OW26227   3.324   4.349   4.889  0.3884 -0.0988  0.3412
 4864SOL    HW126228   3.385   4.281   4.861  0.6724 -0.1154  0.9817
 4864SOL    HW226229   3.378   4.403   4.948  2.4262  1.8314 -3.3082
 4865SOL     OW26230   0.121   2.931  13.649 -0.0095  0.4341 -0.3420
 4865SOL    HW126231   0.156   3.010  13.609  1.4482  0.4266  0.9321
 4865SOL    HW226232   0.081   2.889  13.572 -0.2321 -0.2553  0.1470
 4866SOL     OW26233   3.462   2.978   8.192  0.1813  0.0249  0.6012
 4866SOL    HW126234   3.536   2.926   8.161 -0.5921 -0.9177  0.3129
 4866SOL    HW226235   3.492   3.063   8.161  1.9566 -1.4889 -1.8044
 4867SOL     OW26236   2.326   1.513  17.390  0.2186 -0.6185 -0.5091
 4867SOL    HW126237   2.338   1.544  17.301  1.8752 -0.5698 -0.2646
 4867SOL    HW226238   2.354   1.594  17.433  1.6917 -1.4963  0.1693
 4868SOL     OW26239   1.279   0.758   0.413  0.0533  0.0644  1.1633
 4868SOL    HW126240   1.270   0.683   0.471  0.7128  0.6253  1.9908
 4868SOL    HW226241   1.364   0.791   0.441  0.9903 -0.0431 -1.4800
 4869SOL     OW26242   0.303   3.580   6.361  0.1393  0.0976  0.1147
 4869SOL    HW126243   0.315   3.675   6.368 -1.7740  0.4816 -1.8587
 4869SOL    HW226244   0.208   3.587   6.350  0.1808 -2.2797 -1.6797
 4870SOL     OW26245   4.000   2.076   3.531 -0.1079  0.2508  0.0844
 4870SOL    HW126246   3.908   2.097   3.543 -0.4016  0.3058 -2.3339
 4870SOL    HW226247   4.010   2.048   3.623 -2.9406 -0.5580  0.1390
 4871SOL     OW26248   2.842   3.368  14.698  0.4470  0.2668  0.0194
 4871SOL    HW126249   2.759   3.413  14.683 -1.5794 -2.6006  2.6094
 4871SOL    HW226250   2.841   3.357  14.793  2.1097  0.0007  0.0124
 4872SOL     OW26251   3.240   1.471  12.294 -0.3107  0.4144 -0.1428
 4872SOL    HW126252   3.216   1.417  12.219  2.4354 -1.5317  0.3444
 4872SOL    HW226253   3.289   1.400  12.336  2.2832  1.7797 -0.8743
 4873SOL     OW26254   1.645   0.765   7.220  0.1840 -0.2994  0.9909
 4873SOL    HW126255   1.634   0.851   7.259  1.3053  0.9030 -1.3482
 4873SOL    HW226256   1.564   0.731   7.258  0.5903 -0.0222  2.1250
 4874SOL     OW26257   1.559   0.128   5.491 -0.5957  0.5893 -0.1091
 4874SOL    HW126258   1.536   0.057   5.551 -0.9157 -0.4782 -1.4919
 4874SOL    HW226259   1.514   0.105   5.410  0.8060 -0.8839 -0.4660
 4875SOL     OW26260   0.469   4.186  12.109  0.0597 -0.2311 -0.0530
 4875SOL    HW126261   0.509   4.203  12.195 -0.1356  0.8650 -0.1788
 4875SOL    HW226262   0.529   4.113  12.091  1.0693  0.3351  1.0134
 4876SOL     OW26263   1.405   2.702  14.657  0.1483  0.3535 -0.1137
 4876SOL    HW126264   1.424   2.640  14.587 -2.2012  0.1773 -0.6149
 4876SOL    HW226265   1.481   2.691  14.714  0.0760  0.1166 -0.0601
 4877SOL     OW26266   0.723   0.318  16.438  0.2812  0.0156  0.7074
 4877SOL    HW126267   0.685   0.247  16.386 -0.1240  1.1492 -0.5296
 4877SOL    HW226268   0.645   0.372  16.455 -0.4130 -1.1020  1.0476
 4878SOL     OW26269   0.751   3.479  16.898 -0.0896  0.5518 -0.0248
 4878SOL    HW126270   0.816   3.487  16.968 -0.8945 -2.3149  1.0509
 4878SOL    HW226271   0.800   3.500  16.818  0.3940 -1.7283 -0.3039
 4879SOL     OW26272   2.079   3.513   9.017  0.4735 -0.2231 -0.0887
 4879SOL    HW126273   1.988   3.528   9.043  0.4369 -1.2980  0.3905
 4879SOL    HW226274   2.078   3.451   8.944  1.6892  0.2944 -0.5513
 4880SOL     OW26275   2.080   0.247   0.193 -0.4637 -0.3145 -0.1714
 4880SOL    HW126276   2.139   0.239   0.118 -0.3823  1.4775 -0.2880
 4880SOL    HW226277   2.138   0.299   0.249 -0.5448 -0.0468 -0.3374
 4881SOL     OW26278   2.357   1.019   5.216  0.1998  0.7125  0.2587
 4881SOL    HW126279   2.304   0.995   5.141 -1.8749  1.4029  1.5113
 4881SOL    HW226280   2.313   1.094   5.255  2.5766  1.7432  0.9806
 4882SOL     OW26281   1.717   1.888   9.093 -0.6234 -0.9397 -0.7241
 4882SOL    HW126282   1.712   1.902   8.999  2.1057 -1.5230 -0.9598
 4882SOL    HW226283   1.810   1.875   9.113  0.3414  2.4526 -3.0831
 4883SOL     OW26284   4.149   4.733   6.152 -0.0926  0.0371  0.4907
 4883SOL    HW126285   4.150   0.071   6.207  1.6977 -1.4161  2.4905
 4883SOL    HW226286   4.126   4.667   6.218  1.0456 -1.0704 -0.2178
 4884SOL     OW26287   3.205   1.578   3.059 -0.2894  0.3235  0.5978
 4884SOL    HW126288   3.224   1.609   3.148 -1.5335  0.6428  0.7454
 4884SOL    HW226289   3.116   1.611   3.050 -0.1591  0.4831 -0.0774
 4885SOL     OW26290   2.460   4.512   7.074  0.2180  0.6240 -0.0208
 4885SOL    HW126291   2.386   4.453   7.065 -1.6459  2.7701  1.4379
 4885SOL    HW226292   2.448   4.545   7.163  0.0510  0.7330 -0.0850
 4886SOL     OW26293   4.080   3.390   7.600 -1.0710 -0.2845  0.0297
 4886SOL    HW126294   4.064   3.351   7.686 -2.3245 -2.0793 -1.0234
 4886SOL    HW226295   4.175   3.380   7.602 -1.1339 -1.0167 -0.9081
 4887SOL     OW26296   0.293   1.858   2.952 -0.2776  0.2088 -0.1532
 4887SOL    HW126297   0.314   1.894   3.038  1.7738  0.0313 -0.5748
 4887SOL    HW226298   0.373   1.874   2.902 -1.0982 -1.6441 -2.0582
 4888SOL     OW26299   0.177   3.501   2.461 -0.8132 -0.0674 -0.3313
 4888SOL    HW126300   0.186   3.536   2.549 -1.4868 -1.2943  0.2112
 4888SOL    HW226301   0.224   3.418   2.460 -2.2225 -0.8623  1.4691
 4889SOL     OW26302   3.577   4.315  13.697  0.2364  0.3204  0.2544
 4889SOL    HW126303   3.623   4.342  13.776 -0.1912  1.4349  0.1367
 4889SOL    HW226304   3.566   4.221  13.707 -0.9919  0.4918  0.6452
 4890SOL     OW26305   0.513   0.653   1.588 -0.1813  0.0495  0.1820
 4890SOL    HW126306   0.580   0.613   1.534  3.2225  1.7005  3.1561
 4890SOL    HW226307   0.528   0.626   1.679  4.2709 -0.5415 -0.7239
 4891SOL     OW26308   2.144   0.155  10.299 -0.0065  0.2178 -0.8523
 4891SOL    HW126309   2.140   0.160  10.394 -0.2561 -1.8469 -0.7504
 4891SOL    HW226310   2.147   0.059  10.298 -4.0982  0.0568  0.3187
 4892SOL     OW26311   0.434   4.181   6.865  0.7052 -0.2080 -0.3373
 4892SOL    HW126312   0.501   4.127   6.907  2.8927  3.5288  0.9415
 4892SOL    HW226313   0.435   4.261   6.917  0.2302 -0.5651  0.2342
 4893SOL     OW26314   0.194   4.074   4.770  0.8977  0.2712 -0.2904
 4893SOL    HW126315   0.199   4.037   4.858  1.6819  1.6305  0.2273
 4893SOL    HW226316   0.227   3.997   4.723  0.1364 -0.3079  0.1263
 4894SOL     OW26317   0.042   3.151   7.844 -0.5699  0.5988 -0.4109
 4894SOL    HW126318   4.733   3.209   7.902  1.2751  0.7509  0.9845
 4894SOL    HW226319   0.081   3.086   7.902  0.3372  1.6877  0.1917
 4895SOL     OW26320   2.396   3.508   0.275 -0.0662  0.4676  0.0243
 4895SOL    HW126321   2.348   3.479   0.352  0.6433  0.8042  0.5900
 4895SOL    HW226322   2.366   3.599   0.268  1.9787  1.3821  3.0934
 4896SOL     OW26323   1.310   3.414  16.362  0.0216 -0.2562  0.2504
 4896SOL    HW126324   1.219   3.442  16.358 -0.3972 -1.4324  1.5777
 4896SOL    HW226325   1.318   3.339  16.302  3.3047 -2.0093  2.8528
 4897SOL     OW26326   3.244   3.353   5.535  0.0696 -0.0973 -0.3299
 4897SOL    HW126327   3.259   3.339   5.441  0.7300  0.3048 -0.2893
 4897SOL    HW226328   3.326   3.338   5.582 -1.1248 -4.0290  0.4742
 4898SOL     OW26329   3.208   4.083   1.580  1.0254 -0.1228 -0.0990
 4898SOL    HW126330   3.243   4.070   1.491  1.6873  2.9049 -0.2698
 4898SOL    HW226331   3.184   3.992   1.597  2.2470 -0.0205  2.1706
 4899SOL     OW26332   2.896   0.230   5.020  0.1662 -0.3881  0.1008
 4899SOL    HW126333   2.907   0.236   4.926 -2.9663  0.5192 -0.2180
 4899SOL    HW226334   2.838   0.154   5.019 -1.3073  0.7661 -1.7116
 4900SOL     OW26335   3.360   0.718   1.929  0.0432  0.6036  0.2977
 4900SOL    HW126336   3.406   0.789   1.972  1.2588 -0.6590  1.0848
 4900SOL    HW226337   3.357   0.745   1.837 -0.3804  3.1255  1.0634
 4901SOL     OW26338   1.957   2.240   6.476 -0.5983  0.0223 -0.3028
 4901SOL    HW126339   2.047   2.267   6.455  0.2321 -1.9296  0.8017
 4901SOL    HW226340   1.971   2.207   6.564  1.8711 -1.8736 -1.4126
 4902SOL     OW26341   2.389   2.888   7.558  0.2484 -0.0790 -0.1659
 4902SOL    HW126342   2.476   2.898   7.519 -0.1002 -0.4848 -1.0347
 4902SOL    HW226343   2.387   2.975   7.598 -1.6093 -0.2550  0.1404
 4903SOL     OW26344   1.779   0.527   3.181 -0.1061 -0.5970 -0.0071
 4903SOL    HW126345   1.763   0.614   3.146  1.4261 -0.5298 -0.5169
 4903SOL    HW226346   1.875   0.524   3.185  0.0944  3.4929 -1.7957
 4904SOL     OW26347   1.682   2.933   4.377  0.4693  0.1114  0.1010
 4904SOL    HW126348   1.626   2.859   4.355  2.4934 -1.6321  0.8530
 4904SOL    HW226349   1.768   2.906   4.345  0.8312  0.0640  1.0861
 4905SOL     OW26350   0.474   2.645  12.083 -0.2346  0.1147  0.0450
 4905SOL    HW126351   0.446   2.722  12.132 -0.3373 -1.4507  2.4571
 4905SOL    HW226352   0.526   2.597  12.148  0.3918  0.3653 -0.2717
 4906SOL     OW26353   3.559   2.286   9.319  0.2913 -0.4823  0.1857
 4906SOL    HW126354   3.594   2.375   9.312  0.3185 -0.4327  0.9363
 4906SOL    HW226355   3.559   2.270   9.413  0.5094 -0.1429  0.2433
 4907SOL     OW26356   2.725   2.001   6.306 -0.5814  0.2420  0.2073
 4907SOL    HW126357   2.699   1.922   6.258  0.3160  0.5270 -0.7349
 4907SOL    HW226358   2.637   2.029   6.332 -0.7953  0.1601 -0.4173
 4908SOL     OW26359   0.067   3.158   8.958 -0.8326 -0.0903 -0.4154
 4908SOL    HW126360   0.100   3.070   8.942 -2.2056 -0.5269 -0.8583
 4908SOL    HW226361   0.085   3.176   9.051  0.1034 -0.9723 -0.4184
 4909SOL     OW26362   4.408   3.582   2.262  0.7713  0.3632 -0.5149
 4909SOL    HW126363   4.427   3.490   2.283 -0.0430  0.7066  1.6501
 4909SOL    HW226364   4.475   3.587   2.194  0.8487 -1.1786 -0.5579
 4910SOL     OW26365   0.092   2.880   3.065 -0.3245 -0.0036 -0.1162
 4910SOL    HW126366   0.060   2.798   3.104  0.7716 -0.6692 -0.5996
 4910SOL    HW226367   0.014   2.935   3.070 -0.8936 -0.7618 -0.7300
 4911SOL     OW26368   4.166   3.737  15.349 -0.9776 -0.0708  0.1451
 4911SOL    HW126369   4.223   3.809  15.373  0.3189 -1.2142  0.4713
 4911SOL    HW226370   4.200   3.680  15.418  2.0731  1.2572 -0.2827
 4912SOL     OW26371   2.096   2.372  12.387 -0.3921  0.3701  0.5015
 4912SOL    HW126372   2.083   2.321  12.467  0.0885 -0.1644  0.2418
 4912SOL    HW226373   2.154   2.441  12.417  1.6769 -0.9212 -0.5176
 4913SOL     OW26374   0.415   1.275   5.792  0.1535 -0.0969  0.0006
 4913SOL    HW126375   0.475   1.349   5.802  0.4088 -0.1131 -1.3511
 4913SOL    HW226376   0.338   1.325   5.819 -0.1839 -0.8043  0.3460
 4914SOL     OW26377   1.316   0.134  12.142  0.4884 -0.2257  0.0049
 4914SOL    HW126378   1.309   0.213  12.196  2.2597  0.4563 -0.7678
 4914SOL    HW226379   1.277   0.170  12.062 -0.1165  0.4962  0.6382
 4915SOL     OW26380   2.968   3.937   4.259  0.0504 -0.0047 -0.0825
 4915SOL    HW126381   3.005   3.971   4.340 -0.9293 -0.3435  0.5131
 4915SOL    HW226382   3.030   3.988   4.207 -0.9360 -0.5136 -1.7527
 4916SOL     OW26383   0.534   3.206   5.317  0.2877  0.6826 -0.0677
 4916SOL    HW126384   0.483   3.280   5.285  1.1289  1.5831  0.6624
 4916SOL    HW226385   0.479   3.127   5.314  1.8658 -0.4101 -0.2665
 4917SOL     OW26386   2.748   3.073   1.416  0.2026 -0.5314 -0.4107
 4917SOL    HW126387   2.792   3.148   1.456  0.9584 -1.5589  0.7047
 4917SOL    HW226388   2.716   3.107   1.333  1.5075  1.2698 -0.1664
 4918SOL     OW26389   2.231   4.344   3.502 -0.0443  0.2481  0.6776
 4918SOL    HW126390   2.323   4.363   3.520  0.4361 -0.4926 -1.0232
 4918SOL    HW226391   2.247   4.295   3.421 -1.0175 -1.2575  1.3875
 4919SOL     OW26392   3.691   0.990   7.276 -0.3329  0.1729 -0.1621
 4919SOL    HW126393   3.779   0.953   7.285 -0.3355  0.8530  2.4038
 4919SOL    HW226394   3.633   0.914   7.275  0.4943 -0.4562 -1.5000
 4920SOL     OW26395   0.722   3.070   8.715  0.4809  0.3906 -0.2428
 4920SOL    HW126396   0.782   3.060   8.640  0.2099 -0.8406 -0.2887
 4920SOL    HW226397   0.739   2.989   8.763 -3.7639 -0.5591 -0.3342
 4921SOL     OW26398   4.366   3.069   3.370 -0.9537 -0.0252  0.2429
 4921SOL    HW126399   4.355   3.106   3.458  0.9152 -0.1735  0.5407
 4921SOL    HW226400   4.280   3.051   3.332 -1.5035  3.6223 -0.2408
 4922SOL     OW26401   3.439   2.652   4.065 -0.2198 -0.1010  0.9159
 4922SOL    HW126402   3.507   2.703   4.021 -0.2175  0.0536  1.0978
 4922SOL    HW226403   3.494   2.602   4.126  0.1539 -0.1600  0.5350
 4923SOL     OW26404   0.512   4.433   8.798 -0.4702 -0.6170  1.0402
 4923SOL    HW126405   0.499   4.352   8.749  2.2493  1.0760 -2.5031
 4923SOL    HW226406   0.423   4.459   8.822 -0.9242 -1.1831 -0.0023
 4924SOL     OW26407   1.212   2.551  15.909  0.3694  0.1223  0.0525
 4924SOL    HW126408   1.240   2.465  15.940  1.5862  0.1766 -0.9014
 4924SOL    HW226409   1.183   2.519  15.824  1.7474 -1.1716  0.0608
 4925SOL     OW26410   1.403   3.616   2.699 -0.4287 -0.0261 -0.3697
 4925SOL    HW126411   1.359   3.601   2.783  0.0408  0.9243  0.0412
 4925SOL    HW226412   1.345   3.677   2.653  0.4916  1.8551  0.9781
 4926SOL     OW26413   4.377   2.833   8.896  0.7341 -0.2105 -0.1958
 4926SOL    HW126414   4.372   2.913   8.949 -0.8669  0.5840 -1.5552
 4926SOL    HW226415   4.447   2.847   8.832  0.1845 -2.7342 -1.3456
 4927SOL     OW26416   2.085   0.038   6.529 -0.1109 -0.0478 -0.6605
 4927SOL    HW126417   2.137   0.079   6.459  0.0981 -0.0088 -0.4826
 4927SOL    HW226418   2.019   0.105   6.547 -0.9682 -0.7517 -1.1665
 4928SOL     OW26419   2.512   3.397  17.027 -0.7572 -0.1077  0.1686
 4928SOL    HW126420   2.593   3.375  17.074 -0.6542  1.4084  0.7046
 4928SOL    HW226421   2.479   3.448  17.101  0.7271  1.8763 -0.5219
 4929SOL     OW26422   4.555   2.910   8.720 -0.3054 -0.4270 -0.0489
 4929SOL    HW126423   4.612   2.833   8.712 -2.1662 -1.6710 -1.3430
 4929SOL    HW226424   4.600   2.981   8.675  0.1480 -1.7919 -1.7403
 4930SOL     OW26425   3.151   0.032  12.782  0.5317 -0.0422 -0.0663
 4930SOL    HW126426   3.208   4.716  12.835  2.0389  1.8700  0.3324
 4930SOL    HW226427   3.190   0.023  12.695  1.5343 -0.6297  0.4378
 4931SOL     OW26428   2.362   1.988   2.477  0.1279  0.1058 -0.0798
 4931SOL    HW126429   2.365   1.894   2.494  0.1974  0.0948 -0.1524
 4931SOL    HW226430   2.449   1.997   2.436 -0.1306 -1.2569 -0.9327
 4932SOL     OW26431   3.331   0.240  13.832 -0.0718 -0.1136  0.6763
 4932SOL    HW126432   3.355   0.233  13.925 -1.1457 -0.7769  0.9080
 4932SOL    HW226433   3.235   0.240  13.836 -0.0753 -0.6572  0.6003
 4933SOL     OW26434   2.113   0.995  11.404  0.2818 -0.0182 -0.0314
 4933SOL    HW126435   2.123   0.917  11.348  1.8118 -0.9342  1.5110
 4933SOL    HW226436   2.198   1.038  11.396  0.4997 -0.3952  0.2612
 4934SOL     OW26437   2.705   2.475  17.277  0.0633  0.3526 -0.2375
 4934SOL    HW126438   2.646   2.431  17.216  0.2199 -0.5704  0.2666
 4934SOL    HW226439   2.770   2.405  17.290 -1.9907 -1.3446  0.9110
 4935SOL     OW26440   2.466   3.516  10.404  0.4508 -0.4441 -0.2350
 4935SOL    HW126441   2.499   3.586  10.348  0.9664 -0.0029  0.6156
 4935SOL    HW226442   2.458   3.553  10.492  3.2274 -1.1593  0.3357
 4936SOL     OW26443   0.915   4.663   7.271  0.0734  0.1247  0.5551
 4936SOL    HW126444   1.010   4.673   7.271 -0.1929  2.4962 -2.0175
 4936SOL    HW226445   0.904   4.590   7.210 -1.3539  0.6533  0.1704
 4937SOL     OW26446   1.963   0.488   3.965 -0.0358  0.3087  0.2368
 4937SOL    HW126447   2.019   0.471   4.041 -0.7799 -1.2239  0.4378
 4937SOL    HW226448   1.882   0.459   4.007 -0.4433 -0.4928 -1.1206
 4938SOL     OW26449   1.269   3.088   1.819 -0.3704  0.2365 -0.3910
 4938SOL    HW126450   1.179   3.066   1.842 -0.2655 -0.6788 -0.8394
 4938SOL    HW226451   1.263   3.085   1.724  1.9410  0.1961 -0.5469
 4939SOL     OW26452   2.372   3.059   8.949  0.5681  0.1113  0.4856
 4939SOL    HW126453   2.347   3.143   8.987  1.4017  0.4713  0.2200
 4939SOL    HW226454   2.463   3.079   8.927  1.7403 -2.0374  3.3638
 4940SOL     OW26455   2.485   1.174   1.422 -0.2435 -0.2862  0.5089
 4940SOL    HW126456   2.578   1.195   1.434  0.5659 -2.0583 -2.7157
 4940SOL    HW226457   2.487   1.082   1.448 -0.1955 -0.8961 -1.7028
 4941SOL     OW26458   4.219   4.123   6.712 -1.3681 -0.4734 -0.0781
 4941SOL    HW126459   4.207   4.188   6.781 -0.8305 -0.2183 -0.2219
 4941SOL    HW226460   4.264   4.063   6.772  2.2008  2.5393  0.2946
 4942SOL     OW26461   0.561   0.003   3.917  0.0222 -0.3410  0.5114
 4942SOL    HW126462   0.643   0.046   3.893 -1.1890  0.5870 -1.8808
 4942SOL    HW226463   0.496   0.071   3.900 -1.5177 -1.0838  3.3415
 4943SOL     OW26464   1.653   1.043   4.421  0.2218 -0.1160 -0.5577
 4943SOL    HW126465   1.598   0.997   4.357 -0.1089  0.9048 -1.0038
 4943SOL    HW226466   1.719   0.978   4.445  1.0311  0.8740 -0.1109
 4944SOL     OW26467   2.138   0.034   8.739 -0.9728  0.1961 -0.1847
 4944SOL    HW126468   2.190   4.718   8.796 -0.4787  1.9960  1.1364
 4944SOL    HW226469   2.144   0.118   8.784  0.1250  0.3961 -0.7113
 4945SOL     OW26470   0.919   4.161   7.327 -0.4848  0.0467  0.4409
 4945SOL    HW126471   0.835   4.206   7.311 -0.8950  0.3142  3.2858
 4945SOL    HW226472   0.972   4.235   7.358 -1.7944  1.3438 -0.3555
 4946SOL     OW26473   1.630   1.184  13.067  0.5219  0.0491 -0.0300
 4946SOL    HW126474   1.660   1.252  13.007  0.3404 -0.2629 -0.4778
 4946SOL    HW226475   1.685   1.201  13.143  2.7081  1.6216 -1.9388
 4947SOL     OW26476   1.273   2.454   4.126 -0.4394 -0.1177  0.2627
 4947SOL    HW126477   1.242   2.545   4.122  0.6670  0.3238  1.4600
 4947SOL    HW226478   1.363   2.460   4.095 -0.0033  1.0453  1.7043
 4948SOL     OW26479   1.897   2.644  17.064 -0.2581 -0.9211 -0.4678
 4948SOL    HW126480   1.972   2.629  17.122  2.5261  0.1936 -3.8148
 4948SOL    HW226481   1.834   2.589  17.110  0.9128 -0.7680  1.3275
 4949SOL     OW26482   0.775   3.902   9.374 -0.1300  0.2802 -0.1499
 4949SOL    HW126483   0.707   3.857   9.324 -0.7333  1.8796 -0.7495
 4949SOL    HW226484   0.812   3.834   9.432  0.8673  0.9424 -0.0119
 4950SOL     OW26485   0.477   1.265  10.592  0.1868 -0.0969  0.4315
 4950SOL    HW126486   0.571   1.273  10.609  0.1943 -1.0324  0.8523
 4950SOL    HW226487   0.474   1.170  10.602  1.4303 -0.2835 -1.0189
 4951SOL     OW26488   1.260   1.890   4.523  0.3559 -0.1186  0.1266
 4951SOL    HW126489   1.276   1.822   4.458 -0.7580  2.2733 -2.6526
 4951SOL    HW226490   1.211   1.847   4.594 -0.0595 -1.7648 -1.1523
 4952SOL     OW26491   2.324   3.255   8.635 -0.0272  0.1962  0.1663
 4952SOL    HW126492   2.416   3.280   8.640 -0.3724  1.9395 -2.1551
 4952SOL    HW226493   2.335   3.160   8.630  1.3702  0.3485  0.3085
 4953SOL     OW26494   3.051   2.442  17.385 -0.4960  0.4380  1.0580
 4953SOL    HW126495   3.133   2.407  17.419 -1.5240  0.7894  3.9562
 4953SOL    HW226496   2.993   2.438  17.462 -0.3006 -1.4337  1.1152
 4954SOL     OW26497   2.965   0.153   3.966  0.1625  0.4890 -0.9339
 4954SOL    HW126498   2.997   0.071   3.928 -0.1425 -0.0694 -0.0010
 4954SOL    HW226499   2.902   0.198   3.910 -2.4993 -0.5349  1.1856
 4955SOL     OW26500   2.842   4.286   6.358  0.1320 -0.4442 -0.0751
 4955SOL    HW126501   2.912   4.229   6.325  1.1282 -0.1291  1.4999
 4955SOL    HW226502   2.873   4.305   6.447 -1.3233  0.7118  0.1752
 4956SOL     OW26503   4.261   4.542   4.840 -0.0808  0.1474  0.6169
 4956SOL    HW126504   4.192   4.530   4.776 -0.9317 -0.2177  1.6082
 4956SOL    HW226505   4.336   4.498   4.799 -0.4417  0.6169 -0.5421
 4957SOL     OW26506   1.088   0.971   5.417 -0.6033  0.0197  0.0627
 4957SOL    HW126507   1.167   0.958   5.469 -0.9056  2.9326  1.2233
 4957SOL    HW226508   1.128   0.962   5.330  1.4639  3.0895  0.6758
 4958SOL     OW26509   2.264   1.198   8.704  0.2137  0.2616 -0.3798
 4958SOL    HW126510   2.326   1.232   8.768  0.2604  0.2912 -0.4398
 4958SOL    HW226511   2.240   1.113   8.741  2.2106 -0.5211 -0.8794
 4959SOL     OW26512   0.768   3.500   8.983 -0.3066  0.8663 -0.0610
 4959SOL    HW126513   0.770   3.497   8.888  1.3993  0.9120 -0.0211
 4959SOL    HW226514   0.694   3.441   8.998  1.2479 -0.4629  2.3677
 4960SOL     OW26515   4.121   0.969  12.656 -0.2550  0.3649 -0.0555
 4960SOL    HW126516   4.153   1.059  12.662  1.3263 -0.4588  3.4278
 4960SOL    HW226517   4.111   0.949  12.749 -1.2071 -1.2413 -0.5055
 4961SOL     OW26518   1.318   2.035   3.500  0.3350  0.1050  0.2717
 4961SOL    HW126519   1.234   2.023   3.456  0.1818 -0.2364  0.6715
 4961SOL    HW226520   1.295   2.020   3.591 -1.3621  0.9016 -0.0171
 4962SOL     OW26521   4.385   2.455   3.372  0.1432  0.4947 -0.1610
 4962SOL    HW126522   4.396   2.410   3.456 -0.4719 -0.0935 -0.3935
 4962SOL    HW226523   4.476   2.469   3.344  0.6910 -1.0534  0.7733
 4963SOL     OW26524   3.578   4.150   7.314  0.0294  0.2117 -0.7764
 4963SOL    HW126525   3.572   4.065   7.356 -0.0877  0.1672 -0.8844
 4963SOL    HW226526   3.585   4.208   7.391  2.7728 -0.5782 -0.4469
 4964SOL     OW26527   2.797   1.476  13.718  0.8560  0.2919  0.1290
 4964SOL    HW126528   2.829   1.553  13.765 -1.1070  1.4224 -0.3807
 4964SOL    HW226529   2.741   1.521  13.654 -1.9349 -0.5730  1.9435
 4965SOL     OW26530   1.291   3.594   6.633 -0.1293 -0.1210 -0.2057
 4965SOL    HW126531   1.323   3.605   6.723  1.6569  1.2349 -1.0086
 4965SOL    HW226532   1.356   3.636   6.577  0.6662 -0.3220  0.5553
 4966SOL     OW26533   1.899   4.172   6.813 -0.0479  0.2322  0.6504
 4966SOL    HW126534   1.917   4.149   6.722  0.4259 -0.5958  0.9544
 4966SOL    HW226535   1.952   4.251   6.819 -1.6223  1.4320 -1.3283
 4967SOL     OW26536   2.115   0.435   8.522  0.5723  0.2277  0.1362
 4967SOL    HW126537   2.045   0.456   8.583 -0.1801 -0.7459 -0.3744
 4967SOL    HW226538   2.077   0.466   8.440 -0.1750  2.2993  1.2631
 4968SOL     OW26539   1.974   0.283   6.608  1.0818 -0.2186  0.3103
 4968SOL    HW126540   1.976   0.310   6.700  1.3866  1.0962 -0.0890
 4968SOL    HW226541   1.884   0.308   6.585  1.3501  1.2507  0.8772
 4969SOL     OW26542   2.911   2.907  12.011 -0.1985 -0.3037  0.4387
 4969SOL    HW126543   2.984   2.933  12.067  0.7901 -0.0193 -0.9841
 4969SOL    HW226544   2.914   2.812  12.021 -0.9324 -0.3381  0.3299
 4970SOL     OW26545   4.528   1.192   1.316 -0.6979  0.3883  0.5177
 4970SOL    HW126546   4.470   1.128   1.359 -0.4844  1.1657  1.9521
 4970SOL    HW226547   4.582   1.132   1.263 -0.0602  0.8451  0.6493
 4971SOL     OW26548   0.613   3.396   8.459 -0.6865 -0.1276  0.2390
 4971SOL    HW126549   0.573   3.474   8.499 -2.2862 -1.4469  1.1799
 4971SOL    HW226550   0.600   3.431   8.370  1.0279 -2.3378 -0.8662
 4972SOL     OW26551   0.118   2.043   6.308  0.4146 -0.2915  0.4761
 4972SOL    HW126552   0.147   2.133   6.292  0.8918 -0.7718 -1.3780
 4972SOL    HW226553   0.118   2.021   6.214  1.4651 -0.0349  0.4185
 4973SOL     OW26554   4.574   1.022  13.042  0.1507  0.0568 -0.1244
 4973SOL    HW126555   4.522   0.995  12.966  2.2552 -1.3981 -1.0475
 4973SOL    HW226556   4.559   0.944  13.096  0.4421 -1.0339 -1.6332
 4974SOL     OW26557   4.572   4.222   2.058  0.1946  0.0032  0.4868
 4974SOL    HW126558   4.509   4.248   2.124 -2.0748 -2.0021 -0.8861
 4974SOL    HW226559   4.548   4.130   2.053  0.8648  0.0023 -2.6833
 4975SOL     OW26560   3.496   0.802   7.300  0.6180  0.1828  0.2385
 4975SOL    HW126561   3.437   0.730   7.281 -0.6005  0.3875  3.2551
 4975SOL    HW226562   3.518   0.788   7.392  0.0219 -0.6110  0.2541
 4976SOL     OW26563   3.885   0.826   8.029 -0.1440  0.1200  0.4411
 4976SOL    HW126564   3.811   0.886   8.021  1.0540  1.4850 -0.3569
 4976SOL    HW226565   3.903   0.826   8.123 -0.7909  0.0795  0.5654
 4977SOL     OW26566   1.721   2.946   3.530 -0.4364  0.5700  0.0042
 4977SOL    HW126567   1.703   2.893   3.452  2.0750 -1.2827  0.6875
 4977SOL    HW226568   1.678   3.030   3.512 -0.5831  0.3192 -0.8381
 4978SOL     OW26569   2.920   1.720   8.184 -0.1156  0.1828 -0.1124
 4978SOL    HW126570   2.882   1.634   8.201 -0.5867  0.5770  0.8050
 4978SOL    HW226571   2.843   1.771   8.209 -0.2827 -0.2293  0.2111
 4979SOL     OW26572   3.779   2.369  12.075 -0.1929  0.4639 -0.3401
 4979SOL    HW126573   3.849   2.358  12.139 -1.5889  0.3343  1.1555
 4979SOL    HW226574   3.838   2.376  11.999  0.4866 -0.7899  0.0805
 4980SOL     OW26575   0.242   0.107   6.244  0.5138 -0.4609 -0.3002
 4980SOL    HW126576   0.208   0.101   6.334  0.3702 -0.1116 -0.3318
 4980SOL    HW226577   0.269   0.016   6.230  0.2244 -0.3273 -1.7013
 4981SOL     OW26578   1.532   2.863   6.853 -0.5153 -0.3435 -0.0149
 4981SOL    HW126579   1.442   2.831   6.851 -0.9315  1.0658 -3.1926
 4981SOL    HW226580   1.536   2.896   6.943 -1.3065 -2.1048  0.6800
 4982SOL     OW26581   1.650   0.299   3.182  0.1016 -0.2238  0.2772
 4982SOL    HW126582   1.650   0.295   3.087 -0.3672  0.3395  0.2508
 4982SOL    HW226583   1.704   0.378   3.179  0.5906 -0.4681  2.1640
 4983SOL     OW26584   1.140   1.292   5.173 -0.1087  0.1840  0.3018
 4983SOL    HW126585   1.061   1.272   5.122  0.2330 -0.2103 -0.0662
 4983SOL    HW226586   1.097   1.333   5.249 -2.9802  1.4999 -2.0127
 4984SOL     OW26587   1.365   3.038   5.883  0.7686  0.4386  0.0120
 4984SOL    HW126588   1.366   2.943   5.868 -1.9037  0.3722  0.2720
 4984SOL    HW226589   1.340   3.047   5.975  1.7212 -1.4953  0.4607
 4985SOL     OW26590   4.551   0.098   3.534  0.3916  0.7998 -0.4568
 4985SOL    HW126591   4.497   0.165   3.577  0.1071 -0.6923  1.5281
 4985SOL    HW226592   4.497   0.022   3.554  3.5648 -0.9557  1.4735
 4986SOL     OW26593   3.065   1.274   7.188 -0.2180  0.3384  0.6516
 4986SOL    HW126594   3.091   1.302   7.100  0.4192 -0.1273  0.6934
 4986SOL    HW226595   3.132   1.324   7.234 -0.1981  1.3888 -0.5146
 4987SOL     OW26596   0.837   3.204  17.456 -0.0215  0.0868  0.1536
 4987SOL    HW126597   0.930   3.183  17.443 -0.0504  0.7628 -1.1453
 4987SOL    HW226598   0.794   3.120  17.446 -0.5054  0.3080  0.3940
 4988SOL     OW26599   4.690   1.278   2.997  0.8741 -0.1835  0.0416
 4988SOL    HW126600   0.006   1.355   2.993  2.0529 -1.0977 -1.1539
 4988SOL    HW226601   4.600   1.310   3.000  0.5652 -0.9579 -0.8622
 4989SOL     OW26602   3.856   0.381   4.960  0.1615 -0.2997  0.2991
 4989SOL    HW126603   3.886   0.436   5.033  2.1138  0.4639 -1.0629
 4989SOL    HW226604   3.790   0.332   5.009  1.1527  1.0356  3.0073
 4990SOL     OW26605   0.900   0.030   7.687  0.0763 -0.4199 -0.2254
 4990SOL    HW126606   0.890   0.040   7.592 -1.2907  0.7161  0.0349
 4990SOL    HW226607   0.885   4.676   7.701 -0.6180 -0.1379  0.9858
 4991SOL     OW26608   0.964   4.574  10.943 -0.4161  0.5203  0.0517
 4991SOL    HW126609   1.033   4.631  10.977 -0.1974  0.9237 -1.0981
 4991SOL    HW226610   0.891   4.584  11.005 -0.4514 -0.3236  0.1538
 4992SOL     OW26611   1.380   0.511   9.181  0.1933 -0.0622  0.7001
 4992SOL    HW126612   1.450   0.540   9.124  2.7088 -0.8436  3.3881
 4992SOL    HW226613   1.314   0.481   9.119  0.1808  1.2788  0.0856
 4993SOL     OW26614   2.934   3.032   8.157  0.1962  0.2989  0.3204
 4993SOL    HW126615   3.029   3.019   8.155 -0.0576 -1.2413 -2.3034
 4993SOL    HW226616   2.905   2.988   8.078 -0.1614  1.9406 -0.4559
 4994SOL     OW26617   1.405   1.919   6.377  0.3995 -0.0637 -0.4715
 4994SOL    HW126618   1.363   1.988   6.325 -2.4298 -0.3801  1.3624
 4994SOL    HW226619   1.419   1.964   6.460  3.7035  0.5494 -1.3884
 4995SOL     OW26620   1.811   2.810   9.403 -0.3296  0.4204 -0.4355
 4995SOL    HW126621   1.866   2.742   9.442 -0.9480  0.7688  1.0487
 4995SOL    HW226622   1.875   2.880   9.404 -1.2874  1.2926 -0.2698
 4996SOL     OW26623   3.249   0.787   5.252  0.2685  0.5162 -0.0480
 4996SOL    HW126624   3.260   0.805   5.345  0.5947 -1.3801  0.2794
 4996SOL    HW226625   3.300   0.861   5.218 -1.5967  1.4905 -0.7387
 4997SOL     OW26626   2.033   2.533   8.303 -0.7524 -0.2325 -0.3939
 4997SOL    HW126627   2.080   2.606   8.345  1.3570 -2.0389  0.3824
 4997SOL    HW226628   1.961   2.574   8.254 -1.3225  0.1238  0.7308
 4998SOL     OW26629   1.794   4.216   4.242  0.1636  0.1563 -0.0257
 4998SOL    HW126630   1.733   4.212   4.316  0.5381 -3.8162  0.0723
 4998SOL    HW226631   1.739   4.168   4.180 -0.9223  0.5155  0.6622
 4999SOL     OW26632   2.811   0.291   3.755  0.3021  0.1050  0.0260
 4999SOL    HW126633   2.759   0.347   3.697 -3.1719 -1.4926  1.6043
 4999SOL    HW226634   2.872   0.243   3.698 -0.4808  0.6304 -1.2610
 5000SOL     OW26635   4.155   1.391   5.886 -0.3126  0.0829 -0.2757
 5000SOL    HW126636   4.099   1.324   5.925  0.6035  1.0211  2.6412
 5000SOL    HW226637   4.121   1.473   5.923 -1.2728 -0.5351  0.2138
 5001SOL     OW26638   4.176   4.530   0.949  0.4727  0.9498 -0.3920
 5001SOL    HW126639   4.143   4.453   0.904 -0.2047 -0.2832  2.2049
 5001SOL    HW226640   4.105   4.594   0.941  0.6629  1.1194 -0.7216
 5002SOL     OW26641   2.658   3.996   4.752  0.6949  0.0127 -0.1315
 5002SOL    HW126642   2.617   3.946   4.682  0.0589  0.2977  0.0395
 5002SOL    HW226643   2.688   4.078   4.711  1.7498 -0.6920 -0.7704
 5003SOL     OW26644   2.336   1.185   6.525  0.2283 -0.2301 -0.9992
 5003SOL    HW126645   2.341   1.201   6.431  1.7303  2.2548 -0.5041
 5003SOL    HW226646   2.416   1.225   6.559  1.8239 -3.7447 -0.6390
 5004SOL     OW26647   1.691   0.610   6.768 -0.3853  0.1318  0.3930
 5004SOL    HW126648   1.734   0.529   6.741  1.4245  0.6792  1.5626
 5004SOL    HW226649   1.765   0.658   6.805 -0.5300 -1.1119  2.3083
 5005SOL     OW26650   1.021   2.702   4.474  0.1160 -0.3041 -0.4726
 5005SOL    HW126651   1.023   2.728   4.566  0.6363 -2.7645  0.2224
 5005SOL    HW226652   1.029   2.778   4.417  0.6560  1.8856  2.5326
 5006SOL     OW26653   3.444   3.918  15.709 -0.0669 -0.6746 -0.1600
 5006SOL    HW126654   3.404   3.947  15.627 -1.5903 -0.4912  0.6591
 5006SOL    HW226655   3.482   3.835  15.680  1.4445 -0.5956  1.5732
 5007SOL     OW26656   4.079   1.268  13.032  0.1158 -0.2183 -0.0293
 5007SOL    HW126657   4.156   1.270  13.089  0.5508  0.9198 -0.6599
 5007SOL    HW226658   4.019   1.240  13.101 -1.9484  2.5121 -0.6935
 5008SOL     OW26659   4.178   1.723   2.451 -0.7952 -0.0982  0.5438
 5008SOL    HW126660   4.149   1.754   2.537 -0.5290  2.0676 -0.1480
 5008SOL    HW226661   4.141   1.787   2.390 -2.6214 -1.5784  0.0773
 5009SOL     OW26662   0.791   4.353   5.527  0.7339  0.5756 -0.3558
 5009SOL    HW126663   0.784   4.316   5.439  1.3688 -1.4049  0.4124
 5009SOL    HW226664   0.740   4.433   5.516 -0.5926 -0.2694 -0.3156
 5010SOL     OW26665   3.287   1.093   8.895 -0.1224  0.2406  0.4503
 5010SOL    HW126666   3.220   1.070   8.831 -0.9835 -1.9493  2.1581
 5010SOL    HW226667   3.275   1.188   8.887 -0.2549  0.1159 -0.7235
 5011SOL     OW26668   0.983   1.859   5.379  0.2684 -0.2103 -0.0830
 5011SOL    HW126669   0.998   1.927   5.445 -1.3239 -0.9646  1.0667
 5011SOL    HW226670   0.948   1.916   5.310  1.7448 -0.5934 -1.1452
 5012SOL     OW26671   0.574   3.734   6.635  0.4849 -0.1191 -0.4587
 5012SOL    HW126672   0.516   3.803   6.667  0.7212  0.6865 -1.7822
 5012SOL    HW226673   0.529   3.649   6.633  1.1659 -0.5414  1.9577
 5013SOL     OW26674   2.687   0.320   9.003 -0.9792 -0.4393  0.2840
 5013SOL    HW126675   2.702   0.395   8.946 -0.1275 -1.4155 -0.7822
 5013SOL    HW226676   2.709   0.250   8.941 -1.1205  0.8207 -1.1613
 5014SOL     OW26677   2.106   0.524   0.702  0.0531 -0.3342 -0.2789
 5014SOL    HW126678   2.052   0.539   0.779  0.3961 -0.3616 -0.0331
 5014SOL    HW226679   2.169   0.596   0.707 -0.3831 -0.1289  2.1757
 5015SOL     OW26680   2.360   2.790  12.004  0.2424 -0.1016 -0.5021
 5015SOL    HW126681   2.349   2.782  11.909  1.6697 -0.1218 -0.6673
 5015SOL    HW226682   2.407   2.873  12.015 -1.1731  0.1693  3.4658
 5016SOL     OW26683   0.589   4.316   6.351  0.4739  0.6724 -0.3219
 5016SOL    HW126684   0.570   4.281   6.438  0.3619 -2.7828 -1.7487
 5016SOL    HW226685   0.660   4.371   6.386 -0.9761  0.8477  2.3520
 5017SOL     OW26686   4.057   0.995   2.053 -0.5033 -0.3125 -0.1938
 5017SOL    HW126687   4.124   1.017   1.988 -1.4666  0.9362 -0.7641
 5017SOL    HW226688   4.051   0.903   2.028  0.8133 -0.6973  0.9288
 5018SOL     OW26689   2.998   0.859   5.142 -0.7078  0.6372 -0.4313
 5018SOL    HW126690   3.086   0.839   5.175 -1.5258 -0.8377  0.8460
 5018SOL    HW226691   2.993   0.954   5.134  2.9138  0.6422 -2.9856
 5019SOL     OW26692   2.941   4.557   0.952  0.0169 -0.0548 -0.1735
 5019SOL    HW126693   2.994   4.495   0.900 -0.6451  0.2912 -1.2752
 5019SOL    HW226694   2.955   4.521   1.039  3.9361  3.1234  0.4904
 5020SOL     OW26695   2.087   0.170   8.129 -0.0684  0.0036  0.4098
 5020SOL    HW126696   2.055   0.173   8.219  1.1298 -1.2759  0.8711
 5020SOL    HW226697   2.158   0.107   8.130  0.0677  0.1770  1.2379
 5021SOL     OW26698   3.696   4.517   2.335 -0.1293  0.2586 -0.3688
 5021SOL    HW126699   3.691   4.588   2.400  1.8850 -1.1539  1.3111
 5021SOL    HW226700   3.679   4.566   2.255 -1.1385  1.9306  0.8626
 5022SOL     OW26701   1.633   2.559   9.062 -0.4032 -0.3870  0.4557
 5022SOL    HW126702   1.609   2.608   9.141 -0.0970  0.1969  0.1928
 5022SOL    HW226703   1.726   2.579   9.051  0.0325 -3.4519 -1.4231
 5023SOL     OW26704   0.839   0.773   8.870  0.9647  0.0351  0.3444
 5023SOL    HW126705   0.858   0.679   8.860  1.4356  0.1947 -0.2899
 5023SOL    HW226706   0.882   0.813   8.794  0.2274  0.8440  0.3608
 5024SOL     OW26707   3.678   3.619   7.020 -0.3148 -0.1352  0.0340
 5024SOL    HW126708   3.692   3.691   7.082 -0.1958 -0.0175 -0.1283
 5024SOL    HW226709   3.751   3.560   7.042 -0.5600 -0.5051 -0.1551
 5025SOL     OW26710   2.117   2.361   3.146 -0.0659 -0.1671  0.2145
 5025SOL    HW126711   2.160   2.283   3.109 -2.7873 -1.5594 -0.0732
 5025SOL    HW226712   2.196   2.402   3.180 -0.3066  2.5637 -2.5078
 5026SOL     OW26713   4.122   2.080   5.655 -0.2770 -0.5064  0.0926
 5026SOL    HW126714   4.067   2.043   5.725  0.4830 -1.4630  0.1961
 5026SOL    HW226715   4.186   2.133   5.702  0.1988 -0.6799 -0.3641
 5027SOL     OW26716   3.751   3.480  17.292 -0.6202 -0.1343  0.7972
 5027SOL    HW126717   3.799   3.450  17.369  0.8726 -0.6015 -0.3075
 5027SOL    HW226718   3.817   3.444  17.232  0.2439  1.8983  0.5238
 5028SOL     OW26719   3.158   3.680   1.278  0.1023 -0.1794  0.3558
 5028SOL    HW126720   3.167   3.613   1.345  0.1378 -0.8698 -0.3331
 5028SOL    HW226721   3.106   3.638   1.209  1.3929 -2.6020  0.8537
 5029SOL     OW26722   3.785   0.242  14.646  0.2193 -0.0739 -0.7749
 5029SOL    HW126723   3.692   0.263  14.642  0.2340  0.3614  1.0924
 5029SOL    HW226724   3.803   0.286  14.563 -1.5029 -0.1974 -1.2225
 5030SOL     OW26725   1.906   3.694  12.100 -0.3799  0.2867  0.1167
 5030SOL    HW126726   1.954   3.647  12.168  1.8867  2.6339  0.1550
 5030SOL    HW226727   1.833   3.633  12.094  0.1324 -0.2922 -0.2671
 5031SOL     OW26728   4.659   3.877   3.113 -0.3958 -0.1479  0.1354
 5031SOL    HW126729   4.627   3.814   3.048  1.4298 -1.9939  1.0199
 5031SOL    HW226730   0.014   3.871   3.107 -0.6232 -2.1537 -1.8257
 5032SOL     OW26731   4.736   3.900  17.473  0.5269  0.1330 -0.0008
 5032SOL    HW126732   0.029   3.909  17.563 -0.6386 -0.9303  0.5291
 5032SOL    HW226733   4.649   3.939  17.479  1.0140  1.3121 -0.5922
 5033SOL     OW26734   2.043   3.467   1.161  0.4676 -0.0894  0.2393
 5033SOL    HW126735   2.029   3.441   1.252  1.8507  2.4484  1.1834
 5033SOL    HW226736   2.079   3.382   1.135  2.5103 -0.8403  5.4432
 5034SOL     OW26737   4.501   1.972   8.462 -0.3829 -0.1103  0.1827
 5034SOL    HW126738   4.574   1.936   8.512 -0.1146 -3.0913 -2.3713
 5034SOL    HW226739   4.536   2.015   8.384  0.8327  0.9824  1.3174
 5035SOL     OW26740   4.345   0.675   5.227 -0.4104  0.2669 -0.2668
 5035SOL    HW126741   4.429   0.705   5.193 -0.5086  0.6286 -0.1896
 5035SOL    HW226742   4.341   0.597   5.172  1.0777 -0.3773  0.5472
 5036SOL     OW26743   0.254   1.210  16.336  0.2897 -0.7851  0.1612
 5036SOL    HW126744   0.164   1.215  16.304  0.3432  0.2925  0.1689
 5036SOL    HW226745   0.269   1.116  16.346  0.6471 -0.6936  0.4828
 5037SOL     OW26746   2.312   2.326  17.574  0.0421  0.1627 -0.4844
 5037SOL    HW126747   2.402   2.344  17.599  0.4128  0.3963 -2.0028
 5037SOL    HW226748   2.313   2.371  17.490 -1.5593 -0.8158 -1.0335
 5038SOL     OW26749   3.108   1.798   8.338 -0.0798  0.2931  0.3317
 5038SOL    HW126750   3.032   1.792   8.280  1.0684  0.1731 -1.1587
 5038SOL    HW226751   3.145   1.710   8.327  1.4389  1.1160 -1.1256
 5039SOL     OW26752   3.627   3.623  16.015  0.0674 -0.2338 -0.2867
 5039SOL    HW126753   3.549   3.677  16.015 -0.0024 -0.3255 -1.3063
 5039SOL    HW226754   3.614   3.569  16.093  0.9231  1.6156  1.1488
 5040SOL     OW26755   1.304   3.289   6.920  0.8373 -0.2577  0.0506
 5040SOL    HW126756   1.322   3.383   6.920  0.0469 -0.1052 -0.6833
 5040SOL    HW226757   1.219   3.279   6.876  0.3149  0.0321  1.0118
 5041SOL     OW26758   1.159   3.621   3.676 -0.4517 -0.1724  0.4119
 5041SOL    HW126759   1.128   3.562   3.607 -1.5976  1.1739 -0.2210
 5041SOL    HW226760   1.140   3.565   3.751  1.1425 -1.6833 -0.3158
 5042SOL     OW26761   3.657   2.770   3.015  0.2377  0.1382  0.1876
 5042SOL    HW126762   3.587   2.765   2.950 -1.4366  0.5660  1.9539
 5042SOL    HW226763   3.718   2.821   2.962  2.0179 -1.7603  0.3806
 5043SOL     OW26764   2.659   4.720   6.896 -0.2382 -0.2758 -0.2793
 5043SOL    HW126765   2.746   4.683   6.882  0.4143  1.2664 -0.3364
 5043SOL    HW226766   2.679   0.031   6.975 -0.3312 -1.7689  0.7111
 5044SOL     OW26767   2.959   3.506  17.546  0.0876  0.0559  0.1630
 5044SOL    HW126768   3.015   3.461  17.608  1.4037 -1.5673 -2.1856
 5044SOL    HW226769   3.028   3.534  17.486 -0.4745 -2.6769 -1.7841
 5045SOL     OW26770   2.076   3.439   5.845  0.2180 -0.3610 -0.3563
 5045SOL    HW126771   2.010   3.459   5.911  2.5365  0.0730  1.8567
 5045SOL    HW226772   2.061   3.509   5.781  0.9805  1.1011  1.0344
 5046SOL     OW26773   4.140   1.262   6.165 -0.4553 -0.1089 -0.0412
 5046SOL    HW126774   4.149   1.347   6.122  1.7307 -0.3497 -0.0594
 5046SOL    HW226775   4.227   1.257   6.205 -0.7491  0.8050  0.7134
 5047SOL     OW26776   4.295   2.897   1.338  0.2649 -0.3995  0.5370
 5047SOL    HW126777   4.384   2.907   1.303  0.3973  1.1128  1.3013
 5047SOL    HW226778   4.301   2.809   1.375  0.3140 -1.6421 -2.4922
 5048SOL     OW26779   4.451   0.204   8.246  0.7617 -0.1575 -0.4588
 5048SOL    HW126780   4.372   0.153   8.262  0.8859  0.1786  1.2166
 5048SOL    HW226781   4.425   0.285   8.289  3.4091  0.1476  0.5909
 5049SOL     OW26782   3.537   3.129   7.749  0.0167  0.2658 -0.8775
 5049SOL    HW126783   3.591   3.069   7.697  2.0687  0.4517  1.0663
 5049SOL    HW226784   3.457   3.108   7.701 -0.3396 -0.2573 -0.0477
 5050SOL     OW26785   3.906   4.060   6.737  0.2443 -0.2158  0.2097
 5050SOL    HW126786   3.860   3.975   6.740 -1.7696  0.8688  0.1529
 5050SOL    HW226787   3.989   4.021   6.711 -0.0577 -0.4493 -0.4183
 5051SOL     OW26788   2.150   4.004  10.349  0.1809 -0.0059 -0.5901
 5051SOL    HW126789   2.166   3.928  10.405 -1.3955 -0.3756 -0.6508
 5051SOL    HW226790   2.189   4.072  10.404 -2.0783 -0.5323  1.6546
 5052SOL     OW26791   0.167   4.243   7.523 -0.7674 -0.1303  0.2708
 5052SOL    HW126792   0.154   4.337   7.534  1.7962  0.2434 -0.0369
 5052SOL    HW226793   0.252   4.235   7.566 -0.0712  2.1455 -0.6732
 5053SOL     OW26794   2.681   3.194  16.275  0.0707  0.2400 -0.3581
 5053SOL    HW126795   2.730   3.273  16.254  0.0869  0.5673  0.9237
 5053SOL    HW226796   2.727   3.179  16.357  0.5414  1.0346 -0.4757
 5054SOL     OW26797   3.086   0.641   2.399 -0.7517  0.5948  0.0617
 5054SOL    HW126798   3.008   0.668   2.351 -0.5295  0.4973 -0.3546
 5054SOL    HW226799   3.160   0.651   2.340  0.0095  1.9227  1.2510
 5055SOL     OW26800   0.001   3.872   5.843  0.2620  0.1174  0.7659
 5055SOL    HW126801   0.064   3.921   5.790 -0.9827  0.2558 -0.5921
 5055SOL    HW226802   4.721   3.937   5.910  2.1714 -0.2443  1.6953
 5056SOL     OW26803   2.820   0.561   1.328  0.3692  0.4629  0.6858
 5056SOL    HW126804   2.801   0.468   1.344 -0.4143  0.4499 -0.2968
 5056SOL    HW226805   2.741   0.598   1.366  1.7053 -0.3848  4.2492
 5057SOL     OW26806   3.254   3.102   0.180  0.1279  0.2950 -0.3214
 5057SOL    HW126807   3.261   3.196   0.195 -2.4821  0.1520  1.7085
 5057SOL    HW226808   3.320   3.082   0.245 -0.2376 -2.2290 -0.7344
 5058SOL     OW26809   1.814   0.579  17.732  0.4077  0.4707 -0.2967
 5058SOL    HW126810   1.874   0.637  17.686  0.7042  0.7659  0.4579
 5058SOL    HW226811   1.863   0.576   0.057 -0.4936  1.5874  0.2702
 5059SOL     OW26812   3.289   0.421   1.551 -0.2429 -0.3546 -0.1478
 5059SOL    HW126813   3.250   0.400   1.636  0.4777  0.4477  0.3806
 5059SOL    HW226814   3.366   0.366   1.558  0.8218  1.5088  2.7604
 5060SOL     OW26815   3.994   3.423  14.786 -0.3920  0.1910 -0.1068
 5060SOL    HW126816   3.955   3.336  14.782  1.3044 -0.5233 -1.0796
 5060SOL    HW226817   4.069   3.415  14.727 -3.9122 -0.4781 -4.5000
 5061SOL     OW26818   0.010   4.098   8.166 -0.7086  0.3428 -0.3744
 5061SOL    HW126819   4.738   4.177   8.219  0.5444  1.2404 -1.4195
 5061SOL    HW226820   0.047   4.035   8.229 -2.4377 -0.0291  0.2641
 5062SOL     OW26821   1.461   1.446  11.359  0.1999  0.2954 -0.1604
 5062SOL    HW126822   1.450   1.462  11.265  3.0129  0.7156 -0.4098
 5062SOL    HW226823   1.381   1.398  11.381 -0.8546  1.5036 -1.3893
 5063SOL     OW26824   1.852   0.484   2.825  1.1538  0.1652 -0.4523
 5063SOL    HW126825   1.905   0.562   2.840  0.2783  0.6216  0.2429
 5063SOL    HW226826   1.904   0.431   2.765  3.7755  1.2733  0.8559
 5064SOL     OW26827   4.317   4.252   0.815 -0.2750 -0.4616  0.5040
 5064SOL    HW126828   4.367   4.170   0.805  2.6100  1.4136 -0.5541
 5064SOL    HW226829   4.393   4.302   0.844  1.2454 -2.3735 -0.1519
 5065SOL     OW26830   4.626   0.989   8.505  0.0804 -0.6760  0.6195
 5065SOL    HW126831   4.588   0.993   8.593 -1.9637 -0.9069 -0.2387
 5065SOL    HW226832   4.661   1.077   8.495  0.7532 -1.0648 -0.4025
 5066SOL     OW26833   0.991   0.396   4.150 -0.6185  0.0666 -0.3037
 5066SOL    HW126834   0.925   0.390   4.081 -2.1115 -0.2590  1.1462
 5066SOL    HW226835   1.066   0.371   4.096 -1.1115 -0.1159 -0.8970
 5067SOL     OW26836   4.207   2.748  16.886  0.4962  0.3579  0.4546
 5067SOL    HW126837   4.193   2.749  16.981 -2.2668 -1.9808  0.0808
 5067SOL    HW226838   4.270   2.819  16.875  0.9825 -0.1784 -0.2435
 5068SOL     OW26839   1.490   1.050  16.853 -0.5605  0.1470  0.4745
 5068SOL    HW126840   1.434   1.126  16.841 -3.1696 -1.8423  0.1481
 5068SOL    HW226841   1.543   1.059  16.773 -1.6567 -1.3074 -0.4222
 5069SOL     OW26842   1.732   1.989  16.393  0.2436  0.2451  0.2949
 5069SOL    HW126843   1.807   2.047  16.402 -1.4088  2.4331  0.0689
 5069SOL    HW226844   1.763   1.903  16.421  1.7354  0.2298 -1.4399
 5070SOL     OW26845   4.331   2.898   3.096 -0.0314  0.0011  0.0971
 5070SOL    HW126846   4.253   2.951   3.115 -0.4499 -0.9279  0.9826
 5070SOL    HW226847   4.384   2.939   3.165  0.5341 -2.5216  1.1518
 5071SOL     OW26848   0.563   1.684   6.023 -0.3218  0.0495  0.4538
 5071SOL    HW126849   0.647   1.731   6.028 -0.4753  0.6146 -2.6377
 5071SOL    HW226850   0.503   1.752   6.056 -0.4809 -0.0408  0.3492
 5072SOL     OW26851   4.156   0.929   4.867 -0.0716 -0.3514  0.1947
 5072SOL    HW126852   4.216   0.865   4.830  0.1525 -0.1397  0.1941
 5072SOL    HW226853   4.141   0.980   4.788  3.8853  0.4567 -0.0337
 5073SOL     OW26854   1.803   1.980   5.906  0.1818 -0.3469 -0.2135
 5073SOL    HW126855   1.864   1.986   5.980  0.9231  1.4174 -0.9832
 5073SOL    HW226856   1.807   2.068   5.869 -1.0962 -0.6947 -1.1675
 5074SOL     OW26857   3.698   1.500   7.263 -0.1808 -0.0106  0.6506
 5074SOL    HW126858   3.615   1.483   7.218 -0.5680  2.7144  0.3686
 5074SOL    HW226859   3.692   1.428   7.326 -1.5182 -0.5616 -0.0998
 5075SOL     OW26860   1.632   0.138   8.924  0.0062  0.1104 -0.2649
 5075SOL    HW126861   1.613   0.168   9.014 -2.7292 -0.4647 -0.6485
 5075SOL    HW226862   1.720   0.102   8.916  0.5752  0.8356  2.6566
 5076SOL     OW26863   4.636   0.573   9.834  0.4574  0.4545  0.6579
 5076SOL    HW126864   4.619   0.579   9.928 -1.7027  0.7926  0.2441
 5076SOL    HW226865   4.617   0.479   9.829 -0.3385  0.5606  1.7231
 5077SOL     OW26866   2.706   2.331   0.490 -0.2744  0.2602 -0.3649
 5077SOL    HW126867   2.621   2.371   0.473  0.1485  1.1027 -0.4950
 5077SOL    HW226868   2.761   2.386   0.434 -0.3883 -0.7943 -1.5059
 5078SOL     OW26869   4.337   4.660   5.981 -0.0858  0.7791 -0.6470
 5078SOL    HW126870   4.283   4.687   6.056  1.3151  0.9600  0.2852
 5078SOL    HW226871   4.362   4.571   6.008  0.7378  0.4769 -2.4148
 5079SOL     OW26872   4.093   1.456  11.240  0.5645 -0.6267  0.3730
 5079SOL    HW126873   4.025   1.522  11.229  1.4795  0.3107  0.2586
 5079SOL    HW226874   4.146   1.497  11.309  0.2252  0.6824 -0.1461
 5080SOL     OW26875   2.352   3.673   7.898  0.0883  0.0903 -0.1720
 5080SOL    HW126876   2.363   3.602   7.962  1.3182 -0.5594 -1.1080
 5080SOL    HW226877   2.417   3.655   7.831 -1.3078  0.2410 -1.5650
 5081SOL     OW26878   3.846   3.077   4.268 -0.0577 -0.3781 -0.2030
 5081SOL    HW126879   3.867   3.123   4.186 -0.4038 -2.2941 -1.3728
 5081SOL    HW226880   3.786   3.007   4.241  0.5603 -0.4850 -1.3131
 5082SOL     OW26881   3.946   4.722   3.377  0.2556 -0.1893 -0.5951
 5082SOL    HW126882   4.026   4.703   3.327  0.5783 -0.3723 -0.0063
 5082SOL    HW226883   3.882   4.664   3.335 -0.7309  1.5978 -1.5514
 5083SOL     OW26884   1.779   1.467   7.064  0.1395 -0.2807  0.2968
 5083SOL    HW126885   1.860   1.518   7.060 -1.3113  2.0773  0.5216
 5083SOL    HW226886   1.744   1.485   7.151 -0.1008 -0.6526  0.2773
 5084SOL     OW26887   3.854   2.162   5.906 -0.6740  0.6706  0.3311
 5084SOL    HW126888   3.801   2.110   5.967 -1.6727  0.5310 -0.6625
 5084SOL    HW226889   3.873   2.242   5.954 -0.5340  0.2279  1.0226
 5085SOL     OW26890   1.009   3.188  16.485  0.2473 -0.2153  0.1385
 5085SOL    HW126891   1.046   3.106  16.449  1.1721  0.1525  0.2526
 5085SOL    HW226892   1.042   3.257  16.427  1.5910 -1.3051 -0.4032
 5086SOL     OW26893   1.381   2.296   2.365 -0.0900  0.0754  0.1527
 5086SOL    HW126894   1.396   2.303   2.459 -1.7198 -2.4075  0.6071
 5086SOL    HW226895   1.286   2.301   2.378 -0.0286  0.7263  0.3412
 5087SOL     OW26896   4.064   2.318   7.104  0.0922 -0.5894  0.3731
 5087SOL    HW126897   4.046   2.230   7.072  0.4809 -1.1148  1.6295
 5087SOL    HW226898   4.021   2.317   7.189  0.6169 -0.3615  0.6441
 5088SOL     OW26899   0.954   0.847  14.067  0.0241 -0.1813  0.1161
 5088SOL    HW126900   0.887   0.833  14.000  0.0053  0.5338 -0.0231
 5088SOL    HW226901   0.963   0.941  14.049  2.6905 -0.5820 -0.6616
 5089SOL     OW26902   3.758   1.633  16.235 -0.0559 -0.7392  0.4717
 5089SOL    HW126903   3.816   1.561  16.259  0.4438 -0.5217 -0.0830
 5089SOL    HW226904   3.781   1.698  16.301 -0.6540 -1.5702  1.5050
 5090SOL     OW26905   3.361   1.804   3.935 -0.0484 -0.5406 -0.0903
 5090SOL    HW126906   3.411   1.869   3.985 -1.7758  0.2436  0.6354
 5090SOL    HW226907   3.271   1.819   3.964  0.4642  0.1362  1.1225
 5091SOL     OW26908   3.260   0.962   3.098  0.3955  0.7088 -0.4947
 5091SOL    HW126909   3.346   0.942   3.060 -0.1023 -0.3275 -1.0818
 5091SOL    HW226910   3.197   0.951   3.026  1.3286  1.0859 -1.3762
 5092SOL     OW26911   2.603   2.530   8.071  0.3736 -0.4629 -0.0191
 5092SOL    HW126912   2.613   2.497   8.160 -1.6218  3.7388  1.7991
 5092SOL    HW226913   2.658   2.465   8.028 -0.3410 -1.3733  0.4402
 5093SOL     OW26914   1.754   4.476   5.057  0.1598 -0.0934  0.3790
 5093SOL    HW126915   1.837   4.437   5.083 -0.0181 -1.3785 -0.9893
 5093SOL    HW226916   1.699   4.398   5.047  0.1613  0.2997 -2.4767
 5094SOL     OW26917   2.107   1.779  14.590 -0.4538 -0.0521  0.0796
 5094SOL    HW126918   2.160   1.830  14.529 -0.4771  0.3193  0.3619
 5094SOL    HW226919   2.027   1.829  14.608 -0.8318 -1.4751  2.3622
 5095SOL     OW26920   2.537   3.154   0.590  0.1293  0.0057  0.1363
 5095SOL    HW126921   2.524   3.217   0.520  1.2254 -0.2499 -0.2965
 5095SOL    HW226922   2.622   3.172   0.631 -0.8394  1.1880  1.6620
 5096SOL     OW26923   1.649   3.144   6.027 -0.5315  0.8089  0.5199
 5096SOL    HW126924   1.565   3.166   6.067 -0.9932 -1.1145  0.5655
 5096SOL    HW226925   1.718   3.164   6.090  0.9406  0.7816 -1.0878
 5097SOL     OW26926   1.940   0.292   2.192  0.2365 -0.6779  0.1442
 5097SOL    HW126927   1.916   0.356   2.125  1.7834  0.6073  0.8134
 5097SOL    HW226928   1.850   0.270   2.213 -0.2555  1.9708  0.7865
 5098SOL     OW26929   2.721   3.899   5.100 -0.4946  0.0459  0.3280
 5098SOL    HW126930   2.713   3.830   5.166  0.4790  1.2797  1.7605
 5098SOL    HW226931   2.678   3.967   5.152 -0.9086 -0.9465  1.2825
 5099SOL     OW26932   0.875   3.427   7.428  0.4404 -0.6647 -0.1102
 5099SOL    HW126933   0.782   3.438   7.446  0.7783 -0.1777  1.3319
 5099SOL    HW226934   0.886   3.518   7.400 -2.4426 -0.4648 -0.5551
 5100SOL     OW26935   4.210   2.456  14.303  0.1664 -0.5062  0.0343
 5100SOL    HW126936   4.137   2.457  14.241  0.6190 -0.8271 -0.5064
 5100SOL    HW226937   4.269   2.412  14.242  0.8611  0.4140  0.0325
 5101SOL     OW26938   0.872   1.372   1.451 -0.1758 -0.0129 -0.1713
 5101SOL    HW126939   0.852   1.308   1.520  0.9303  0.9834  1.0914
 5101SOL    HW226940   0.836   1.452   1.489 -1.0543 -0.3171 -0.3750
 5102SOL     OW26941   1.578   2.852   6.350  0.3474 -0.2985  0.1899
 5102SOL    HW126942   1.596   2.784   6.285  0.8152 -2.7935  2.9432
 5102SOL    HW226943   1.484   2.838   6.353  0.5002 -1.0262  1.7257
 5103SOL     OW26944   2.336   0.646   9.769 -0.2278 -0.6319 -0.5517
 5103SOL    HW126945   2.303   0.701   9.840 -0.6122 -1.1889 -0.2983
 5103SOL    HW226946   2.407   0.598   9.811  1.0908  0.1092 -1.9039
 5104SOL     OW26947   0.819   2.363   5.397  0.0987 -0.4163 -0.5007
 5104SOL    HW126948   0.883   2.294   5.410 -0.1702 -0.2955  1.4932
 5104SOL    HW226949   0.782   2.366   5.485  0.6311  1.1805 -0.3386
 5105SOL     OW26950   0.058   3.645   2.922  0.7408 -0.3892 -0.1745
 5105SOL    HW126951   4.710   3.648   2.885  0.2490  0.0864  1.0683
 5105SOL    HW226952   0.097   3.731   2.903 -0.2905 -0.8073 -4.1202
 5106SOL     OW26953   2.755   1.608   5.720 -0.5354 -0.1673  0.5077
 5106SOL    HW126954   2.801   1.674   5.668 -0.4010 -1.1435 -0.6258
 5106SOL    HW226955   2.800   1.528   5.692  2.8783  1.0995  2.4423
 5107SOL     OW26956   1.105   1.477  10.479 -0.0231  0.9309 -0.2627
 5107SOL    HW126957   1.096   1.397  10.429 -2.5243 -0.1439  1.8812
 5107SOL    HW226958   1.058   1.454  10.559 -1.0044  1.2973 -0.7334
 5108SOL     OW26959   3.377   1.474   9.396 -0.4356 -0.8697  0.2247
 5108SOL    HW126960   3.309   1.518   9.447 -0.6158 -2.2807  1.2025
 5108SOL    HW226961   3.324   1.399   9.368 -0.0607 -2.0547  2.6440
 5109SOL     OW26962   3.032   1.095   9.166  1.0407 -0.0083 -0.1353
 5109SOL    HW126963   2.977   1.133   9.234 -0.0832  0.8280 -1.5127
 5109SOL    HW226964   3.028   1.005   9.197  0.2293  0.1491  0.2094
 5110SOL     OW26965   4.411   3.483  11.928  0.1550 -0.3809 -0.4149
 5110SOL    HW126966   4.397   3.457  11.837 -0.7602  0.6992 -0.5706
 5110SOL    HW226967   4.357   3.415  11.967 -0.1882 -0.0144 -0.2587
 5111SOL     OW26968   1.047   0.751   2.788  0.3522 -0.2458  0.0498
 5111SOL    HW126969   0.990   0.691   2.740  0.3702 -0.6034  0.4833
 5111SOL    HW226970   1.114   0.768   2.721 -0.2173  0.4572 -0.3465
 5112SOL     OW26971   0.959   1.119   1.640 -0.6014 -0.4984 -0.0391
 5112SOL    HW126972   0.951   1.139   1.733  2.2670 -0.6589  0.2361
 5112SOL    HW226973   0.877   1.072   1.623 -0.3524 -0.7642 -0.5124
 5113SOL     OW26974   3.029   0.450   0.643  0.1993 -0.0954 -0.1991
 5113SOL    HW126975   2.951   0.444   0.698  0.4872 -1.2983  0.0773
 5113SOL    HW226976   2.987   0.447   0.556  0.9432 -0.7125 -0.5338
 5114SOL     OW26977   3.418   2.611   4.545  0.1431  0.2260 -0.3699
 5114SOL    HW126978   3.443   2.656   4.626 -0.4989 -2.3949  1.2829
 5114SOL    HW226979   3.372   2.683   4.502  1.3433  0.9893 -0.3715
 5115SOL     OW26980   2.138   3.750   5.595  0.0465  0.0340 -0.1131
 5115SOL    HW126981   2.223   3.733   5.634 -0.3225 -0.3943  0.4983
 5115SOL    HW226982   2.129   3.669   5.544  0.8581  0.9170 -1.6599
 5116SOL     OW26983   1.334   2.468   8.823  0.0309 -0.4105  0.0607
 5116SOL    HW126984   1.254   2.447   8.776  0.5135 -2.3430  0.1154
 5116SOL    HW226985   1.294   2.509   8.900  0.0116  0.5805 -0.4722
 5117SOL     OW26986   4.590   4.189  13.920  0.0468  0.5990  0.0626
 5117SOL    HW126987   4.564   4.097  13.910 -0.9124  0.8525  0.1931
 5117SOL    HW226988   4.575   4.196  14.015 -0.2619 -0.7700  0.1112
 5118SOL     OW26989   1.022   0.420   3.716  0.2481  0.1393 -0.9266
 5118SOL    HW126990   0.976   0.468   3.647 -0.1891  2.0819  0.7279
 5118SOL    HW226991   1.104   0.403   3.670  1.4650  0.3634  1.1702
 5119SOL     OW26992   1.220   3.961  11.655  0.2325  0.2460  0.5576
 5119SOL    HW126993   1.222   3.914  11.738  0.7456 -1.2489 -0.3018
 5119SOL    HW226994   1.295   3.919  11.611 -1.8945 -0.6421 -2.2324
 5120SOL     OW26995   4.126   4.647   7.077 -0.3650  0.1845 -0.3941
 5120SOL    HW126996   4.191   4.580   7.097  0.3235  0.4709 -1.6856
 5120SOL    HW226997   4.178   4.709   7.025  0.5176  0.2402  0.5644
 5121SOL     OW26998   3.815   2.795  17.563  0.1526 -0.4002 -0.4854
 5121SOL    HW126999   3.800   2.716  17.615  1.1042 -0.8770 -0.9364
 5121SOL    HW227000   3.857   2.750  17.489  0.2872  0.2552 -0.8028
 5122SOL     OW27001   3.875   0.607   7.400 -0.0805 -0.4010 -0.3770
 5122SOL    HW127002   3.959   0.639   7.432  0.5941 -1.1453 -1.3976
 5122SOL    HW227003   3.873   0.634   7.308  0.6489 -0.6244 -0.4572
 5123SOL     OW27004   3.444   3.927   2.657  0.3730 -0.2458 -0.0323
 5123SOL    HW127005   3.485   3.971   2.582  0.3692  1.6026  1.0568
 5123SOL    HW227006   3.470   3.987   2.727 -0.6593 -1.1978  1.1609
 5124SOL     OW27007   2.146   0.191  10.028 -1.1772 -0.0584  0.5710
 5124SOL    HW127008   2.127   0.276   9.988 -1.8021 -1.0360 -1.2258
 5124SOL    HW227009   2.122   0.196  10.120 -0.1413  0.4904  0.8048
 5125SOL     OW27010   2.557   4.216   2.557  0.0379 -0.0190  0.1650
 5125SOL    HW127011   2.645   4.217   2.594 -0.7042 -1.8042  1.9910
 5125SOL    HW227012   2.578   4.235   2.465  2.0169 -0.2022  0.5947
 5126SOL     OW27013   3.741   0.881   2.217 -0.7425  0.0260 -0.1180
 5126SOL    HW127014   3.732   0.786   2.208  0.5056 -0.3172  2.2180
 5126SOL    HW227015   3.750   0.901   2.124 -1.2602 -1.7775 -0.5468
 5127SOL     OW27016   0.056   3.450   0.769  0.0935 -0.1531  0.4629
 5127SOL    HW127017   0.035   3.518   0.705  2.9903  0.1076 -0.2061
 5127SOL    HW227018   0.015   3.373   0.729 -1.6631  2.1719 -2.2142
 5128SOL     OW27019   1.887   2.145   2.897  0.6444 -0.5403 -0.6412
 5128SOL    HW127020   1.958   2.141   2.961  0.3702 -1.9844 -0.4259
 5128SOL    HW227021   1.928   2.170   2.814 -2.4036  0.8550 -1.7112
 5129SOL     OW27022   0.478   0.789   7.224 -0.2091 -0.3667  0.2475
 5129SOL    HW127023   0.540   0.741   7.279 -0.9250 -1.1070  0.4090
 5129SOL    HW227024   0.448   0.707   7.185 -0.3749 -0.6766  1.0077
 5130SOL     OW27025   1.685   2.666   6.723  0.5336  0.3639  0.5192
 5130SOL    HW127026   1.633   2.698   6.797  1.8957  0.9918  1.1972
 5130SOL    HW227027   1.763   2.720   6.730  0.9345  0.0425 -1.4889
 5131SOL     OW27028   0.736   1.557  11.636 -0.4203  0.2606  0.4280
 5131SOL    HW127029   0.715   1.464  11.627 -1.4272  0.4988  0.3630
 5131SOL    HW227030   0.673   1.598  11.578  0.2253 -2.0956 -1.9137
 5132SOL     OW27031   4.730   1.861   4.663 -0.0230 -0.1572 -0.0818
 5132SOL    HW127032   0.081   1.834   4.677 -0.5773 -2.5140 -1.0186
 5132SOL    HW227033   4.737   1.881   4.570  0.4667 -1.6003 -0.3506
 5133SOL     OW27034   3.162   3.245   2.222  0.0967  0.0916 -0.1133
 5133SOL    HW127035   3.166   3.211   2.133  1.0047  1.1100 -0.4623
 5133SOL    HW227036   3.250   3.254   2.258 -0.7601  3.1691  1.2160
 5134SOL     OW27037   2.748   2.300   5.041  0.3456 -0.4915 -0.2814
 5134SOL    HW127038   2.830   2.271   5.001  1.4530  2.5615 -0.2069
 5134SOL    HW227039   2.777   2.286   5.131  2.1445  0.7234 -0.6694
 5135SOL     OW27040   3.045   0.354   2.421  0.1701  0.2617 -0.0875
 5135SOL    HW127041   2.987   0.348   2.497  0.5894  1.0503  0.2903
 5135SOL    HW227042   3.068   0.446   2.430 -0.4347  0.2731  1.3068
 5136SOL     OW27043   0.468   1.607   5.100  0.1854  0.2198 -0.2376
 5136SOL    HW127044   0.475   1.513   5.118 -1.1544 -0.3526 -2.6480
 5136SOL    HW227045   0.417   1.600   5.020 -0.9055  1.6708  0.3299
 5137SOL     OW27046   1.214   1.697  11.169  0.4634 -0.9578 -0.1975
 5137SOL    HW127047   1.306   1.668  11.164  0.4370 -1.3541  1.6731
 5137SOL    HW227048   1.213   1.790  11.188 -0.7820 -1.0792  0.2914
 5138SOL     OW27049   3.698   3.010   7.010 -0.7671  0.4989 -0.1175
 5138SOL    HW127050   3.735   3.038   6.926 -2.1505  1.2521 -0.4849
 5138SOL    HW227051   3.737   2.925   7.029 -1.4737 -0.0258 -1.0178
 5139SOL     OW27052   3.644   1.501   8.832 -0.0204  0.2374 -0.5706
 5139SOL    HW127053   3.632   1.450   8.912 -0.2854  1.5238  0.2073
 5139SOL    HW227054   3.557   1.485   8.794 -0.0168 -1.0908 -0.0363
 5140SOL     OW27055   0.923   0.224   7.092  0.2536 -0.1700 -0.1458
 5140SOL    HW127056   0.995   0.169   7.060  0.8935  1.6522 -1.8558
 5140SOL    HW227057   0.965   0.306   7.119 -0.0280  0.1956 -0.8259
 5141SOL     OW27058   0.620   2.383   2.040  0.4105  0.5650  0.1939
 5141SOL    HW127059   0.571   2.459   2.072 -1.3169 -0.0320 -1.0444
 5141SOL    HW227060   0.549   2.319   2.034  1.1108 -0.2563  0.7594
 5142SOL     OW27061   1.044   2.968   1.898  0.0135  0.3333  0.1328
 5142SOL    HW127062   0.989   3.003   1.828  1.4011 -1.0599 -1.6702
 5142SOL    HW227063   0.982   2.971   1.971  0.8987  0.5916  0.8808
 5143SOL     OW27064   0.873   3.119  15.710  0.9619 -0.2623  1.0436
 5143SOL    HW127065   0.819   3.143  15.635  1.4617 -1.6544  0.2220
 5143SOL    HW227066   0.957   3.158  15.684  0.0044  1.3821  0.4567
 5144SOL     OW27067   0.754   4.717  13.619 -0.2472  0.1479  0.6347
 5144SOL    HW127068   0.816   0.046  13.645 -0.9523  1.0544 -0.0980
 5144SOL    HW227069   0.678   0.010  13.666  0.4461  1.1529  1.0529
 5145SOL     OW27070   1.649   0.938   0.114 -0.4390 -0.3939 -0.0602
 5145SOL    HW127071   1.632   0.887   0.193 -1.5103  1.2930  0.7883
 5145SOL    HW227072   1.583   0.911   0.050 -1.5388  1.1085  0.4553
 5146SOL     OW27073   0.221   2.456   5.316  0.2992  0.4307  0.2312
 5146SOL    HW127074   0.250   2.547   5.323  0.7943  0.0908  2.4887
 5146SOL    HW227075   0.131   2.466   5.348 -0.5805 -1.1083 -1.8087
 5147SOL     OW27076   1.195   4.720   0.629 -0.0762 -0.8003 -0.1967
 5147SOL    HW127077   1.273   0.030   0.602  0.4588 -1.7248 -0.3632
 5147SOL    HW227078   1.127   0.046   0.611  0.2877 -0.2380  0.4885
 5148SOL     OW27079   2.171   1.499  15.046  0.4023  0.2764  0.5737
 5148SOL    HW127080   2.088   1.546  15.051 -0.0353 -0.4649  0.3789
 5148SOL    HW227081   2.228   1.570  15.018  0.2184 -0.2954 -1.2895
 5149SOL     OW27082   0.780   4.038   9.077  0.2013 -0.3675 -0.4859
 5149SOL    HW127083   0.850   3.974   9.063  1.5876  1.2138 -0.7976
 5149SOL    HW227084   0.705   3.979   9.069 -0.2148  0.1017 -0.0223
 5150SOL     OW27085   4.188   2.130   4.590 -0.6040  0.0741 -0.7724
 5150SOL    HW127086   4.104   2.162   4.557  0.1768  2.6008 -0.3479
 5150SOL    HW227087   4.203   2.204   4.649 -0.0891  0.4014 -1.3090
 5151SOL     OW27088   1.610   1.827   8.143 -0.3936  0.5913 -0.0162
 5151SOL    HW127089   1.605   1.732   8.158  1.4591  0.3122 -1.0431
 5151SOL    HW227090   1.531   1.861   8.183 -0.0146  1.9162 -0.3868
 5152SOL     OW27091   0.656   2.211   8.148 -0.3866  0.0390 -0.8958
 5152SOL    HW127092   0.566   2.218   8.115  0.1678  0.6060 -2.2962
 5152SOL    HW227093   0.704   2.280   8.101  4.3419 -2.4231  0.3446
 5153SOL     OW27094   2.092   2.014   0.753 -0.1568 -0.3599 -0.2805
 5153SOL    HW127095   2.108   2.102   0.718  0.1353 -0.0953  0.5092
 5153SOL    HW227096   2.095   2.019   0.849 -0.1328 -1.1913 -0.2370
 5154SOL     OW27097   1.828   4.538   5.486 -0.2826  0.2731 -0.4355
 5154SOL    HW127098   1.885   4.532   5.563 -3.3050  2.7418  2.0103
 5154SOL    HW227099   1.872   4.614   5.448  2.1147 -0.0947  1.5580
 5155SOL     OW27100   1.558   3.743   7.913 -0.5138  0.4977  0.6086
 5155SOL    HW127101   1.653   3.739   7.921 -0.6390  0.6078  2.1053
 5155SOL    HW227102   1.546   3.702   7.827 -0.9538  2.1840 -0.1273
 5156SOL     OW27103   1.445   2.800   4.018  0.5859  0.4849  0.8915
 5156SOL    HW127104   1.467   2.771   3.930  2.7625  2.5337  0.7563
 5156SOL    HW227105   1.349   2.792   4.023  0.2543  3.2016 -1.1352
 5157SOL     OW27106   3.540   4.726   4.977 -0.9014  0.1082  0.4021
 5157SOL    HW127107   3.503   4.672   4.906 -0.5069 -0.7506  0.8522
 5157SOL    HW227108   3.555   0.061   4.920 -0.0635  1.6182  2.6281
 5158SOL     OW27109   4.513   4.604  17.122  0.1273 -0.4800  0.3251
 5158SOL    HW127110   4.472   4.589  17.037  0.2744 -0.6328  0.2815
 5158SOL    HW227111   4.607   4.593  17.109  0.0176 -1.6559  0.4815
 5159SOL     OW27112   4.729   0.990   6.632 -0.3474  0.5881  0.4094
 5159SOL    HW127113   0.036   0.946   6.560 -0.6164 -0.1259  0.6738
 5159SOL    HW227114   4.717   0.910   6.683  0.2193  0.1898 -0.0593
 5160SOL     OW27115   2.138   1.689   7.222 -0.4999  0.0706  0.4579
 5160SOL    HW127116   2.201   1.618   7.236 -0.5051 -0.1337 -0.5510
 5160SOL    HW227117   2.202   1.743   7.176  0.6746 -2.4480 -0.8683
 5161SOL     OW27118   0.077   1.644   6.980 -0.3927 -0.5464  0.3484
 5161SOL    HW127119   0.044   1.734   6.980 -1.9100 -1.1010  1.0285
 5161SOL    HW227120   0.170   1.654   7.001 -0.4537  0.6068  0.0819
 5162SOL     OW27121   0.890   0.941  17.606 -0.2001 -0.2863 -0.0409
 5162SOL    HW127122   0.841   1.024  17.611 -1.4476 -1.0981  1.3044
 5162SOL    HW227123   0.938   0.955  17.525  1.8628 -1.3513  0.9944
 5163SOL     OW27124   3.012   0.496   8.929  0.0894 -0.2224 -0.2148
 5163SOL    HW127125   2.939   0.512   8.869  0.2225 -0.7990 -0.5239
 5163SOL    HW227126   2.959   0.476   9.007  3.1333 -1.6218  1.4933
 5164SOL     OW27127   0.584   2.067   7.557  0.4613  0.3811 -0.1418
 5164SOL    HW127128   0.587   2.157   7.524 -1.4101 -0.0621 -1.5201
 5164SOL    HW227129   0.525   2.077   7.632  1.0496  0.0473  0.3652
 5165SOL     OW27130   4.235   0.118   7.476  0.0670  0.0688  0.3003
 5165SOL    HW127131   4.156   0.127   7.423 -0.2196  0.1168  0.7277
 5165SOL    HW227132   4.299   0.153   7.415 -2.2720  0.9501 -1.6348
 5166SOL     OW27133   1.463   1.887   9.402  0.1385 -0.1572 -0.3399
 5166SOL    HW127134   1.411   1.809   9.387 -0.6768  0.7128 -2.0558
 5166SOL    HW227135   1.529   1.848   9.459 -0.2168 -0.5315 -0.1892
 5167SOL     OW27136   0.942   3.554   9.171  0.5483 -0.2891  0.1676
 5167SOL    HW127137   0.899   3.631   9.209 -0.5946  2.0427 -5.9606
 5167SOL    HW227138   0.891   3.538   9.091 -0.5916  0.0425  0.8277
 5168SOL     OW27139   1.309   3.039   6.422  0.3588 -0.1471 -0.1278
 5168SOL    HW127140   1.360   3.094   6.482  1.2280 -0.7459 -0.3332
 5168SOL    HW227141   1.243   3.105   6.401  1.1159  1.8737  3.7146
 5169SOL     OW27142   0.412   4.149  16.296 -0.2262  0.6995 -0.0561
 5169SOL    HW127143   0.469   4.215  16.336  0.2238 -0.0034  0.4508
 5169SOL    HW227144   0.456   4.067  16.316 -0.2725  0.7813  0.3754
 5170SOL     OW27145   3.534   3.728   0.097  0.1408  0.1220 -0.0137
 5170SOL    HW127146   3.591   3.702   0.170 -2.2207 -1.1570  1.3970
 5170SOL    HW227147   3.597   3.763   0.034  1.3884  0.4979  1.4400
 5171SOL     OW27148   1.557   2.005   8.794 -0.2149 -0.3591  0.0268
 5171SOL    HW127149   1.512   2.060   8.731 -0.7021 -1.8398 -0.8996
 5171SOL    HW227150   1.614   1.944   8.747  0.3443  0.3444 -0.1969
 5172SOL     OW27151   2.117   1.501   8.619 -0.1226 -0.0208  0.3384
 5172SOL    HW127152   2.094   1.592   8.602 -1.4945  0.0388  2.4479
 5172SOL    HW227153   2.173   1.486   8.543 -1.1936  0.3237 -0.5215
 5173SOL     OW27154   4.319   1.981   6.010  0.4062 -0.1797 -0.4464
 5173SOL    HW127155   4.369   1.977   5.928 -0.9552 -0.6714 -1.2574
 5173SOL    HW227156   4.335   2.073   6.029  1.2973  0.2257 -3.0703
 5174SOL     OW27157   4.127   3.524   8.135 -0.0113 -0.5557 -0.0316
 5174SOL    HW127158   4.138   3.577   8.214  0.4036  0.9574 -1.1250
 5174SOL    HW227159   4.055   3.461   8.145 -1.4343  0.9866 -0.6408
 5175SOL     OW27160   3.581   3.353   8.330 -0.4799 -0.5559 -0.0948
 5175SOL    HW127161   3.625   3.271   8.354 -0.5189 -1.4052 -2.9375
 5175SOL    HW227162   3.496   3.329   8.293 -1.1139 -0.9278  1.6110
 5176SOL     OW27163   2.901   2.467   2.648  0.4190  0.4766  0.1714
 5176SOL    HW127164   2.996   2.465   2.653  0.4614  0.1714 -0.8956
 5176SOL    HW227165   2.879   2.399   2.713  3.0927 -1.1532 -0.6424
 5177SOL     OW27166   2.831   0.211   6.975 -0.2141 -0.5470 -0.3033
 5177SOL    HW127167   2.749   0.261   6.976 -0.9834 -1.6659 -4.0642
 5177SOL    HW227168   2.809   0.155   7.049 -0.2923  0.7555  0.6751
 5178SOL     OW27169   0.369   2.419   0.296 -0.0143  0.2768  0.0434
 5178SOL    HW127170   0.334   2.454   0.214  2.6562  2.4193 -0.2074
 5178SOL    HW227171   0.382   2.506   0.334  1.3667 -0.5617  1.4840
 5179SOL     OW27172   2.871   4.138   1.489  0.3998  0.3758 -0.1991
 5179SOL    HW127173   2.915   4.076   1.432  0.3929  1.2206 -1.1200
 5179SOL    HW227174   2.850   4.206   1.425  0.0776 -1.0666 -1.6119
 5180SOL     OW27175   4.668   3.787   2.418 -0.2710  0.7548 -0.0720
 5180SOL    HW127176   4.724   3.838   2.477 -0.9303 -0.5150  1.6368
 5180SOL    HW227177   4.637   3.711   2.467  1.9140 -0.9866 -1.3992
 5181SOL     OW27178   2.897   0.115   1.359 -0.0071 -0.5674 -0.1575
 5181SOL    HW127179   2.855   0.032   1.382  0.4797 -0.4053  1.3026
 5181SOL    HW227180   2.990   0.097   1.349 -0.0015 -1.0739  0.8179
 5182SOL     OW27181   2.415   1.506   4.086  0.1130 -0.1609 -0.1392
 5182SOL    HW127182   2.477   1.573   4.116  0.0244  0.6687 -1.8014
 5182SOL    HW227183   2.468   1.448   4.031  0.1672 -0.6282  0.4101
 5183SOL     OW27184   4.210   3.341   3.897  0.0720 -0.4368  0.4889
 5183SOL    HW127185   4.167   3.331   3.982  0.9693  1.6879  1.1956
 5183SOL    HW227186   4.282   3.278   3.901 -0.8839 -1.5230  0.4852
 5184SOL     OW27187   2.502   0.954  12.154  0.1907 -0.5615 -0.0738
 5184SOL    HW127188   2.512   0.988  12.065  1.5051 -1.5353 -0.2857
 5184SOL    HW227189   2.468   0.866  12.138  0.8821 -1.0870  1.4104
 5185SOL     OW27190   4.118   3.030   3.228  0.0049  0.6037  0.2615
 5185SOL    HW127191   4.026   3.004   3.219  0.6112 -1.3046 -0.4973
 5185SOL    HW227192   4.104   3.124   3.226  0.5053  0.6167 -2.5693
 5186SOL     OW27193   0.999   0.953  11.974  0.2281 -0.3711 -0.0374
 5186SOL    HW127194   0.932   0.907  12.025  1.4143 -3.1559 -1.0042
 5186SOL    HW227195   0.980   1.038  12.014 -1.4334 -1.1378  0.8016
 5187SOL     OW27196   2.604   0.915   5.732 -0.4264 -0.0966 -0.1544
 5187SOL    HW127197   2.575   0.842   5.677 -1.2572  1.4397 -1.7693
 5187SOL    HW227198   2.554   0.988   5.695 -1.3006  0.3510  1.8752
 5188SOL     OW27199   3.185   4.146   6.347 -0.1731  0.2378  0.4857
 5188SOL    HW127200   3.111   4.122   6.290  1.3578  0.0585 -1.4498
 5188SOL    HW227201   3.257   4.122   6.288 -1.0893  1.5993 -1.2070
 5189SOL     OW27202   3.002   1.140   2.680  0.0908 -0.3303 -0.0525
 5189SOL    HW127203   3.094   1.127   2.704  0.0241  2.2419  1.5557
 5189SOL    HW227204   2.998   1.217   2.623 -0.0736  0.2132  0.6859
 5190SOL     OW27205   1.161   2.665   3.009  0.0905 -0.1325 -0.4050
 5190SOL    HW127206   1.201   2.732   2.954  1.4022 -0.5014  0.0913
 5190SOL    HW227207   1.096   2.711   3.061  0.9479  1.2937 -0.6068
 5191SOL     OW27208   0.985   0.132   3.760  0.0244 -0.4321 -0.1235
 5191SOL    HW127209   0.998   0.226   3.768  1.7152 -0.5918 -1.1966
 5191SOL    HW227210   0.890   0.135   3.744  0.0700 -1.5045 -0.5926
 5192SOL     OW27211   3.316   1.152   4.409 -0.1983 -0.0752  0.4897
 5192SOL    HW127212   3.378   1.106   4.353 -0.8051 -1.2802  0.8178
 5192SOL    HW227213   3.371   1.183   4.481 -0.8173 -0.6679  1.2149
 5193SOL     OW27214   3.200   4.022   4.129 -0.5994 -0.0578 -0.3489
 5193SOL    HW127215   3.231   3.941   4.087  2.8306  0.0894  1.8333
 5193SOL    HW227216   3.177   4.085   4.061 -1.3222 -0.3422 -0.3622
 5194SOL     OW27217   0.232   0.498   8.741  0.0342  0.1101 -0.4468
 5194SOL    HW127218   0.286   0.434   8.788  1.5015  1.5110 -0.2508
 5194SOL    HW227219   0.213   0.447   8.662 -1.4541 -2.1141  1.3233
 5195SOL     OW27220   3.778   0.553   4.317 -0.7440  0.5138 -0.1954
 5195SOL    HW127221   3.852   0.553   4.378 -0.9282  1.2978  0.0181
 5195SOL    HW227222   3.818   0.608   4.249  1.4198  1.2337  1.6643
 5196SOL     OW27223   1.362   1.617  16.819 -0.2570 -0.3414  0.0898
 5196SOL    HW127224   1.456   1.617  16.835 -0.4683 -0.8550  1.3017
 5196SOL    HW227225   1.358   1.551  16.750 -0.0468 -0.2463 -0.0124
 5197SOL     OW27226   2.974   4.635   4.661  0.0968 -0.0060  0.4049
 5197SOL    HW127227   2.900   4.584   4.695 -1.6118 -0.4316 -3.9313
 5197SOL    HW227228   2.952   4.654   4.570 -2.5434 -1.3154  0.7565
 5198SOL     OW27229   2.262   1.796   6.091 -0.3497 -0.0799  0.1942
 5198SOL    HW127230   2.196   1.759   6.032 -0.3434  1.5746 -0.8355
 5198SOL    HW227231   2.249   1.890   6.081 -1.2891 -0.2583 -0.3112
 5199SOL     OW27232   3.963   0.462   2.842 -0.5055 -0.4276 -0.5475
 5199SOL    HW127233   4.018   0.391   2.808 -0.0481 -0.1330 -0.4310
 5199SOL    HW227234   3.885   0.444   2.790 -0.6636 -1.4274  0.0392
 5200SOL     OW27235   4.555   1.819   6.672 -0.2456  0.1479 -0.3768
 5200SOL    HW127236   4.571   1.857   6.586 -0.3587  0.4061 -0.2844
 5200SOL    HW227237   4.640   1.832   6.714 -0.2081  3.5855 -1.5017
 5201SOL     OW27238   2.167   2.820   0.564  0.3316  0.3105  0.7045
 5201SOL    HW127239   2.101   2.879   0.601 -0.3135 -0.0373  0.1020
 5201SOL    HW227240   2.242   2.863   0.604  0.5840 -0.7085  1.3231
 5202SOL     OW27241   2.005   0.872   9.166 -0.1745  0.1624  0.1250
 5202SOL    HW127242   1.943   0.825   9.222  0.7952 -2.3590 -0.9056
 5202SOL    HW227243   1.955   0.948   9.137  0.5692  0.2663 -0.9330
 5203SOL     OW27244   3.255   0.271   1.043 -0.0548 -0.5069 -0.2123
 5203SOL    HW127245   3.221   0.359   1.024  0.5797  0.2154  2.0274
 5203SOL    HW227246   3.282   0.276   1.135 -0.0281 -3.7995 -0.0404
 5204SOL     OW27247   1.275   1.897  16.673  0.3064 -0.2980 -0.3379
 5204SOL    HW127248   1.341   1.962  16.694  0.0277 -0.5262  1.2078
 5204SOL    HW227249   1.297   1.823  16.729 -0.8999  0.1574  0.7427
 5205SOL     OW27250   3.381   4.204  10.341  0.5460 -0.1750 -0.2560
 5205SOL    HW127251   3.449   4.261  10.305  0.0292 -0.2631 -1.3673
 5205SOL    HW227252   3.305   4.262  10.348 -0.4686 -1.9416  3.5031
 5206SOL     OW27253   3.218   3.930   2.882 -0.1206 -0.0372 -0.4297
 5206SOL    HW127254   3.219   4.025   2.893  1.0211 -0.1647  0.5429
 5206SOL    HW227255   3.283   3.917   2.814  3.4115  0.1647  2.8943
 5207SOL     OW27256   3.801   3.647   5.341 -0.1107  0.0792  0.5674
 5207SOL    HW127257   3.730   3.702   5.375  0.6548  1.5274 -0.1637
 5207SOL    HW227258   3.789   3.646   5.246 -1.0075  3.2508  0.6445
 5208SOL     OW27259   2.157   0.056   9.261 -0.1663 -0.2394  1.0429
 5208SOL    HW127260   2.252   0.056   9.275 -0.0595 -0.2607  0.2709
 5208SOL    HW227261   2.124   0.029   9.348 -1.1194  0.6004  0.9364
 5209SOL     OW27262   1.968   1.043   7.175 -0.7278  0.3890 -0.1442
 5209SOL    HW127263   2.021   0.980   7.225 -0.3279 -0.1034 -1.1849
 5209SOL    HW227264   1.978   1.118   7.233 -1.0884  0.5262 -0.2633
 5210SOL     OW27265   4.481   1.055   9.194  0.4419  0.3681  0.4712
 5210SOL    HW127266   4.568   1.017   9.205  1.0936  1.0900 -2.2069
 5210SOL    HW227267   4.440   0.969   9.201 -1.8438  1.4031 -0.4895
 5211SOL     OW27268   2.056   4.118  16.908 -0.1116  0.0033 -0.2974
 5211SOL    HW127269   2.132   4.142  16.855 -0.7034  0.5665 -0.9004
 5211SOL    HW227270   2.090   4.069  16.982 -0.7024 -0.0156 -0.0391
 5212SOL     OW27271   0.272   1.589   5.689  0.4985 -0.5516 -0.4020
 5212SOL    HW127272   0.270   1.537   5.769  2.1284 -0.6941 -0.4581
 5212SOL    HW227273   0.188   1.566   5.648 -0.8792  1.2445  1.4537
 5213SOL     OW27274   3.851   2.537   4.837 -0.5836  0.5652 -0.1675
 5213SOL    HW127275   3.884   2.519   4.926 -0.6275 -0.5429 -0.3678
 5213SOL    HW227276   3.890   2.454   4.810 -2.6088 -0.9780  1.6263
 5214SOL     OW27277   0.841   2.987   7.140  0.2644 -0.0953 -0.0625
 5214SOL    HW127278   0.814   3.077   7.158  0.9704  0.1808 -0.3663
 5214SOL    HW227279   0.845   2.993   7.044 -0.2940 -1.9198 -0.2024
 5215SOL     OW27280   1.012   4.033   3.290  0.8496  0.2399 -0.0157
 5215SOL    HW127281   0.933   4.056   3.339  0.0776 -0.9437 -0.7187
 5215SOL    HW227282   0.977   3.991   3.212  0.2977 -0.6314  0.6977
 5216SOL     OW27283   0.952   3.470   5.998 -0.0714 -0.2945  0.3583
 5216SOL    HW127284   0.992   3.531   6.060 -0.9712 -0.2644  0.9113
 5216SOL    HW227285   1.022   3.418   5.960 -0.1067  0.5889 -0.9122
 5217SOL     OW27286   1.786   2.146   5.219  0.0340 -0.6325  0.7122
 5217SOL    HW127287   1.775   2.225   5.272 -1.2625 -1.0255  1.0132
 5217SOL    HW227288   1.880   2.127   5.212 -0.2326 -1.1094 -1.5214
 5218SOL     OW27289   3.380   3.420   4.009  0.1915  0.0825  0.1684
 5218SOL    HW127290   3.317   3.436   4.079  1.5185 -0.9944  1.6036
 5218SOL    HW227291   3.365   3.489   3.943 -3.8922 -0.8508  0.1085
 5219SOL     OW27292   3.481   1.595   8.198 -0.2297  0.6350 -0.3329
 5219SOL    HW127293   3.386   1.604   8.193 -0.4088 -0.6357  0.5856
 5219SOL    HW227294   3.488   1.538   8.275  0.8279  3.0168  1.3537
 5220SOL     OW27295   0.499   4.015   6.458 -0.2426 -0.2136  0.1693
 5220SOL    HW127296   0.489   4.086   6.521  4.1291  0.2941  0.2696
 5220SOL    HW227297   0.591   3.992   6.466 -0.0470  0.1557 -0.9546
 5221SOL     OW27298   1.314   2.690   6.302  0.5526  0.0487  0.6645
 5221SOL    HW127299   1.324   2.596   6.311  0.1227 -0.2164 -1.4805
 5221SOL    HW227300   1.225   2.700   6.269 -0.0543 -0.2281  2.2141
 5222SOL     OW27301   3.982   3.861   2.528 -0.4014  1.2537 -0.1977
 5222SOL    HW127302   3.907   3.802   2.534  1.9629 -1.8676 -1.2056
 5222SOL    HW227303   4.023   3.843   2.444 -1.2926  0.3489 -0.4436
 5223SOL     OW27304   0.842   0.991   7.827  0.6790  0.6389 -1.0503
 5223SOL    HW127305   0.805   0.936   7.896  0.3693 -0.9247 -2.4849
 5223SOL    HW227306   0.805   0.951   7.749  0.7324  1.5036 -1.5217
 5224SOL     OW27307   3.348   2.353   8.001  0.4119  0.2529 -0.2423
 5224SOL    HW127308   3.322   2.400   7.922  0.4064 -0.2823 -0.5545
 5224SOL    HW227309   3.281   2.361   8.069  0.9105 -0.2608  0.3159
 5225SOL     OW27310   3.468   1.364  12.451 -0.4647  0.0609 -0.2245
 5225SOL    HW127311   3.502   1.320  12.374  1.8683 -1.5855  1.7299
 5225SOL    HW227312   3.482   1.299  12.520  1.4492  0.1385 -0.5235
 5226SOL     OW27313   3.019   3.127   7.560  0.2675 -0.1705 -0.7323
 5226SOL    HW127314   2.962   3.204   7.557 -0.7651 -0.8964  0.1502
 5226SOL    HW227315   2.988   3.081   7.638 -0.4284  2.2152  0.4150
 5227SOL     OW27316   2.597   2.601   4.270  0.0922 -0.6071  0.5308
 5227SOL    HW127317   2.528   2.662   4.245  0.3599 -0.7419 -0.5325
 5227SOL    HW227318   2.673   2.659   4.281 -0.5623  0.3329  0.0384
 5228SOL     OW27319   3.106   0.345  10.493 -0.5259  0.5879  0.5007
 5228SOL    HW127320   3.097   0.300  10.409  0.2438 -1.6552  1.6450
 5228SOL    HW227321   3.037   0.411  10.479 -2.8824 -2.0643 -0.2963
 5229SOL     OW27322   3.742   4.717  16.138  0.8196 -0.0547 -0.2607
 5229SOL    HW127323   3.816   4.658  16.121  0.9980 -0.2382  1.1691
 5229SOL    HW227324   3.711   4.676  16.219  1.7336  1.8875  1.0991
 5230SOL     OW27325   3.622   3.751  15.356 -0.2452  0.3739  0.0365
 5230SOL    HW127326   3.573   3.829  15.332  0.1639  0.3381 -0.8995
 5230SOL    HW227327   3.640   3.716  15.269  2.7014  1.7158  0.1286
 5231SOL     OW27328   2.645   1.565   7.952 -0.0326  0.0929  0.0327
 5231SOL    HW127329   2.551   1.583   7.957  0.1102  1.1195 -0.9762
 5231SOL    HW227330   2.685   1.652   7.954  0.2684 -0.0676  1.2013
 5232SOL     OW27331   1.545   4.512   9.105 -0.0513  0.8127  0.2285
 5232SOL    HW127332   1.501   4.596   9.092 -0.3544  0.4184 -1.2754
 5232SOL    HW227333   1.492   4.457   9.048  2.1307  0.6466 -1.6442
 5233SOL     OW27334   0.129   0.126  11.248 -0.1418 -0.2321  0.2506
 5233SOL    HW127335   0.097   0.072  11.321  0.7991 -0.0315  0.8114
 5233SOL    HW227336   0.162   0.059  11.188  1.4459  0.5251  0.2842
 5234SOL     OW27337   3.581   3.801   3.293  0.2020  0.2998  0.2982
 5234SOL    HW127338   3.639   3.870   3.260  0.8000 -0.6350 -0.6123
 5234SOL    HW227339   3.578   3.827   3.385  0.0091 -2.6116  1.1177
 5235SOL     OW27340   2.230   3.202   3.176  0.3036 -0.1496  0.1529
 5235SOL    HW127341   2.225   3.173   3.267 -0.2918 -0.1725  0.1115
 5235SOL    HW227342   2.152   3.159   3.141  0.6921 -1.3153  0.6979
 5236SOL     OW27343   0.452   4.037   5.473 -0.0881  0.3541 -0.9561
 5236SOL    HW127344   0.523   4.000   5.525 -0.1245  1.6957  0.0517
 5236SOL    HW227345   0.486   4.006   5.389 -2.0658 -1.6912 -0.9830
 5237SOL     OW27346   2.559   3.748   4.447  0.0645 -0.4379  0.0027
 5237SOL    HW127347   2.497   3.755   4.375 -3.0973 -0.8374  2.6783
 5237SOL    HW227348   2.512   3.682   4.498  0.9628 -0.4290  0.8619
 5238SOL     OW27349   3.723   4.388  13.955 -0.1418  0.2808 -0.4495
 5238SOL    HW127350   3.758   4.475  13.977 -0.0846  0.0205  0.5169
 5238SOL    HW227351   3.696   4.359  14.043  3.0704  0.2874  0.5508
 5239SOL     OW27352   3.133   2.547  14.839 -0.3328  0.5946 -0.1675
 5239SOL    HW127353   3.143   2.596  14.757  3.6756  1.4016  0.7681
 5239SOL    HW227354   3.057   2.590  14.877 -2.7416 -3.9783  0.0634
 5240SOL     OW27355   4.124   3.749  14.880 -0.4781  0.0446  0.3426
 5240SOL    HW127356   4.160   3.689  14.945  1.8615  0.5727 -0.4697
 5240SOL    HW227357   4.167   3.833  14.895 -2.5098  1.2938 -0.8330
 5241SOL     OW27358   1.185   3.573   5.237  0.6411 -0.2872  0.0407
 5241SOL    HW127359   1.199   3.511   5.309 -0.3038 -0.8348 -0.2410
 5241SOL    HW227360   1.194   3.654   5.287 -0.7262 -0.2313  0.1992
 5242SOL     OW27361   2.285   0.259   1.541 -0.2021 -0.5086 -0.0087
 5242SOL    HW127362   2.298   0.238   1.634  1.7678  0.0357 -0.1431
 5242SOL    HW227363   2.226   0.333   1.547 -0.1878 -0.5606  0.7572
 5243SOL     OW27364   4.129   0.518   5.051  0.1818 -0.5786  0.2201
 5243SOL    HW127365   4.060   0.546   5.111 -0.5899 -1.3524 -0.3156
 5243SOL    HW227366   4.159   0.435   5.088  0.5567 -0.0320  1.1558
 5244SOL     OW27367   4.286   3.193   2.887 -0.4273 -0.4918  0.3203
 5244SOL    HW127368   4.365   3.139   2.884 -1.2261 -1.8229  3.4329
 5244SOL    HW227369   4.296   3.213   2.980 -1.3801  0.4309  0.2250
 5245SOL     OW27370   0.221   4.384   5.530  0.3343 -0.5195 -0.5850
 5245SOL    HW127371   0.195   4.328   5.602 -1.8627  0.7666 -0.3824
 5245SOL    HW227372   0.149   4.446   5.537  0.4017 -0.6023  0.8095
 5246SOL     OW27373   1.769   1.024   0.357  0.0584  0.0818 -0.1621
 5246SOL    HW127374   1.832   0.952   0.355 -0.9750 -0.8264 -0.2797
 5246SOL    HW227375   1.732   1.036   0.269  1.3176  1.2605 -0.5231
 5247SOL     OW27376   2.735   1.793   7.631  0.0191 -0.4323 -0.3019
 5247SOL    HW127377   2.826   1.767   7.613 -0.9083 -3.0690 -1.2044
 5247SOL    HW227378   2.739   1.827   7.720  2.0880 -1.0251 -0.1767
 5248SOL     OW27379   0.154   0.091   2.332  0.4165  0.2699  0.2271
 5248SOL    HW127380   0.062   0.117   2.330  0.5272  0.6433 -0.1706
 5248SOL    HW227381   0.209   0.170   2.330 -1.6229  1.6508 -1.6739
 5249SOL     OW27382   4.319   0.595  12.598 -0.2555  0.4520  0.0612
 5249SOL    HW127383   4.400   0.586  12.649 -0.8323 -1.7442  0.6037
 5249SOL    HW227384   4.278   0.640  12.672 -0.6783  0.6576 -0.2938
 5250SOL     OW27385   4.540   2.542   6.524  0.2563  0.3038 -0.3427
 5250SOL    HW127386   4.632   2.555   6.544 -0.2560  0.5620  1.7674
 5250SOL    HW227387   4.535   2.447   6.538  3.2629  0.1985  0.0732
 5251SOL     OW27388   4.015   3.200   9.997  0.1232  0.0221  0.2637
 5251SOL    HW127389   4.110   3.205   9.988  0.2783 -0.2841  1.7615
 5251SOL    HW227390   3.997   3.108  10.016 -1.1647  0.0602 -0.8386
 5252SOL     OW27391   3.028   1.144  11.599  0.1031  0.5725 -0.1721
 5252SOL    HW127392   3.097   1.146  11.665 -0.7803  0.0682  0.7696
 5252SOL    HW227393   2.972   1.218  11.620 -1.8287 -0.6337 -1.0885
 5253SOL     OW27394   0.696   2.404   2.716 -0.4454 -0.0477 -0.0718
 5253SOL    HW127395   0.609   2.369   2.696 -0.0496  0.2190 -2.2328
 5253SOL    HW227396   0.734   2.383   2.632 -0.7178 -0.7661 -0.0096
 5254SOL     OW27397   0.685   4.083   7.017 -0.5978 -0.1655 -0.4078
 5254SOL    HW127398   0.772   4.117   6.998 -1.0986  1.4846  0.2321
 5254SOL    HW227399   0.688   3.999   6.972  3.7642  0.2848 -0.9739
 5255SOL     OW27400   2.827   4.657   3.583  0.0656 -0.0750  0.2467
 5255SOL    HW127401   2.884   4.731   3.560 -1.8734  0.5006 -2.5718
 5255SOL    HW227402   2.749   4.683   3.536 -1.2120 -0.3078  2.2261
 5256SOL     OW27403   4.064   3.414   5.815  0.0685  0.4205 -0.6263
 5256SOL    HW127404   3.973   3.396   5.842  0.6028  0.0890  0.9902
 5256SOL    HW227405   4.064   3.381   5.725 -1.3410 -1.7358  0.1530
 5257SOL     OW27406   0.902   0.498   8.837  0.3163  0.0121 -0.0822
 5257SOL    HW127407   0.989   0.477   8.802 -0.0010 -0.7764 -0.4060
 5257SOL    HW227408   0.909   0.437   8.911  2.1050 -0.0421 -0.3048
 5258SOL     OW27409   2.205   3.363  10.425  0.2792 -0.3427  0.4598
 5258SOL    HW127410   2.288   3.325  10.453  1.1302 -0.2790 -2.0015
 5258SOL    HW227411   2.221   3.391  10.335  0.7471  0.6204  0.8464
 5259SOL     OW27412   0.080   4.441  10.923 -0.2373  0.2552 -0.3419
 5259SOL    HW127413   0.044   4.398  11.001 -0.3923  0.6531 -0.1968
 5259SOL    HW227414   0.025   4.399  10.856  2.6741 -2.3475 -1.0764
 5260SOL     OW27415   2.513   1.365   1.125 -0.3415 -0.7486  0.1781
 5260SOL    HW127416   2.441   1.416   1.160 -0.5628 -1.0810  0.2090
 5260SOL    HW227417   2.580   1.365   1.193  0.4678  0.9111 -0.6255
 5261SOL     OW27418   1.638   2.694   1.888 -0.5334 -0.2360 -0.1359
 5261SOL    HW127419   1.544   2.705   1.880 -0.7463 -2.2277 -0.3812
 5261SOL    HW227420   1.660   2.755   1.818  2.5764 -1.0641  0.1063
 5262SOL     OW27421   3.068   4.581   5.596  0.1666  0.3704  0.1441
 5262SOL    HW127422   3.052   4.583   5.502 -0.3135 -1.8955  0.1652
 5262SOL    HW227423   3.160   4.607   5.598  0.4650 -0.5297 -2.9973
 5263SOL     OW27424   2.705   4.525   3.138  0.0343  0.3163 -0.1586
 5263SOL    HW127425   2.661   4.607   3.164 -1.5232 -0.6313  0.2186
 5263SOL    HW227426   2.776   4.540   3.076  0.0260 -1.7562 -0.6566
 5264SOL     OW27427   2.439   2.468   0.092 -0.4649 -0.1636  0.6224
 5264SOL    HW127428   2.417   2.475   0.185 -0.1648 -3.1154  0.9121
 5264SOL    HW227429   2.447   2.373   0.084 -0.1118 -0.1468  0.7806
 5265SOL     OW27430   0.241   2.815   6.059 -0.2189 -0.0366  0.1455
 5265SOL    HW127431   0.307   2.754   6.093 -0.2408 -0.0713  0.1257
 5265SOL    HW227432   0.227   2.867   6.137 -1.6412 -0.5044  0.2075
 5266SOL     OW27433   3.790   3.465   0.431 -0.5678 -0.1397  0.3372
 5266SOL    HW127434   3.834   3.381   0.448 -1.0950 -0.1370  1.7348
 5266SOL    HW227435   3.712   3.430   0.388 -0.6380  0.1744  0.2076
 5267SOL     OW27436   4.623   4.342  17.065  0.4752  0.2648  0.1146
 5267SOL    HW127437   4.565   4.369  16.993  1.2098 -0.0608 -0.5915
 5267SOL    HW227438   4.682   4.416  17.072  2.2598 -1.2961  1.5964
 5268SOL     OW27439   3.407   1.474   2.253 -0.1480 -0.2514  0.1143
 5268SOL    HW127440   3.442   1.518   2.330  0.8249  0.4515 -0.7236
 5268SOL    HW227441   3.319   1.512   2.250  0.0980  0.6430  4.0070
 5269SOL     OW27442   0.563   2.012   4.294  0.7167  0.4088 -0.9222
 5269SOL    HW127443   0.637   2.054   4.251  0.6875  0.2304 -1.1454
 5269SOL    HW227444   0.601   1.963   4.367  0.2278  2.9360  1.0363
 5270SOL     OW27445   2.629   2.005   3.335 -0.2251  0.3316 -0.0233
 5270SOL    HW127446   2.587   1.963   3.410 -0.7674  3.0496  1.1812
 5270SOL    HW227447   2.560   2.059   3.298  0.7806  0.9208 -1.0430
 5271SOL     OW27448   0.273   2.508  11.934  0.0559  0.2148  0.2374
 5271SOL    HW127449   0.282   2.415  11.955  1.0646  0.0765 -0.8701
 5271SOL    HW227450   0.352   2.541  11.976  2.6113 -2.5676 -2.4666
 5272SOL     OW27451   1.590   3.985   6.319  0.1329 -0.3791  0.5244
 5272SOL    HW127452   1.660   4.024   6.267  0.1088  3.1818  3.1823
 5272SOL    HW227453   1.634   3.973   6.403  0.4002  1.1357  0.6008
 5273SOL     OW27454   2.592   3.701   5.271 -0.6291 -0.2717 -0.0801
 5273SOL    HW127455   2.521   3.737   5.324 -0.1725  0.1482  0.2440
 5273SOL    HW227456   2.548   3.619   5.246 -0.9352  0.1974 -1.0895
 5274SOL     OW27457   0.343   2.190   2.490  0.5782 -0.2636  0.0541
 5274SOL    HW127458   0.300   2.172   2.406  0.6674 -1.7744  0.3337
 5274SOL    HW227459   0.273   2.165   2.550 -0.3790  2.3235  0.0211
 5275SOL     OW27460   4.522   1.818   5.625 -0.0434  0.2508 -0.0570
 5275SOL    HW127461   4.611   1.787   5.605 -0.2228 -0.8099  0.8409
 5275SOL    HW227462   4.541   1.912   5.614  1.5632 -0.2567 -1.6980
 5276SOL     OW27463   4.136   1.217   4.402 -0.2387 -0.1110 -0.2868
 5276SOL    HW127464   4.068   1.239   4.339  0.3733  0.1804 -0.8428
 5276SOL    HW227465   4.209   1.269   4.370  0.4384 -0.6440  0.4012
 5277SOL     OW27466   3.192   1.940   5.887  0.4113  0.2401 -0.2047
 5277SOL    HW127467   3.137   2.017   5.869  1.1491  1.1264  1.3469
 5277SOL    HW227468   3.181   1.884   5.810 -4.7071 -0.3251  0.9315
 5278SOL     OW27469   3.090   3.567   0.367 -0.4667 -0.4079  0.3467
 5278SOL    HW127470   3.090   3.499   0.434  1.2855 -2.1713 -1.4127
 5278SOL    HW227471   3.023   3.536   0.307 -0.4364 -0.5809  0.4022
 5279SOL     OW27472   0.224   3.303  11.867 -0.4078 -0.0323 -0.5860
 5279SOL    HW127473   0.130   3.297  11.879 -0.1225 -0.8504  1.1762
 5279SOL    HW227474   0.233   3.378  11.807 -3.0224  0.2116 -0.6756
 5280SOL     OW27475   3.590   2.651   0.005 -0.4168 -0.7569  0.5844
 5280SOL    HW127476   3.520   2.689   0.058 -1.7004 -0.5476 -1.2697
 5280SOL    HW227477   3.557   2.673  17.676 -0.1632  0.2078  0.7409
 5281SOL     OW27478   1.697   1.736   2.563 -0.3670 -0.2397  0.1275
 5281SOL    HW127479   1.722   1.804   2.501 -1.0709  1.1721  1.3750
 5281SOL    HW227480   1.713   1.794   2.637  0.2170  1.4356 -1.3248
 5282SOL     OW27481   3.906   0.405   4.690 -0.1749 -0.0436  0.0239
 5282SOL    HW127482   3.874   0.387   4.778  0.4914 -0.1603  0.2345
 5282SOL    HW227483   3.823   0.407   4.641  0.5998  0.5751 -1.2914
 5283SOL     OW27484   0.996   1.031   2.305 -0.1339  0.6864  0.2519
 5283SOL    HW127485   0.901   1.037   2.297 -0.0578 -0.4244 -1.5900
 5283SOL    HW227486   1.021   1.022   2.213 -0.0139 -0.7228  0.4085
 5284SOL     OW27487   2.083   4.583   6.135  0.1059 -0.0849  0.2813
 5284SOL    HW127488   2.141   4.520   6.093 -1.8673 -1.6560 -0.0968
 5284SOL    HW227489   2.019   4.612   6.069 -0.4226  1.4967  1.4801
 5285SOL     OW27490   1.010   3.312   2.871  0.3919  0.3145 -0.1348
 5285SOL    HW127491   0.999   3.375   2.942  2.2425 -1.6538  1.8888
 5285SOL    HW227492   0.991   3.366   2.794 -0.8436  0.4992  0.2973
 5286SOL     OW27493   3.965   2.803  16.103  0.5663 -0.0818 -0.0519
 5286SOL    HW127494   4.030   2.834  16.166  0.8506 -0.5803 -0.0992
 5286SOL    HW227495   3.970   2.874  16.039 -1.2167 -0.3378 -0.4937
 5287SOL     OW27496   1.037   3.361   8.824  0.4798  0.0506 -0.2063
 5287SOL    HW127497   1.046   3.455   8.841  0.4872 -0.4931  2.8773
 5287SOL    HW227498   0.989   3.365   8.741 -1.5112  0.8226  0.9562
 5288SOL     OW27499   3.965   4.345   0.840  0.0297 -0.4490  0.7214
 5288SOL    HW127500   3.883   4.391   0.821  0.3586  0.2606  1.0252
 5288SOL    HW227501   3.926   4.263   0.870 -0.0687 -0.8442 -0.4999
 5289SOL     OW27502   3.264   1.717   3.301  0.6053  0.0619  0.2194
 5289SOL    HW127503   3.187   1.705   3.357 -0.0399  0.8629 -0.4986
 5289SOL    HW227504   3.333   1.720   3.367 -0.7538  0.3821  1.6278
 5290SOL     OW27505   3.779   2.916  14.357 -0.3271 -0.4050 -0.2668
 5290SOL    HW127506   3.687   2.913  14.385  0.2702 -0.4451  1.7280
 5290SOL    HW227507   3.793   2.823  14.343 -0.9420 -0.0788 -3.0321
 5291SOL     OW27508   3.925   2.316   9.426  0.0054 -0.0485  0.4468
 5291SOL    HW127509   3.899   2.357   9.344 -0.2552  1.4287  1.2666
 5291SOL    HW227510   3.919   2.391   9.485  1.9451  0.3771  0.1220
 5292SOL     OW27511   0.299   1.500   2.478  0.0727 -0.3678  0.4344
 5292SOL    HW127512   0.360   1.486   2.551  2.0371 -0.5997 -1.2444
 5292SOL    HW227513   0.352   1.475   2.402  0.8913  0.5203  0.7024
 5293SOL     OW27514   0.452   3.137   3.053 -0.0766 -0.5388  0.0704
 5293SOL    HW127515   0.469   3.043   3.042  0.7199 -0.8606  3.9556
 5293SOL    HW227516   0.358   3.143   3.039  0.4486  2.4565 -2.0727
 5294SOL     OW27517   1.880   3.279   4.275 -0.2250  0.1228 -0.3716
 5294SOL    HW127518   1.923   3.214   4.331  1.3592  1.4425 -0.0370
 5294SOL    HW227519   1.871   3.357   4.330  1.4858 -0.9244  1.4170
 5295SOL     OW27520   1.294   4.715  15.088  0.4845  0.2588 -0.0261
 5295SOL    HW127521   1.361   4.713  15.020 -1.1719  0.7274 -1.6694
 5295SOL    HW227522   1.343   4.684  15.164 -1.5387 -1.8524  0.4052
 5296SOL     OW27523   3.115   3.571  17.325 -0.1253  0.0021  0.2094
 5296SOL    HW127524   3.083   3.533  17.243  1.6853 -1.7123  0.3068
 5296SOL    HW227525   3.205   3.587  17.298 -0.0813  1.0289  0.9638
 5297SOL     OW27526   4.275   4.510   4.244  1.1246  0.1543  0.8367
 5297SOL    HW127527   4.267   4.588   4.298 -0.3788  0.4942  0.1164
 5297SOL    HW227528   4.331   4.455   4.300  2.6560  0.7467 -0.1091
 5298SOL     OW27529   3.809   1.179  12.365 -0.3991  0.7155 -0.1315
 5298SOL    HW127530   3.894   1.222  12.366 -0.1889  0.3080 -0.1601
 5298SOL    HW227531   3.833   1.098  12.412 -0.9458  0.8912  0.4394
 5299SOL     OW27532   1.376   0.039   2.868  0.0603  0.1459  0.0674
 5299SOL    HW127533   1.471   0.040   2.876 -0.1964 -1.8749  3.6246
 5299SOL    HW227534   1.358   0.119   2.818  0.8059 -0.4165 -1.0847
 5300SOL     OW27535   1.038   3.762  17.205  0.2115  0.6185 -0.0372
 5300SOL    HW127536   0.943   3.756  17.203  0.1603  1.7274 -1.0353
 5300SOL    HW227537   1.048   3.774  17.111  0.6910 -2.2781 -0.3721
 5301SOL     OW27538   3.337   1.169   5.614 -0.5230  0.1790 -0.4298
 5301SOL    HW127539   3.351   1.081   5.582  0.4325 -0.2775  1.2576
 5301SOL    HW227540   3.410   1.177   5.676 -0.9023  1.7073 -0.1556
 5302SOL     OW27541   1.437   3.168  11.068 -0.2987  0.1762  0.1310
 5302SOL    HW127542   1.360   3.216  11.099 -0.0598  1.8795 -1.9506
 5302SOL    HW227543   1.491   3.166  11.147 -0.2520 -0.6390  0.0781
 5303SOL     OW27544   4.055   4.336   2.739  0.7221 -0.1553  0.2998
 5303SOL    HW127545   4.005   4.254   2.742  1.8447 -0.7372  2.4713
 5303SOL    HW227546   4.106   4.325   2.659 -0.3954  0.3805 -0.4968
 5304SOL     OW27547   2.502   2.142   6.400  0.1839 -0.3672  0.1798
 5304SOL    HW127548   2.570   2.203   6.427 -0.3697 -0.1056  0.9858
 5304SOL    HW227549   2.476   2.144   6.493  3.3275  1.1578  1.0160
 5305SOL     OW27550   0.972   3.581   5.469 -0.4012 -0.8220  0.1961
 5305SOL    HW127551   0.890   3.607   5.510  0.1088  2.1622 -0.6660
 5305SOL    HW227552   0.980   3.490   5.498 -1.5385  0.2897  3.9334
 5306SOL     OW27553   0.395   3.703  13.750 -0.2878 -0.4480 -0.1187
 5306SOL    HW127554   0.362   3.791  13.734  1.5234  0.0263 -1.2468
 5306SOL    HW227555   0.312   3.657  13.733  0.7710 -2.2345 -0.3841
 5307SOL     OW27556   4.618   0.581  10.649 -0.0503 -0.0722 -0.3596
 5307SOL    HW127557   4.627   0.524  10.726  0.7129  0.0399 -0.3580
 5307SOL    HW227558   4.532   0.619  10.661 -0.1117 -0.8248  1.5614
 5308SOL     OW27559   0.153   0.388  10.029 -0.4546  0.3663 -0.1143
 5308SOL    HW127560   0.160   0.460   9.967 -1.7288  1.3258  0.8400
 5308SOL    HW227561   0.113   0.420  10.110 -2.0487 -1.0567 -0.3246
 5309SOL     OW27562   3.656   4.344   2.959 -0.5780  0.0369  0.5211
 5309SOL    HW127563   3.685   4.296   3.037  2.1849 -0.7309 -0.9600
 5309SOL    HW227564   3.561   4.347   2.961 -0.5702 -2.5794  4.4538
 5310SOL     OW27565   4.212   2.740   3.782 -0.3313 -0.1420 -0.9449
 5310SOL    HW127566   4.240   2.718   3.694 -1.2530  2.0930 -1.7845
 5310SOL    HW227567   4.266   2.815   3.805 -0.6665  0.0061 -0.6394
 5311SOL     OW27568   3.716   4.084   9.675 -0.2521  0.3769 -0.2261
 5311SOL    HW127569   3.714   4.067   9.581 -0.1880 -1.5225  0.1240
 5311SOL    HW227570   3.641   4.142   9.689 -2.2255 -2.1342 -0.3750
 5312SOL     OW27571   3.103   2.118   0.846 -0.2517 -0.2978  0.0396
 5312SOL    HW127572   3.104   2.076   0.760  0.8286 -0.8603  0.3360
 5312SOL    HW227573   3.009   2.135   0.842 -0.1046  0.6220  0.3658
 5313SOL     OW27574   0.780   3.074   5.629 -0.6251 -0.3499  0.5499
 5313SOL    HW127575   0.785   2.989   5.586  0.3473 -0.5641  1.0944
 5313SOL    HW227576   0.686   3.088   5.624 -0.6108 -1.1170 -1.7175
 5314SOL     OW27577   2.988   3.065  16.319  0.3998 -0.0941 -0.2639
 5314SOL    HW127578   2.980   3.110  16.403  1.5593 -2.3045  1.0282
 5314SOL    HW227579   3.081   3.075  16.300  0.5911 -0.2536  0.6137
 5315SOL     OW27580   0.473   2.201   7.128  0.2857  0.2087 -0.3528
 5315SOL    HW127581   0.406   2.253   7.083 -1.0555 -0.3962  0.9130
 5315SOL    HW227582   0.474   2.121   7.074 -0.5117  0.1856 -0.3336
 5316SOL     OW27583   3.017   2.561   4.371  0.1208  0.0870 -0.2981
 5316SOL    HW127584   3.057   2.534   4.454  1.7581 -0.8105 -1.3856
 5316SOL    HW227585   3.097   2.574   4.319 -0.2535 -0.9382 -1.1151
 5317SOL     OW27586   1.688   2.493  17.150  0.4211 -0.3389  0.6757
 5317SOL    HW127587   1.703   2.438  17.073  1.9433 -0.6954  1.2157
 5317SOL    HW227588   1.636   2.561  17.108  0.0089 -1.0279  0.0836
 5318SOL     OW27589   0.960   1.685   9.125 -0.0243  0.6021 -0.2821
 5318SOL    HW127590   1.021   1.612   9.123  0.6174  1.1274  0.0092
 5318SOL    HW227591   0.969   1.698   9.220 -2.6851 -3.4033  0.5049
 5319SOL     OW27592   4.530   4.497   6.256 -0.0235 -0.6721  0.6747
 5319SOL    HW127593   4.469   4.468   6.189 -0.5955 -0.9586  1.3205
 5319SOL    HW227594   4.467   4.519   6.325 -0.1046  0.0450  0.3743
 5320SOL     OW27595   4.525   3.731   8.697  0.0139 -0.2499  0.0595
 5320SOL    HW127596   4.443   3.695   8.661 -0.8316 -1.4000  3.1379
 5320SOL    HW227597   4.569   3.649   8.718  0.3305  0.0930  0.7302
 5321SOL     OW27598   0.823   4.454   9.143  0.3608  0.6485  0.1679
 5321SOL    HW127599   0.751   4.514   9.123 -1.2119 -0.4249  2.6153
 5321SOL    HW227600   0.780   4.383   9.096  1.1802  0.3235 -0.0993
 5322SOL     OW27601   3.571   3.110   2.118 -0.1006 -0.1166 -0.2176
 5322SOL    HW127602   3.628   3.166   2.064  0.6550 -0.1711  0.5176
 5322SOL    HW227603   3.529   3.170   2.179 -0.6685 -0.4129 -0.3212
 5323SOL     OW27604   1.955   0.864  17.345  0.1323 -0.0892  0.1229
 5323SOL    HW127605   1.990   0.775  17.354 -0.0122 -0.0846  0.7382
 5323SOL    HW227606   1.884   0.853  17.282  0.8696  0.9959 -0.9016
 5324SOL     OW27607   1.441   4.388   8.805 -0.0624  0.5097  0.1672
 5324SOL    HW127608   1.370   4.413   8.746 -1.6043 -1.0406  1.3502
 5324SOL    HW227609   1.457   4.298   8.776 -1.4268  0.4586 -0.4125
 5325SOL     OW27610   1.225   4.105   2.101 -0.0276 -0.0805  0.1018
 5325SOL    HW127611   1.213   4.041   2.172  0.5874 -1.6972 -1.2729
 5325SOL    HW227612   1.280   4.172   2.143  0.6244 -1.1653  0.9782
 5326SOL     OW27613   4.722   4.338   4.034  0.7286 -0.0791 -0.2090
 5326SOL    HW127614   4.631   4.307   4.036  0.8587 -0.3819  0.9104
 5326SOL    HW227615   0.014   4.320   4.122 -0.0956  0.8014  0.2720
 5327SOL     OW27616   0.255   2.394   8.655  0.3430  0.2289 -0.1494
 5327SOL    HW127617   0.292   2.305   8.658 -1.5652 -0.5196  1.1321
 5327SOL    HW227618   0.313   2.430   8.588  0.2136  1.1801  0.2604
 5328SOL     OW27619   1.104   1.621   6.826 -0.4401 -0.0007 -0.3458
 5328SOL    HW127620   1.105   1.525   6.825  3.6052  0.0732 -0.5061
 5328SOL    HW227621   1.015   1.632   6.792 -0.6993 -0.1187  0.2756
 5329SOL     OW27622   1.933   1.087   5.087  0.1540 -0.2730 -0.4349
 5329SOL    HW127623   1.973   1.097   5.001  0.2890 -3.1745 -0.7081
 5329SOL    HW227624   1.982   1.010   5.116 -0.8517  0.1805  2.4327
 5330SOL     OW27625   2.980   2.637   0.856 -0.1491  0.1974  0.0434
 5330SOL    HW127626   3.034   2.559   0.842 -0.6431 -0.7792  3.5014
 5330SOL    HW227627   2.903   2.607   0.808 -0.3947  1.0720 -0.1069
 5331SOL     OW27628   0.232   4.376  12.558 -0.1204 -0.1690  0.3707
 5331SOL    HW127629   0.158   4.325  12.590 -0.8326  0.0419 -0.9364
 5331SOL    HW227630   0.192   4.463  12.546  0.1102 -0.3795 -1.8519
 5332SOL     OW27631   2.362   1.049   8.209 -0.0933  0.2469 -0.2595
 5332SOL    HW127632   2.373   1.088   8.123 -0.7013 -0.6239 -0.7310
 5332SOL    HW227633   2.431   0.983   8.207 -1.7888 -1.4439 -2.2372
 5333SOL     OW27634   1.943   3.383   0.214  0.4293 -0.3654 -0.1344
 5333SOL    HW127635   1.980   3.362   0.300 -0.6491  1.6350  0.8263
 5333SOL    HW227636   1.996   3.459   0.190 -1.0447 -0.5584 -3.9541
 5334SOL     OW27637   2.459   3.203   2.036 -0.1770 -0.1701 -0.0145
 5334SOL    HW127638   2.428   3.133   2.094 -3.6588  1.6554  0.3468
 5334SOL    HW227639   2.382   3.260   2.035  1.5122  2.0908  0.7209
 5335SOL     OW27640   3.944   0.267  14.869  0.4427 -0.5280 -0.2092
 5335SOL    HW127641   4.020   0.225  14.828 -0.4032 -2.2803  0.0293
 5335SOL    HW227642   3.881   0.273  14.798  0.1909 -0.9580 -0.0203
 5336SOL     OW27643   0.589   0.152   5.844 -0.0438 -0.3986 -0.4440
 5336SOL    HW127644   0.623   0.063   5.852 -0.0181 -0.5115 -1.8476
 5336SOL    HW227645   0.495   0.132   5.841  0.3797 -2.6573  1.6185
 5337SOL     OW27646   1.309   4.310   9.173 -0.1189  0.0393 -0.0312
 5337SOL    HW127647   1.278   4.313   9.082  0.0407  2.6135  0.0115
 5337SOL    HW227648   1.225   4.292   9.215  0.1628 -1.8934 -0.2671
 5338SOL     OW27649   3.128   2.625   8.261  0.5811  0.2899  0.1793
 5338SOL    HW127650   3.137   2.688   8.332  3.1364 -0.3512  0.4111
 5338SOL    HW227651   3.199   2.639   8.198  0.5511  0.9262  0.2910
 5339SOL     OW27652   1.361   1.738   6.747 -0.0520  0.2938 -0.0699
 5339SOL    HW127653   1.379   1.774   6.834  0.4131 -0.7345  0.2628
 5339SOL    HW227654   1.274   1.699   6.758 -0.6868  1.6752 -0.2681
 5340SOL     OW27655   1.712   4.323   4.647 -0.2769 -0.0896  0.5159
 5340SOL    HW127656   1.761   4.405   4.639  1.3340 -1.1060  0.1492
 5340SOL    HW227657   1.698   4.324   4.742 -2.7662 -2.6975  0.1932
 5341SOL     OW27658   1.487   4.691  12.292  0.1099  0.4449 -0.3377
 5341SOL    HW127659   1.437   0.006  12.231  1.5769  0.8311 -1.1760
 5341SOL    HW227660   1.432   4.706  12.369  0.4284 -0.0629 -0.0108
 5342SOL     OW27661   3.977   2.214   3.805  0.0033  0.6874  0.3295
 5342SOL    HW127662   4.010   2.279   3.744  0.7307  1.1450  1.2111
 5342SOL    HW227663   3.884   2.239   3.803 -0.0796  0.4547  1.0360
 5343SOL     OW27664   2.260   3.394   2.061 -0.1001 -0.1138  0.7978
 5343SOL    HW127665   2.203   3.412   2.136  0.4800 -0.2686  1.2761
 5343SOL    HW227666   2.202   3.421   1.990  0.3006  0.5564  0.7285
 5344SOL     OW27667   2.608   1.961   1.965 -0.2511 -0.2429 -0.1503
 5344SOL    HW127668   2.573   1.967   1.876  0.4886  2.1814 -0.2865
 5344SOL    HW227669   2.693   1.921   1.947  1.9270  2.4378  4.0879
 5345SOL     OW27670   1.061   1.188   2.525  0.0053 -0.1626  0.0395
 5345SOL    HW127671   1.019   1.120   2.473 -3.1952  1.6748  0.2218
 5345SOL    HW227672   1.153   1.159   2.523  0.2178  0.4382  0.7761
 5346SOL     OW27673   0.497   3.235   2.183 -0.5822  0.1917  0.7378
 5346SOL    HW127674   0.413   3.279   2.166 -0.0631  1.9360  2.7117
 5346SOL    HW227675   0.538   3.312   2.223  0.7888 -0.6474  0.9306
 5347SOL     OW27676   0.714   2.575   5.307 -0.0413 -0.1720  0.2107
 5347SOL    HW127677   0.622   2.552   5.297 -0.3418  1.5113 -0.9668
 5347SOL    HW227678   0.744   2.492   5.343 -0.0493 -0.5588 -0.6886
 5348SOL     OW27679   1.800   3.505  15.845 -0.3603  0.1456  0.2352
 5348SOL    HW127680   1.789   3.549  15.929 -3.3737 -1.0790  0.4758
 5348SOL    HW227681   1.772   3.581  15.793 -1.2375 -0.3641 -0.0431
 5349SOL     OW27682   2.647   1.752   2.527  0.4787  0.4384 -0.5449
 5349SOL    HW127683   2.552   1.755   2.524  0.4591 -0.2066 -0.7020
 5349SOL    HW227684   2.680   1.817   2.465  0.9582 -0.3715 -1.1467
 5350SOL     OW27685   3.803   0.129   9.421  0.2356  0.1994 -0.2556
 5350SOL    HW127686   3.801   0.123   9.517  0.1642  1.7777 -0.1568
 5350SOL    HW227687   3.803   0.223   9.404  2.2713  0.2552  0.0039
 5351SOL     OW27688   4.077   2.735   7.556 -0.5015  0.5038 -0.1911
 5351SOL    HW127689   4.082   2.725   7.461  1.5226  1.0574 -0.1348
 5351SOL    HW227690   4.067   2.830   7.562 -2.6804  0.3154 -1.0091
 5352SOL     OW27691   4.133   2.693   5.673 -0.5627  0.5174 -0.1476
 5352SOL    HW127692   4.080   2.617   5.649 -0.6192  1.2097 -2.2160
 5352SOL    HW227693   4.102   2.750   5.603  3.7341  1.5939 -1.1245
 5353SOL     OW27694   1.717   1.137   1.969  0.3605  0.1373  0.5359
 5353SOL    HW127695   1.776   1.206   2.000 -0.1218  1.4612 -1.4462
 5353SOL    HW227696   1.740   1.069   2.032 -1.1029 -1.6730 -0.9076
 5354SOL     OW27697   1.864   0.206   3.491  0.2299 -0.1273 -0.0217
 5354SOL    HW127698   1.876   0.132   3.550 -1.4753 -1.3676 -1.2466
 5354SOL    HW227699   1.853   0.268   3.564 -0.2954 -1.4445  1.0335
 5355SOL     OW27700   1.085   4.292  16.728  0.3190  0.1983  0.0427
 5355SOL    HW127701   1.143   4.309  16.653  0.1686 -1.3912 -0.4225
 5355SOL    HW227702   1.105   4.371  16.778  0.9043  0.6529 -0.8816
 5356SOL     OW27703   1.363   0.347   5.577  0.3818 -0.4460 -0.0782
 5356SOL    HW127704   1.366   0.358   5.672 -0.3550  0.4392 -0.1620
 5356SOL    HW227705   1.450   0.307   5.565  0.0982 -0.9773 -0.3644
 5357SOL     OW27706   0.783   2.571   6.701  0.9250 -0.3207  0.6595
 5357SOL    HW127707   0.771   2.584   6.795 -1.1441 -3.2076  0.8086
 5357SOL    HW227708   0.833   2.649   6.680 -1.4346  1.0006 -0.1144
 5358SOL     OW27709   3.416   2.082   1.723  0.2452  0.3118 -0.6367
 5358SOL    HW127710   3.392   2.003   1.676 -2.5615  1.2576 -0.7756
 5358SOL    HW227711   3.382   2.070   1.812  0.9409  2.6043 -0.0609
 5359SOL     OW27712   1.408   3.100   0.791  0.1596 -0.2957 -0.2032
 5359SOL    HW127713   1.436   3.030   0.732  2.1756 -0.1732  0.5978
 5359SOL    HW227714   1.447   3.068   0.873 -2.0276  0.4061  1.1157
 5360SOL     OW27715   3.484   3.960   0.268  0.1149  0.1467 -0.6120
 5360SOL    HW127716   3.546   4.009   0.213 -0.6516  0.2955 -1.3469
 5360SOL    HW227717   3.459   3.891   0.206  0.9165 -0.8638  0.1839
 5361SOL     OW27718   0.742   0.608   3.157  0.5895  0.0112  0.2467
 5361SOL    HW127719   0.741   0.572   3.069 -1.2426 -1.3535  0.8181
 5361SOL    HW227720   0.835   0.631   3.162  0.7969 -0.7222 -0.3048
 5362SOL     OW27721   2.679   2.987   0.838  0.0156 -0.6339 -0.3228
 5362SOL    HW127722   2.668   3.026   0.925 -2.4894  0.2450 -1.0398
 5362SOL    HW227723   2.712   3.055   0.778  0.2087  0.9933  1.6311
 5363SOL     OW27724   2.395   0.351   2.176  0.0734  0.0343  0.0794
 5363SOL    HW127725   2.364   0.288   2.111  0.5421 -1.5337  1.3699
 5363SOL    HW227726   2.404   0.305   2.260 -2.5205 -0.0953  0.2964
 5364SOL     OW27727   2.214   2.229   5.037 -0.2877  0.0924  0.0356
 5364SOL    HW127728   2.230   2.315   5.077 -2.2314  0.3126  0.3260
 5364SOL    HW227729   2.176   2.256   4.953  1.6954  1.1096 -0.5482
 5365SOL     OW27730   1.623   0.347   4.492  0.1680  0.5344  0.0688
 5365SOL    HW127731   1.638   0.253   4.498  1.4013  0.7069 -0.1018
 5365SOL    HW227732   1.549   0.358   4.552  0.8095  1.4821  0.7039
 5366SOL     OW27733   0.585   0.119   2.208 -0.0291  0.3700 -0.1128
 5366SOL    HW127734   0.492   0.112   2.188 -0.3208  1.5917  0.8214
 5366SOL    HW227735   0.595   0.082   2.295  1.6536  2.3693  0.5550
 5367SOL     OW27736   3.015   1.115  13.704 -0.0568  0.2495  0.2259
 5367SOL    HW127737   3.012   1.024  13.675 -0.6702  0.1012  0.7670
 5367SOL    HW227738   3.037   1.101  13.797  0.0250 -1.6358 -0.0898
 5368SOL     OW27739   0.931   4.163   8.832 -0.2720  0.0257 -0.2560
 5368SOL    HW127740   0.871   4.202   8.895  0.6238  1.0293 -0.0124
 5368SOL    HW227741   1.003   4.132   8.888  0.2172 -0.0494 -0.9281
 5369SOL     OW27742   4.183   2.309   6.757 -0.6324  0.2222  0.6693
 5369SOL    HW127743   4.265   2.272   6.792  0.3643  1.0038 -0.8649
 5369SOL    HW227744   4.224   2.374   6.700 -0.5062 -0.3674  0.0905
 5370SOL     OW27745   1.849   1.975   9.736  0.0301  1.1926  0.0107
 5370SOL    HW127746   1.942   1.975   9.756  0.1675  0.5233 -0.6309
 5370SOL    HW227747   1.838   1.896   9.683  1.3477  1.7294 -1.0557
 5371SOL     OW27748   1.206   3.452  13.688  0.0155 -0.0191 -0.4678
 5371SOL    HW127749   1.292   3.417  13.710 -0.3906 -0.3978  0.5282
 5371SOL    HW227750   1.187   3.505  13.765  1.5884  0.7094 -0.5748
 5372SOL     OW27751   1.176   3.885   2.303  0.0253  0.8066  0.1087
 5372SOL    HW127752   1.093   3.893   2.256  1.2435  0.1329 -2.1635
 5372SOL    HW227753   1.210   3.808   2.259  0.1392 -0.4571  2.4060
 5373SOL     OW27754   0.150   3.574  14.416  0.3510  0.1548 -0.0887
 5373SOL    HW127755   0.242   3.548  14.410 -0.1840 -2.1973  1.5785
 5373SOL    HW227756   0.116   3.488  14.390  2.6914 -0.6181 -0.6081
 5374SOL     OW27757   0.873   3.827   6.032  0.3219  0.9574  0.2217
 5374SOL    HW127758   0.865   3.894   6.099 -2.4346 -0.3385  1.1829
 5374SOL    HW227759   0.932   3.761   6.068 -0.9089 -0.0489  0.3902
 5375SOL     OW27760   3.969   4.628   8.416  0.3080  0.3872 -0.2336
 5375SOL    HW127761   3.976   4.595   8.326  0.9131 -0.2102  0.0378
 5375SOL    HW227762   4.061   4.616   8.438 -0.5104 -3.3074  1.1893
 5376SOL     OW27763   0.030   4.422  11.513 -0.0990 -0.0104  0.3680
 5376SOL    HW127764   4.680   4.395  11.494 -0.1481  0.7777 -0.5083
 5376SOL    HW227765   0.034   4.516  11.492 -1.0511  0.0675  0.5245
 5377SOL     OW27766   2.621   1.690   6.400  0.1329  0.1203 -0.3046
 5377SOL    HW127767   2.662   1.630   6.337  0.3570 -0.0071 -0.0377
 5377SOL    HW227768   2.704   1.702   6.446 -0.9293 -2.2444  2.1987
 5378SOL     OW27769   3.849   2.600  15.982  0.8752  0.0509  0.4732
 5378SOL    HW127770   3.908   2.673  15.998 -0.2395  0.7177  1.5400
 5378SOL    HW227771   3.897   2.518  15.967  0.6407  0.5571 -2.9978
 5379SOL     OW27772   3.416   4.006   3.179 -0.3410 -0.5243  0.0699
 5379SOL    HW127773   3.372   4.046   3.254  0.2639 -4.1113  2.3621
 5379SOL    HW227774   3.426   3.914   3.204  0.6144 -0.3567  0.3062
 5380SOL     OW27775   0.083   1.615   0.181  0.2753  0.0168  0.6033
 5380SOL    HW127776   0.095   1.669   0.103 -0.7879  0.9041  1.0564
 5380SOL    HW227777   0.007   1.659   0.219 -0.2331 -1.2324  1.0161
 5381SOL     OW27778   3.291   0.104   6.121 -0.5126 -0.0184  0.0104
 5381SOL    HW127779   3.257   0.194   6.125 -0.1195  0.2041 -1.8716
 5381SOL    HW227780   3.383   0.119   6.144  0.0796 -1.7287 -1.2462
 5382SOL     OW27781   0.904   0.534  14.492 -0.0037  0.2482  0.3773
 5382SOL    HW127782   0.974   0.599  14.501 -0.7136  0.6249  3.5399
 5382SOL    HW227783   0.949   0.453  14.517 -0.7783 -0.1956  0.3133
 5383SOL     OW27784   0.502   3.890  12.847 -0.0842  0.1930 -0.2806
 5383SOL    HW127785   0.477   3.956  12.911  3.0782  1.0488  0.0774
 5383SOL    HW227786   0.446   3.816  12.870  0.4608  0.8131  3.0487
 5384SOL     OW27787   4.238   0.806  15.349 -0.3473  0.3102  0.0607
 5384SOL    HW127788   4.284   0.749  15.288  3.2048  3.3634 -0.0985
 5384SOL    HW227789   4.291   0.885  15.339  1.1270 -0.6434  0.3774
 5385SOL     OW27790   4.004   1.494   2.407  0.0380 -1.2857 -0.5966
 5385SOL    HW127791   4.076   1.557   2.398 -0.2267 -1.2893 -2.6678
 5385SOL    HW227792   4.036   1.424   2.349 -0.1363 -0.3213 -1.8521
 5386SOL     OW27793   2.609   2.811   9.430  0.1847 -0.2283  0.0766
 5386SOL    HW127794   2.677   2.756   9.389  0.1312 -0.5175  0.3694
 5386SOL    HW227795   2.632   2.795   9.522  1.2017 -2.2305 -0.5095
 5387SOL     OW27796   2.108   4.358  13.217 -0.6426 -0.5465 -0.0278
 5387SOL    HW127797   2.164   4.282  13.206  0.6084  0.2849  0.5204
 5387SOL    HW227798   2.144   4.397  13.297 -2.5219 -0.4861  0.7924
 5388SOL     OW27799   0.484   3.643   4.435  0.6795  0.0954 -0.1906
 5388SOL    HW127800   0.571   3.611   4.410  0.4311 -3.9749  4.3463
 5388SOL    HW227801   0.487   3.737   4.453  2.7236 -0.1119  0.4868
 5389SOL     OW27802   1.517   4.103   8.744  0.0344 -0.4539 -0.8434
 5389SOL    HW127803   1.542   4.035   8.808  2.1508  0.1691 -1.0191
 5389SOL    HW227804   1.604   4.138   8.725  0.2446 -1.0582 -0.9960
 5390SOL     OW27805   0.153   2.770   7.318 -0.5345  0.7421 -0.3753
 5390SOL    HW127806   0.164   2.864   7.325 -1.5353  0.8340 -0.0476
 5390SOL    HW227807   0.060   2.763   7.296 -0.9025 -0.1632  1.4357
 5391SOL     OW27808   3.579   4.484   3.908  0.2056 -0.3138 -0.1533
 5391SOL    HW127809   3.567   4.543   3.833  1.0745 -0.3883 -0.3493
 5391SOL    HW227810   3.633   4.538   3.966  0.3580 -0.9669  0.2985
 5392SOL     OW27811   1.674   0.738   6.495 -0.1597 -0.5953 -0.1983
 5392SOL    HW127812   1.669   0.749   6.590  2.3189 -0.5777 -0.0815
 5392SOL    HW227813   1.768   0.728   6.479 -0.4100  2.3430 -3.5980
 5393SOL     OW27814   2.601   2.090   4.772 -0.0149 -0.0508 -0.2484
 5393SOL    HW127815   2.555   2.031   4.713  0.0839  0.8600 -1.2340
 5393SOL    HW227816   2.643   2.029   4.833  1.1983  1.9055  0.8675
 5394SOL     OW27817   3.056   2.606  17.166 -0.5110  0.5849 -0.0665
 5394SOL    HW127818   3.059   2.555  17.247 -2.0423 -2.1982 -1.7537
 5394SOL    HW227819   2.978   2.658  17.187 -1.0998 -0.6301  0.7916
 5395SOL     OW27820   2.565   1.476   8.827  0.0305 -0.3259 -0.9496
 5395SOL    HW127821   2.603   1.448   8.744  0.1396 -1.4877 -0.5178
 5395SOL    HW227822   2.548   1.390   8.865 -0.4314  0.0748 -0.2502
 5396SOL     OW27823   0.397   0.027   2.584  0.2833  0.3134 -0.1189
 5396SOL    HW127824   0.416   4.679   2.618  2.3263  0.8676  0.1424
 5396SOL    HW227825   0.309   0.017   2.620  0.3029  1.3281  0.2005
 5397SOL     OW27826   0.694   3.471  12.271  0.3727  0.0825  0.0180
 5397SOL    HW127827   0.709   3.504  12.360 -2.0301 -0.2751  0.5456
 5397SOL    HW227828   0.602   3.446  12.274  0.5643 -0.5046  1.1523
 5398SOL     OW27829   2.932   0.256   9.900  0.0056 -0.3384  0.7188
 5398SOL    HW127830   2.971   0.304   9.973 -2.0224  1.3515  0.6829
 5398SOL    HW227831   3.005   0.193   9.900 -0.4031 -0.8224  2.7782
 5399SOL     OW27832   0.230   2.914   6.308  0.0061 -0.0021  0.5630
 5399SOL    HW127833   0.295   2.937   6.375  2.1431  0.8002 -1.7973
 5399SOL    HW227834   0.140   2.939   6.327 -0.1813 -2.1929  2.6034
 5400SOL     OW27835   3.213   1.223   6.478 -0.7868 -0.1074  0.0299
 5400SOL    HW127836   3.172   1.299   6.437  1.2820  0.6079 -0.7118
 5400SOL    HW227837   3.234   1.268   6.560 -1.3610  1.0174 -0.4387
 5401SOL     OW27838   3.044   1.228   5.332  0.3514 -0.2018 -0.4010
 5401SOL    HW127839   3.005   1.308   5.369 -0.3839 -1.7510  2.1348
 5401SOL    HW227840   2.970   1.169   5.346  0.5610  0.0200  1.5835
 5402SOL     OW27841   3.643   3.843   1.088  0.1463 -0.0166  0.7106
 5402SOL    HW127842   3.597   3.765   1.056  0.4807 -0.1111  0.4653
 5402SOL    HW227843   3.606   3.908   1.028  3.7012  1.2393 -0.1410
 5403SOL     OW27844   0.752   2.450   5.025  0.5651 -0.5785 -0.2080
 5403SOL    HW127845   0.682   2.440   5.090  1.4439 -0.5579  0.7476
 5403SOL    HW227846   0.829   2.405   5.059  1.0770  0.5538  0.1450
 5404SOL     OW27847   2.259   3.336   4.589 -0.3619  0.2568 -0.6814
 5404SOL    HW127848   2.185   3.276   4.593  1.1943 -1.6356 -0.5213
 5404SOL    HW227849   2.294   3.301   4.507  1.9300  1.4201 -0.1847
 5405SOL     OW27850   1.488   0.329  11.500  0.5614  0.2053  0.0284
 5405SOL    HW127851   1.549   0.275  11.551 -0.2691 -0.6285  0.1344
 5405SOL    HW227852   1.434   0.348  11.577 -1.8124  0.1132 -1.6259
 5406SOL     OW27853   2.741   4.014   8.028 -0.4007  0.2142  0.3992
 5406SOL    HW127854   2.780   4.078   8.088  1.0850  0.3112 -0.6875
 5406SOL    HW227855   2.650   4.033   8.053 -0.7813  2.3336 -2.6254
 5407SOL     OW27856   1.028   4.153  11.592  0.0058  0.1190 -0.0095
 5407SOL    HW127857   1.098   4.097  11.626 -0.1653  0.3819  0.7923
 5407SOL    HW227858   1.005   4.220  11.656 -2.4700  1.1316 -1.9676
 5408SOL     OW27859   3.922   2.312   7.387  0.3044  0.3281 -0.4121
 5408SOL    HW127860   3.871   2.232   7.392 -0.6276  1.0570  1.6986
 5408SOL    HW227861   3.933   2.342   7.477  1.8885 -1.1027 -0.1405
 5409SOL     OW27862   4.070   2.626  16.667 -0.1009 -0.0746  0.8776
 5409SOL    HW127863   4.100   2.688  16.601 -0.1239  0.3450  1.2599
 5409SOL    HW227864   4.141   2.618  16.732 -0.3510 -0.2015  1.1368
 5410SOL     OW27865   3.149   0.353   4.484 -0.0322  0.1047  0.1048
 5410SOL    HW127866   3.085   0.346   4.555 -2.8295 -0.5835 -2.4934
 5410SOL    HW227867   3.232   0.366   4.531  0.0497 -0.7956  0.2073
 5411SOL     OW27868   3.537   3.109   3.328 -0.4117  0.4909  0.0428
 5411SOL    HW127869   3.481   3.182   3.303 -1.4589  0.5590  2.6497
 5411SOL    HW227870   3.492   3.036   3.285 -1.9604  2.2664 -1.3340
 5412SOL     OW27871   2.807   4.525  12.024  0.1717  0.2871 -0.1149
 5412SOL    HW127872   2.838   4.464  11.957 -2.3734 -1.6486  0.4552
 5412SOL    HW227873   2.713   4.507  12.023 -0.2363  2.3602  1.6954
 5413SOL     OW27874   0.205   0.836   4.158 -0.0967  0.6187  0.2309
 5413SOL    HW127875   0.255   0.914   4.137 -1.1544  1.0715 -0.6420
 5413SOL    HW227876   0.261   0.789   4.219  0.0525 -1.0575 -1.2179
 5414SOL     OW27877   0.512   2.543   3.158  0.1220 -0.0248  0.0631
 5414SOL    HW127878   0.535   2.563   3.248  2.3056  2.6085 -1.0761
 5414SOL    HW227879   0.445   2.474   3.161  1.1320 -0.9359  1.4619
 5415SOL     OW27880   1.467   4.729   5.272 -0.5185 -0.1060  0.1885
 5415SOL    HW127881   1.510   4.647   5.297 -0.1162  0.1706  0.4047
 5415SOL    HW227882   1.489   4.728   5.179 -1.8075 -2.4033 -0.0986
 5416SOL     OW27883   1.326   0.111  13.036 -0.3797  0.1525 -0.3070
 5416SOL    HW127884   1.403   0.168  13.035 -0.8756  0.8612  0.7550
 5416SOL    HW227885   1.276   0.151  13.108  0.6218  1.5835 -0.4078
 5417SOL     OW27886   1.008   0.883   6.735 -0.1444 -0.2429  0.3130
 5417SOL    HW127887   1.085   0.906   6.683 -0.7167  0.5715 -0.1722
 5417SOL    HW227888   0.951   0.939   6.682  1.3769 -0.3946 -1.4734
 5418SOL     OW27889   1.143   0.229   1.950 -0.1697  0.0845 -0.0809
 5418SOL    HW127890   1.114   0.161   2.010 -1.4225  3.1445  2.7421
 5418SOL    HW227891   1.139   0.187   1.864 -2.2184 -0.4746  0.2965
 5419SOL     OW27892   3.949   0.155   1.440  0.1224  0.2152 -0.2364
 5419SOL    HW127893   3.953   0.130   1.533 -0.6609  1.8118  0.2193
 5419SOL    HW227894   4.009   0.090   1.403 -1.4132 -1.9356  1.0648
 5420SOL     OW27895   1.026   2.903  16.377  0.1991  0.3899 -0.0169
 5420SOL    HW127896   1.036   2.904  16.282  3.0446  0.7597  0.2851
 5420SOL    HW227897   1.112   2.870  16.403  1.3797  1.4945 -2.4749
 5421SOL     OW27898   1.214   1.414  13.271  0.0431 -0.1749  0.1420
 5421SOL    HW127899   1.301   1.408  13.309  0.2849 -0.8576 -0.5153
 5421SOL    HW227900   1.193   1.321  13.259  1.3340 -0.6134  1.3528
 5422SOL     OW27901   4.620   3.509   6.604 -0.4983  0.0869 -0.7867
 5422SOL    HW127902   4.651   3.460   6.528 -2.9755  2.0904 -3.1012
 5422SOL    HW227903   4.629   3.602   6.582 -2.1652  0.4070 -0.1503
 5423SOL     OW27904   2.115   2.273   0.695 -0.3889  0.3424 -0.1279
 5423SOL    HW127905   2.067   2.333   0.636  1.0878  1.4147 -0.2344
 5423SOL    HW227906   2.182   2.331   0.731  0.3244 -1.7503  1.8910
 5424SOL     OW27907   1.279   1.795   6.059 -0.0755 -0.6865  0.3552
 5424SOL    HW127908   1.359   1.778   6.109 -0.9427 -3.1871  0.8777
 5424SOL    HW227909   1.299   1.761   5.972 -0.5297 -1.8716  0.7172
 5425SOL     OW27910   0.174   1.390   5.881 -0.4788  0.2044  0.3242
 5425SOL    HW127911   0.188   1.323   5.948 -1.3244 -0.0946  0.2069
 5425SOL    HW227912   0.147   1.461   5.939 -1.5211  1.4350 -1.6803
 5426SOL     OW27913   4.282   3.670   4.047  0.5415  0.3963  0.4781
 5426SOL    HW127914   4.334   3.590   4.038  1.3864  1.2213 -1.9072
 5426SOL    HW227915   4.216   3.651   3.981 -0.8531 -0.3774  2.0941
 5427SOL     OW27916   3.124   2.841  10.760  0.1377  0.2287  0.6858
 5427SOL    HW127917   3.090   2.856  10.671 -0.2874 -2.4938  0.3810
 5427SOL    HW227918   3.203   2.894  10.749  0.7061 -0.5842  0.9106
 5428SOL     OW27919   0.014   0.669  13.071  0.6821 -0.5218  0.0030
 5428SOL    HW127920   4.676   0.711  13.107  0.9425  1.5152 -1.7988
 5428SOL    HW227921   0.002   0.576  13.093  0.9036 -1.0339 -2.1057
 5429SOL     OW27922   2.841   0.828   8.074 -0.1121  0.8548  0.8855
 5429SOL    HW127923   2.773   0.770   8.039  1.1572  0.5714 -1.0567
 5429SOL    HW227924   2.824   0.905   8.019  1.8565  0.2754 -0.5138
 5430SOL     OW27925   2.905   3.357   9.393 -0.2027  0.2440 -0.5187
 5430SOL    HW127926   2.992   3.393   9.406  0.8798 -1.8795 -1.8979
 5430SOL    HW227927   2.852   3.392   9.464  0.2128  0.7575 -0.4712
 5431SOL     OW27928   3.260   1.567   3.669 -0.1020 -0.5438 -0.3794
 5431SOL    HW127929   3.176   1.553   3.626  0.1393  1.7515 -1.5880
 5431SOL    HW227930   3.242   1.549   3.761  1.4846 -2.6032 -0.4724
 5432SOL     OW27931   3.659   1.472   7.606  0.5480 -0.2309  0.2471
 5432SOL    HW127932   3.591   1.503   7.547  2.5214  1.1674 -1.3043
 5432SOL    HW227933   3.725   1.441   7.545  1.0324  0.5727  0.3548
 5433SOL     OW27934   0.283   0.945   7.345 -0.0269 -0.1660 -0.8400
 5433SOL    HW127935   0.330   0.892   7.281 -0.2476  1.5542 -2.4234
 5433SOL    HW227936   0.338   1.023   7.347  1.3811 -1.2770  3.8176
 5434SOL     OW27937   0.922   3.353   4.069 -0.1242  0.1162  0.8110
 5434SOL    HW127938   0.889   3.269   4.036 -1.1762  0.3653  1.2247
 5434SOL    HW227939   0.908   3.343   4.163  2.2806  0.4893  1.2037
 5435SOL     OW27940   1.384   4.310   5.721 -0.4299 -0.3311  0.0575
 5435SOL    HW127941   1.339   4.272   5.646  0.8623 -3.0925  0.6828
 5435SOL    HW227942   1.446   4.363   5.671 -0.1021  0.4154  1.2460
 5436SOL     OW27943   1.000   4.432   0.199 -0.9251 -0.0022 -0.3477
 5436SOL    HW127944   0.964   4.499   0.141 -0.8542  2.5149  2.5105
 5436SOL    HW227945   1.037   4.476   0.276 -1.4212 -1.1566  0.5407
 5437SOL     OW27946   1.282   3.676  17.326 -0.2025  0.2575 -0.0215
 5437SOL    HW127947   1.301   3.762  17.289  1.1150  0.0609  0.2069
 5437SOL    HW227948   1.189   3.662  17.305  0.2894  0.5807 -2.4425
 5438SOL     OW27949   2.963   1.666  17.264  0.0662 -0.7552 -0.0112
 5438SOL    HW127950   2.971   1.658  17.359  1.6002 -1.6656 -0.2159
 5438SOL    HW227951   2.876   1.631  17.242 -0.1865  0.2061 -0.5469
 5439SOL     OW27952   3.368   2.779   0.159 -0.6697 -0.0930 -0.5526
 5439SOL    HW127953   3.279   2.791   0.125 -0.5279  0.1684 -0.8317
 5439SOL    HW227954   3.369   2.860   0.210 -2.3894 -1.0927  1.0709
 5440SOL     OW27955   0.738   0.053  17.210 -0.3966  0.3088  0.1505
 5440SOL    HW127956   0.747   0.138  17.166 -1.5118  0.3958  0.0908
 5440SOL    HW227957   0.812   0.007  17.172  0.0577 -0.9668  2.5773
 5441SOL     OW27958   3.930   3.312   8.459  0.1336  0.4432 -0.1515
 5441SOL    HW127959   3.917   3.345   8.548  0.5840  0.7017 -0.1834
 5441SOL    HW227960   3.869   3.238   8.456 -0.7567  1.0859  1.9548
 5442SOL     OW27961   1.442   4.192  15.804 -0.8275  0.6559  0.1296
 5442SOL    HW127962   1.431   4.098  15.792 -1.0870  0.7040 -0.0167
 5442SOL    HW227963   1.394   4.220  15.726  0.3446 -4.4067 -2.4109
 5443SOL     OW27964   0.592   0.245   9.632  0.3703  0.2238 -0.0551
 5443SOL    HW127965   0.578   0.242   9.538 -2.2579 -0.4955  0.3813
 5443SOL    HW227966   0.504   0.259   9.666  0.7527  0.0343  1.0149
 5444SOL     OW27967   0.669   2.241   8.927  0.4450 -0.6784 -0.5602
 5444SOL    HW127968   0.749   2.196   8.953 -0.9382 -1.7317  1.9773
 5444SOL    HW227969   0.658   2.291   9.008 -0.1546 -1.3095 -0.2485
 5445SOL     OW27970   1.337   0.811   6.412 -0.1226 -0.4394  0.2240
 5445SOL    HW127971   1.317   0.786   6.322 -1.4655 -0.7244  0.6059
 5445SOL    HW227972   1.370   0.727   6.445  0.1385 -0.2693  0.3944
 5446SOL     OW27973   4.262   1.918  17.580 -0.1486 -0.9933 -0.0825
 5446SOL    HW127974   4.211   1.974  17.521 -1.1668 -1.0851  0.7144
 5446SOL    HW227975   4.319   1.879  17.514  1.4731  0.1220  0.6282
 5447SOL     OW27976   3.257   4.396   3.334 -0.8254  0.0878  0.4897
 5447SOL    HW127977   3.309   4.471   3.363 -0.0826 -0.5642  0.8524
 5447SOL    HW227978   3.170   4.418   3.366 -0.9714 -1.0992  0.9229
 5448SOL     OW27979   2.274   2.426   2.671 -0.4613 -0.1018 -0.1377
 5448SOL    HW127980   2.207   2.490   2.696  0.7453  1.1533 -0.0884
 5448SOL    HW227981   2.354   2.475   2.691 -0.4030 -1.1845  2.2151
 5449SOL     OW27982   3.851   4.242   8.917  0.0341  0.0486 -0.5919
 5449SOL    HW127983   3.798   4.167   8.890 -0.9670  0.3406  0.5409
 5449SOL    HW227984   3.927   4.205   8.962 -0.6920  0.7340  1.2133
 5450SOL     OW27985   0.340   2.468   4.676  0.1030  0.1554  0.4781
 5450SOL    HW127986   0.424   2.466   4.630  0.0632 -1.7014  0.4925
 5450SOL    HW227987   0.297   2.384   4.662  1.5975 -0.1328 -2.5346
 5451SOL     OW27988   0.913   4.035   2.572  0.3123 -0.4580 -0.1850
 5451SOL    HW127989   0.858   4.103   2.533 -0.2430 -1.0731 -0.4789
 5451SOL    HW227990   0.877   4.034   2.661  2.2941  0.9268  0.6349
 5452SOL     OW27991   1.936   2.778   5.271  0.5336 -0.1235  0.0742
 5452SOL    HW127992   2.029   2.757   5.278  0.6618  0.6665  0.7926
 5452SOL    HW227993   1.929   2.820   5.357  0.5851  0.0580 -0.0098
 5453SOL     OW27994   2.527   4.202   4.103  0.0622  0.0041  0.8654
 5453SOL    HW127995   2.448   4.158   4.133  0.3995 -1.1368  0.0931
 5453SOL    HW227996   2.595   4.147   4.143  2.3187  2.2524  0.1387
 5454SOL     OW27997   1.132   1.186   7.471 -0.4528  0.5126 -0.0895
 5454SOL    HW127998   1.107   1.100   7.439 -0.7987 -0.3845  2.6045
 5454SOL    HW227999   1.213   1.175   7.521 -0.1923  1.8809 -0.2065
 5455SOL     OW28000   1.894   1.697   9.446 -0.6590 -0.6376  0.2493
 5455SOL    HW128001   1.924   1.733   9.362 -1.8695  1.0976  0.5552
 5455SOL    HW228002   1.980   1.689   9.487 -0.2079  0.2375 -0.5221
 5456SOL     OW28003   4.727   1.887  13.296  0.0872 -0.1651 -0.3328
 5456SOL    HW128004   0.055   1.880  13.363 -1.2725  0.9734  1.1448
 5456SOL    HW228005   0.033   1.863  13.215  2.6991  0.9270  0.8359
 5457SOL     OW28006   0.256   1.454   9.275  0.7091 -0.4998 -0.1122
 5457SOL    HW128007   0.210   1.460   9.358  0.4654 -3.0978 -0.0584
 5457SOL    HW228008   0.262   1.548   9.257 -0.6157 -0.2864  0.5781
 5458SOL     OW28009   2.521   2.012   7.606 -0.5602  0.3963 -0.5016
 5458SOL    HW128010   2.453   2.021   7.673 -0.5980 -0.8892 -0.3791
 5458SOL    HW228011   2.526   2.104   7.579 -0.8966  1.4215  2.8941
 5459SOL     OW28012   2.024   0.735   5.236 -0.5013 -0.7806 -0.2713
 5459SOL    HW128013   2.051   0.645   5.253 -1.4030 -1.2762 -1.4177
 5459SOL    HW228014   1.932   0.743   5.210 -0.0970  1.4977 -0.9716
 5460SOL     OW28015   0.057   1.803   3.615 -0.5214  0.7549 -0.2114
 5460SOL    HW128016   0.053   1.752   3.534 -0.5852  1.4919 -0.6733
 5460SOL    HW228017   4.724   1.865   3.613 -0.3354  0.9569 -0.7387
 5461SOL     OW28018   1.909   2.645   9.078  0.2924 -0.2143 -0.4430
 5461SOL    HW128019   1.994   2.623   9.040 -0.3210 -2.0499 -0.7607
 5461SOL    HW228020   1.924   2.635   9.172 -2.6466 -0.0656  0.0608
 5462SOL     OW28021   0.015   3.432   3.899 -0.1087 -0.0410 -0.0262
 5462SOL    HW128022   0.045   3.489   3.829 -0.5057 -3.3466 -2.8575
 5462SOL    HW228023   0.041   3.344   3.872  3.2753  0.9012  0.2164
 5463SOL     OW28024   1.257   3.648   1.824  0.1125 -0.1048  0.3256
 5463SOL    HW128025   1.272   3.611   1.737 -1.3102  2.4710 -1.0155
 5463SOL    HW228026   1.273   3.564   1.867 -0.0349 -1.2347 -1.7972
 5464SOL     OW28027   1.156   2.917   8.609 -0.4652  0.4326  0.6800
 5464SOL    HW128028   1.206   2.996   8.626  0.1294 -0.3652  2.5825
 5464SOL    HW228029   1.204   2.852   8.660  1.0492  1.1339  0.1576
 5465SOL     OW28030   0.218   1.461  12.888  0.0982  0.1297 -0.0413
 5465SOL    HW128031   0.200   1.376  12.929 -1.3084 -0.6582 -2.3113
 5465SOL    HW228032   0.188   1.438  12.800 -0.0283 -2.1661  0.6025
 5466SOL     OW28033   3.537   1.000   6.793  0.1634  0.0259  0.6279
 5466SOL    HW128034   3.584   1.007   6.711 -0.4402 -0.2717  0.2594
 5466SOL    HW228035   3.610   0.983   6.853  2.0399  3.9125 -0.5593
 5467SOL     OW28036   0.493   1.372  11.488 -0.3757 -0.3029  0.1038
 5467SOL    HW128037   0.417   1.349  11.435  0.5510 -2.0333 -0.4895
 5467SOL    HW228038   0.504   1.294  11.542 -0.5020 -1.2407 -1.2093
 5468SOL     OW28039   2.891   0.953   1.165  0.1864 -0.0899  0.1293
 5468SOL    HW128040   2.842   1.012   1.108  0.2161  0.1996  0.4001
 5468SOL    HW228041   2.854   0.980   1.249 -0.8681  0.2041 -0.4303
 5469SOL     OW28042   0.282   0.799   2.490 -0.7915 -0.2525 -0.3563
 5469SOL    HW128043   0.222   0.818   2.562  1.5349  0.6072  1.3626
 5469SOL    HW228044   0.286   0.704   2.497 -1.4002 -0.2568 -0.0466
 5470SOL     OW28045   1.245   1.293   8.591  0.3755  0.3492 -0.0089
 5470SOL    HW128046   1.242   1.353   8.665  2.5783  1.0158 -0.4715
 5470SOL    HW228047   1.199   1.351   8.531 -0.0392  0.1927  0.1544
 5471SOL     OW28048   4.442   0.303   3.069 -0.8675  0.0835 -0.0045
 5471SOL    HW128049   4.418   0.220   3.108  0.4610 -1.0260 -1.5529
 5471SOL    HW228050   4.494   0.326   3.146 -0.7963  1.6144 -0.5035
 5472SOL     OW28051   1.550   2.237  14.359  0.3281  0.6030 -0.7261
 5472SOL    HW128052   1.539   2.200  14.271  2.7531 -1.2021 -0.2700
 5472SOL    HW228053   1.511   2.324  14.345  0.8959  1.1535  1.0980
 5473SOL     OW28054   1.577   4.585   3.137  0.0781  0.2153 -0.4106
 5473SOL    HW128055   1.589   4.601   3.231 -0.2917 -0.4135 -0.2587
 5473SOL    HW228056   1.670   4.586   3.111 -0.6383  2.5862 -2.8823
 5474SOL     OW28057   4.143   2.799  16.491 -0.0372  0.2969 -0.5360
 5474SOL    HW128058   4.127   2.872  16.430 -1.1913  1.1924  0.8536
 5474SOL    HW228059   4.177   2.741  16.422  0.6016 -0.8294  0.7369
 5475SOL     OW28060   1.734   0.829  17.570  0.1417  0.4034  0.3568
 5475SOL    HW128061   1.697   0.893  17.630 -0.5179  1.8353 -1.5999
 5475SOL    HW228062   1.673   0.758  17.589 -0.9618  0.7588 -1.8793
 5476SOL     OW28063   0.108   0.843   9.120  0.0181  0.6042  0.5759
 5476SOL    HW128064   0.133   0.916   9.177 -1.5100  1.3639  0.2826
 5476SOL    HW228065   0.049   0.800   9.182 -1.8311  1.9138 -0.2315
 5477SOL     OW28066   1.116   3.532   4.727 -0.0121 -0.0381  0.2431
 5477SOL    HW128067   1.112   3.513   4.820 -1.3936  0.1086  0.2067
 5477SOL    HW228068   1.208   3.558   4.726  0.0297 -0.1713  0.6062
 5478SOL     OW28069   1.421   2.662   7.214  0.0559 -0.0823  0.0163
 5478SOL    HW128070   1.376   2.725   7.271  2.1066  0.5629  0.9682
 5478SOL    HW228071   1.387   2.682   7.127 -0.5287  3.1303  0.9757
 5479SOL     OW28072   0.385   2.755   6.893  0.1641 -0.0440  0.4628
 5479SOL    HW128073   0.396   2.680   6.835 -2.2755 -1.5603  1.9728
 5479SOL    HW228074   0.295   2.779   6.874  0.0993 -0.9381 -0.3714
 5480SOL     OW28075   3.626   4.190   7.602  0.1509  0.4038 -0.2431
 5480SOL    HW128076   3.600   4.121   7.663 -0.1703  0.4181 -0.3637
 5480SOL    HW228077   3.718   4.166   7.596 -0.2370 -0.6344 -2.0522
 5481SOL     OW28078   1.734   2.904  10.489 -0.0318  0.3293 -0.0488
 5481SOL    HW128079   1.682   2.982  10.507 -0.8527 -0.6511  1.9025
 5481SOL    HW228080   1.698   2.885  10.402  0.9264  0.6926 -0.5283
 5482SOL     OW28081   0.232   0.456   9.557  0.0789  0.1989 -0.8487
 5482SOL    HW128082   0.292   0.489   9.624 -0.6532  2.3708 -1.2743
 5482SOL    HW228083   0.269   0.507   9.486 -1.0995 -0.3440 -1.8611
 5483SOL     OW28084   4.349   3.490   1.964 -0.0690 -0.3233 -0.3383
 5483SOL    HW128085   4.325   3.453   1.879  1.4247  1.1642 -1.4137
 5483SOL    HW228086   4.434   3.445   1.970 -0.9345 -2.1425 -1.6106
 5484SOL     OW28087   2.456   3.417   0.704 -0.3984  0.3156 -0.1194
 5484SOL    HW128088   2.413   3.451   0.626 -2.5297 -1.3289  0.3543
 5484SOL    HW228089   2.486   3.333   0.670  1.9892  1.7657 -1.6253
 5485SOL     OW28090   3.814   1.341   6.113  0.3832 -0.5056  0.0251
 5485SOL    HW128091   3.799   1.434   6.095  0.7124 -0.7958 -1.7679
 5485SOL    HW228092   3.723   1.311   6.115 -0.3635  1.7755 -0.0472
 5486SOL     OW28093   3.831   0.584   6.250 -0.5363  0.1188  0.5053
 5486SOL    HW128094   3.924   0.569   6.269 -0.7483  0.3515  1.7612
 5486SOL    HW228095   3.791   0.538   6.324 -0.7663  1.3153  1.1211
 5487SOL     OW28096   3.528   1.719  16.116  0.0944  0.5342  0.3974
 5487SOL    HW128097   3.612   1.697  16.157  1.1065  0.4509 -1.7681
 5487SOL    HW228098   3.477   1.650  16.159 -0.0483  0.7148  0.5175
 5488SOL     OW28099   0.108   4.390   3.503  1.0025  0.2237 -0.1044
 5488SOL    HW128100   0.012   4.387   3.507  1.1475 -1.6102  1.7863
 5488SOL    HW228101   0.127   4.330   3.575  1.0479  0.3105 -0.0443
 5489SOL     OW28102   3.237   0.687  16.739 -0.4863  0.0973 -0.1027
 5489SOL    HW128103   3.198   0.732  16.814  0.1061  0.4040  0.0206
 5489SOL    HW228104   3.267   0.761  16.687 -1.0202  0.8091  0.5974
 5490SOL     OW28105   2.536   3.363   4.660 -0.5455 -0.5634  0.0155
 5490SOL    HW128106   2.455   3.400   4.623 -0.4648 -0.7115 -0.3063
 5490SOL    HW228107   2.557   3.423   4.732 -2.1375  0.5052 -0.3893
 5491SOL     OW28108   2.864   1.841   5.539  0.3073 -0.5541  0.0408
 5491SOL    HW128109   2.852   1.923   5.490 -0.6336 -1.6624 -1.5596
 5491SOL    HW228110   2.837   1.794   5.461 -1.3588  0.4479  0.0038
 5492SOL     OW28111   2.183   0.491   7.364 -0.8789  0.6048 -0.6431
 5492SOL    HW128112   2.204   0.532   7.449 -2.1029  0.6543 -0.3615
 5492SOL    HW228113   2.111   0.432   7.386 -1.1872  1.5104  0.8366
 5493SOL     OW28114   2.968   0.727   6.373  0.6636  0.4418 -0.2640
 5493SOL    HW128115   3.049   0.766   6.340  0.4016  1.8509  0.7385
 5493SOL    HW228116   2.940   0.789   6.441  1.1576  1.2781 -0.8214
 5494SOL     OW28117   0.904   3.577   2.048 -0.1290  0.1615 -0.4795
 5494SOL    HW128118   0.918   3.665   2.011 -0.9021  1.0739  1.4084
 5494SOL    HW228119   0.991   3.539   2.057 -0.8064 -1.5573 -1.1604
 5495SOL     OW28120   4.700   4.384   6.592  0.7165  0.2211 -0.2324
 5495SOL    HW128121   4.688   4.305   6.540 -0.3588  0.2016  0.0604
 5495SOL    HW228122   4.728   4.442   6.520  0.9275 -1.1506 -1.2514
 5496SOL     OW28123   2.258   1.402  15.277 -0.4722 -0.1996 -0.0527
 5496SOL    HW128124   2.254   1.422  15.184  1.0489  1.5316  0.2474
 5496SOL    HW228125   2.184   1.451  15.313 -2.0004 -2.2979 -0.3984
 5497SOL     OW28126   1.337   0.436   2.432  0.0803 -0.2650  0.3588
 5497SOL    HW128127   1.377   0.496   2.369 -0.4894  0.4370  0.6632
 5497SOL    HW228128   1.359   0.488   2.509  1.9074 -0.8391  0.2184
 5498SOL     OW28129   4.261   0.670  10.123  0.8380 -0.4395 -1.1083
 5498SOL    HW128130   4.302   0.625  10.197 -2.2591 -0.9471  0.2962
 5498SOL    HW228131   4.323   0.742  10.124 -0.9921  1.1376 -0.8003
 5499SOL     OW28132   1.786   3.045   1.987  0.1156 -0.1500 -1.2129
 5499SOL    HW128133   1.882   3.054   1.983  0.1337  1.4278  2.3932
 5499SOL    HW228134   1.766   3.134   2.017 -1.5092 -1.1382  0.5841
 5500SOL     OW28135   4.654   1.889   4.215 -0.0917 -0.3278  0.1942
 5500SOL    HW128136   4.701   1.911   4.295 -1.5967  1.5466  0.5798
 5500SOL    HW228137   4.601   1.969   4.204 -3.2141 -2.3168  0.7527
 5501SOL     OW28138   4.551   1.207   1.617  0.2494 -0.3266 -0.1109
 5501SOL    HW128139   4.602   1.258   1.680  1.1036 -2.0013  0.5488
 5501SOL    HW228140   4.617   1.189   1.550  0.3398 -0.7048  0.0823
 5502SOL     OW28141   1.340   3.929  15.763 -0.0084  0.8039  0.2221
 5502SOL    HW128142   1.254   3.959  15.733 -0.4433 -1.7087 -1.0251
 5502SOL    HW228143   1.331   3.930  15.858 -0.5469 -0.7968  0.1704
 5503SOL     OW28144   2.634   2.764   7.451 -0.7940  0.5299  0.0029
 5503SOL    HW128145   2.715   2.814   7.462 -1.6548  1.5378  1.6658
 5503SOL    HW228146   2.611   2.787   7.361 -0.1764  2.8472  0.4354
 5504SOL     OW28147   3.107   3.372   9.087  0.0326  0.0777 -0.3063
 5504SOL    HW128148   3.093   3.424   9.167  0.3277 -1.4557  0.7383
 5504SOL    HW228149   3.199   3.348   9.098 -0.5148 -0.4513  3.3572
 5505SOL     OW28150   4.243   1.097   3.196 -0.7042 -0.3049  0.3441
 5505SOL    HW128151   4.218   1.010   3.167  0.2570 -0.5741  0.3105
 5505SOL    HW228152   4.162   1.143   3.174  0.4406  1.7199  0.4231
 5506SOL     OW28153   2.257   1.470   4.664 -0.0541 -0.1237  0.5395
 5506SOL    HW128154   2.284   1.487   4.574  2.5050  1.5625  1.6561
 5506SOL    HW228155   2.235   1.376   4.660 -0.0416 -0.1310  0.6424
 5507SOL     OW28156   1.134   1.732  10.319  0.4986  0.4312 -0.1025
 5507SOL    HW128157   1.131   1.655  10.376 -1.8649  1.6670  1.4689
 5507SOL    HW228158   1.218   1.719  10.275 -0.3969 -2.5336 -0.9117
 5508SOL     OW28159   2.839   0.711   2.289  0.1102 -0.0354 -0.0707
 5508SOL    HW128160   2.762   0.746   2.335  0.9882 -0.9785  2.0847
 5508SOL    HW228161   2.796   0.697   2.204  3.6931  2.2220 -2.2557
 5509SOL     OW28162   1.863   0.529   0.843  0.4012 -0.2356 -0.2543
 5509SOL    HW128163   1.828   0.494   0.761 -1.1244  0.3162  0.1642
 5509SOL    HW228164   1.885   0.448   0.888 -0.5310 -0.1075  0.4267
 5510SOL     OW28165   3.572   3.031   4.151 -0.5333  0.7762  0.3737
 5510SOL    HW128166   3.567   3.127   4.146  1.6267  1.0535  3.3867
 5510SOL    HW228167   3.512   3.019   4.224  1.4983  2.4720  2.3235
 5511SOL     OW28168   2.115   2.742  10.884  0.7508 -0.0722  0.1116
 5511SOL    HW128169   2.177   2.670  10.874  0.3802 -0.5069  1.0400
 5511SOL    HW228170   2.152   2.809  10.825 -1.9177  1.6174  0.3567
 5512SOL     OW28171   4.313   2.450  12.841 -0.3020  0.5907 -0.1153
 5512SOL    HW128172   4.264   2.522  12.880 -2.7691 -1.4290  0.5513
 5512SOL    HW228173   4.381   2.439  12.908  2.7594  3.1952 -2.8356
 5513SOL     OW28174   0.826   3.738   2.311  0.1697 -0.7013  0.7138
 5513SOL    HW128175   0.844   3.670   2.246 -0.8405  1.4741 -1.8928
 5513SOL    HW228176   0.848   3.819   2.264  0.8356 -0.0108  2.2103
 5514SOL     OW28177   1.998   2.235   5.566 -0.2337  0.7398 -0.2570
 5514SOL    HW128178   2.074   2.241   5.509 -0.5688 -0.2523 -0.8204
 5514SOL    HW228179   2.047   2.260   5.644  0.9331  2.4555 -1.5361
 5515SOL     OW28180   1.089   0.035   2.136  0.0101 -0.0472  0.0273
 5515SOL    HW128181   1.050   4.689   2.120 -1.2457  0.5805 -0.3402
 5515SOL    HW228182   1.058   0.048   2.225 -2.8328  0.0541 -0.9731
 5516SOL     OW28183   2.826   0.944   5.903 -0.2909  0.0093  0.1391
 5516SOL    HW128184   2.892   0.988   5.849 -1.1262 -0.2635 -1.1140
 5516SOL    HW228185   2.768   0.909   5.835  2.9259 -2.3624 -1.4022
 5517SOL     OW28186   0.337   4.055   0.247  0.4198 -0.0507  0.2224
 5517SOL    HW128187   0.317   4.059   0.154 -0.8470 -0.0120  0.4968
 5517SOL    HW228188   0.318   4.142   0.281 -1.7345 -0.3097 -0.3076
 5518SOL     OW28189   3.596   3.206  15.294  0.4666  0.4908  1.1140
 5518SOL    HW128190   3.612   3.298  15.272 -0.3655  0.6592  1.1769
 5518SOL    HW228191   3.672   3.179  15.344  1.5484 -1.3614 -1.5458
 5519SOL     OW28192   1.820   3.610   7.563  0.4089 -0.4620  0.2153
 5519SOL    HW128193   1.811   3.650   7.650 -1.4702  2.6445 -1.3945
 5519SOL    HW228194   1.733   3.599   7.524  0.6965  0.2516 -0.6321
 5520SOL     OW28195   3.425   3.747   8.420  0.1929 -0.0051 -0.5019
 5520SOL    HW128196   3.358   3.683   8.394  0.3322 -0.4674  0.2732
 5520SOL    HW228197   3.381   3.832   8.419  0.3009  0.0567  0.9242
 5521SOL     OW28198   0.470   3.537  13.274  0.2346  0.0974  0.5896
 5521SOL    HW128199   0.389   3.586  13.289 -0.7945 -1.2676 -0.5609
 5521SOL    HW228200   0.485   3.491  13.356 -0.9973 -1.3848 -0.0205
 5522SOL     OW28201   2.327   3.824   7.421 -0.1786  0.0733  0.0746
 5522SOL    HW128202   2.395   3.810   7.487  0.1410 -1.1801 -0.5254
 5522SOL    HW228203   2.375   3.871   7.352 -1.4912 -1.0924 -1.6496
 5523SOL     OW28204   1.679   4.599  10.060 -0.0937 -0.1736 -0.5288
 5523SOL    HW128205   1.584   4.600  10.064 -0.0464  1.7249  0.1153
 5523SOL    HW228206   1.710   4.630  10.145 -0.6058  3.3373 -1.6124
 5524SOL     OW28207   1.287   3.852   4.404 -0.1061  0.3616 -0.2548
 5524SOL    HW128208   1.237   3.810   4.334 -2.0357  0.5423  0.9998
 5524SOL    HW228209   1.219   3.872   4.469 -1.2063 -4.6043  0.0831
 5525SOL     OW28210   2.451   3.968   7.231  0.2435 -0.4531  0.2824
 5525SOL    HW128211   2.511   4.043   7.240 -0.0279 -0.1892 -0.1144
 5525SOL    HW228212   2.431   3.971   7.137  0.5491 -1.9577  0.1708
 5526SOL     OW28213   3.534   2.469   4.264  0.7113 -0.0495 -0.4875
 5526SOL    HW128214   3.476   2.514   4.325  1.8247  0.4067  0.2518
 5526SOL    HW228215   3.604   2.432   4.318  1.3461  1.8590  0.0161
 5527SOL     OW28216   4.633   2.568   9.444  0.4248 -0.1908 -0.4027
 5527SOL    HW128217   4.693   2.570   9.370  0.3299 -1.4909 -0.5116
 5527SOL    HW228218   4.685   2.609   9.514  1.6748  1.2145 -2.1589
 5528SOL     OW28219   4.426   3.972   5.615  0.6162 -0.0711  0.0122
 5528SOL    HW128220   4.454   3.896   5.564 -0.9244 -0.4119 -0.3037
 5528SOL    HW228221   4.391   3.931   5.694 -0.2133 -2.0144 -1.3630
 5529SOL     OW28222   1.258   0.824   3.034 -0.9287 -0.1718  0.4448
 5529SOL    HW128223   1.251   0.774   2.953 -2.9276  1.4913 -0.4048
 5529SOL    HW228224   1.275   0.909   2.992 -3.2006  0.6257  1.1622
 5530SOL     OW28225   1.427   0.685   4.248  0.2249 -0.2974 -0.5411
 5530SOL    HW128226   1.474   0.602   4.238 -0.1711 -0.7741  1.4526
 5530SOL    HW228227   1.335   0.660   4.240  0.3267 -0.9099  0.2318
 5531SOL     OW28228   2.995   3.000   1.097  0.3677 -0.1352 -0.1782
 5531SOL    HW128229   2.941   3.073   1.066  1.8361  1.5151  1.1742
 5531SOL    HW228230   3.069   3.044   1.137 -0.3670  0.8449  0.1022
 5532SOL     OW28231   3.141   2.944   4.204  0.7387 -0.2068 -0.7193
 5532SOL    HW128232   3.081   2.985   4.267  0.9489 -0.7197 -0.1869
 5532SOL    HW228233   3.154   3.021   4.149 -1.2413  0.5197 -0.1705
 5533SOL     OW28234   2.350   1.502   5.363 -0.3113 -0.0430 -0.1245
 5533SOL    HW128235   2.280   1.562   5.387 -0.5508 -0.8930  1.3212
 5533SOL    HW228236   2.427   1.559   5.367  0.9717 -1.8299  0.7201
 5534SOL     OW28237   4.467   1.001  12.512  0.3440  0.0057  0.0313
 5534SOL    HW128238   4.374   1.021  12.504  0.5991  1.0799 -0.2994
 5534SOL    HW228239   4.476   0.932  12.447 -1.1017  0.7872 -1.0023
 5535SOL     OW28240   2.048   4.065   4.147 -0.8387 -0.1972 -0.3420
 5535SOL    HW128241   2.019   4.012   4.221 -0.3221 -2.0399 -1.4497
 5535SOL    HW228242   1.978   4.130   4.148  0.7211  1.4978 -2.1766
 5536SOL     OW28243   1.677   0.757  16.735  0.3441 -0.0190 -0.5100
 5536SOL    HW128244   1.582   0.760  16.725  0.3986  2.1499 -0.3777
 5536SOL    HW228245   1.700   0.848  16.715  2.3985 -1.0652 -2.9238
 5537SOL     OW28246   1.094   2.087   2.395 -0.5589 -0.5189  0.1384
 5537SOL    HW128247   1.005   2.087   2.359 -1.1256 -0.9427  1.5407
 5537SOL    HW228248   1.096   2.155   2.462  0.3209  0.1359 -0.5610
 5538SOL     OW28249   1.423   4.576   2.108  0.2890  0.2702  0.4775
 5538SOL    HW128250   1.406   4.498   2.161  0.3293  1.0737  1.6605
 5538SOL    HW228251   1.450   4.544   2.022  0.5389 -0.6428  0.8966
 5539SOL     OW28252   0.416   1.996  11.948  0.4120  0.0139 -0.2084
 5539SOL    HW128253   0.453   1.974  12.034 -2.0398  2.3404  1.4134
 5539SOL    HW228254   0.459   1.939  11.884 -0.4808  0.0504 -0.8265
 5540SOL     OW28255   3.004   1.641   2.504  0.1466 -0.2577 -0.0722
 5540SOL    HW128256   2.949   1.719   2.506  1.9041  0.9330  1.5411
 5540SOL    HW228257   3.084   1.679   2.540  1.1632 -0.3644 -2.2475
 5541SOL     OW28258   0.145   2.365   0.531 -0.1171  0.6157  0.2725
 5541SOL    HW128259   0.228   2.366   0.579  1.7394  0.9856 -2.9548
 5541SOL    HW228260   0.172   2.366   0.439 -0.8702  0.3552  0.0500
 5542SOL     OW28261   2.382   0.162   6.000 -1.0007  0.4802  0.2187
 5542SOL    HW128262   2.296   0.203   5.990 -0.7410  0.5685 -1.8416
 5542SOL    HW228263   2.421   0.233   6.050  2.0066  0.2759 -1.8045
 5543SOL     OW28264   3.862   1.697   5.511 -0.1158 -0.0267  0.2659
 5543SOL    HW128265   3.918   1.640   5.563  1.2017 -0.0715 -1.2273
 5543SOL    HW228266   3.862   1.767   5.576 -0.4668  1.9255 -1.8544
 5544SOL     OW28267   3.197   2.828   3.057 -0.1076  0.4909 -0.1285
 5544SOL    HW128268   3.174   2.838   2.964 -0.4629 -0.5659 -0.1520
 5544SOL    HW228269   3.109   2.839   3.093 -0.9736 -1.5432 -1.6339
 5545SOL     OW28270   4.714   2.303  16.928 -0.4651  0.2789  0.3392
 5545SOL    HW128271   4.721   2.378  16.987  1.8288 -0.0536  0.4942
 5545SOL    HW228272   0.064   2.294  16.896 -0.0075  1.8228  1.1985
 5546SOL     OW28273   4.258   2.822  14.811  0.3540  0.0452 -0.9905
 5546SOL    HW128274   4.169   2.840  14.841  0.6054  1.5770 -1.1696
 5546SOL    HW228275   4.272   2.745  14.867 -1.4814 -0.4350 -1.1740
 5547SOL     OW28276   2.623   1.985   2.385 -0.0926  0.0987  0.1331
 5547SOL    HW128277   2.607   2.027   2.301  0.3166  0.1558  0.0848
 5547SOL    HW228278   2.715   1.963   2.376  0.5876  1.6006  3.6439
 5548SOL     OW28279   0.297   2.047   1.730  0.3116 -0.2181  0.1634
 5548SOL    HW128280   0.203   2.042   1.713  0.6687 -0.2023 -1.7625
 5548SOL    HW228281   0.287   2.035   1.825  2.6739  0.1267  0.4542
 5549SOL     OW28282   2.041   4.358   1.132  0.0459  0.1968  0.2291
 5549SOL    HW128283   1.965   4.391   1.181  0.8178  0.8686  0.9597
 5549SOL    HW228284   2.036   4.417   1.057 -1.6239  0.6588  0.6975
 5550SOL     OW28285   0.267   4.525   9.056 -0.1367  0.4150 -0.1827
 5550SOL    HW128286   0.183   4.570   9.053 -0.7306 -0.6588  0.1718
 5550SOL    HW228287   0.315   4.588   9.110  1.8656 -2.3003  1.2399
 5551SOL     OW28288   4.070   2.288  12.076  0.0719  0.2588 -0.5993
 5551SOL    HW128289   4.152   2.337  12.090  0.8628 -1.2794  0.1489
 5551SOL    HW228290   4.044   2.313  11.987 -0.5286 -1.3639 -0.8651
 5552SOL     OW28291   0.280   0.702  13.184 -0.0196 -0.3821  0.1787
 5552SOL    HW128292   0.292   0.608  13.168 -0.8775 -0.6301  0.9660
 5552SOL    HW228293   0.188   0.710  13.159  0.4008  0.9711 -0.9161
 5553SOL     OW28294   1.785   1.953   3.629 -0.3329  0.4294 -0.0893
 5553SOL    HW128295   1.716   1.902   3.671  0.8480 -0.7875  0.4031
 5553SOL    HW228296   1.732   2.023   3.591  0.8124  0.6600 -1.2695
 5554SOL     OW28297   2.837   1.761   6.522 -0.4735 -0.0090 -0.4620
 5554SOL    HW128298   2.818   1.837   6.579 -0.9778 -0.7803  0.4010
 5554SOL    HW228299   2.890   1.810   6.459 -0.5212 -0.0332 -0.5200
 5555SOL     OW28300   0.129   1.986   0.398  0.1908 -0.7551  0.1067
 5555SOL    HW128301   0.175   1.906   0.372  0.7157 -0.2221 -0.6295
 5555SOL    HW228302   0.172   2.043   0.334 -1.5730  1.1978  0.6579
 5556SOL     OW28303   1.518   2.830   2.171  0.8403 -0.4538  0.1542
 5556SOL    HW128304   1.474   2.833   2.086  2.5604  2.1318 -0.6468
 5556SOL    HW228305   1.510   2.923   2.195 -2.4199 -0.9456  0.9563
 5557SOL     OW28306   0.066   1.472   6.536  0.3378 -0.2861 -0.1055
 5557SOL    HW128307   0.038   1.383   6.516  3.4356 -1.1270 -0.6910
 5557SOL    HW228308   0.146   1.461   6.587  1.1924  0.0221 -1.3821
 5558SOL     OW28309   4.396   3.059  11.776  0.5482  0.4337  0.3901
 5558SOL    HW128310   4.477   3.032  11.732  0.7044  0.7201  0.5076
 5558SOL    HW228311   4.404   3.152  11.755  0.6537  0.4688  0.5837
 5559SOL     OW28312   3.093   1.459   7.458 -0.2648  0.2217 -0.5100
 5559SOL    HW128313   3.153   1.396   7.418 -1.1229 -0.4825 -0.6781
 5559SOL    HW228314   3.106   1.535   7.402 -1.1104  1.2739  0.7203
 5560SOL     OW28315   2.226   4.376   7.040 -0.2381 -0.0539 -0.4585
 5560SOL    HW128316   2.222   4.281   7.046  0.9695 -0.2656 -3.1053
 5560SOL    HW228317   2.193   4.387   6.951  0.5391  0.1361 -0.7205
 5561SOL     OW28318   4.565   0.500  10.072 -0.3728 -0.4616  0.5549
 5561SOL    HW128319   4.471   0.490  10.090 -0.9527  1.1008 -1.5661
 5561SOL    HW228320   4.597   0.412  10.094  0.9922 -0.5985 -1.9624
 5562SOL     OW28321   4.288   4.735   6.656  0.0717 -0.0080  0.3970
 5562SOL    HW128322   4.314   0.085   6.635 -2.2481  0.5699  0.0356
 5562SOL    HW228323   4.338   4.727   6.738  0.3793 -2.3999 -0.0173
 5563SOL     OW28324   1.596   3.215   5.348  0.0797 -0.1083 -0.6855
 5563SOL    HW128325   1.619   3.300   5.385  2.5234 -1.9841  2.0630
 5563SOL    HW228326   1.512   3.196   5.390  0.0019 -0.9311 -1.2257
 5564SOL     OW28327   3.031   4.270   9.123  0.0180  0.2797 -0.8178
 5564SOL    HW128328   3.025   4.195   9.063  1.2371 -0.7868  0.4091
 5564SOL    HW228329   3.111   4.312   9.092  0.7139  0.4797  1.2758
 5565SOL     OW28330   3.124   1.824   7.772  0.2366 -0.0550  0.6321
 5565SOL    HW128331   3.089   1.843   7.859  1.7468 -0.9057  1.4138
 5565SOL    HW228332   3.081   1.745   7.739 -1.7551  0.9371  0.8328
 5566SOL     OW28333   4.296   3.349   5.958  0.6609 -0.0505  0.3724
 5566SOL    HW128334   4.248   3.270   5.981 -0.2873  1.2483  2.8050
 5566SOL    HW228335   4.248   3.362   5.876 -0.5571 -1.8481  0.8071
 5567SOL     OW28336   0.744   1.299  10.459 -0.7323 -0.4543 -0.9429
 5567SOL    HW128337   0.693   1.230  10.417 -2.8774  0.0256  0.8302
 5567SOL    HW228338   0.822   1.315  10.406  0.2903  0.8839  0.9655
 5568SOL     OW28339   2.773   1.462   7.391 -0.5711  0.6907  0.0494
 5568SOL    HW128340   2.745   1.484   7.479 -0.8516 -2.6873  0.8038
 5568SOL    HW228341   2.863   1.435   7.409 -0.9440  0.1987  1.1621
 5569SOL     OW28342   1.280   3.517   4.267  0.5406 -0.5413  0.0877
 5569SOL    HW128343   1.340   3.455   4.308 -0.6246 -0.9622  1.1748
 5569SOL    HW228344   1.205   3.530   4.325 -0.2009 -0.5910 -0.8527
 5570SOL     OW28345   3.157   0.035   5.350 -0.3062  0.4224 -0.0019
 5570SOL    HW128346   3.219   0.070   5.413 -1.3410 -0.4374  1.5001
 5570SOL    HW228347   3.173   0.108   5.290  0.0133 -0.4745 -1.0114
 5571SOL     OW28348   0.025   3.603   7.240 -0.1581 -0.3631 -0.0988
 5571SOL    HW128349   0.035   3.658   7.317  1.1396 -1.1461  0.3021
 5571SOL    HW228350   4.680   3.569   7.266 -1.0120  0.9018 -1.2721
 5572SOL     OW28351   1.316   1.701   5.491  0.3422  0.2131 -0.3348
 5572SOL    HW128352   1.253   1.762   5.451 -0.2106 -0.8170 -1.0282
 5572SOL    HW228353   1.378   1.761   5.534 -0.1007 -1.8333  3.1349
 5573SOL     OW28354   2.728   1.978   5.131 -0.0097 -0.7939 -0.3923
 5573SOL    HW128355   2.650   2.031   5.146 -0.6556 -1.3627 -1.6608
 5573SOL    HW228356   2.800   2.038   5.113 -1.0782  0.3969 -0.6953
 5574SOL     OW28357   0.000   0.515  13.682 -0.5253 -0.2889  0.1851
 5574SOL    HW128358   4.659   0.518  13.732 -1.4315  2.4389 -1.4436
 5574SOL    HW228359   0.024   0.422  13.690  0.0656 -0.0853  0.7379
 5575SOL     OW28360   2.057   1.698   3.482 -0.3546  0.1121 -0.1409
 5575SOL    HW128361   2.058   1.678   3.576  1.7751  1.2359  0.0936
 5575SOL    HW228362   1.990   1.643   3.443 -0.1586  0.4741 -0.9832
 5576SOL     OW28363   2.917   4.710  10.121  0.4813  0.1773 -0.0153
 5576SOL    HW128364   2.825   4.697  10.143 -0.1795 -0.7597 -3.3388
 5576SOL    HW228365   2.919   4.661  10.039  0.8851 -1.2068  0.8220
 5577SOL     OW28366   4.069   4.512  15.512 -0.4584 -0.3301 -0.5336
 5577SOL    HW128367   4.066   4.428  15.464  2.2677 -0.7824  0.0823
 5577SOL    HW228368   4.003   4.559  15.461 -1.4574 -1.2182 -0.0576
 5578SOL     OW28369   0.250   3.519   4.298 -0.5789  0.2482  0.3757
 5578SOL    HW128370   0.197   3.598   4.283 -0.5159  0.1489 -0.3465
 5578SOL    HW228371   0.336   3.555   4.321 -0.0696  0.3419 -1.7080
 5579SOL     OW28372   1.500   1.142   4.728 -0.4452 -0.3143 -0.4575
 5579SOL    HW128373   1.483   1.172   4.818  1.6783  1.1476 -0.5509
 5579SOL    HW228374   1.425   1.082   4.722 -1.1433  0.4497  0.4483
 5580SOL     OW28375   4.663   1.611   2.834  0.0814  0.5275 -0.1099
 5580SOL    HW128376   4.614   1.559   2.771 -0.5405  1.3436 -0.3015
 5580SOL    HW228377   4.710   1.670   2.774  0.6817  0.7566  0.5917
 5581SOL     OW28378   0.377   0.049   5.693  0.5171 -0.0056 -0.5839
 5581SOL    HW128379   0.346   4.713   5.742 -1.7303  0.7187 -0.8884
 5581SOL    HW228380   0.389   0.009   5.606 -1.7310  1.2220 -1.4684
 5582SOL     OW28381   3.381   2.439   7.356  0.0043  0.1705 -0.0832
 5582SOL    HW128382   3.472   2.411   7.344  0.0507  0.2440  0.1018
 5582SOL    HW228383   3.393   2.526   7.395  1.4188 -0.0905  0.0776
 5583SOL     OW28384   4.043   2.147   5.048 -0.0408 -0.1200  0.2921
 5583SOL    HW128385   4.087   2.064   5.027  0.3244  0.3624 -0.8536
 5583SOL    HW228386   3.960   2.106   5.071  0.4237 -0.0026  2.1114
 5584SOL     OW28387   3.967   3.258  13.018 -0.0706  0.4166  0.4298
 5584SOL    HW128388   3.952   3.169  13.047  1.2644 -0.9557 -3.0587
 5584SOL    HW228389   3.960   3.310  13.098 -0.8874 -0.1500  0.7246
 5585SOL     OW28390   3.782   3.029   8.719  0.1483 -0.2578 -0.2428
 5585SOL    HW128391   3.735   2.969   8.776 -0.8427  0.4210 -0.3413
 5585SOL    HW228392   3.746   3.115   8.744 -2.1789 -1.3810  0.2423
 5586SOL     OW28393   2.387   0.775   3.604 -0.1129  0.0290 -0.0261
 5586SOL    HW128394   2.324   0.729   3.659  0.9503 -0.0484  1.1395
 5586SOL    HW228395   2.395   0.861   3.647 -0.4361  0.0922 -0.0881
 5587SOL     OW28396   2.797   0.793   8.522  0.4497  1.2743  0.4720
 5587SOL    HW128397   2.860   0.856   8.486  1.5490 -0.1510 -0.1013
 5587SOL    HW228398   2.736   0.779   8.449 -0.1999  0.1663  1.2294
 5588SOL     OW28399   3.779   1.855   4.878 -0.2780 -0.1723  0.3835
 5588SOL    HW128400   3.787   1.897   4.963  1.0668  0.5810 -0.1240
 5588SOL    HW228401   3.774   1.766   4.912  0.0245 -0.5298 -0.4905
 5589SOL     OW28402   3.968   1.184  10.795 -0.1373 -0.7464 -0.3332
 5589SOL    HW128403   3.970   1.113  10.858  1.3380  0.7026  1.2414
 5589SOL    HW228404   3.875   1.203  10.780 -0.0428  1.1809  1.6036
 5590SOL     OW28405   2.145   3.880   4.851 -0.5995 -0.3491 -0.4129
 5590SOL    HW128406   2.213   3.865   4.917 -2.0881 -1.3132  0.8889
 5590SOL    HW228407   2.145   3.975   4.841  1.5006 -0.2107  0.8800
 5591SOL     OW28408   1.053   4.340   8.306  0.0565  0.7596 -0.0224
 5591SOL    HW128409   1.038   4.267   8.365  0.6821  0.0202 -0.7873
 5591SOL    HW228410   0.988   4.310   8.243 -1.8533  1.3153  1.6863
 5592SOL     OW28411   4.132   2.299  15.536  0.3687 -0.1757  0.0979
 5592SOL    HW128412   4.140   2.215  15.582  2.7206  0.5450  1.0302
 5592SOL    HW228413   4.041   2.322  15.553  0.6956  0.7872  0.5637
 5593SOL     OW28414   1.946   2.848   4.302  0.5331 -0.0225  0.1557
 5593SOL    HW128415   2.001   2.793   4.246  2.2527  1.4292  0.4361
 5593SOL    HW228416   2.009   2.895   4.356  1.3091  1.8736 -2.3837
 5594SOL     OW28417   4.361   4.369   5.056  0.2033 -0.6007 -0.1926
 5594SOL    HW128418   4.353   4.417   4.974 -0.1461  2.1912  1.4564
 5594SOL    HW228419   4.391   4.441   5.112  0.0931 -1.3295  0.7990
 5595SOL     OW28420   4.587   0.040  13.400  0.6324 -0.3006  0.2330
 5595SOL    HW128421   4.652   0.006  13.460  1.0726  0.0688 -0.0286
 5595SOL    HW228422   4.514   4.720  13.416  0.8471 -0.7713 -0.5245
 5596SOL     OW28423   4.354   2.256   5.157  0.4161 -0.2740  0.2095
 5596SOL    HW128424   4.361   2.231   5.065  0.7972 -1.8368  0.6609
 5596SOL    HW228425   4.352   2.351   5.154  0.8026 -0.3245 -1.5646
 5597SOL     OW28426   1.091   4.216  11.086  0.3934  0.3530 -0.1379
 5597SOL    HW128427   1.072   4.262  11.168 -0.6069  0.1144 -0.2343
 5597SOL    HW228428   1.147   4.144  11.115 -0.9219 -1.3320 -1.7668
 5598SOL     OW28429   3.895   2.918   0.184  0.2710 -0.2270  0.3310
 5598SOL    HW128430   3.885   2.824   0.167  0.3189  0.3018 -2.6139
 5598SOL    HW228431   3.973   2.942   0.133 -0.8004 -2.0383 -2.1598
 5599SOL     OW28432   3.677   2.684   8.408  0.1581  0.1620  0.0168
 5599SOL    HW128433   3.753   2.725   8.368 -0.1082 -0.5305 -1.2151
 5599SOL    HW228434   3.674   2.600   8.361 -1.7948 -0.1008  0.6096
 5600SOL     OW28435   0.950   1.146   5.540  0.8928 -0.3786 -0.0314
 5600SOL    HW128436   0.976   1.220   5.485  0.3243 -0.3786 -0.3006
 5600SOL    HW228437   1.008   1.082   5.497  2.5825  0.6131  0.7886
 5601SOL     OW28438   2.657   0.637   8.331  0.0633  0.0575 -0.3756
 5601SOL    HW128439   2.648   0.567   8.267 -0.2095 -0.7933  0.5931
 5601SOL    HW228440   2.688   0.588   8.407  0.2838 -0.5895 -0.8866
 5602SOL     OW28441   1.766   2.481   4.548  0.4698  0.4510  0.1436
 5602SOL    HW128442   1.801   2.570   4.548  4.2084 -1.0011 -0.2394
 5602SOL    HW228443   1.762   2.465   4.642 -0.2148  1.2614  0.2457
 5603SOL     OW28444   1.239   3.552  11.492 -0.3925 -0.4445 -0.5662
 5603SOL    HW128445   1.203   3.639  11.478  1.6072  0.5576  0.4917
 5603SOL    HW228446   1.179   3.513  11.556 -0.1093  0.1677  0.0673
 5604SOL     OW28447   0.530   4.205   4.760  0.4706 -0.0243 -0.3844
 5604SOL    HW128448   0.510   4.250   4.842 -0.7714  2.0693 -1.8230
 5604SOL    HW228449   0.443   4.217   4.720 -0.0111  1.7549  1.1858
 5605SOL     OW28450   1.408   3.097   7.819  0.1746 -0.6351 -0.3192
 5605SOL    HW128451   1.344   3.075   7.752 -1.8338  2.8896  0.4508
 5605SOL    HW228452   1.436   3.008   7.841  0.0085 -0.2537  1.4542
 5606SOL     OW28453   4.067   3.698   3.833 -0.1493 -0.2117  0.5999
 5606SOL    HW128454   4.040   3.625   3.777  1.1949 -0.7619  0.6568
 5606SOL    HW228455   4.130   3.745   3.777  0.0265  0.1121  1.0670
 5607SOL     OW28456   3.278   0.518   5.206  0.6100  0.5848 -0.0670
 5607SOL    HW128457   3.247   0.609   5.207 -0.3756  0.2398  1.0065
 5607SOL    HW228458   3.373   0.529   5.207  0.3674  2.7722 -1.2737
 5608SOL     OW28459   2.761   1.223   3.930 -0.2924 -0.0291  1.1201
 5608SOL    HW128460   2.806   1.140   3.943  0.3054  0.3436  1.4092
 5608SOL    HW228461   2.816   1.280   3.983  1.2077  1.7491 -2.3007
 5609SOL     OW28462   1.989   3.611   8.709 -0.0509 -0.9511 -0.0866
 5609SOL    HW128463   1.991   3.516   8.704  0.5657 -1.0406  1.6799
 5609SOL    HW228464   1.898   3.618   8.680  0.1814 -2.1521 -1.1187
 5610SOL     OW28465   3.321   0.095  12.576 -0.5942  0.1505  0.3057
 5610SOL    HW128466   3.311   0.042  12.497 -2.3811  1.8585 -0.6060
 5610SOL    HW228467   3.359   0.171  12.533 -0.6787 -0.4602 -0.8405
 5611SOL     OW28468   0.610   2.402   4.131 -0.3646  0.0247 -0.0674
 5611SOL    HW128469   0.690   2.358   4.102  0.0825  0.6542  0.2321
 5611SOL    HW228470   0.602   2.366   4.220 -0.8188 -0.7601 -0.4253
 5612SOL     OW28471   4.235   0.618  17.332  0.2705  0.7724  0.0184
 5612SOL    HW128472   4.148   0.616  17.372 -1.0037 -0.1408 -2.8542
 5612SOL    HW228473   4.244   0.524  17.319 -0.5254  0.8188 -0.8477
 5613SOL     OW28474   2.105   0.523  16.069 -0.3859  0.3701 -0.4441
 5613SOL    HW128475   2.164   0.594  16.041 -0.5051  1.4663  2.0743
 5613SOL    HW228476   2.154   0.445  16.046  0.4008  1.0016 -0.9223
 5614SOL     OW28477   3.130   1.301   5.945  0.6289  0.8001  0.3306
 5614SOL    HW128478   3.161   1.265   5.862 -1.1568  2.5733 -1.1064
 5614SOL    HW228479   3.038   1.272   5.949  0.9877 -0.2469  0.8700
 5615SOL     OW28480   2.374   1.325  11.499 -0.4363  0.3604 -0.2827
 5615SOL    HW128481   2.285   1.325  11.535 -1.7652 -0.7839 -3.5622
 5615SOL    HW228482   2.383   1.237  11.464 -1.7329 -0.2647  0.9436
 5616SOL     OW28483   0.258   0.443  13.461  0.0535 -0.3929 -0.5911
 5616SOL    HW128484   0.182   0.438  13.404 -1.6533 -1.3680  1.7456
 5616SOL    HW228485   0.238   0.523  13.510  3.2262  0.3691 -0.5029
 5617SOL     OW28486   1.446   3.810  11.551 -0.6861  0.1267  0.2019
 5617SOL    HW128487   1.444   3.787  11.459 -1.6086 -0.3983  0.3525
 5617SOL    HW228488   1.464   3.726  11.593  0.9829  0.1622 -0.4691
 5618SOL     OW28489   2.794   2.053  12.344  0.3121 -0.1817  0.3612
 5618SOL    HW128490   2.772   2.061  12.251  2.1097  0.2543 -0.0188
 5618SOL    HW228491   2.711   2.016  12.374  1.0280 -0.7278  1.6422
 5619SOL     OW28492   2.419   0.752   5.277 -0.6348  0.4485 -0.3873
 5619SOL    HW128493   2.446   0.842   5.257 -1.4836  1.0400  1.1492
 5619SOL    HW228494   2.325   0.765   5.277 -0.7849 -0.7227  1.4496
 5620SOL     OW28495   0.735   0.490   2.891 -0.0138 -0.9743  0.2924
 5620SOL    HW128496   0.642   0.467   2.882 -0.1270 -0.5620  0.3897
 5620SOL    HW228497   0.733   0.539   2.808  1.0092  0.4523  1.1138
 5621SOL     OW28498   1.471   3.520   2.033  0.4694  0.1108 -0.7896
 5621SOL    HW128499   1.484   3.474   1.950  1.1016 -0.8410 -0.1612
 5621SOL    HW228500   1.556   3.516   2.077  0.8280  1.4034 -1.3591
 5622SOL     OW28501   1.041   0.072  11.838  0.5063  0.3379  0.0600
 5622SOL    HW128502   0.983   0.013  11.886  0.9590 -0.1432  0.0206
 5622SOL    HW228503   0.968   0.098  11.782  0.7898 -0.2668 -0.5872
 5623SOL     OW28504   3.759   1.240   7.023 -0.2004  0.7948 -0.0450
 5623SOL    HW128505   3.819   1.268   6.954  0.1661  1.4110  0.5203
 5623SOL    HW228506   3.800   1.261   7.107  1.0680  0.6673 -0.6265
 5624SOL     OW28507   2.678   0.515   1.068  0.2545  0.4831 -0.3081
 5624SOL    HW128508   2.665   0.610   1.070 -2.6276  0.1049 -2.0081
 5624SOL    HW228509   2.747   0.521   1.135 -0.6587 -2.0233  0.8300
 5625SOL     OW28510   0.181   2.231   8.376  0.0073 -0.3224  0.0381
 5625SOL    HW128511   0.174   2.288   8.299 -0.5361 -1.0836 -0.4736
 5625SOL    HW228512   0.245   2.278   8.431 -1.0667  1.7256 -0.4530
 5626SOL     OW28513   1.180   2.716   4.099 -0.0639  0.4290 -0.4181
 5626SOL    HW128514   1.156   2.773   4.171  0.7467  0.4386 -0.1562
 5626SOL    HW228515   1.117   2.735   4.029 -0.6170 -0.0821 -0.0570
 5627SOL     OW28516   4.304   2.686   9.759  0.2871  0.1803  0.2838
 5627SOL    HW128517   4.247   2.613   9.736 -0.3184  1.3334 -1.8766
 5627SOL    HW228518   4.385   2.640   9.782  0.2035 -1.0616 -1.9357
 5628SOL     OW28519   2.062   2.942   3.031  0.3213 -0.1622 -0.0515
 5628SOL    HW128520   2.082   2.871   3.092  2.6125  0.8381  0.3700
 5628SOL    HW228521   1.968   2.955   3.038 -0.0939 -3.2293  0.1947
 5629SOL     OW28522   0.952   2.267   5.906  0.6505 -0.1145  0.4572
 5629SOL    HW128523   0.984   2.251   5.817 -2.2531 -2.5372 -0.1292
 5629SOL    HW228524   0.911   2.184   5.929 -1.4771  0.1343 -2.3964
 5630SOL     OW28525   3.051   2.870   2.807  0.3119 -0.2337  0.2064
 5630SOL    HW128526   3.096   2.944   2.766 -1.7686  0.7018 -0.3695
 5630SOL    HW228527   2.977   2.849   2.749  0.5104 -2.0164  0.6233
 5631SOL     OW28528   3.186   3.259   6.370  0.2682  0.6037 -0.3223
 5631SOL    HW128529   3.108   3.272   6.425 -0.6248 -0.4515 -1.3205
 5631SOL    HW228530   3.227   3.345   6.371  1.3058  0.0931  0.9208
 5632SOL     OW28531   0.149   4.463   9.543  0.1005  0.2137  0.5743
 5632SOL    HW128532   0.164   4.423   9.457  2.2379  2.2551 -0.0021
 5632SOL    HW228533   0.082   4.525   9.515  0.1209  1.1245  2.5477
 5633SOL     OW28534   3.575   2.192   7.199 -0.4141 -0.1216 -0.0383
 5633SOL    HW128535   3.620   2.277   7.198  0.7574 -0.7543 -1.4976
 5633SOL    HW228536   3.643   2.147   7.249 -0.7135  0.2528  0.7037
 5634SOL     OW28537   0.507   0.979  15.993  0.6028 -0.0380 -0.4395
 5634SOL    HW128538   0.530   0.963  15.901  1.3575  0.9522 -0.4233
 5634SOL    HW228539   0.413   0.959  15.990  0.9290 -1.8025  1.1455
 5635SOL     OW28540   2.892   1.337   4.863 -0.0688  0.2893  0.0952
 5635SOL    HW128541   2.976   1.373   4.834 -0.1595  0.8614  0.5464
 5635SOL    HW228542   2.899   1.258   4.810 -0.6379  0.5367 -0.3433
 5636SOL     OW28543   0.423   1.099   6.395  0.4729  0.2721 -0.2962
 5636SOL    HW128544   0.389   1.129   6.480  1.8191 -0.1901  0.4079
 5636SOL    HW228545   0.446   1.008   6.414  1.5854  0.8207  0.9399
 5637SOL     OW28546   2.173   2.925   4.438  0.0133 -0.5329  0.4070
 5637SOL    HW128547   2.242   2.916   4.372  1.2419  0.7897  1.5130
 5637SOL    HW228548   2.217   2.874   4.507 -0.7165  0.0344  1.2908
 5638SOL     OW28549   2.647   4.090  14.270  0.1341 -0.3502 -0.1021
 5638SOL    HW128550   2.640   4.163  14.209  2.0085 -0.3531 -0.3167
 5638SOL    HW228551   2.616   4.117  14.357  1.9300  0.5899  0.2254
 5639SOL     OW28552   2.610   1.421  16.527  0.2245 -0.1590 -0.0492
 5639SOL    HW128553   2.529   1.418  16.578  0.0649 -0.4818 -0.3257
 5639SOL    HW228554   2.659   1.492  16.569 -1.8556  1.2383  0.0336
 5640SOL     OW28555   2.395   2.845   2.501 -0.4605 -0.1239  0.0598
 5640SOL    HW128556   2.441   2.927   2.518  1.1965 -0.6545 -1.8680
 5640SOL    HW228557   2.308   2.886   2.500 -1.2317 -1.7762 -2.8465
 5641SOL     OW28558   4.200   0.176  15.014  0.3043 -0.3906  0.4176
 5641SOL    HW128559   4.216   0.113  14.944 -1.0199 -1.0131  0.6719
 5641SOL    HW228560   4.106   0.190  15.005  0.5701  0.7209 -0.5211
 5642SOL     OW28561   4.466   3.336  13.023  0.1723 -0.3477 -0.3625
 5642SOL    HW128562   4.553   3.347  13.061 -1.2907  2.0757  2.2738
 5642SOL    HW228563   4.472   3.363  12.931 -0.0028 -1.4776 -0.7106
 5643SOL     OW28564   2.198   4.552   9.725  0.6165  0.2139 -0.0187
 5643SOL    HW128565   2.176   4.632   9.773 -0.6744 -0.6659  0.8197
 5643SOL    HW228566   2.163   4.481   9.779  1.0220  1.3785  1.7834
 5644SOL     OW28567   3.001   0.371   2.031 -0.0710 -0.2226  0.3052
 5644SOL    HW128568   2.995   0.387   1.936  0.9871 -4.0367 -0.4194
 5644SOL    HW228569   3.077   0.423   2.056 -0.9406  0.9816  0.4146
 5645SOL     OW28570   1.024   0.938   9.543 -0.0312 -0.2481 -0.0195
 5645SOL    HW128571   0.966   0.962   9.616 -1.2088 -0.7772 -0.7756
 5645SOL    HW228572   1.096   0.997   9.566  1.4833 -1.6310 -1.2708
 5646SOL     OW28573   2.372   0.445   5.386 -0.2984  0.2374 -0.4170
 5646SOL    HW128574   2.370   0.541   5.395 -2.8748  0.2432 -0.9833
 5646SOL    HW228575   2.435   0.418   5.320  0.5699  1.3793 -0.0589
 5647SOL     OW28576   2.882   3.821   8.377 -0.1625 -0.5023 -0.3948
 5647SOL    HW128577   2.914   3.770   8.452  0.8160  1.0748  0.2610
 5647SOL    HW228578   2.952   3.885   8.362 -0.4904 -0.5622 -2.1173
 5648SOL     OW28579   0.324   3.298   7.317  0.0542  0.1664 -0.3037
 5648SOL    HW128580   0.368   3.213   7.317 -0.8105 -0.2866  0.0574
 5648SOL    HW228581   0.276   3.296   7.234 -0.6804  1.6124  0.0876
 5649SOL     OW28582   1.684   3.549   4.889 -0.2123 -0.2950 -0.1331
 5649SOL    HW128583   1.726   3.584   4.968  1.5321 -1.0884 -0.7052
 5649SOL    HW228584   1.596   3.522   4.916 -0.5662  1.0342  0.0389
 5650SOL     OW28585   2.970   1.395   7.963 -0.2998 -0.4496  0.4445
 5650SOL    HW128586   3.018   1.352   7.892 -0.3004 -0.1511  0.2640
 5650SOL    HW228587   3.029   1.463   7.997  0.9730 -1.5607  0.4704
 5651SOL     OW28588   3.551   3.358   4.586 -0.0184 -0.5964 -0.1547
 5651SOL    HW128589   3.560   3.442   4.540  0.1207  0.3779  1.6437
 5651SOL    HW228590   3.461   3.343   4.559  0.8032  0.3445 -3.4764
 5652SOL     OW28591   1.064   3.953   8.638 -0.3602 -0.2983  0.3209
 5652SOL    HW128592   1.135   3.980   8.696  1.5466 -0.4684 -1.9268
 5652SOL    HW228593   1.090   3.867   8.605 -0.2404  0.3545 -1.2864
 5653SOL     OW28594   2.008   3.202   5.379 -0.0770 -0.3059  0.0175
 5653SOL    HW128595   1.960   3.143   5.437 -0.1531 -0.3501 -0.0887
 5653SOL    HW228596   2.099   3.190   5.404 -1.0203 -0.4648  3.4143
 5654SOL     OW28597   1.215   3.703   7.210  0.1921  0.0401  0.0301
 5654SOL    HW128598   1.143   3.765   7.222  1.8505  1.7971  0.9341
 5654SOL    HW228599   1.200   3.644   7.284 -0.5875  0.5643  0.2943
 5655SOL     OW28600   1.519   4.177  15.219 -0.2245 -0.4820 -0.1672
 5655SOL    HW128601   1.507   4.248  15.157 -2.2288 -1.5112 -0.9728
 5655SOL    HW228602   1.501   4.232  15.296 -1.1980 -1.4443  0.3035
 5656SOL     OW28603   4.698   4.273  14.950 -0.2403 -0.1767  0.3491
 5656SOL    HW128604   0.033   4.235  14.905 -0.2758 -1.6518  1.5136
 5656SOL    HW228605   4.665   4.327  14.879 -1.5554 -0.5436  0.6803
 5657SOL     OW28606   0.792   0.466  12.954  0.0962  0.1961  0.1298
 5657SOL    HW128607   0.841   0.536  12.910 -0.7401 -0.7712 -2.2955
 5657SOL    HW228608   0.774   0.399  12.888  0.6704 -2.1683  2.3850
 5658SOL     OW28609   2.946   1.671   3.195 -0.4187  0.6871 -0.4033
 5658SOL    HW128610   2.874   1.660   3.134 -0.7926  0.0135  0.1511
 5658SOL    HW228611   2.903   1.693   3.278  2.1593 -0.7077  1.3126
 5659SOL     OW28612   4.569   3.817   3.420  0.4477  0.4373 -0.5163
 5659SOL    HW128613   4.661   3.824   3.448  0.0003  1.4764  0.6586
 5659SOL    HW228614   4.586   3.808   3.326  0.3255  1.2860 -0.6148
 5660SOL     OW28615   3.440   1.663   4.351  0.6139 -0.0943  0.5380
 5660SOL    HW128616   3.345   1.648   4.345  0.9526 -1.7059 -0.7569
 5660SOL    HW228617   3.470   1.590   4.296 -0.4852  1.3085 -1.9449
 5661SOL     OW28618   0.987   3.352   6.838  1.0865  0.0782  0.7124
 5661SOL    HW128619   0.907   3.357   6.785  1.0078 -1.9103  0.6654
 5661SOL    HW228620   1.058   3.359   6.775  0.7123  0.6561  0.3509
 5662SOL     OW28621   1.841   2.370   5.404  0.7284 -0.0634 -0.3092
 5662SOL    HW128622   1.913   2.422   5.368  2.1785 -2.3559 -0.7294
 5662SOL    HW228623   1.881   2.310   5.467 -0.1344 -1.3227 -0.9673
 5663SOL     OW28624   4.618   3.224  17.720 -0.5475 -0.3761  0.0266
 5663SOL    HW128625   4.708   3.192  17.717 -0.7278 -1.2231  3.2550
 5663SOL    HW228626   4.633   3.314  17.749 -0.3177 -0.6972  0.9235
 5664SOL     OW28627   1.840   0.595   9.540  0.8500  0.3778 -0.0169
 5664SOL    HW128628   1.849   0.689   9.525  4.5092 -0.5329 -3.4902
 5664SOL    HW228629   1.844   0.602   9.636 -1.6301 -1.7342  0.2405
 5665SOL     OW28630   3.198   2.598   8.787 -0.3552  0.0455  0.3450
 5665SOL    HW128631   3.119   2.546   8.772 -0.1822  0.5370 -2.2027
 5665SOL    HW228632   3.240   2.590   8.702  1.6360  1.6599  1.1819
 5666SOL     OW28633   4.034   2.913   8.436  0.3482 -0.1682  0.3569
 5666SOL    HW128634   4.040   2.818   8.427  0.2301 -0.2606  1.2187
 5666SOL    HW228635   4.059   2.921   8.528  1.2657 -1.1276  0.1864
 5667SOL     OW28636   0.595   2.522  16.290  0.4310 -0.0348  0.4265
 5667SOL    HW128637   0.653   2.491  16.360  0.8062  0.3816  0.3028
 5667SOL    HW228638   0.647   2.596  16.257  1.9567 -1.4584 -0.3958
 5668SOL     OW28639   2.144   2.307   2.009  0.2806  0.2389 -0.3678
 5668SOL    HW128640   2.233   2.318   2.043  0.6648  1.9365 -1.9598
 5668SOL    HW228641   2.127   2.399   1.992 -2.6866  0.0123  1.3291
 5669SOL     OW28642   1.583   2.912   4.930  0.4616  0.0633 -0.1485
 5669SOL    HW128643   1.525   2.912   5.007 -0.2841 -0.5350 -0.7175
 5669SOL    HW228644   1.621   2.826   4.945 -1.4468 -1.0581 -1.7883
 5670SOL     OW28645   2.119   1.946   5.762  0.3142 -0.4268  0.5036
 5670SOL    HW128646   2.101   1.856   5.786 -0.4306 -0.3660  0.1832
 5670SOL    HW228647   2.101   1.985   5.847  1.5032  3.2453 -0.9102
 5671SOL     OW28648   1.796   4.008  11.531  0.3883 -0.3320  0.7370
 5671SOL    HW128649   1.733   4.029  11.601  0.0124  0.3401  0.1925
 5671SOL    HW228650   1.779   3.916  11.513 -1.6503  0.4633 -1.4641
 5672SOL     OW28651   3.708   2.098   7.695  0.2111 -0.0253  0.0814
 5672SOL    HW128652   3.651   2.027   7.723 -1.2311  0.4794 -1.5831
 5672SOL    HW228653   3.791   2.052   7.678  0.0154 -0.5099  0.4534
 5673SOL     OW28654   2.504   0.007   0.329 -0.8339  0.2325  0.0386
 5673SOL    HW128655   2.586   4.698   0.338  0.0401  1.6311 -0.1588
 5673SOL    HW228656   2.522   0.060   0.252 -1.4631  1.2059  0.5514
 5674SOL     OW28657   0.534   4.391  15.419 -0.0382 -0.4204  0.2846
 5674SOL    HW128658   0.486   4.348  15.348  2.0177 -0.6334 -0.9929
 5674SOL    HW228659   0.622   4.371  15.387  0.2636  0.8467  0.3076
 5675SOL     OW28660   0.845   1.889   0.531  0.1873  0.1185  0.1463
 5675SOL    HW128661   0.841   1.860   0.622  2.0792  0.4880  0.3545
 5675SOL    HW228662   0.909   1.826   0.497 -0.2305  1.1955 -2.5876
 5676SOL     OW28663   1.850   3.312  15.667 -0.0280  0.3417  0.3755
 5676SOL    HW128664   1.771   3.259  15.661 -0.8406  1.4100  1.5208
 5676SOL    HW228665   1.816   3.388  15.714 -1.4015 -0.9329  1.4223
 5677SOL     OW28666   4.259   2.811   6.102 -0.2915  0.1544  0.4391
 5677SOL    HW128667   4.192   2.815   6.170  0.2652 -0.4057  1.0224
 5677SOL    HW228668   4.225   2.737   6.052 -0.8847  1.5165 -1.1530
 5678SOL     OW28669   2.071   4.214  12.161 -0.2371 -0.0194  0.3264
 5678SOL    HW128670   2.060   4.179  12.073 -0.8050  0.6702  0.1229
 5678SOL    HW228671   2.142   4.151  12.173 -0.0893 -0.2630 -1.9012
 5679SOL     OW28672   3.521   2.917   9.505  0.1124 -0.3689 -0.4643
 5679SOL    HW128673   3.509   2.985   9.572  0.2092  0.8123 -1.6435
 5679SOL    HW228674   3.489   2.836   9.545  1.0357 -0.0486  0.9090
 5680SOL     OW28675   3.187   3.376  17.646  0.2068 -0.0497 -0.3677
 5680SOL    HW128676   3.248   3.347  17.579  1.2950 -0.3144  0.7289
 5680SOL    HW228677   3.225   3.447  17.698  2.2873 -0.5434 -1.2136
 5681SOL     OW28678   0.030   3.760   6.237 -0.1019 -0.0660 -0.3226
 5681SOL    HW128679   0.058   3.728   6.151  1.9879 -0.1532  0.4049
 5681SOL    HW228680   0.104   3.816   6.261  1.1137 -1.2970 -1.1497
 5682SOL     OW28681   1.779   0.174   1.756 -0.1487 -0.0453 -0.2569
 5682SOL    HW128682   1.819   0.242   1.810  0.3958  0.0969 -0.8335
 5682SOL    HW228683   1.685   0.189   1.762  0.5877  2.9087  3.1689
 5683SOL     OW28684   1.787   2.085   4.638 -0.5387  0.1356  0.3548
 5683SOL    HW128685   1.756   2.108   4.726 -1.2047  0.4251  0.0413
 5683SOL    HW228686   1.707   2.055   4.595 -0.0646 -0.1096 -0.3507
 5684SOL     OW28687   1.983   0.566   0.454 -0.3252 -0.0971  0.3407
 5684SOL    HW128688   2.014   0.522   0.533 -0.3427 -1.4169 -0.3822
 5684SOL    HW228689   1.888   0.562   0.453 -0.3343  0.4991 -1.4231
 5685SOL     OW28690   2.725   4.551   2.043  0.2972  0.2884 -0.3317
 5685SOL    HW128691   2.723   4.458   2.067 -1.0366  1.0049  2.3009
 5685SOL    HW228692   2.811   4.574   2.009  0.9673 -0.3312  0.9431
 5686SOL     OW28693   0.942   1.818   8.184 -0.5626  0.4672  0.1935
 5686SOL    HW128694   1.024   1.783   8.150 -1.0250 -0.6279  0.2019
 5686SOL    HW228695   0.884   1.742   8.176 -1.3523  1.1490 -0.6664
 5687SOL     OW28696   1.704   3.150   4.827 -0.4058 -0.0205  0.5680
 5687SOL    HW128697   1.677   3.064   4.859  1.1598  0.1313  2.2661
 5687SOL    HW228698   1.700   3.199   4.909 -1.4187  0.0474  0.4740
 5688SOL     OW28699   2.089   3.638   2.635  0.0522 -0.4092 -0.2867
 5688SOL    HW128700   2.150   3.642   2.561 -0.2396 -1.7316 -0.5900
 5688SOL    HW228701   2.039   3.720   2.632 -0.2208 -0.5883 -0.6571
 5689SOL     OW28702   2.939   4.449   2.873 -0.4692 -0.2612  0.3198
 5689SOL    HW128703   3.007   4.497   2.920 -0.5548  0.4918 -0.3270
 5689SOL    HW228704   2.931   4.495   2.789  3.7791  1.5025  0.9029
 5690SOL     OW28705   4.118   1.013   5.857  0.3657  0.0243 -0.1282
 5690SOL    HW128706   4.170   1.019   5.776  0.1663 -2.2569 -0.4150
 5690SOL    HW228707   4.063   1.090   5.840  1.3093  0.5705 -0.7430
 5691SOL     OW28708   3.073   2.674   4.789 -0.4580 -0.3582  0.0708
 5691SOL    HW128709   3.133   2.604   4.813 -1.3675 -0.1826  2.8432
 5691SOL    HW228710   3.014   2.644   4.720 -1.1782  1.2871 -0.0305
 5692SOL     OW28711   1.591   0.670   9.052  0.1008  0.1950 -0.5063
 5692SOL    HW128712   1.643   0.590   9.056 -1.0878 -0.4232  2.3189
 5692SOL    HW228713   1.636   0.714   8.979  1.3996 -0.3153 -0.0147
 5693SOL     OW28714   2.854   3.072   8.866  0.5578 -0.3916 -0.4403
 5693SOL    HW128715   2.937   3.080   8.818  0.0006 -1.0539 -1.5161
 5693SOL    HW228716   2.819   2.996   8.821 -1.0223 -0.8178  1.5331
 5694SOL     OW28717   2.542   4.365   7.390  0.5226  0.1040  0.2456
 5694SOL    HW128718   2.542   4.297   7.322  1.2266  0.5365 -0.1761
 5694SOL    HW228719   2.500   4.312   7.458  1.1509  0.3122  0.7978
 5695SOL     OW28720   2.072   2.583   2.075  0.6959 -0.1584  0.1737
 5695SOL    HW128721   2.158   2.619   2.052  0.7722  0.0469  0.7883
 5695SOL    HW228722   2.078   2.566   2.169  2.3958  4.6524  0.9168
 5696SOL     OW28723   1.791   3.165   8.638 -0.3633  0.0031 -0.1314
 5696SOL    HW128724   1.731   3.090   8.633  0.3507 -0.5640 -0.2158
 5696SOL    HW228725   1.780   3.214   8.556  1.3261  0.2330 -0.2288
 5697SOL     OW28726   2.857   2.635  13.906  0.4469  0.1513 -0.2027
 5697SOL    HW128727   2.950   2.638  13.885  0.5288 -1.7453 -0.0880
 5697SOL    HW228728   2.862   2.559  13.964  0.5498 -1.0405 -1.7838
 5698SOL     OW28729   1.785   2.805   7.990  0.2658  0.5951 -0.1308
 5698SOL    HW128730   1.875   2.828   7.968  0.4896 -0.0922  0.0633
 5698SOL    HW228731   1.750   2.888   8.024 -0.4000 -0.2763  1.3435
 5699SOL     OW28732   2.096   0.125   6.143  0.1546 -0.4324  0.6003
 5699SOL    HW128733   2.093   0.032   6.118 -0.3634 -0.4239  0.6248
 5699SOL    HW228734   2.175   0.127   6.197  0.4942  0.6630  0.0627
 5700SOL     OW28735   3.673   2.360   6.190 -0.3812  0.0606 -0.5022
 5700SOL    HW128736   3.746   2.301   6.208 -2.4398 -2.5807 -0.7080
 5700SOL    HW228737   3.609   2.298   6.155  1.1454 -1.2950 -0.8768
 5701SOL     OW28738   4.612   0.246   3.292  0.3591 -0.1422  0.3062
 5701SOL    HW128739   4.618   0.183   3.363 -1.5608 -2.3206 -1.4812
 5701SOL    HW228740   4.693   0.228   3.244  0.7819 -0.2512  1.0608
 5702SOL     OW28741   2.902   0.962   8.317  0.0855  0.8251 -0.4101
 5702SOL    HW128742   2.838   1.032   8.325 -1.5145 -0.6117 -0.5322
 5702SOL    HW228743   2.922   0.943   8.226  1.7132  3.1131 -0.5187
 5703SOL     OW28744   1.363   0.666   3.225 -0.1926  0.3290  0.0819
 5703SOL    HW128745   1.419   0.640   3.152  1.1795  1.6155  0.6876
 5703SOL    HW228746   1.318   0.733   3.174  1.6010 -0.5498 -2.6751
 5704SOL     OW28747   1.865   4.262   2.237 -0.0603 -0.0731  0.5997
 5704SOL    HW128748   1.822   4.345   2.256  0.2795 -0.3892  2.7554
 5704SOL    HW228749   1.955   4.281   2.265  0.1634  2.2471 -1.8168
 5705SOL     OW28750   4.638   0.790   8.056 -0.1983 -0.3734  0.2039
 5705SOL    HW128751   4.681   0.861   8.105 -0.3455  0.1122 -0.3703
 5705SOL    HW228752   4.701   0.723   8.083 -1.1554 -0.2586  2.6858
 5706SOL     OW28753   2.319   2.329  15.467  0.2185  0.0428 -0.8894
 5706SOL    HW128754   2.243   2.382  15.442 -0.1003  0.6491  1.3508
 5706SOL    HW228755   2.279   2.248  15.499 -1.0755  1.5408  1.3519
 5707SOL     OW28756   4.723   3.389   5.712  0.4775 -0.1331 -0.7786
 5707SOL    HW128757   0.005   3.300   5.742  0.8392 -0.1993 -1.2549
 5707SOL    HW228758   0.031   3.438   5.779  0.3982 -2.1486  0.7892
 5708SOL     OW28759   0.112   2.817   6.890 -0.5945  0.0079 -0.1696
 5708SOL    HW128760   0.069   2.785   6.969  0.5706 -0.5748  0.2274
 5708SOL    HW228761   0.083   2.908   6.892 -0.3585  0.0731  0.5176
 5709SOL     OW28762   0.407   0.428   4.022  0.1579 -0.2863  0.5099
 5709SOL    HW128763   0.391   0.448   3.929  3.3130 -2.2801 -0.4818
 5709SOL    HW228764   0.352   0.350   4.033  0.1265 -0.1573  1.2113
 5710SOL     OW28765   2.956   0.256  16.416  0.3064 -0.7879  0.2257
 5710SOL    HW128766   2.897   0.181  16.409  1.0369 -1.2445 -0.9972
 5710SOL    HW228767   3.008   0.243  16.337 -0.4246 -1.7995 -0.0873
 5711SOL     OW28768   0.658   3.666   4.013  0.5180  0.6977 -0.3047
 5711SOL    HW128769   0.591   3.638   3.950 -1.7660  2.9026  1.1282
 5711SOL    HW228770   0.650   3.761   3.998 -0.0312  1.1566  2.9300
 5712SOL     OW28771   4.447   1.646   2.366 -0.0814 -0.0722  0.2537
 5712SOL    HW128772   4.460   1.552   2.383  1.6953  0.1072 -0.0853
 5712SOL    HW228773   4.352   1.651   2.367 -0.0024  0.9934  1.7520
 5713SOL     OW28774   4.228   0.808   3.121  0.2289  0.2404  0.1142
 5713SOL    HW128775   4.305   0.788   3.067  0.6722 -0.7504  1.1017
 5713SOL    HW228776   4.165   0.818   3.050 -0.2053 -1.6224  0.2351
 5714SOL     OW28777   2.136   3.675   8.328  0.3391 -0.3441  0.8275
 5714SOL    HW128778   2.122   3.620   8.251 -0.5722 -0.3414  0.9878
 5714SOL    HW228779   2.169   3.605   8.386 -1.0264 -1.9497 -0.3272
 5715SOL     OW28780   0.476   0.462  17.401  0.1437 -0.0565  0.2448
 5715SOL    HW128781   0.545   0.430  17.343  2.1511  3.6498  0.5552
 5715SOL    HW228782   0.452   0.532  17.340 -1.9180  0.5886  1.7946
 5716SOL     OW28783   3.091   3.844  10.564  0.1831 -0.2948 -0.2429
 5716SOL    HW128784   3.005   3.803  10.557 -0.0217  0.0614  0.2169
 5716SOL    HW228785   3.065   3.926  10.606 -2.5328 -1.1111 -0.3148
 5717SOL     OW28786   2.106   4.135   7.036 -0.5068  0.2686 -0.2364
 5717SOL    HW128787   2.057   4.115   6.956 -2.1062  0.8551  0.6023
 5717SOL    HW228788   2.184   4.082   7.019 -0.1480  0.3430  1.2356
 5718SOL     OW28789   4.544   3.809   2.747 -0.7975 -0.0985 -0.0624
 5718SOL    HW128790   4.456   3.786   2.776  0.2329 -4.7868 -0.7517
 5718SOL    HW228791   4.546   3.902   2.769 -0.2559  0.1508 -1.1533
 5719SOL     OW28792   1.175   2.482   5.855  0.0215 -0.5215 -0.1373
 5719SOL    HW128793   1.106   2.417   5.850  2.0052 -2.6825  0.6426
 5719SOL    HW228794   1.167   2.541   5.779  1.1785  0.5457  0.5585
 5720SOL     OW28795   0.245   0.909  15.896  0.3914  0.0073  1.1870
 5720SOL    HW128796   0.175   0.918  15.832  0.5879  3.6754  1.4689
 5720SOL    HW228797   0.246   0.998  15.933  2.5898  0.5791 -0.2041
 5721SOL     OW28798   3.901   4.560   0.407 -0.1861 -0.6006  0.5382
 5721SOL    HW128799   3.930   4.617   0.477 -0.1425  0.0182  0.0179
 5721SOL    HW228800   3.809   4.546   0.430 -0.6474  2.1052  0.2891
 5722SOL     OW28801   1.784   1.112   6.305 -0.3198 -0.3313  1.0242
 5722SOL    HW128802   1.782   1.096   6.400  0.8524  0.2247  1.1421
 5722SOL    HW228803   1.742   1.198   6.302 -0.0586 -0.3739 -3.4241
 5723SOL     OW28804   3.506   4.685   0.375  0.6831 -0.5482 -0.1830
 5723SOL    HW128805   3.456   0.026   0.390 -0.2893 -1.5115  1.9038
 5723SOL    HW228806   3.509   4.675   0.280  0.0574  0.5445 -0.3242
 5724SOL     OW28807   2.415   3.612   3.938  0.5341 -0.6307 -0.6996
 5724SOL    HW128808   2.479   3.620   3.867  0.2201 -1.5188 -1.0844
 5724SOL    HW228809   2.435   3.692   3.985  1.8214 -1.1445 -0.3889
 5725SOL     OW28810   3.737   2.114   4.752  0.3129  0.0240 -0.0372
 5725SOL    HW128811   3.767   2.099   4.663 -0.4790  1.0707 -0.4813
 5725SOL    HW228812   3.779   2.041   4.798 -0.1156  0.0072  0.3300
 5726SOL     OW28813   2.599   0.167   0.135 -0.1421  0.0303 -0.1409
 5726SOL    HW128814   2.576   0.253   0.099  1.1099  0.1373 -0.6916
 5726SOL    HW228815   2.569   0.113   0.061 -0.9484  0.5738 -0.2047
 5727SOL     OW28816   3.616   4.106  13.431 -0.1482  0.5799  0.4006
 5727SOL    HW128817   3.665   4.188  13.429  0.4542  0.2344  0.9422
 5727SOL    HW228818   3.603   4.085  13.524 -0.8691  1.2603  0.4555
 5728SOL     OW28819   0.008   0.596   8.861 -0.1485 -0.0497 -0.2491
 5728SOL    HW128820   0.021   0.526   8.925  3.2563 -0.9122 -1.8678
 5728SOL    HW228821   0.083   0.588   8.802 -0.9875  0.2583 -1.3508
 5729SOL     OW28822   4.226   3.095  13.094 -0.3447  0.1626 -0.7885
 5729SOL    HW128823   4.227   3.164  13.161 -1.8530 -2.5186  2.0247
 5729SOL    HW228824   4.187   3.141  13.020  0.5494  0.5133 -1.0377
 5730SOL     OW28825   2.715   2.674   8.417 -0.0506 -0.1925 -0.3842
 5730SOL    HW128826   2.676   2.614   8.353  0.7108 -0.1938 -0.8538
 5730SOL    HW228827   2.688   2.758   8.379 -2.3573 -0.6583  0.2841
 5731SOL     OW28828   2.363   0.387   2.991  0.2917 -0.7076  0.2698
 5731SOL    HW128829   2.360   0.481   3.011  0.9752 -0.1633 -2.2347
 5731SOL    HW228830   2.291   0.389   2.928  0.8922  0.0687 -0.3978
 5732SOL     OW28831   0.393   2.196  10.430  0.4656  0.0669 -0.6913
 5732SOL    HW128832   0.415   2.121  10.374 -3.9490 -0.9607 -1.0245
 5732SOL    HW228833   0.302   2.199  10.402  0.2685 -0.8259 -0.1435
 5733SOL     OW28834   0.497   2.718   7.166  0.1701  0.6211  0.3510
 5733SOL    HW128835   0.472   2.767   7.088 -0.0812  0.2992  0.2307
 5733SOL    HW228836   0.590   2.708   7.147 -0.4046 -0.4648 -1.8876
 5734SOL     OW28837   1.725   2.960   2.460  0.0208  0.6032 -0.2674
 5734SOL    HW128838   1.707   3.020   2.388  1.0745  0.1544 -0.9099
 5734SOL    HW228839   1.768   2.893   2.407  0.3265  1.0566 -0.5873
 5735SOL     OW28840   4.195   1.982   4.894  0.6490 -0.1686  0.4275
 5735SOL    HW128841   4.193   1.947   4.804  2.4152  1.5011 -0.2485
 5735SOL    HW228842   4.250   1.920   4.942  0.6915  0.6015  1.3544
 5736SOL     OW28843   1.487   2.843   2.591 -0.4405 -0.3880  0.0329
 5736SOL    HW128844   1.502   2.889   2.674 -1.3096  1.3547 -0.7867
 5736SOL    HW228845   1.557   2.884   2.539 -2.6976  0.7972 -2.0503
 5737SOL     OW28846   4.340   1.626   8.060 -0.3009  0.1965 -0.0407
 5737SOL    HW128847   4.286   1.705   8.062  1.2494  1.2803 -1.1565
 5737SOL    HW228848   4.308   1.578   8.137  1.0103 -0.6548 -0.0205
 5738SOL     OW28849   1.466   4.374   4.973  0.0566 -0.1156 -0.6903
 5738SOL    HW128850   1.394   4.370   4.911  0.1428  0.8422 -0.8503
 5738SOL    HW228851   1.506   4.286   4.970  1.3748  0.4988 -1.0655
 5739SOL     OW28852   4.569   0.400  12.141  0.1868 -0.2867  0.1546
 5739SOL    HW128853   4.498   0.409  12.206 -0.0694 -2.4384  0.1969
 5739SOL    HW228854   4.556   0.477  12.087 -1.2861 -0.4691  0.2363
 5740SOL     OW28855   4.126   1.135   6.542  0.2227  0.6598  0.0428
 5740SOL    HW128856   4.210   1.099   6.570  0.5712  1.6129  0.2324
 5740SOL    HW228857   4.069   1.134   6.619  2.8185  3.2762  2.0016
 5741SOL     OW28858   0.313   3.952   3.510 -0.0860  0.8872  0.0007
 5741SOL    HW128859   0.247   4.010   3.472 -0.6095 -1.4574 -2.6411
 5741SOL    HW228860   0.380   3.941   3.442 -0.1630  1.5390 -0.1794
 5742SOL     OW28861   4.662   0.963   3.303  0.5188 -0.2186 -0.5318
 5742SOL    HW128862   4.711   0.885   3.329  1.3288  1.2178  2.1852
 5742SOL    HW228863   4.576   0.933   3.275  0.1348 -0.6106  1.1072
 5743SOL     OW28864   3.355   3.265   3.683 -0.5776 -0.1800 -0.4238
 5743SOL    HW128865   3.419   3.216   3.733  1.6379  1.2261 -1.8731
 5743SOL    HW228866   3.364   3.356   3.712 -2.1392  0.3349 -1.5023
 5744SOL     OW28867   0.191   4.665  13.293 -0.5978 -0.0508 -0.3177
 5744SOL    HW128868   0.273   4.679  13.340 -2.2997  0.5133  2.4807
 5744SOL    HW228869   0.212   4.577  13.261 -1.4275 -0.6682  0.8620
 5745SOL     OW28870   1.741   0.047  16.059  0.7713  0.5141 -0.4041
 5745SOL    HW128871   1.658   0.058  16.013 -0.9349  0.1366  2.6302
 5745SOL    HW228872   1.721   0.110  16.128 -0.0550 -1.4768  1.1733
 5746SOL     OW28873   1.073   2.585   3.365  0.4647  0.4073  0.0274
 5746SOL    HW128874   1.127   2.525   3.417  1.6255 -0.6898 -2.4490
 5746SOL    HW228875   1.085   2.527   3.289 -0.8950  0.0066  0.1107
 5747SOL     OW28876   1.403   3.520   7.726 -0.1444  0.1432  0.2602
 5747SOL    HW128877   1.409   3.466   7.648  2.3872 -0.1825  0.6912
 5747SOL    HW228878   1.309   3.538   7.729 -0.0704  0.4781  0.6405
 5748SOL     OW28879   2.868   3.374   2.787  0.2485  0.1299 -0.4016
 5748SOL    HW128880   2.861   3.280   2.768 -0.2242  0.1630 -0.4069
 5748SOL    HW228881   2.776   3.390   2.809  1.1602  1.7883  2.2782
 5749SOL     OW28882   2.102   0.261   5.837 -0.6139  0.6015  0.5978
 5749SOL    HW128883   2.052   0.328   5.883 -0.3995  0.6173  0.8078
 5749SOL    HW228884   2.142   0.319   5.772  0.3440  0.4724  1.0778
 5750SOL     OW28885   4.029   2.039   1.410  0.4686 -0.7244 -0.4654
 5750SOL    HW128886   4.037   2.103   1.481 -1.9499  1.0037 -1.7494
 5750SOL    HW228887   4.080   1.968   1.448 -0.8278 -0.8261  1.1144
 5751SOL     OW28888   0.013   4.372   7.053  0.3110  0.2320 -0.5431
 5751SOL    HW128889   0.078   4.312   7.017 -0.7587 -1.7068  0.7456
 5751SOL    HW228890   4.737   4.416   6.970  1.3276  1.3526 -0.1313
 5752SOL     OW28891   1.828   3.953   9.546 -0.1261 -0.3009  0.3271
 5752SOL    HW128892   1.742   3.932   9.507 -0.4649  0.0898  0.8630
 5752SOL    HW228893   1.819   4.048   9.548 -2.1263 -0.4595 -0.9931
 5753SOL     OW28894   0.933   1.226   6.289  0.0310  0.1267 -0.2971
 5753SOL    HW128895   0.879   1.196   6.361  1.2736 -1.7472 -0.1471
 5753SOL    HW228896   0.873   1.293   6.256 -1.2405 -0.5579  0.6658
 5754SOL     OW28897   0.749   3.366   9.447  0.1344  0.3505  0.5474
 5754SOL    HW128898   0.826   3.314   9.471 -2.2108 -3.0099  0.7900
 5754SOL    HW228899   0.681   3.316   9.492 -1.1116  1.2296 -0.3790
 5755SOL     OW28900   3.271   4.375   2.380 -0.2810 -0.3075 -0.0679
 5755SOL    HW128901   3.254   4.355   2.472 -0.8563 -0.0557 -0.1167
 5755SOL    HW228902   3.211   4.448   2.364 -0.9953 -1.0265 -0.6641
 5756SOL     OW28903   2.466   0.989   5.950  0.5074 -0.0430 -0.0325
 5756SOL    HW128904   2.468   1.084   5.940 -0.1067 -0.0634 -0.3784
 5756SOL    HW228905   2.555   0.968   5.923  0.8198  0.0759  0.9033
 5757SOL     OW28906   4.490   4.343   8.613 -0.8892 -0.2295 -0.1706
 5757SOL    HW128907   4.410   4.300   8.642 -0.0855 -2.1763 -0.8145
 5757SOL    HW228908   4.547   4.266   8.604  0.4335  0.7175 -0.0037
 5758SOL     OW28909   1.361   4.463  16.149 -0.4231 -0.1116  0.3928
 5758SOL    HW128910   1.317   4.492  16.229  2.3148  0.9733  1.5109
 5758SOL    HW228911   1.365   4.370  16.172 -1.4067 -0.3666 -0.4919
 5759SOL     OW28912   2.142   4.145   1.877  0.0903  0.3961 -0.1690
 5759SOL    HW128913   2.136   4.229   1.921 -0.9966  0.5431 -0.6096
 5759SOL    HW228914   2.222   4.151   1.824 -1.0371  1.7943 -1.7038
 5760SOL     OW28915   1.911   0.139   8.458  0.4017  0.1658  0.6167
 5760SOL    HW128916   1.862   0.159   8.379  1.7165 -2.3024 -0.7990
 5760SOL    HW228917   1.877   0.213   8.509  2.1339 -0.5839  2.8553
 5761SOL     OW28918   3.802   2.842   7.869  0.0718 -0.2318 -0.3614
 5761SOL    HW128919   3.714   2.827   7.835  0.1043 -1.3581  0.0433
 5761SOL    HW228920   3.816   2.935   7.852  0.2425 -0.1391  0.3197
 5762SOL     OW28921   4.630   0.227   5.536  0.3638 -0.2079  0.1406
 5762SOL    HW128922   4.548   0.258   5.573 -0.3981 -1.0591 -0.8632
 5762SOL    HW228923   4.676   0.309   5.518  0.0939 -0.0632  0.1233
 5763SOL     OW28924   4.076   3.225   6.749 -0.2126 -0.5014  0.0724
 5763SOL    HW128925   4.097   3.149   6.803  0.7960 -1.3362 -1.5119
 5763SOL    HW228926   4.163   3.244   6.714  0.5279 -2.1265  1.0315
 5764SOL     OW28927   0.223   1.734   9.221 -0.0572  0.7993  0.4024
 5764SOL    HW128928   0.280   1.793   9.172  0.4542 -2.2335 -2.7099
 5764SOL    HW228929   0.233   1.760   9.313  1.6099 -0.4787  0.5770
 5765SOL     OW28930   4.298   2.906  16.036 -0.5178 -0.3456  0.1075
 5765SOL    HW128931   4.216   2.948  16.011 -0.6995 -1.2922 -0.8926
 5765SOL    HW228932   4.348   2.973  16.083 -0.6471  0.4366 -0.8599
 5766SOL     OW28933   0.156   2.416   3.366  0.2579  0.3033  0.3945
 5766SOL    HW128934   0.244   2.399   3.399  0.9575 -1.1558 -2.2000
 5766SOL    HW228935   0.136   2.331   3.327  1.5842  0.0666  0.2463
 5767SOL     OW28936   0.780   4.041   7.550  0.2505 -0.6101 -0.0725
 5767SOL    HW128937   0.868   4.024   7.582  0.5875  0.4709 -0.4457
 5767SOL    HW228938   0.795   4.087   7.468  0.5683 -0.8017 -0.1210
 5768SOL     OW28939   0.956   1.238   7.946 -0.1813 -0.2629 -0.0421
 5768SOL    HW128940   0.883   1.298   7.958 -1.0006 -1.0690 -0.9435
 5768SOL    HW228941   0.919   1.156   7.914 -0.9945  0.3093 -0.5656
 5769SOL     OW28942   2.543   2.030  15.552  1.0442  0.3357 -0.1218
 5769SOL    HW128943   2.566   2.067  15.637  1.6479 -3.3691  1.3199
 5769SOL    HW228944   2.447   2.028  15.560  1.0625 -0.0260  0.0098
 5770SOL     OW28945   2.071   3.336   2.589  0.0371 -0.1145  0.5483
 5770SOL    HW128946   2.083   3.411   2.647 -3.0565  0.5229  0.3388
 5770SOL    HW228947   1.988   3.301   2.621  0.5570 -1.6002  0.2850
 5771SOL     OW28948   4.435   3.434   2.678  0.7288  0.1633  0.2131
 5771SOL    HW128949   4.396   3.423   2.591  2.7382  1.4899 -0.8548
 5771SOL    HW228950   4.478   3.349   2.682 -0.2597 -0.3039  0.8321
 5772SOL     OW28951   1.564   0.423   0.261 -0.2274 -0.2632  0.1653
 5772SOL    HW128952   1.632   0.379   0.210  0.2161  0.2326  0.3372
 5772SOL    HW228953   1.507   0.349   0.284  1.1771 -0.8721  1.6169
 5773SOL     OW28954   2.680   2.513  14.327 -0.0939 -0.3688  0.4614
 5773SOL    HW128955   2.624   2.436  14.325  1.3155 -1.3795 -0.7585
 5773SOL    HW228956   2.707   2.532  14.417  0.1711  3.1287 -0.3422
 5774SOL     OW28957   2.843   0.924   3.402  0.3177  0.0978  0.0703
 5774SOL    HW128958   2.906   0.853   3.391 -1.5552 -1.6125  0.4244
 5774SOL    HW228959   2.873   0.959   3.319  1.5992 -1.9371 -0.3267
 5775SOL     OW28960   1.779   1.025   2.801  0.3326  0.0746 -0.3522
 5775SOL    HW128961   1.709   1.065   2.852 -0.3104 -3.0907  1.2532
 5775SOL    HW228962   1.757   0.932   2.801  3.0447 -0.5858  1.9911
 5776SOL     OW28963   4.578   2.926   6.633  0.4272 -0.0354  0.5685
 5776SOL    HW128964   4.485   2.946   6.645  0.6062  1.2096 -0.0943
 5776SOL    HW228965   4.589   2.926   6.538 -1.5955 -1.2459  0.3511
 5777SOL     OW28966   0.835   2.549   5.727 -0.0081 -0.4212 -0.1666
 5777SOL    HW128967   0.749   2.590   5.738 -0.4341 -0.9996 -1.2742
 5777SOL    HW228968   0.802   2.460   5.713 -2.1751  0.3377  0.1569
 5778SOL     OW28969   4.550   4.536   2.627 -0.2211 -0.4524 -0.0362
 5778SOL    HW128970   4.567   4.573   2.714 -0.4523 -1.0381  0.2583
 5778SOL    HW228971   4.479   4.475   2.648 -2.4078  2.4862  1.1944
 5779SOL     OW28972   3.666   0.309   5.151  0.0543 -0.6628 -0.3929
 5779SOL    HW128973   3.574   0.281   5.159  0.0578 -0.6099 -0.1606
 5779SOL    HW228974   3.721   0.242   5.192 -0.2901 -1.0361 -0.5466
 5780SOL     OW28975   0.810   0.041   3.401  0.0978 -0.0679  0.5341
 5780SOL    HW128976   0.905   0.047   3.390  0.4882 -0.0810  3.9137
 5780SOL    HW228977   0.803   0.137   3.408  0.2291 -0.0550  0.4693
 5781SOL     OW28978   0.169   0.015   7.042 -0.0961 -0.0937  0.0229
 5781SOL    HW128979   0.156   0.046   7.131  2.0238  0.7049  0.0719
 5781SOL    HW228980   0.107   0.071   6.997  1.8637  1.1996 -1.0905
 5782SOL     OW28981   1.768   2.634   2.611  0.0402  0.6993  0.2308
 5782SOL    HW128982   1.803   2.592   2.532 -2.9221  0.5263 -1.0270
 5782SOL    HW228983   1.682   2.591   2.621  0.0952  0.5106 -0.1112
 5783SOL     OW28984   2.283   2.683  11.775  0.5285  0.2714 -0.2336
 5783SOL    HW128985   2.191   2.668  11.798  0.7450 -0.4066  0.1915
 5783SOL    HW228986   2.318   2.596  11.794  1.1767  0.6086  0.1105
 5784SOL     OW28987   0.387   3.699   2.381  0.8817 -0.0161 -0.3801
 5784SOL    HW128988   0.320   3.666   2.441  0.3397 -0.9659 -1.4870
 5784SOL    HW228989   0.378   3.791   2.403 -2.7468 -0.2617 -0.8349
 5785SOL     OW28990   3.186   1.603   8.042 -0.2359 -0.1371  0.2248
 5785SOL    HW128991   3.119   1.625   8.107 -2.9166 -2.6219 -1.6640
 5785SOL    HW228992   3.212   1.518   8.077  1.2668  1.4517  2.9974
 5786SOL     OW28993   1.726   3.620  10.245  0.4207  0.4767 -0.1800
 5786SOL    HW128994   1.697   3.529  10.242  1.2796  0.1789  0.5719
 5786SOL    HW228995   1.792   3.603  10.312  0.7608 -0.0049 -0.6351
 5787SOL     OW28996   4.519   1.522   7.224  0.0618  0.0034  0.5080
 5787SOL    HW128997   4.598   1.544   7.175 -0.3093  0.4709  0.1121
 5787SOL    HW228998   4.480   1.610   7.226 -0.0946 -0.0706  0.6359
 5788SOL     OW28999   2.353   3.005  16.938 -0.3108 -0.1424  0.6261
 5788SOL    HW129000   2.421   3.069  16.914  0.2011 -0.3317  1.5989
 5788SOL    HW229001   2.280   3.045  16.890  0.6810 -0.0887 -0.8578
 5789SOL     OW29002   2.460   2.579   4.931 -0.1403  0.4817  0.6026
 5789SOL    HW129003   2.508   2.645   4.881  1.8757 -1.8773 -0.5401
 5789SOL    HW229004   2.502   2.500   4.897 -0.4305  1.3589 -1.7905
 5790SOL     OW29005   1.879   1.491   6.119  0.8108  0.0384 -0.5762
 5790SOL    HW129006   1.868   1.477   6.213 -0.6264 -0.6780 -0.8452
 5790SOL    HW229007   1.815   1.563   6.111 -0.1033 -1.0654 -2.9546
 5791SOL     OW29008   1.118   4.680  16.122 -0.1771 -0.5127 -0.2039
 5791SOL    HW129009   1.131   4.598  16.169 -1.0945 -0.4530  0.1625
 5791SOL    HW229010   1.196   4.732  16.139 -0.1367 -0.6752  0.1006
 5792SOL     OW29011   4.487   4.162   4.040 -0.0283  0.2606 -0.6755
 5792SOL    HW129012   4.476   4.154   4.135 -2.6735 -0.5204 -1.0428
 5792SOL    HW229013   4.450   4.076   4.019  0.5713 -0.5946  1.7640
 5793SOL     OW29014   1.124   0.624   3.329  0.0752  0.3475 -0.1296
 5793SOL    HW129015   1.085   0.626   3.241 -1.9363  0.6552  0.7722
 5793SOL    HW229016   1.214   0.637   3.298 -0.5056  3.4621 -0.4832
 5794SOL     OW29017   1.766   1.502   8.684  0.4974  0.3574 -0.1615
 5794SOL    HW129018   1.685   1.550   8.665 -1.6538 -3.2022  0.0518
 5794SOL    HW229019   1.809   1.506   8.598  2.0259  0.4230  0.6162
 5795SOL     OW29020   1.078   2.179  16.036 -0.0382  0.3064  0.3780
 5795SOL    HW129021   1.007   2.151  15.980 -1.9028 -0.8499  3.3152
 5795SOL    HW229022   1.127   2.097  16.039  0.9490  0.9069  0.8330
 5796SOL     OW29023   1.481   1.318  13.282  0.1045 -0.0362  0.5105
 5796SOL    HW129024   1.566   1.294  13.317  2.0845  1.1529 -3.5539
 5796SOL    HW229025   1.488   1.269  13.201  0.1306  3.9406 -1.8927
 5797SOL     OW29026   2.137   1.885   6.446  0.1757 -0.0609  0.2091
 5797SOL    HW129027   2.178   1.952   6.392  2.7556 -0.1505  2.0417
 5797SOL    HW229028   2.216   1.866   6.496  1.2861  0.6831 -1.2661
 5798SOL     OW29029   0.727   2.610  11.644 -0.8481 -0.0007 -0.1549
 5798SOL    HW129030   0.730   2.697  11.684  1.9785 -0.0034 -0.3781
 5798SOL    HW229031   0.684   2.557  11.711  1.0026 -2.7039 -1.1377
 5799SOL     OW29032   4.501   2.305   2.909 -0.6089 -0.5029 -0.2984
 5799SOL    HW129033   4.498   2.393   2.872 -0.5432 -0.7611 -0.9165
 5799SOL    HW229034   4.414   2.300   2.949  0.4118  1.4857  2.1245
 5800SOL     OW29035   2.291   2.385   6.353  0.0650  0.2373  0.1117
 5800SOL    HW129036   2.297   2.473   6.317 -1.1770  0.7895  1.2466
 5800SOL    HW229037   2.297   2.396   6.448 -1.0768 -2.2831  0.4740
 5801SOL     OW29038   2.991   1.538   2.809  0.1446  0.6893  0.4303
 5801SOL    HW129039   2.997   1.511   2.718 -2.8665  1.3010  0.0676
 5801SOL    HW229040   2.910   1.586   2.820 -0.7979 -0.8070  0.0120
 5802SOL     OW29041   3.023   3.849   9.699  0.4658 -0.0312  0.3878
 5802SOL    HW129042   3.002   3.942   9.689  1.6487  0.0932 -0.9150
 5802SOL    HW229043   3.118   3.860   9.705  0.3162  1.0671  0.8794
 5803SOL     OW29044   2.774   1.173   6.461 -0.5623  0.7960 -0.0806
 5803SOL    HW129045   2.858   1.128   6.469 -0.6240  0.5823 -0.6229
 5803SOL    HW229046   2.717   1.122   6.518 -2.4467  2.3395 -0.5909
 5804SOL     OW29047   3.663   2.918   7.552 -0.1601 -0.8139 -0.4578
 5804SOL    HW129048   3.656   2.956   7.465  2.2056  0.2740 -0.1711
 5804SOL    HW229049   3.714   2.989   7.590 -0.7445 -1.0620  0.8183
 5805SOL     OW29050   0.866   2.892  15.875 -0.3161  0.0752  0.6473
 5805SOL    HW129051   0.864   2.823  15.808 -1.2730 -0.9702  1.7536
 5805SOL    HW229052   0.865   2.968  15.817 -1.5556  1.9723  3.1577
 5806SOL     OW29053   4.063   2.996   8.710  0.5137 -0.0613  0.7616
 5806SOL    HW129054   4.108   3.047   8.778 -0.0156  0.0208  1.0468
 5806SOL    HW229055   3.971   3.022   8.720  0.4400  0.3266 -0.9286
 5807SOL     OW29056   2.122   4.520   8.196 -0.0694  0.3794 -0.5598
 5807SOL    HW129057   2.162   4.574   8.264 -1.5635  0.7474  0.0270
 5807SOL    HW229058   2.143   4.560   8.112 -0.1299  1.4795 -0.0465
 5808SOL     OW29059   4.375   1.020  16.708  0.0057 -0.0432  0.1960
 5808SOL    HW129060   4.430   0.941  16.712  1.4614  1.0614  1.8206
 5808SOL    HW229061   4.361   1.020  16.613 -1.6985  3.0519  0.4755
 5809SOL     OW29062   1.790   1.774  15.322  0.7222 -0.0047  0.0853
 5809SOL    HW129063   1.714   1.817  15.283  0.5149 -1.5515 -1.2245
 5809SOL    HW229064   1.746   1.704  15.371 -0.6097  0.5229 -0.3627
 5810SOL     OW29065   2.544   4.195   6.517  0.3901  0.2629 -0.5723
 5810SOL    HW129066   2.482   4.264   6.541  0.8443  1.1933 -2.0860
 5810SOL    HW229067   2.494   4.124   6.476  2.8408 -1.3111 -0.8279
 5811SOL     OW29068   4.110   1.190   1.647 -0.1811 -0.1434  0.3760
 5811SOL    HW129069   4.142   1.111   1.691  0.9389  0.5991  0.8689
 5811SOL    HW229070   4.182   1.248   1.624  0.2087 -0.5011  0.7011
 5812SOL     OW29071   2.901   4.016  17.459  0.0765  0.4148 -0.4336
 5812SOL    HW129072   2.991   3.990  17.441  0.2379  2.2509 -2.2651
 5812SOL    HW229073   2.860   3.934  17.431 -1.6065  2.3467 -3.7000
 5813SOL     OW29074   4.161   1.442   8.179 -0.2396 -0.3361 -0.1081
 5813SOL    HW129075   4.110   1.363   8.196 -2.4200  1.0863 -0.0321
 5813SOL    HW229076   4.105   1.519   8.189  1.3616  0.5992  1.6103
 5814SOL     OW29077   4.230   0.978   2.822 -0.0390 -0.3105  0.0113
 5814SOL    HW129078   4.275   0.989   2.739 -2.3705  1.2527 -1.0540
 5814SOL    HW229079   4.200   0.889   2.804 -0.0336  0.3027 -2.9905
 5815SOL     OW29080   3.728   1.189  11.160 -0.4583  0.1227 -0.0044
 5815SOL    HW129081   3.716   1.268  11.107  0.9787  1.0341  0.9928
 5815SOL    HW229082   3.823   1.194  11.172 -0.2296 -1.0717 -1.3613
 5816SOL     OW29083   2.114   4.388   2.001 -0.0867  0.1760 -0.1412
 5816SOL    HW129084   2.023   4.396   1.970 -0.4930 -0.3161  0.9576
 5816SOL    HW229085   2.105   4.421   2.090  1.0233 -3.0646  1.1509
 5817SOL     OW29086   1.953   4.090  13.238  0.0804 -0.2015 -0.3107
 5817SOL    HW129087   1.895   4.141  13.295  0.9527  0.5138 -0.0559
 5817SOL    HW229088   2.015   4.047  13.298 -0.7175  0.5733  1.0598
 5818SOL     OW29089   0.732   1.668  14.042  0.2678  0.1647  0.0023
 5818SOL    HW129090   0.820   1.652  14.074  0.0089 -0.2560  0.5171
 5818SOL    HW229091   0.682   1.600  14.087 -0.7592 -0.7479 -2.5174
 5819SOL     OW29092   1.661   4.183   7.836  0.0587  0.4853 -0.4179
 5819SOL    HW129093   1.748   4.200   7.801 -0.3060 -0.1738 -1.6520
 5819SOL    HW229094   1.670   4.224   7.922  1.6888  1.5238 -1.1064
 5820SOL     OW29095   3.446   3.526   3.747 -0.3542  0.0851 -0.1478
 5820SOL    HW129096   3.472   3.592   3.811 -0.7419 -0.6555  0.7771
 5820SOL    HW229097   3.520   3.515   3.687 -0.2660  0.4139 -0.0958
 5821SOL     OW29098   4.567   0.959   6.212 -0.2562 -0.3945 -0.0316
 5821SOL    HW129099   4.504   1.031   6.207 -0.7367 -0.6872  1.8152
 5821SOL    HW229100   4.526   0.917   6.288  1.5988  0.2420  1.3176
 5822SOL     OW29101   1.325   4.497   4.017  0.0136  0.6208 -0.4462
 5822SOL    HW129102   1.344   4.426   4.078  1.1589  0.8421 -0.5558
 5822SOL    HW229103   1.313   4.444   3.938 -0.0629  2.0389 -1.3751
 5823SOL     OW29104   0.575   1.180   8.414 -0.3793  0.0810  0.7095
 5823SOL    HW129105   0.559   1.262   8.462 -0.2952  0.2730  0.4077
 5823SOL    HW229106   0.522   1.124   8.471 -0.2447 -1.0153 -0.2489
 5824SOL     OW29107   3.360   3.284   9.144  0.1310  1.6337 -0.5248
 5824SOL    HW129108   3.454   3.275   9.162 -0.5711 -0.9784  1.8498
 5824SOL    HW229109   3.325   3.216   9.201  0.1846 -0.1857 -2.6865
 5825SOL     OW29110   3.233   2.672   8.013 -0.6882  0.2585 -0.0570
 5825SOL    HW129111   3.198   2.725   7.941 -0.9247 -0.0362 -0.1584
 5825SOL    HW229112   3.160   2.611   8.022 -0.6726  0.2498  0.0168
 5826SOL     OW29113   3.554   3.045  17.393  0.1803  0.2736 -0.2333
 5826SOL    HW129114   3.507   2.985  17.335  1.1111 -1.9850  1.3327
 5826SOL    HW229115   3.640   3.050  17.353  0.5531 -2.6783  0.1962
 5827SOL     OW29116   0.403   3.753   7.658 -0.0359  0.0562  0.0922
 5827SOL    HW129117   0.428   3.845   7.666  0.1898  0.1417 -1.6090
 5827SOL    HW229118   0.473   3.708   7.705  1.1235  1.0737 -0.6542
 5828SOL     OW29119   3.060   3.871   5.624  0.6975  0.2676  0.6275
 5828SOL    HW129120   3.077   3.777   5.636 -1.5731  0.1712  2.9679
 5828SOL    HW229121   3.061   3.873   5.528  1.0755 -0.3500  0.6160
 5829SOL     OW29122   1.200   4.530   2.830 -0.4559 -0.0939 -0.1060
 5829SOL    HW129123   1.246   4.602   2.873  0.5830 -0.8349  0.0519
 5829SOL    HW229124   1.253   4.453   2.851 -0.4375  0.0139  0.2398
 5830SOL     OW29125   3.655   1.240   7.365  0.2956  0.4209 -0.2466
 5830SOL    HW129126   3.613   1.217   7.448  0.5868  2.3305  0.4138
 5830SOL    HW229127   3.669   1.151   7.332  0.5122  0.3748 -0.0214
 5831SOL     OW29128   2.972   0.811   6.862 -0.1083  0.3095  0.4114
 5831SOL    HW129129   2.938   0.726   6.889 -0.6199  0.9682  1.8545
 5831SOL    HW229130   3.060   0.797   6.828  0.4906 -0.4279  2.2769
 5832SOL     OW29131   4.639   2.499   3.968 -0.8603 -0.3623  0.1331
 5832SOL    HW129132   4.683   2.469   4.047  2.3734  0.3543 -1.3922
 5832SOL    HW229133   4.576   2.427   3.960 -1.3075  0.0681 -0.2431
 5833SOL     OW29134   2.907   3.190  15.409 -0.2844  0.2441  0.8337
 5833SOL    HW129135   2.939   3.149  15.329 -4.0730  2.1501 -1.6778
 5833SOL    HW229136   2.963   3.140  15.468  1.5989  1.2483 -0.0990
 5834SOL     OW29137   0.582   0.292   1.915 -0.0806  0.0569 -0.5847
 5834SOL    HW129138   0.618   0.358   1.974  0.8899 -1.4904  0.5471
 5834SOL    HW229139   0.597   0.340   1.833 -2.4870  0.1136 -1.0106
 5835SOL     OW29140   3.020   4.070  10.649 -0.1184 -0.0239 -0.0613
 5835SOL    HW129141   2.989   4.147  10.602 -2.4252 -0.8405  0.0862
 5835SOL    HW229142   2.970   4.081  10.730  3.2256  0.4623  1.9282
 5836SOL     OW29143   0.566   3.789   7.306 -0.3800  0.8864  0.4162
 5836SOL    HW129144   0.634   3.723   7.298  0.8993  2.1334  1.0789
 5836SOL    HW229145   0.491   3.729   7.299 -0.0276  0.5580 -0.5157
 5837SOL     OW29146   2.715   3.252   7.869  0.5661  0.3550 -0.4004
 5837SOL    HW129147   2.754   3.338   7.881 -2.1267  1.5907 -0.4547
 5837SOL    HW229148   2.644   3.239   7.933  3.3537 -2.0386  2.2067
 5838SOL     OW29149   1.389   1.773   3.633  0.4936  0.4126  0.2023
 5838SOL    HW129150   1.308   1.806   3.673 -0.8821 -2.4685 -0.2133
 5838SOL    HW229151   1.381   1.789   3.539 -1.2503 -0.0445  0.2763
 5839SOL     OW29152   1.522   4.068  13.096  0.2187  0.3166  0.0683
 5839SOL    HW129153   1.482   4.155  13.086  2.8166  1.4347 -0.6430
 5839SOL    HW229154   1.498   4.041  13.007  0.5524 -0.1691  0.1247
 5840SOL     OW29155   1.298   0.378  11.701 -0.2113 -0.2646 -0.4080
 5840SOL    HW129156   1.365   0.407  11.764  0.8765 -0.3549 -1.5388
 5840SOL    HW229157   1.250   0.456  11.672 -1.9710 -0.8690  0.8959
 5841SOL     OW29158   0.627   1.271  10.994  0.2846 -0.2738 -0.0079
 5841SOL    HW129159   0.630   1.277  10.898 -2.3996 -0.3305 -0.1141
 5841SOL    HW229160   0.536   1.289  11.017  1.1007  1.4126  1.8973
 5842SOL     OW29161   3.662   3.073   0.156  0.4790 -0.7551  0.2137
 5842SOL    HW129162   3.654   3.077   0.060 -0.2076 -0.8560  0.2648
 5842SOL    HW229163   3.739   3.017   0.159  0.1973 -1.1500  0.1169
 5843SOL     OW29164   4.449   0.543   3.603 -0.1516 -0.6813  0.3451
 5843SOL    HW129165   4.509   0.532   3.529  1.4022  3.6059  0.9416
 5843SOL    HW229166   4.484   0.619   3.650 -2.9386  0.7021  0.2036
 5844SOL     OW29167   2.002   1.015   0.700 -0.5020  0.1418  0.3465
 5844SOL    HW129168   1.947   1.027   0.623 -1.4296 -2.6520  0.5613
 5844SOL    HW229169   1.942   1.025   0.774 -0.6022  2.1568 -0.0068
 5845SOL     OW29170   3.067   3.721  13.944 -0.0673 -0.1307 -0.3201
 5845SOL    HW129171   2.988   3.668  13.959  0.4059 -0.7145  0.1000
 5845SOL    HW229172   3.098   3.699  13.856 -2.2519 -2.8332 -0.4342
 5846SOL     OW29173   3.390   0.171   7.428  0.0195  0.7097 -0.1103
 5846SOL    HW129174   3.418   0.244   7.482  0.1304 -0.4581  1.3997
 5846SOL    HW229175   3.310   0.202   7.385 -0.8669  1.1080  1.8210
 5847SOL     OW29176   2.259   1.657   0.979 -0.6785  0.2591  0.3476
 5847SOL    HW129177   2.320   1.602   0.929  1.8855  3.9909 -0.6686
 5847SOL    HW229178   2.237   1.591   1.045 -0.4265  0.1283  0.3020
 5848SOL     OW29179   1.064   1.293   3.693 -0.2320 -0.1655  0.4391
 5848SOL    HW129180   1.014   1.300   3.612 -2.1220 -1.5888  1.4806
 5848SOL    HW229181   1.152   1.280   3.660  1.0121 -1.5474  4.3304
 5849SOL     OW29182   2.449   2.081   5.162  0.5345 -0.3127  0.1046
 5849SOL    HW129183   2.414   2.004   5.118  0.4272  0.0616 -0.4577
 5849SOL    HW229184   2.378   2.144   5.150  0.1115 -0.8472 -0.2136
 5850SOL     OW29185   2.675   3.362   2.054  0.4132  0.2499 -0.5324
 5850SOL    HW129186   2.604   3.300   2.075  0.5273  1.2543  2.8415
 5850SOL    HW229187   2.624   3.442   2.042 -1.8315 -0.8116  1.7890
 5851SOL     OW29188   2.555   0.329   6.154 -0.1536  0.7301 -0.2073
 5851SOL    HW129189   2.529   0.363   6.240  1.4700  1.3264  0.0709
 5851SOL    HW229190   2.606   0.256   6.188 -3.9233 -1.5755  0.3740
 5852SOL     OW29191   1.272   0.534   6.526  0.1556 -0.1743 -0.1450
 5852SOL    HW129192   1.185   0.568   6.547  0.6811  0.0152  1.7626
 5852SOL    HW229193   1.316   0.540   6.611 -0.1222 -1.1228  0.0672
 5853SOL     OW29194   2.008   2.811   7.352  0.1329 -0.3728  0.3038
 5853SOL    HW129195   1.952   2.886   7.332  0.5701  0.3910  1.9252
 5853SOL    HW229196   1.938   2.761   7.395 -1.1430  1.6294  0.5353
 5854SOL     OW29197   3.782   0.469   9.092  0.2416  0.0197  0.5669
 5854SOL    HW129198   3.869   0.493   9.061  0.1688 -1.6974 -0.9839
 5854SOL    HW229199   3.760   0.562   9.101 -0.6670 -0.1152 -0.1367
 5855SOL     OW29200   2.653   0.252   7.942  0.1910 -0.5555 -0.0083
 5855SOL    HW129201   2.666   0.236   7.849  1.0250 -1.4110  0.2548
 5855SOL    HW229202   2.559   0.265   7.942  0.5248  1.8373  0.0029
 5856SOL     OW29203   0.114   2.007   7.821 -0.2884  0.2382  0.1361
 5856SOL    HW129204   0.042   1.965   7.868 -0.2624 -0.5269 -0.4910
 5856SOL    HW229205   0.110   1.957   7.739  0.2103 -1.2427  1.0298
 5857SOL     OW29206   3.560   3.896   0.796 -0.7324 -0.2853  0.2030
 5857SOL    HW129207   3.553   3.830   0.727 -1.0541  0.1179 -0.1568
 5857SOL    HW229208   3.655   3.905   0.792 -0.8668  1.3936  0.5439
 5858SOL     OW29209   0.860   2.329   4.520 -0.1059  0.2328 -0.2117
 5858SOL    HW129210   0.943   2.286   4.502  0.6744  1.8992 -0.6563
 5858SOL    HW229211   0.853   2.333   4.616 -0.5219  3.2903 -0.3641
 5859SOL     OW29212   3.021   3.064   9.129 -0.5677  0.1282 -0.3772
 5859SOL    HW129213   2.989   3.095   9.044  0.8883  0.4504 -0.8090
 5859SOL    HW229214   3.080   3.135   9.155 -1.1642  0.0544  1.2097
 5860SOL     OW29215   1.736   0.102   9.653 -0.6968 -0.6036 -0.2904
 5860SOL    HW129216   1.661   0.161   9.662  0.5408  0.7974  0.6896
 5860SOL    HW229217   1.715   0.065   9.567 -0.0093  1.5130 -1.3503
 5861SOL     OW29218   2.537   4.446   8.757  0.3916  0.5268 -0.5191
 5861SOL    HW129219   2.507   4.435   8.847 -0.2387 -1.9187 -1.0315
 5861SOL    HW229220   2.596   4.371   8.747  0.3370  0.3293  0.5867
 5862SOL     OW29221   4.212   4.063   5.998 -0.2980  0.3393 -0.0059
 5862SOL    HW129222   4.197   4.108   5.915 -2.7109 -1.9457 -0.7871
 5862SOL    HW229223   4.124   4.027   6.009 -0.7158  1.3743 -0.0047
 5863SOL     OW29224   1.658   2.500  12.980  0.8325  0.0130  0.0686
 5863SOL    HW129225   1.714   2.424  12.994  1.0654 -0.1975 -2.0555
 5863SOL    HW229226   1.659   2.508  12.885  0.8032  0.0900  0.0751
 5864SOL     OW29227   2.673   4.059   6.235 -0.1555 -0.2488 -0.0399
 5864SOL    HW129228   2.718   4.116   6.297  0.2612 -1.8223  1.1126
 5864SOL    HW229229   2.687   4.094   6.147 -1.4640 -0.6771 -0.4324
 5865SOL     OW29230   2.099   1.798  12.536  0.9821 -0.1031  0.4370
 5865SOL    HW129231   2.126   1.886  12.508  0.7237 -0.3613 -0.6248
 5865SOL    HW229232   2.064   1.766  12.453  0.1968 -1.9238  1.4918
 5866SOL     OW29233   1.571   3.591   8.953  0.0036 -0.0609 -0.6339
 5866SOL    HW129234   1.649   3.599   9.008 -1.6738  0.7238  1.6211
 5866SOL    HW229235   1.511   3.548   9.013  1.5606 -1.5871 -0.1402
 5867SOL     OW29236   2.469   0.950   6.254  0.1867  0.1798  0.0291
 5867SOL    HW129237   2.469   1.044   6.273  1.8704  0.1261  0.3003
 5867SOL    HW229238   2.477   0.951   6.158  1.8853  3.1504  0.1988
 5868SOL     OW29239   4.428   1.085   5.434  0.5081  0.5564 -0.0651
 5868SOL    HW129240   4.504   1.138   5.412  1.0593 -0.2981 -0.2403
 5868SOL    HW229241   4.460   1.008   5.482 -0.4701 -1.4952 -2.7013
 5869SOL     OW29242   4.186   0.497   7.338 -0.8852  0.2142  0.7143
 5869SOL    HW129243   4.167   0.426   7.277 -0.3338  1.0111 -0.3656
 5869SOL    HW229244   4.279   0.510   7.322 -0.7792  0.4805  1.5312
 5870SOL     OW29245   3.414   0.837   1.681 -0.3547  0.2644  0.4700
 5870SOL    HW129246   3.403   0.927   1.652  1.0488 -0.1053 -1.1993
 5870SOL    HW229247   3.489   0.801   1.634 -2.5169 -1.7287 -1.4397
 5871SOL     OW29248   1.634   4.159   4.438  0.0208  0.1011 -0.1580
 5871SOL    HW129249   1.540   4.176   4.445 -0.1619 -1.1472  0.2931
 5871SOL    HW229250   1.671   4.190   4.521  0.2607  1.3539 -0.7228
 5872SOL     OW29251   1.046   0.876   4.997 -0.4296 -0.5841  0.0353
 5872SOL    HW129252   1.140   0.880   4.980 -0.6937  0.0621 -1.3285
 5872SOL    HW229253   1.029   0.782   4.993 -0.3411 -0.5271 -1.6821
 5873SOL     OW29254   4.521   2.934   1.801 -0.3128 -0.4419  0.2704
 5873SOL    HW129255   4.428   2.919   1.818 -0.5155 -1.6002 -1.9040
 5873SOL    HW229256   4.555   2.894   1.721 -0.6059 -0.1847  0.0181
 5874SOL     OW29257   4.541   2.882  14.778 -0.3193 -0.0977 -0.6733
 5874SOL    HW129258   4.516   2.819  14.711 -0.9501 -1.3305  0.7174
 5874SOL    HW229259   4.456   2.910  14.810  0.5097  0.8679  0.7154
 5875SOL     OW29260   3.775   1.875   8.074 -0.5096  0.1116 -0.0773
 5875SOL    HW129261   3.737   1.956   8.040  0.9729  0.4834 -0.8840
 5875SOL    HW229262   3.823   1.896   8.154 -1.0192  1.2309 -0.0662
 5876SOL     OW29263   0.987   2.788   3.190  0.2171  0.1615 -0.1105
 5876SOL    HW129264   0.975   2.750   3.278  0.9012 -1.3612 -0.6906
 5876SOL    HW229265   0.896   2.804   3.165  0.0489 -0.5624  0.0548
 5877SOL     OW29266   3.912   1.409   7.466 -0.0825 -0.0328 -0.2500
 5877SOL    HW129267   3.960   1.448   7.393  0.5537  0.4088  0.4094
 5877SOL    HW229268   3.960   1.327   7.475 -0.1416 -0.1519 -1.0109
 5878SOL     OW29269   3.784   3.842  15.872  0.5213  0.0416  0.1620
 5878SOL    HW129270   3.733   3.794  15.937 -2.8309  1.4111 -1.5081
 5878SOL    HW229271   3.731   3.811  15.799  0.5349  2.0754 -0.6950
 5879SOL     OW29272   1.652   0.071   2.800  0.5147  0.2214 -1.0124
 5879SOL    HW129273   1.661   0.081   2.705  3.0601 -1.1778 -0.9372
 5879SOL    HW229274   1.689   4.726   2.824  0.3672  0.9605  1.8921
 5880SOL     OW29275   3.247   3.777  15.832 -0.1712 -0.1486 -0.4709
 5880SOL    HW129276   3.309   3.843  15.799  0.9306 -1.5166 -1.1082
 5880SOL    HW229277   3.270   3.757  15.923 -0.7236 -4.0641 -1.2151
 5881SOL     OW29278   3.492   1.798   5.696  0.0691  0.4521  0.0205
 5881SOL    HW129279   3.554   1.870   5.690  0.1782  0.3462 -0.1395
 5881SOL    HW229280   3.417   1.840   5.654 -0.0952  0.4132  0.2735
 5882SOL     OW29281   3.332   3.656   4.875 -0.0890  0.1576 -0.1950
 5882SOL    HW129282   3.341   3.692   4.964  0.0327  1.1379 -0.6014
 5882SOL    HW229283   3.275   3.583   4.897  2.0418 -1.3396  0.3106
 5883SOL     OW29284   3.948   1.420  10.301 -0.1251  0.5392  0.5579
 5883SOL    HW129285   3.878   1.416  10.236  0.6084  0.6609 -0.2491
 5883SOL    HW229286   3.914   1.359  10.365  0.9059 -0.2375  0.3562
 5884SOL     OW29287   1.988   3.048   7.687  0.3778 -0.0847  0.0730
 5884SOL    HW129288   2.012   2.999   7.765  0.6946 -0.6063 -0.3491
 5884SOL    HW229289   1.893   3.038   7.678  0.1124  1.4750  1.3002
 5885SOL     OW29290   0.349   1.886   3.208  0.4613 -0.1008 -0.2290
 5885SOL    HW129291   0.353   1.968   3.258 -1.1240  0.1069 -0.4478
 5885SOL    HW229292   0.369   1.824   3.278 -2.1144 -0.3786  0.2336
 5886SOL     OW29293   4.309   2.767   2.757 -0.2930  0.0217 -0.1466
 5886SOL    HW129294   4.219   2.780   2.728 -0.2352 -2.8347 -1.6199
 5886SOL    HW229295   4.356   2.845   2.725  1.9295 -0.1546  2.6867
 5887SOL     OW29296   1.093   1.638  12.507 -0.3401  0.3676 -0.3323
 5887SOL    HW129297   1.106   1.707  12.443 -0.8420  0.2938 -0.5125
 5887SOL    HW229298   1.171   1.582  12.511 -0.2688  0.6702  2.6212
 5888SOL     OW29299   1.479   1.265   6.437 -0.5661  0.1940 -0.5545
 5888SOL    HW129300   1.394   1.256   6.480 -0.2968 -1.0081 -0.2732
 5888SOL    HW229301   1.507   1.175   6.452  0.2751  0.3936 -0.9612
 5889SOL     OW29302   1.289   2.603  17.162  0.2294 -0.2766  0.2900
 5889SOL    HW129303   1.235   2.537  17.118  0.1068  0.3913 -0.5686
 5889SOL    HW229304   1.341   2.623  17.084 -1.2471  1.0936 -0.3556
 5890SOL     OW29305   4.142   0.621   8.742 -0.3288 -0.3343 -0.0026
 5890SOL    HW129306   4.121   0.699   8.692  2.2416  1.1510  1.2422
 5890SOL    HW229307   4.230   0.641   8.775 -0.7843  0.6278  0.6443
 5891SOL     OW29308   2.246   2.614   0.382  0.0526  0.1238  0.5571
 5891SOL    HW129309   2.162   2.577   0.408 -0.7536  1.7213  0.2741
 5891SOL    HW229310   2.242   2.697   0.431 -0.6447 -0.0645  0.8202
 5892SOL     OW29311   3.137   0.349   6.098 -0.3930  0.0932  0.2948
 5892SOL    HW129312   3.083   0.427   6.095 -0.3829 -0.0383 -3.5857
 5892SOL    HW229313   3.121   0.318   6.008 -1.4802  2.1172 -0.2080
 5893SOL     OW29314   4.117   1.062   4.639 -0.0738 -0.2333  0.2079
 5893SOL    HW129315   4.142   0.995   4.575  0.2453  0.3223 -0.2507
 5893SOL    HW229316   4.106   1.131   4.575  1.5690 -0.2881 -0.1251
 5894SOL     OW29317   4.268   2.517   7.546 -0.0489 -0.2448  0.4188
 5894SOL    HW129318   4.185   2.563   7.541  0.8976  1.3534 -0.7351
 5894SOL    HW229319   4.317   2.577   7.602  0.1553  0.9217 -1.0081
 5895SOL     OW29320   0.794   3.297  15.961  0.0544 -0.0776  0.3567
 5895SOL    HW129321   0.799   3.217  15.908 -1.0436 -2.0190  3.1363
 5895SOL    HW229322   0.772   3.358  15.891  1.5823  0.4644  0.3486
 5896SOL     OW29323   4.022   2.579   7.784  0.4492  0.8546  0.2989
 5896SOL    HW129324   4.067   2.634   7.719  0.1964  2.1412  1.2217
 5896SOL    HW229325   3.953   2.644   7.799 -1.4792 -1.3061  0.8459
 5897SOL     OW29326   0.302   0.697  13.590 -0.4600  0.6202 -0.0745
 5897SOL    HW129327   0.269   0.749  13.663 -0.4039  0.5438  0.0046
 5897SOL    HW229328   0.279   0.760  13.521  0.3640  0.6401 -0.3413
 5898SOL     OW29329   3.568   4.159  15.777  0.7290 -0.2752 -0.4368
 5898SOL    HW129330   3.535   4.075  15.746 -2.0450  0.2719  1.0551
 5898SOL    HW229331   3.659   4.145  15.753  1.3810  0.0010  1.8317
 5899SOL     OW29332   1.809   3.681   3.811  0.9825 -0.2176 -0.8686
 5899SOL    HW129333   1.798   3.691   3.717 -1.9511  1.3921 -0.3658
 5899SOL    HW229334   1.794   3.772   3.837 -1.2172 -1.2879  1.6816
 5900SOL     OW29335   0.040   1.852   8.583 -0.3001  0.2427 -0.1420
 5900SOL    HW129336   0.063   1.836   8.491 -0.7865 -1.1870 -0.0201
 5900SOL    HW229337   0.045   1.762   8.616 -0.3750  1.2155  2.5058
 5901SOL     OW29338   1.981   1.208  10.234 -0.6167 -0.2153 -0.0904
 5901SOL    HW129339   2.068   1.171  10.222  0.1879  1.3743  0.7959
 5901SOL    HW229340   1.958   1.173  10.320  0.7232  1.1962  0.8557
 5902SOL     OW29341   4.268   1.429   6.839 -0.3129 -0.0725 -0.4479
 5902SOL    HW129342   4.235   1.503   6.890  1.6116  0.1357  0.4618
 5902SOL    HW229343   4.297   1.478   6.762 -0.0477  1.3459  0.5473
 5903SOL     OW29344   3.535   0.965   3.063 -0.4120  0.1192  0.0593
 5903SOL    HW129345   3.545   0.990   3.155 -0.0777  1.2722 -0.2937
 5903SOL    HW229346   3.557   1.049   3.023 -1.8182  0.4033 -0.0845
 5904SOL     OW29347   0.852   2.277   4.108  0.6735  0.3910 -0.1751
 5904SOL    HW129348   0.844   2.350   4.170  0.7971 -1.5986  2.1790
 5904SOL    HW229349   0.934   2.233   4.131 -0.0768 -1.4357 -1.0245
 5905SOL     OW29350   2.869   0.590   5.640 -0.0843  0.1405  0.0810
 5905SOL    HW129351   2.905   0.502   5.649  0.4678  0.5158  1.4745
 5905SOL    HW229352   2.778   0.567   5.660  0.3742 -0.1532  1.7981
 5906SOL     OW29353   2.200   4.157  17.305  0.0043 -0.5967 -0.1383
 5906SOL    HW129354   2.269   4.207  17.262 -0.6664 -0.4368 -1.0475
 5906SOL    HW229355   2.173   4.095  17.236  1.4301 -0.6098 -0.6787
 5907SOL     OW29356   2.021   1.153   9.793  0.3043 -0.4163  0.1336
 5907SOL    HW129357   2.026   1.219   9.862 -0.3806  0.0939 -0.2944
 5907SOL    HW229358   2.087   1.095   9.830 -0.9503 -1.4035  0.8428
 5908SOL     OW29359   0.048   2.302   7.542 -0.5028 -0.0512 -0.4478
 5908SOL    HW129360   0.007   2.239   7.483  0.9150 -0.3663 -1.0953
 5908SOL    HW229361   0.133   2.301   7.499  0.5381  1.5380  1.5733
 5909SOL     OW29362   2.359   3.440   4.128  0.3233 -0.2828 -0.2799
 5909SOL    HW129363   2.378   3.470   4.039 -3.8912  1.5071 -0.5964
 5909SOL    HW229364   2.280   3.388   4.117  1.1845 -1.6394  0.0430
 5910SOL     OW29365   1.168   3.031  16.113  0.6679  0.3680 -0.6510
 5910SOL    HW129366   1.158   3.060  16.022 -0.8000  1.6309 -0.0809
 5910SOL    HW229367   1.137   2.941  16.105  0.2744  0.5753 -1.4431
 5911SOL     OW29368   1.385   2.061   1.434  0.1750 -0.5251 -0.0392
 5911SOL    HW129369   1.409   2.147   1.400 -1.0025 -0.4858 -0.7887
 5911SOL    HW229370   1.363   2.077   1.526  0.3714  0.5334 -0.1707
 5912SOL     OW29371   4.601   4.547   3.343  0.1291 -0.2593 -0.2414
 5912SOL    HW129372   4.606   4.463   3.298  0.1930 -0.8718  0.9233
 5912SOL    HW229373   4.573   4.524   3.431  0.1506 -0.7876 -0.3777
 5913SOL     OW29374   0.031   3.507   3.528 -0.9340 -0.0892  0.2073
 5913SOL    HW129375   0.068   3.471   3.448  0.8967 -1.7545  1.8092
 5913SOL    HW229376   0.036   3.602   3.516 -1.5194  0.0218  0.8143
 5914SOL     OW29377   1.884   3.830   4.875  0.1962 -0.4926 -0.6868
 5914SOL    HW129378   1.964   3.873   4.847  0.4532  0.7258  1.8773
 5914SOL    HW229379   1.909   3.741   4.850 -0.4285 -1.1617  1.0816
 5915SOL     OW29380   0.666   0.241  12.821 -0.0459  0.1899 -0.1269
 5915SOL    HW129381   0.584   0.203  12.853  1.3934 -0.2286  3.1118
 5915SOL    HW229382   0.712   0.172  12.774  0.2264  0.5733 -0.4163
 5916SOL     OW29383   3.740   0.556  14.550 -0.6319  0.0183 -0.2125
 5916SOL    HW129384   3.730   0.546  14.456  0.3590  1.4697 -0.4782
 5916SOL    HW229385   3.663   0.504  14.572  0.9627 -1.1976  2.5127
 5917SOL     OW29386   0.103   2.248   0.049  0.5825 -0.4821  0.0842
 5917SOL    HW129387   0.016   2.211   0.065 -0.3327  2.4534  1.9829
 5917SOL    HW229388   0.162   2.208   0.112  0.4568  1.5477  1.5084
 5918SOL     OW29389   0.502   0.898  16.255 -0.0876 -0.3598 -0.4994
 5918SOL    HW129390   0.511   0.935  16.167  1.7403  1.3532  0.4217
 5918SOL    HW229391   0.576   0.837  16.257  0.8467  0.7929 -0.2157
 5919SOL     OW29392   2.257   0.411   6.931 -0.2289  0.7530 -0.3390
 5919SOL    HW129393   2.345   0.433   6.964 -0.7546  1.7032  0.4467
 5919SOL    HW229394   2.273   0.328   6.887  2.0155 -1.2145  4.2211
 5920SOL     OW29395   3.900   4.581   6.518 -0.1772 -0.4519 -0.1417
 5920SOL    HW129396   3.878   4.641   6.446  3.3547  1.0727  0.0439
 5920SOL    HW229397   3.895   4.505   6.461 -1.2385  0.0046 -0.6648
 5921SOL     OW29398   2.890   0.220   8.075  0.3281 -0.2106  0.8754
 5921SOL    HW129399   2.945   0.285   8.032  0.3277  0.5027  1.9659
 5921SOL    HW229400   2.817   0.229   8.013  0.4909  0.3047  0.7610
 5922SOL     OW29401   3.085   2.681   1.514 -0.3172 -0.3074  0.8099
 5922SOL    HW129402   3.039   2.732   1.446  2.1232 -0.7557 -1.1434
 5922SOL    HW229403   3.099   2.739   1.588 -1.3504  0.7257  0.2120
 5923SOL     OW29404   1.076   3.470   7.095 -0.2815  0.3372  0.8088
 5923SOL    HW129405   1.057   3.547   7.042 -1.0529 -0.7445 -0.5016
 5923SOL    HW229406   1.010   3.416   7.051  3.1812 -1.2509 -2.5395
 5924SOL     OW29407   4.270   3.242  17.361 -0.5443  0.3691  0.3467
 5924SOL    HW129408   4.328   3.200  17.423  1.2995  2.0058 -0.2776
 5924SOL    HW229409   4.337   3.265  17.297 -1.5865 -0.8078 -1.1724
 5925SOL     OW29410   1.014   2.826   5.893 -0.3061 -0.0130 -0.1019
 5925SOL    HW129411   0.984   2.893   5.954 -3.9801 -1.6499 -0.0799
 5925SOL    HW229412   1.017   2.742   5.940 -2.3041 -0.7978 -1.3501
 5926SOL     OW29413   1.922   3.127   6.470  0.1133  0.0236  0.3058
 5926SOL    HW129414   1.978   3.082   6.532 -0.2178 -1.1866 -0.2679
 5926SOL    HW229415   1.860   3.157   6.537  0.9449  1.1782  0.5524
 5927SOL     OW29416   0.075   1.708  10.923 -0.2823 -0.1612 -0.0844
 5927SOL    HW129417   0.077   1.685  11.016 -0.4126 -3.8590 -0.9911
 5927SOL    HW229418   0.114   1.629  10.886 -1.1777 -0.6945  0.1342
 5928SOL     OW29419   1.142   2.678  17.388 -0.5873 -0.1519  0.0662
 5928SOL    HW129420   1.160   2.771  17.402 -0.4562 -0.2080  0.2594
 5928SOL    HW229421   1.204   2.647  17.323 -0.5627 -1.0587  0.5254
 5929SOL     OW29422   0.584   3.072   7.836  0.0532 -0.4030 -0.2279
 5929SOL    HW129423   0.560   2.980   7.845 -1.4707  0.1818  1.5813
 5929SOL    HW229424   0.662   3.055   7.784 -1.3441 -1.9998 -1.8249
 5930SOL     OW29425   0.366   4.416  11.007  0.2469  0.2975  0.0320
 5930SOL    HW129426   0.314   4.336  10.996 -0.9593  1.0101  0.4537
 5930SOL    HW229427   0.353   4.442  11.098  2.6062 -1.1345  0.7638
 5931SOL     OW29428   3.433   1.748   1.741  0.8658 -0.4561  0.4957
 5931SOL    HW129429   3.401   1.721   1.655  0.5560 -1.0390  0.7928
 5931SOL    HW229430   3.370   1.710   1.801 -1.3249  2.5870  0.1503
 5932SOL     OW29431   4.565   1.210   8.123  0.5413  0.2467  0.4613
 5932SOL    HW129432   4.470   1.215   8.121  0.5419  0.2429  0.3906
 5932SOL    HW229433   4.587   1.221   8.030  1.1173 -2.9722  0.2340
 5933SOL     OW29434   3.932   1.096  14.260 -0.0630 -0.3447  0.8306
 5933SOL    HW129435   3.890   1.075  14.344  1.6648 -0.0508  1.7756
 5933SOL    HW229436   3.960   1.187  14.261 -2.4634  0.3773 -0.0380
 5934SOL     OW29437   0.873   2.613  17.436 -0.0126  1.1099 -0.2041
 5934SOL    HW129438   0.955   2.660  17.447  0.3288  0.0949  1.6706
 5934SOL    HW229439   0.838   2.659  17.360 -0.5999  0.7405 -0.1585
 5935SOL     OW29440   1.753   1.664  14.428 -0.1750 -0.1215  0.6885
 5935SOL    HW129441   1.767   1.750  14.466 -0.0478  1.6486 -3.3613
 5935SOL    HW229442   1.830   1.612  14.451 -0.3464 -0.7124 -0.0795
 5936SOL     OW29443   2.347   2.771   9.261 -0.5398 -0.2626 -0.3351
 5936SOL    HW129444   2.412   2.826   9.217 -0.7342 -0.6643 -1.1266
 5936SOL    HW229445   2.405   2.700   9.289 -2.1100 -1.1534  0.6803
 5937SOL     OW29446   1.324   3.196   5.434 -0.1156 -0.1478 -0.2950
 5937SOL    HW129447   1.329   3.291   5.446  1.2727 -0.3120  0.4482
 5937SOL    HW229448   1.271   3.177   5.511  1.4799 -2.5538  0.2205
 5938SOL     OW29449   4.007   4.629   8.147 -0.7664 -0.3195  0.1415
 5938SOL    HW129450   3.961   4.550   8.119  1.9979 -1.4494 -1.3121
 5938SOL    HW229451   3.975   4.691   8.082 -0.5800 -0.4401 -0.0694
 5939SOL     OW29452   1.531   0.604   5.948  0.2768  0.5202  0.5933
 5939SOL    HW129453   1.621   0.572   5.959  0.1170  0.0445  0.5331
 5939SOL    HW229454   1.532   0.688   5.995 -0.5954  0.2956  1.0001
 5940SOL     OW29455   4.588   0.893  15.059 -0.4837  0.0613 -0.6249
 5940SOL    HW129456   4.588   0.818  15.119 -1.5307 -0.7561 -1.6241
 5940SOL    HW229457   4.677   0.901  15.025 -0.6614 -2.0958 -1.6109
 5941SOL     OW29458   1.531   2.850   5.532  0.1175 -0.6976  0.4903
 5941SOL    HW129459   1.563   2.805   5.610  0.5929 -2.1526 -0.5358
 5941SOL    HW229460   1.459   2.789   5.514 -1.2965  0.2148  3.2106
 5942SOL     OW29461   3.369   0.524   8.225  0.1696 -0.4520 -0.4142
 5942SOL    HW129462   3.437   0.499   8.162 -0.9145  0.0033 -1.7611
 5942SOL    HW229463   3.328   0.605   8.195  0.5393  0.4807  1.5933
 5943SOL     OW29464   0.401   2.909  12.878  0.5212  0.4616  0.5070
 5943SOL    HW129465   0.493   2.903  12.902 -0.1465 -3.8282  2.0723
 5943SOL    HW229466   0.369   2.818  12.881  1.3591  0.2525  2.7087
 5944SOL     OW29467   3.402   2.997   4.408  0.0795 -0.4366  0.1269
 5944SOL    HW129468   3.339   3.060   4.444 -0.7089 -2.6918  2.6681
 5944SOL    HW229469   3.490   3.031   4.428  0.5624 -1.4272 -0.3283
 5945SOL     OW29470   1.403   4.498   7.764  0.3164 -0.4830  0.2814
 5945SOL    HW129471   1.370   4.587   7.772 -1.5972 -1.2353  0.6540
 5945SOL    HW229472   1.429   4.479   7.854  1.4668  1.4460  0.3619
 5946SOL     OW29473   1.478   1.541   2.953  0.4392  0.0145 -0.5002
 5946SOL    HW129474   1.399   1.588   2.924 -1.9778 -2.6418  1.7642
 5946SOL    HW229475   1.540   1.588   2.898 -0.0189 -0.2863 -1.2785
 5947SOL     OW29476   2.925   3.528   4.726 -0.0342  0.2986 -0.2114
 5947SOL    HW129477   2.909   3.618   4.755  1.1212  0.4596 -0.0835
 5947SOL    HW229478   2.968   3.547   4.643 -0.3473 -1.2560 -0.7288
 5948SOL     OW29479   4.316   1.037   1.352  0.5764 -0.0877  0.5193
 5948SOL    HW129480   4.227   1.037   1.388  0.9884  0.6036  1.5394
 5948SOL    HW229481   4.305   1.066   1.262 -2.4260  0.6361  1.1353
 5949SOL     OW29482   4.086   3.102   4.378 -0.4110 -0.3395  0.1904
 5949SOL    HW129483   4.121   3.013   4.374  1.2754  0.3564 -0.4096
 5949SOL    HW229484   4.000   3.096   4.336 -0.1861  1.7982 -0.5559
 5950SOL     OW29485   2.215   2.110   3.035 -0.1249 -0.0527  0.5005
 5950SOL    HW129486   2.301   2.077   3.062  0.0265  1.4288  1.8342
 5950SOL    HW229487   2.220   2.088   2.942 -1.6839 -0.7195  0.5803
 5951SOL     OW29488   1.087   1.273   2.779 -0.5881  0.5598 -0.3280
 5951SOL    HW129489   1.137   1.346   2.744 -1.5866  0.1404 -2.5959
 5951SOL    HW229490   1.069   1.222   2.700 -0.5469 -0.3062  0.2121
 5952SOL     OW29491   1.496   3.851   8.517 -0.0037  0.4767 -0.1121
 5952SOL    HW129492   1.542   3.821   8.438  0.6580  0.5841  0.2329
 5952SOL    HW229493   1.529   3.939   8.535 -4.1852  1.9748  0.1704
 5953SOL     OW29494   1.408   2.142   9.503 -0.0637  0.0268  0.3084
 5953SOL    HW129495   1.320   2.155   9.467  0.0044  3.1851  1.3014
 5953SOL    HW229496   1.418   2.049   9.483  3.2899  0.5479 -0.3321
 5954SOL     OW29497   1.222   1.013  11.626  0.6878 -0.0662 -0.2039
 5954SOL    HW129498   1.192   1.083  11.685 -1.4327 -0.3474 -0.9597
 5954SOL    HW229499   1.297   1.065  11.597 -0.7178  2.1958  0.1722
 5955SOL     OW29500   1.934   0.485   9.016  0.6283  0.0916 -0.4147
 5955SOL    HW129501   1.884   0.516   9.091  0.0594 -3.7795  0.7820
 5955SOL    HW229502   2.006   0.443   9.064  0.4301  0.9094  0.5990
 5956SOL     OW29503   3.206   0.282  10.745  0.2260  0.2887  0.1011
 5956SOL    HW129504   3.159   0.291  10.662  1.6966 -0.5122 -0.8139
 5956SOL    HW229505   3.294   0.291  10.709  0.4659 -0.5170  0.4888
 5957SOL     OW29506   0.701   4.502   3.599  0.5125 -0.2281  0.1496
 5957SOL    HW129507   0.765   4.572   3.611  1.6690 -1.2348 -0.1142
 5957SOL    HW229508   0.747   4.461   3.526 -2.6690 -2.9213 -0.3313
 5958SOL     OW29509   0.048   0.788   1.980  0.5795 -0.2541 -0.4175
 5958SOL    HW129510   0.031   0.762   2.071 -1.2605  2.2286 -0.0300
 5958SOL    HW229511   0.120   0.851   1.988  0.0071  0.2647  0.6967
 5959SOL     OW29512   1.199   4.665   1.918  0.5070  0.3858 -0.5597
 5959SOL    HW129513   1.253   4.590   1.941 -0.9391 -0.5633 -0.3022
 5959SOL    HW229514   1.166   4.699   2.001 -0.1206 -2.1867  0.2513
 5960SOL     OW29515   0.475   0.039  11.084 -0.2753 -0.1169  0.0250
 5960SOL    HW129516   0.537   0.108  11.108  0.0786 -0.1972 -0.6660
 5960SOL    HW229517   0.441   0.018  11.171 -0.0873  0.7318  0.3019
 5961SOL     OW29518   1.462   2.946   2.832  0.4281  0.3417 -0.5123
 5961SOL    HW129519   1.447   3.041   2.833 -0.7010  0.1392  1.0290
 5961SOL    HW229520   1.374   2.909   2.830  0.6478 -0.2485  0.7876
 5962SOL     OW29521   2.310   0.661   4.828 -0.0728  0.0021 -0.1490
 5962SOL    HW129522   2.288   0.619   4.911 -0.9054  0.8057  0.0362
 5962SOL    HW229523   2.404   0.674   4.837 -0.2016  0.4003  0.5665
 5963SOL     OW29524   3.412   1.419   7.187 -0.2742  0.1243 -0.4721
 5963SOL    HW129525   3.439   1.364   7.114 -1.1619  0.4351 -1.0319
 5963SOL    HW229526   3.354   1.484   7.148  0.3773  1.5477  0.9059
 5964SOL     OW29527   0.821   3.018   6.451 -0.0972  0.1281  0.6998
 5964SOL    HW129528   0.879   2.982   6.383 -2.3697  2.1290 -2.3067
 5964SOL    HW229529   0.775   3.087   6.403  1.6056 -0.3057 -1.6247
 5965SOL     OW29530   0.183   3.891   1.609 -0.5381 -0.1696 -0.4924
 5965SOL    HW129531   0.133   3.928   1.682  1.5782 -0.7826  1.2667
 5965SOL    HW229532   0.240   3.832   1.658 -1.8281 -0.9402  0.0942
 5966SOL     OW29533   4.137   1.634  11.464  0.0403 -0.0609  0.1607
 5966SOL    HW129534   4.168   1.692  11.534 -1.2971  1.0591 -0.1889
 5966SOL    HW229535   4.058   1.684  11.445  0.2846  0.1506 -0.3171
 5967SOL     OW29536   4.513   0.621  11.972 -0.1133  0.4352 -0.6090
 5967SOL    HW129537   4.554   0.692  12.022 -0.6123  0.1740  0.1700
 5967SOL    HW229538   4.454   0.675  11.920 -2.4278 -3.1847 -1.6919
 5968SOL     OW29539   0.203   2.771  15.022 -0.4734 -0.0494  0.1285
 5968SOL    HW129540   0.222   2.848  15.076  0.0135 -0.5231  0.6369
 5968SOL    HW229541   0.111   2.749  15.033 -0.6680  0.8009  0.2329
 5969SOL     OW29542   0.937   4.399   7.787 -0.1327 -0.4755 -0.1386
 5969SOL    HW129543   1.030   4.386   7.807  0.5661  0.1133 -2.9647
 5969SOL    HW229544   0.912   4.378   7.877 -1.5306  1.7102 -0.0291
 5970SOL     OW29545   3.843   1.150   4.043 -0.5138  0.2402 -0.4701
 5970SOL    HW129546   3.773   1.109   3.992  0.4761 -0.1995 -1.4586
 5970SOL    HW229547   3.924   1.116   4.005  1.0048 -0.7645  3.6386
 5971SOL     OW29548   0.750   1.057   6.073  0.3760  0.4197  0.3471
 5971SOL    HW129549   0.683   1.052   6.005 -0.5817 -0.0857  1.3278
 5971SOL    HW229550   0.758   1.152   6.073  0.4127  0.4247  1.4963
 5972SOL     OW29551   1.130   2.218   1.583  0.1775  0.1176  0.4454
 5972SOL    HW129552   1.098   2.248   1.668 -1.4559 -1.5877  0.4190
 5972SOL    HW229553   1.159   2.131   1.610 -0.1667 -1.1080 -3.1105
 5973SOL     OW29554   2.074   0.616   5.771  0.0971 -0.1477 -0.2709
 5973SOL    HW129555   2.152   0.663   5.799 -1.1634 -0.6618  4.1702
 5973SOL    HW229556   2.017   0.647   5.842 -1.8257  1.2281 -2.4220
 5974SOL     OW29557   0.123   1.595   8.666  0.0610  0.1458 -0.7446
 5974SOL    HW129558   0.086   1.507   8.677  1.2347 -0.5484 -2.4145
 5974SOL    HW229559   0.147   1.610   8.757 -3.5662  0.2276  0.1985
 5975SOL     OW29560   4.696   3.965   7.849 -0.3862 -0.4982 -0.2015
 5975SOL    HW129561   4.733   3.878   7.838  1.1901  0.1753 -0.1962
 5975SOL    HW229562   4.696   3.998   7.759 -0.5829 -1.4393 -0.5469
 5976SOL     OW29563   0.010   1.043   2.497 -0.1806  0.2515  0.0436
 5976SOL    HW129564   0.075   1.067   2.563  1.3368  1.7540 -1.9890
 5976SOL    HW229565   0.037   1.103   2.427  1.0900 -0.5057 -0.1161
 5977SOL     OW29566   2.780   3.758   3.474  0.6142 -0.0768  0.1947
 5977SOL    HW129567   2.729   3.836   3.452  2.5310  1.3217  0.5907
 5977SOL    HW229568   2.713   3.694   3.453  1.6868 -0.9433 -0.6125
 5978SOL     OW29569   2.962   0.385   7.305  0.5326  0.3163 -0.3801
 5978SOL    HW129570   2.955   0.469   7.352 -1.4410  0.7406 -1.4354
 5978SOL    HW229571   2.890   0.330   7.335  0.7570 -0.9567 -2.1760
 5979SOL     OW29572   0.316   4.277   6.576 -0.0566 -0.0687  0.0551
 5979SOL    HW129573   0.334   4.329   6.654 -0.2558  1.2243 -0.7748
 5979SOL    HW229574   0.255   4.336   6.533  0.5554  1.8515  1.7786
 5980SOL     OW29575   2.196   0.665   3.799 -0.1751 -0.0748 -0.1786
 5980SOL    HW129576   2.112   0.626   3.826  0.0397  0.7667  1.7573
 5980SOL    HW229577   2.229   0.669   3.889  1.2871  1.9615 -0.8027
 5981SOL     OW29578   0.235   1.746   4.759 -0.2551  0.0891  0.1980
 5981SOL    HW129579   0.266   1.668   4.807  1.7149 -0.9117 -2.6835
 5981SOL    HW229580   0.309   1.753   4.698 -3.4897  1.7139 -3.4632
 5982SOL     OW29581   4.169   2.244   5.345 -0.2473  0.3340  0.3569
 5982SOL    HW129582   4.212   2.242   5.259 -1.0060 -1.3802  0.0264
 5982SOL    HW229583   4.191   2.156   5.375 -2.0650  0.3714  1.7515
 5983SOL     OW29584   0.209   3.978   5.018 -0.2686  0.1568 -0.1491
 5983SOL    HW129585   0.125   3.934   5.032  0.1449 -0.1534  1.3830
 5983SOL    HW229586   0.225   4.005   5.108 -0.3634 -1.5486  0.3747
 5984SOL     OW29587   4.599   0.275  13.540 -0.2636  0.0803  0.4262
 5984SOL    HW129588   4.571   0.211  13.476  1.9117  0.0188 -0.4317
 5984SOL    HW229589   4.565   0.358  13.506 -0.4739 -0.3682 -0.4631
 5985SOL     OW29590   2.466   1.532   6.901 -0.8384 -0.2994 -0.0543
 5985SOL    HW129591   2.394   1.579   6.859  0.6181  1.7785 -0.2097
 5985SOL    HW229592   2.534   1.552   6.837 -1.7744 -1.5654 -1.4774
 5986SOL     OW29593   4.696   0.400  13.198 -0.0915  0.5790 -0.0966
 5986SOL    HW129594   0.009   0.321  13.204  0.7053  1.0509 -1.0515
 5986SOL    HW229595   4.728   0.458  13.266 -1.7321  1.1353  0.2189
 5987SOL     OW29596   2.029   2.022   1.201 -0.1326 -0.0682  0.0702
 5987SOL    HW129597   2.095   1.961   1.168  0.2573 -0.2146  1.1320
 5987SOL    HW229598   2.031   2.096   1.140 -0.6631 -1.7155 -1.9186
 5988SOL     OW29599   2.184   1.808   1.790 -0.5368 -0.6002 -0.9142
 5988SOL    HW129600   2.089   1.797   1.781 -0.5413  1.7795 -3.9381
 5988SOL    HW229601   2.190   1.898   1.823 -0.1702 -0.7940 -0.4488
 5989SOL     OW29602   3.989   4.722   0.895  0.4891 -0.0566 -0.0184
 5989SOL    HW129603   3.915   4.663   0.886 -0.4018  0.9756  0.4345
 5989SOL    HW229604   3.938   0.059   0.922  0.1672  0.6020 -2.5193
 5990SOL     OW29605   2.273   0.022   5.728 -0.3564 -0.3371 -0.1118
 5990SOL    HW129606   2.353   0.023   5.781  0.2423  3.0236 -1.0811
 5990SOL    HW229607   2.228   0.090   5.777  1.9217  0.2572  1.1772
 5991SOL     OW29608   0.098   3.912  10.518 -0.2696  0.1462  0.3075
 5991SOL    HW129609   0.040   3.978  10.555 -1.8096 -1.0384  0.0301
 5991SOL    HW229610   0.095   3.937  10.426 -0.1557 -1.0276 -0.0254
 5992SOL     OW29611   2.590   1.576  12.353  0.3841 -0.4493 -0.4211
 5992SOL    HW129612   2.499   1.598  12.373  0.4313 -0.5396 -0.1095
 5992SOL    HW229613   2.632   1.578  12.439  0.2289 -2.2295 -0.3037
 5993SOL     OW29614   0.812   0.396   5.645 -0.2686  0.2831  0.1701
 5993SOL    HW129615   0.877   0.466   5.653  0.7969 -0.8178  1.0551
 5993SOL    HW229616   0.746   0.437   5.700  0.1079  0.1531  0.7127
 5994SOL     OW29617   4.284   2.907  14.542 -0.8864  0.1547  1.1568
 5994SOL    HW129618   4.253   2.994  14.568 -1.6487  0.2219  0.0276
 5994SOL    HW229619   4.287   2.869  14.630 -0.9550 -1.5385  0.4294
 5995SOL     OW29620   4.549   0.073   2.046  0.0723 -0.1877 -0.6742
 5995SOL    HW129621   4.551   0.079   1.951 -0.1275  1.5124 -0.5593
 5995SOL    HW229622   4.593   4.729   2.057  0.6962  0.3293  0.7332
 5996SOL     OW29623   3.846   2.570   5.746  0.5486  0.2171 -0.4468
 5996SOL    HW129624   3.828   2.521   5.666  0.4007 -0.4367 -0.0133
 5996SOL    HW229625   3.922   2.521   5.777 -0.0894 -0.2468  0.3858
 5997SOL     OW29626   2.017   3.270   9.628  0.3594  0.0287  0.1420
 5997SOL    HW129627   1.981   3.351   9.664 -0.2493 -0.1198 -0.1248
 5997SOL    HW229628   1.945   3.208   9.643  2.2675 -2.0963  0.4691
 5998SOL     OW29629   3.377   4.667   2.552 -0.2228  0.1692 -0.0653
 5998SOL    HW129630   3.418   4.659   2.638  0.1495 -1.6379 -0.4020
 5998SOL    HW229631   3.349   4.576   2.551  0.0147  0.0912  0.6777
 5999SOL     OW29632   3.961   4.704  10.962  0.2913 -0.0722  0.6254
 5999SOL    HW129633   4.020   4.672  10.894  0.9649  0.0370  1.1610
 5999SOL    HW229634   4.006   4.667  11.038  4.4032  2.3094 -0.6105
 6000SOL     OW29635   1.819   1.343  16.396 -0.6294  0.0116  0.2654
 6000SOL    HW129636   1.883   1.271  16.400  0.4045  1.0163  1.8306
 6000SOL    HW229637   1.739   1.291  16.407 -0.9691  0.7097  1.0700
 6001SOL     OW29638   3.295   0.580   5.536  0.2617  0.2399 -0.3124
 6001SOL    HW129639   3.227   0.516   5.561  0.0973  0.4338 -0.2653
 6001SOL    HW229640   3.264   0.606   5.449  2.3935  0.0133 -1.1303
 6002SOL     OW29641   3.670   4.411  17.722 -0.4339 -0.0400 -0.3462
 6002SOL    HW129642   3.631   4.388  17.638 -0.1752  1.8932 -1.0115
 6002SOL    HW229643   3.759   4.441  17.704 -1.0087  0.2622 -2.7307
 6003SOL     OW29644   2.018   0.663   8.145  0.0677 -0.1214 -0.0699
 6003SOL    HW129645   2.112   0.670   8.164  0.1300  0.1242 -0.4689
 6003SOL    HW229646   1.994   0.592   8.204  0.6508  0.9803  1.4964
 6004SOL     OW29647   3.761   0.807   5.688  0.1254  0.0533 -0.4739
 6004SOL    HW129648   3.835   0.818   5.629  0.7252  0.6260  0.3950
 6004SOL    HW229649   3.709   0.750   5.631 -0.3160  0.9326 -0.9420
 6005SOL     OW29650   4.586   0.578   6.188  0.1421 -0.2032  0.0076
 6005SOL    HW129651   4.523   0.556   6.257  0.3859 -0.7452  0.0594
 6005SOL    HW229652   4.664   0.587   6.242  0.6216 -1.7978 -0.4283
 6006SOL     OW29653   2.502   0.722   9.005 -0.4985 -0.2772 -0.5445
 6006SOL    HW129654   2.556   0.781   9.058 -0.1303  0.1412 -1.3851
 6006SOL    HW229655   2.417   0.759   9.029  0.3877  1.9142 -0.8158
 6007SOL     OW29656   2.494   0.365   0.717 -0.1392 -1.1264 -0.3679
 6007SOL    HW129657   2.529   0.378   0.629 -1.1211  1.4763 -0.3639
 6007SOL    HW229658   2.462   0.446   0.757 -0.9250 -1.2415 -0.7603
 6008SOL     OW29659   4.515   0.472  11.606 -0.2991 -0.2977 -1.2727
 6008SOL    HW129660   4.527   0.435  11.694  2.0156  0.0143 -1.4795
 6008SOL    HW229661   4.548   0.404  11.547  1.9983 -0.8678  0.6711
 6009SOL     OW29662   2.153   2.058   1.916  0.3018 -0.3532 -0.0031
 6009SOL    HW129663   2.151   2.151   1.939 -0.2093 -0.6685  1.2152
 6009SOL    HW229664   2.059   2.046   1.903  0.1178  0.8412  0.2522
 6010SOL     OW29665   3.739   1.655   8.453  0.1707  0.0889 -0.0561
 6010SOL    HW129666   3.711   1.677   8.542 -1.1183 -0.4883 -0.3031
 6010SOL    HW229667   3.744   1.560   8.460  2.1661  0.1253 -1.1081
 6011SOL     OW29668   0.010   1.416   8.183 -0.0211  0.2918  0.4573
 6011SOL    HW129669   4.713   1.462   8.258 -2.5259  0.9533 -1.1736
 6011SOL    HW229670   4.701   1.335   8.170  1.0271 -0.4870  1.4636
 6012SOL     OW29671   3.538   2.782   0.953 -0.4835 -0.2776  0.1117
 6012SOL    HW129672   3.611   2.771   1.013 -0.3605  0.5908  0.1248
 6012SOL    HW229673   3.565   2.860   0.905  0.4090  0.0433  1.1421
 6013SOL     OW29674   0.467   4.326   9.209  0.2659  0.1875 -0.4036
 6013SOL    HW129675   0.407   4.350   9.139 -0.2209 -1.0715 -0.4076
 6013SOL    HW229676   0.544   4.378   9.186 -0.2949  0.2686 -2.0738
 6014SOL     OW29677   4.007   1.809   3.410  0.3137  0.3772  0.0758
 6014SOL    HW129678   4.040   1.892   3.375  0.5522  0.4752  0.5383
 6014SOL    HW229679   4.075   1.747   3.386 -0.8383 -1.3741  1.3824
 6015SOL     OW29680   3.042   2.275  12.063  0.3640  0.0649  0.5867
 6015SOL    HW129681   3.119   2.219  12.074 -0.3627 -1.1324 -0.3918
 6015SOL    HW229682   3.020   2.287  12.156  2.5078  0.2420  1.0567
 6016SOL     OW29683   0.008   4.606   4.104  0.6229 -0.5927  0.6160
 6016SOL    HW129684   4.683   4.554   4.056  0.3032 -1.1964  1.6977
 6016SOL    HW229685   0.009   4.681   4.045 -0.1790 -0.2911  0.9858
 6017SOL     OW29686   3.620   4.184   6.311  0.8259 -0.0592  0.6232
 6017SOL    HW129687   3.691   4.130   6.345  1.1823  0.4917  0.7474
 6017SOL    HW229688   3.615   4.246   6.384 -1.4083 -0.5289  0.8759
 6018SOL     OW29689   2.534   2.291  14.361 -0.5414 -0.4045 -0.3630
 6018SOL    HW129690   2.611   2.239  14.386  0.2180  1.3904  1.0288
 6018SOL    HW229691   2.493   2.220  14.312  1.2491 -0.5643 -1.6472
 6019SOL     OW29692   1.799   2.135   4.911 -0.2928  0.2145 -0.1528
 6019SOL    HW129693   1.892   2.123   4.894 -0.0582 -2.9105  3.2808
 6019SOL    HW229694   1.798   2.152   5.005 -1.2416  1.7146 -0.4400
 6020SOL     OW29695   3.460   0.072  10.891 -0.4644  0.0485  0.3326
 6020SOL    HW129696   3.458   0.048  10.983  0.7600  0.6973  0.5263
 6020SOL    HW229697   3.553   0.093  10.878 -0.5964  1.0196  0.9344
 6021SOL     OW29698   2.148   2.572   5.994  0.2489  0.5595  0.3099
 6021SOL    HW129699   2.080   2.597   5.931 -1.6319 -1.8293  1.3805
 6021SOL    HW229700   2.102   2.601   6.073 -3.8731  3.4659 -3.1888
 6022SOL     OW29701   2.760   2.241   3.968 -0.0690  0.0361  0.5361
 6022SOL    HW129702   2.672   2.278   3.981 -0.1500  0.5506 -1.3727
 6022SOL    HW229703   2.795   2.267   4.053 -1.1692  2.0616  0.3760
 6023SOL     OW29704   1.779   1.258   9.038  0.4113  0.0623  0.3358
 6023SOL    HW129705   1.754   1.326   8.976  0.7621  0.2844  0.4369
 6023SOL    HW229706   1.764   1.299   9.124 -2.5603 -1.3769  0.5206
 6024SOL     OW29707   4.164   1.847   1.525 -0.2238 -0.0394  0.4480
 6024SOL    HW129708   4.213   1.843   1.607  3.0936 -1.0815 -1.5438
 6024SOL    HW229709   4.200   1.774   1.474 -0.4207  0.1935 -0.0255
 6025SOL     OW29710   3.704   1.724   8.714 -0.0435 -0.4357  0.2744
 6025SOL    HW129711   3.698   1.656   8.781 -0.6152 -0.6434  0.0087
 6025SOL    HW229712   3.643   1.787   8.751  0.2154  0.2472 -0.4684
 6026SOL     OW29713   2.056   4.075   6.183 -0.0405 -0.5088 -0.5458
 6026SOL    HW129714   2.060   4.155   6.235 -1.2515 -1.1304  0.4842
 6026SOL    HW229715   2.133   4.027   6.215 -0.5423  0.1470  1.6359
 6027SOL     OW29716   2.675   0.371  16.384 -0.2667  0.0890  0.3281
 6027SOL    HW129717   2.768   0.350  16.376 -0.4715 -0.6381 -0.1981
 6027SOL    HW229718   2.641   0.286  16.413  1.4197 -0.6852  0.0357
 6028SOL     OW29719   2.426   4.721   9.621  0.0035 -0.3902  0.5484
 6028SOL    HW129720   2.438   0.058   9.675  2.4226 -1.0668  0.9715
 6028SOL    HW229721   2.360   4.672   9.670 -1.1354  1.4372  0.8305
 6029SOL     OW29722   2.625   0.415   8.509 -0.2346  0.0479 -0.3412
 6029SOL    HW129723   2.555   0.419   8.574  0.0033 -2.0724  0.0671
 6029SOL    HW229724   2.585   0.367   8.436  1.8461 -2.8138  0.4033
 6030SOL     OW29725   2.355   3.505   1.393 -0.1941 -0.4159 -0.4521
 6030SOL    HW129726   2.321   3.563   1.325  0.1761  0.9955  0.5566
 6030SOL    HW229727   2.321   3.549   1.472  0.4256  1.5452 -1.2775
 6031SOL     OW29728   0.717   0.444  17.276  0.5036 -0.6001  0.0826
 6031SOL    HW129729   0.756   0.412  17.358  0.2976 -1.3530 -0.1079
 6031SOL    HW229730   0.765   0.526  17.265 -1.0265  0.3123  0.3728
 6032SOL     OW29731   4.415   0.470   2.595  1.1783  0.9619  0.4991
 6032SOL    HW129732   4.383   0.482   2.685  0.7351 -0.1334  0.4875
 6032SOL    HW229733   4.386   0.550   2.552 -2.0136  0.3508  1.4542
 6033SOL     OW29734   3.763   2.611   0.397 -0.3412  0.2133  0.2812
 6033SOL    HW129735   3.773   2.614   0.302  0.0529 -1.2770  0.2853
 6033SOL    HW229736   3.691   2.552   0.419  0.6623 -1.8604 -2.0837
 6034SOL     OW29737   1.789   1.551   1.672  0.3709  0.4955  0.1199
 6034SOL    HW129738   1.698   1.558   1.701  0.4601  1.5113  0.1441
 6034SOL    HW229739   1.771   1.538   1.579 -0.8715  3.1894 -0.0189
 6035SOL     OW29740   1.642   3.755  15.963  0.1532 -0.0570  0.5551
 6035SOL    HW129741   1.679   3.769  15.876 -4.1318  0.2732 -1.2000
 6035SOL    HW229742   1.715   3.726  16.017  2.2788  1.3580 -1.5841
 6036SOL     OW29743   1.096   3.923   4.568 -0.4920 -0.9589  0.0385
 6036SOL    HW129744   1.016   3.932   4.620 -1.4670 -1.8295 -1.3132
 6036SOL    HW229745   1.162   3.902   4.634  1.0116 -0.9903 -1.4748
 6037SOL     OW29746   3.593   2.037   5.622  0.6325  0.4083 -0.2008
 6037SOL    HW129747   3.680   2.008   5.650  0.3431 -2.5732 -2.3780
 6037SOL    HW229748   3.584   2.126   5.655 -1.2559 -0.3911  1.3817
 6038SOL     OW29749   2.570   3.887   5.554  0.4349  0.2424  0.1945
 6038SOL    HW129750   2.554   3.980   5.568 -1.2652  0.0303 -0.4106
 6038SOL    HW229751   2.489   3.870   5.506  0.4926 -0.5417  0.3801
 6039SOL     OW29752   3.926   0.591   1.450  0.4087 -0.1580 -0.4546
 6039SOL    HW129753   3.958   0.548   1.529  0.3560  0.7533  0.0524
 6039SOL    HW229754   3.996   0.561   1.391 -1.0732 -0.5918 -2.0019
 6040SOL     OW29755   0.660   1.772   7.662  0.2236  0.1742 -0.1966
 6040SOL    HW129756   0.647   1.866   7.647 -1.2314  0.5656  3.6237
 6040SOL    HW229757   0.659   1.763   7.757  0.9200  1.3057 -0.0837
 6041SOL     OW29758   1.844   3.569   2.800 -0.0685 -0.0769  0.1186
 6041SOL    HW129759   1.778   3.591   2.734  0.4140 -0.0255 -0.3413
 6041SOL    HW229760   1.927   3.591   2.758  1.9793 -1.6846  3.4025
 6042SOL     OW29761   0.006   2.667   0.290  0.3182  0.2482 -0.0797
 6042SOL    HW129762   4.686   2.720   0.343  1.0960  2.0577 -0.9911
 6042SOL    HW229763   4.718   2.578   0.310  1.2843 -0.0487 -0.0420
 6043SOL     OW29764   3.360   3.578   0.468 -0.0388  0.2674  0.3070
 6043SOL    HW129765   3.398   3.492   0.451 -1.0910 -0.1892  0.2449
 6043SOL    HW229766   3.283   3.578   0.411  1.0079  0.7795 -1.0997
 6044SOL     OW29767   4.085   0.346   2.019 -0.4578 -0.0177  0.1540
 6044SOL    HW129768   4.161   0.397   1.991 -0.3679 -0.1466  0.1603
 6044SOL    HW229769   4.130   0.272   2.060 -0.9784 -1.5180 -1.9803
 6045SOL     OW29770   1.415   3.711   3.446  0.1173  0.1449 -0.4183
 6045SOL    HW129771   1.321   3.690   3.444  0.3277 -1.0632  2.0771
 6045SOL    HW229772   1.437   3.729   3.355 -1.1198 -2.3322 -1.2258
 6046SOL     OW29773   3.148   3.458  15.996  0.6387 -0.0287 -0.2966
 6046SOL    HW129774   3.069   3.452  15.943  1.4631 -0.8246 -1.4207
 6046SOL    HW229775   3.136   3.543  16.040  0.3260 -1.4406  2.3272
 6047SOL     OW29776   3.083   1.312   8.977  0.0212 -0.6541 -0.4870
 6047SOL    HW129777   3.054   1.242   9.036  0.0939 -1.9864 -2.0396
 6047SOL    HW229778   2.996   1.335   8.946 -0.1855 -1.7296 -0.7117
 6048SOL     OW29779   3.599   3.790   5.477  0.2180  0.0207 -0.2656
 6048SOL    HW129780   3.637   3.873   5.505  0.4393 -0.3889  0.6665
 6048SOL    HW229781   3.505   3.807   5.481  0.6048  1.7199  1.9176
 6049SOL     OW29782   3.976   4.349   4.832  0.0648 -0.4349  0.5299
 6049SOL    HW129783   4.051   4.321   4.779 -0.0376  0.4992 -0.1129
 6049SOL    HW229784   3.998   4.306   4.915  1.1386  0.0205  0.4775
 6050SOL     OW29785   3.735   3.411   9.986  0.3700 -0.0605 -0.3210
 6050SOL    HW129786   3.804   3.415   9.920  0.5960  1.7898  0.0018
 6050SOL    HW229787   3.779   3.445  10.064 -0.0702 -0.6195  0.1714
 6051SOL     OW29788   0.291   4.081  12.652 -0.3830 -0.2789 -0.1191
 6051SOL    HW129789   0.342   4.043  12.724 -3.0961 -3.7541 -0.0108
 6051SOL    HW229790   0.357   4.111  12.590  0.3393  1.9471  1.7360
 6052SOL     OW29791   3.282   1.283   7.379  0.0414 -0.2420 -0.2613
 6052SOL    HW129792   3.354   1.315   7.324  0.1909  0.2988  0.2442
 6052SOL    HW229793   3.291   1.188   7.379  0.6624 -0.1902  3.0428
 6053SOL     OW29794   2.455   4.271  12.025 -0.7272  0.3056  0.0673
 6053SOL    HW129795   2.413   4.347  11.987 -0.4130  0.0295 -0.8213
 6053SOL    HW229796   2.518   4.258  11.954 -1.0806 -0.1965 -0.1562
 6054SOL     OW29797   0.337   0.555   4.967 -0.1728  0.0024  0.9102
 6054SOL    HW129798   0.359   0.518   4.882 -3.6575  2.0046 -0.8783
 6054SOL    HW229799   0.299   0.477   5.007 -0.5420 -0.8972 -1.2111
 6055SOL     OW29800   1.045   4.712   4.204  0.3136 -0.0272  0.5896
 6055SOL    HW129801   1.040   4.676   4.116 -2.6196 -2.2014  1.6676
 6055SOL    HW229802   0.956   0.005   4.211  0.4325  0.3250  0.4319
 6056SOL     OW29803   0.848   3.398   0.046 -0.2629 -0.0630 -0.1620
 6056SOL    HW129804   0.788   3.439   0.107 -0.6218 -2.2669  0.9557
 6056SOL    HW229805   0.813   3.313   0.021 -1.0891  1.2327 -3.5391
 6057SOL     OW29806   1.456   1.884   7.227  0.0966 -0.2239 -0.3396
 6057SOL    HW129807   1.455   1.801   7.274  1.9999  0.6561  1.2589
 6057SOL    HW229808   1.471   1.957   7.287 -1.1510 -0.2519 -0.0000
 6058SOL     OW29809   2.438   4.282   2.076 -0.1961  0.1687 -0.7172
 6058SOL    HW129810   2.497   4.298   2.003  1.9127  1.7077  1.2877
 6058SOL    HW229811   2.361   4.330   2.046  0.0958 -0.5563 -2.6279
 6059SOL     OW29812   4.092   0.898   8.298 -0.7264  0.0224 -0.7270
 6059SOL    HW129813   4.090   0.991   8.319 -0.9551  0.0941 -1.0507
 6059SOL    HW229814   4.132   0.907   8.211 -0.4149  4.0431 -0.1651
 6060SOL     OW29815   3.642   1.861   6.317 -0.3119 -0.1655 -0.1083
 6060SOL    HW129816   3.629   1.916   6.394 -0.5285  1.0822 -1.0319
 6060SOL    HW229817   3.553   1.835   6.291 -0.9896 -1.2935  3.4417
 6061SOL     OW29818   3.525   1.840   1.202  0.1321  0.1895 -0.1397
 6061SOL    HW129819   3.442   1.792   1.203  0.5858 -0.7268 -3.3619
 6061SOL    HW229820   3.562   1.779   1.138 -3.5449 -0.6743 -1.4617
 6062SOL     OW29821   2.779   1.135   2.144 -0.1715 -0.6370  0.0640
 6062SOL    HW129822   2.710   1.191   2.109  0.3185 -0.2234 -0.2352
 6062SOL    HW229823   2.813   1.088   2.068 -1.1093  0.9584 -1.3463
 6063SOL     OW29824   2.776   3.480   1.776  0.1456  0.2945  0.4918
 6063SOL    HW129825   2.685   3.451   1.783  0.6479 -1.7844 -1.6021
 6063SOL    HW229826   2.801   3.480   1.868  1.8531  0.9150  0.0229
 6064SOL     OW29827   4.427   1.278   9.339  0.4125  0.5724  0.4346
 6064SOL    HW129828   4.511   1.272   9.385  0.1887  0.2279  0.7971
 6064SOL    HW229829   4.443   1.203   9.282 -0.7274  0.4472  0.2687
 6065SOL     OW29830   2.210   1.561   1.922  0.1919  0.2837 -0.4295
 6065SOL    HW129831   2.227   1.647   1.884 -0.9270  0.6482 -0.0869
 6065SOL    HW229832   2.149   1.521   1.860  0.1309  0.6361 -0.5939
 6066SOL     OW29833   1.206   4.618   1.033  0.5768 -0.0111 -0.3616
 6066SOL    HW129834   1.163   4.533   1.019 -0.6098  1.0361 -3.0898
 6066SOL    HW229835   1.205   4.611   1.128  0.3367 -3.0713 -0.5801
 6067SOL     OW29836   3.417   4.191   7.073 -0.2983  0.5320 -0.4376
 6067SOL    HW129837   3.491   4.130   7.065 -1.7522 -1.4503  1.0997
 6067SOL    HW229838   3.449   4.242   7.147  2.0195 -2.6386  0.7581
 6068SOL     OW29839   1.956   2.316   6.841  0.3377 -0.2248 -0.0321
 6068SOL    HW129840   1.884   2.260   6.871 -0.0389 -0.1961 -0.8854
 6068SOL    HW229841   2.025   2.258   6.872 -0.9144 -1.2595  0.8697
 6069SOL     OW29842   2.805   3.836   0.630  0.0705 -0.3063  0.1917
 6069SOL    HW129843   2.864   3.828   0.555  1.4376  0.1323  1.2100
 6069SOL    HW229844   2.725   3.810   0.585  0.9297  0.6389 -1.8773
 6070SOL     OW29845   3.677   1.028   3.869  0.2302 -0.2868 -0.0702
 6070SOL    HW129846   3.624   0.971   3.813 -1.8766  0.3036  1.3184
 6070SOL    HW229847   3.616   1.100   3.885  0.8418  0.4053 -0.8609
 6071SOL     OW29848   2.075   3.697   4.098  0.0814 -0.2024 -0.1180
 6071SOL    HW129849   2.080   3.777   4.045  0.7754 -0.7582 -0.8826
 6071SOL    HW229850   2.145   3.644   4.058  1.7881 -0.4424  3.1923
 6072SOL     OW29851   1.571   2.906  10.012 -0.1979  0.6456 -0.8936
 6072SOL    HW129852   1.642   2.967   9.995  2.1225 -1.8851 -0.3220
 6072SOL    HW229853   1.496   2.965  10.003 -0.2896  0.6284 -0.2612
 6073SOL     OW29854   3.352   2.342   0.010 -0.0666  0.0483  0.2865
 6073SOL    HW129855   3.349   2.418   0.069  1.1819 -1.2978  2.0661
 6073SOL    HW229856   3.435   2.312   0.046  1.4572 -0.1139 -3.4507
 6074SOL     OW29857   1.546   0.169   6.037 -0.0899 -0.7102 -0.0388
 6074SOL    HW129858   1.499   0.085   6.031  2.1812 -2.0262  0.5712
 6074SOL    HW229859   1.583   0.160   6.124  0.6319  2.5094 -0.0302
 6075SOL     OW29860   3.405   1.869   7.920  0.0041 -0.1074  0.6117
 6075SOL    HW129861   3.318   1.909   7.920 -0.9233 -2.1216 -1.0997
 6075SOL    HW229862   3.391   1.821   8.002 -2.4215  0.2307  0.3712
 6076SOL     OW29863   2.415   2.036   0.773  0.1091  0.6950  0.4463
 6076SOL    HW129864   2.432   2.044   0.867  1.6386  0.8075  0.1497
 6076SOL    HW229865   2.321   2.055   0.763  0.2097  0.8735 -0.1589
 6077SOL     OW29866   3.916   4.545   3.831  0.4804 -0.2880  0.2688
 6077SOL    HW129867   3.849   4.608   3.804  1.2210  0.4300  0.1122
 6077SOL    HW229868   3.894   4.539   3.924  1.1352 -0.7050  0.4017
 6078SOL     OW29869   1.493   2.721  15.852 -0.1122 -0.7841  0.8790
 6078SOL    HW129870   1.561   2.670  15.806  1.0495  2.1268 -0.6611
 6078SOL    HW229871   1.470   2.656  15.918 -0.0559  1.0619  2.7200
 6079SOL     OW29872   1.674   1.313   2.921 -0.2829 -0.2802 -0.2253
 6079SOL    HW129873   1.623   1.291   2.843 -0.6985 -0.4586  0.0967
 6079SOL    HW229874   1.697   1.405   2.911 -0.2539 -0.4119 -1.4180
 6080SOL     OW29875   0.599   4.451   5.893 -0.6198 -0.0869 -0.4615
 6080SOL    HW129876   0.535   4.475   5.825  1.9422  1.9294 -2.1442
 6080SOL    HW229877   0.617   4.363   5.861 -4.1011 -0.9329 -0.0967
 6081SOL     OW29878   2.868   2.278   8.248 -0.5882  0.3601  0.6747
 6081SOL    HW129879   2.906   2.192   8.266 -0.5832  0.4194  0.9368
 6081SOL    HW229880   2.926   2.336   8.297 -1.1647  2.7836 -1.4877
 6082SOL     OW29881   0.730   0.061  13.165  0.0621  0.5327  0.2525
 6082SOL    HW129882   0.643   0.050  13.203  0.9428  0.8479  2.3330
 6082SOL    HW229883   0.780   4.725  13.194 -1.7448 -1.0958 -0.8433
 6083SOL     OW29884   4.182   3.344  10.990  0.0092 -0.1622 -0.0292
 6083SOL    HW129885   4.089   3.329  10.975  0.3868 -2.9369  0.4196
 6083SOL    HW229886   4.183   3.355  11.085  1.3183 -2.9348  0.2908
 6084SOL     OW29887   0.334   2.799   3.201  0.0972  0.1361 -0.0802
 6084SOL    HW129888   0.302   2.796   3.110 -1.7446  3.4132  0.4678
 6084SOL    HW229889   0.254   2.787   3.253 -0.5650  3.3310 -0.3707
 6085SOL     OW29890   0.255   1.528   4.925 -0.0256  0.1212  0.3901
 6085SOL    HW129891   0.307   1.477   4.863 -0.1969  1.4698 -0.8457
 6085SOL    HW229892   0.167   1.493   4.913  1.1144 -1.9493 -1.8444
 6086SOL     OW29893   1.417   0.932   8.648  0.3767  0.5857  0.0170
 6086SOL    HW129894   1.341   0.985   8.673  0.1442  0.8641 -1.2777
 6086SOL    HW229895   1.381   0.847   8.674 -0.7464  1.0074 -0.1720
 6087SOL     OW29896   1.275   0.922   7.037 -0.1095  0.2404 -0.6260
 6087SOL    HW129897   1.205   0.856   7.036 -1.2526  1.4385  0.8920
 6087SOL    HW229898   1.326   0.893   6.962  1.1790 -1.7558  1.0089
 6088SOL     OW29899   1.228   3.350  17.499 -0.3146  0.0201  0.6648
 6088SOL    HW129900   1.134   3.354  17.519 -0.2199  1.9398  0.6632
 6088SOL    HW229901   1.264   3.416  17.558 -0.2735  0.4378  0.1737
 6089SOL     OW29902   3.014   2.247   3.495  0.1364  0.3573 -0.1103
 6089SOL    HW129903   2.993   2.159   3.464 -1.8512  0.8847 -0.2597
 6089SOL    HW229904   3.102   2.236   3.530  0.8334 -0.0144 -1.9892
 6090SOL     OW29905   0.512   3.070   5.688  0.3500  0.0406  0.5750
 6090SOL    HW129906   0.471   3.100   5.769 -2.9202 -1.1241 -0.6774
 6090SOL    HW229907   0.516   2.975   5.698 -1.9618 -0.3290 -1.9005
 6091SOL     OW29908   3.372   4.675  15.704 -0.0338  0.1541 -0.3721
 6091SOL    HW129909   3.437   4.706  15.642  2.5631  0.9670  2.7431
 6091SOL    HW229910   3.417   4.664  15.788 -0.7815 -0.0260  0.0131
 6092SOL     OW29911   3.292   2.181   3.578 -0.4650  0.3720  0.2486
 6092SOL    HW129912   3.313   2.088   3.590 -1.0144  0.0545 -1.1987
 6092SOL    HW229913   3.324   2.202   3.490 -0.1744 -0.5260  0.1378
 6093SOL     OW29914   2.594   4.154   5.555 -0.4072  0.0967  0.8673
 6093SOL    HW129915   2.628   4.133   5.468  1.2732 -0.6299  1.6906
 6093SOL    HW229916   2.507   4.189   5.535 -0.0652 -0.2180 -1.0950
 6094SOL     OW29917   0.266   2.503   2.076  0.2497  0.1621  0.4447
 6094SOL    HW129918   0.204   2.498   2.149  1.5015 -1.2437  1.3976
 6094SOL    HW229919   0.349   2.515   2.123  0.3733 -0.7994  0.4609
 6095SOL     OW29920   1.160   0.062   1.681  0.3533 -0.4859 -0.4791
 6095SOL    HW129921   1.244   0.059   1.636  2.1288  2.3705  2.6467
 6095SOL    HW229922   1.161   4.732   1.746  2.7072  0.3494  0.3932
 6096SOL     OW29923   3.386   3.585   3.236  0.2133 -0.0355  0.3003
 6096SOL    HW129924   3.432   3.665   3.263 -0.4919  0.5987 -0.3671
 6096SOL    HW229925   3.329   3.574   3.312  0.5211 -0.1727  0.5146
 6097SOL     OW29926   4.660   2.519   4.727 -0.1722 -0.2104  0.7384
 6097SOL    HW129927   4.606   2.598   4.735  0.0289  0.2997 -3.2502
 6097SOL    HW229928   0.005   2.563   4.725  0.0261 -0.4819  2.7545
 6098SOL     OW29929   0.171   2.358   9.077 -0.1406 -0.4190 -1.2801
 6098SOL    HW129930   0.197   2.420   9.008 -0.0698  2.1030  1.0250
 6098SOL    HW229931   0.258   2.343   9.115 -1.5768 -0.7223  1.8739
 6099SOL     OW29932   2.600   1.573   3.641  0.9372 -0.4678  0.7453
 6099SOL    HW129933   2.652   1.571   3.722 -0.0313 -3.1158  1.3005
 6099SOL    HW229934   2.622   1.485   3.611  0.8293 -0.3671  0.3757
 6100SOL     OW29935   3.715   3.649   6.592  0.0036 -0.2828 -0.2349
 6100SOL    HW129936   3.685   3.722   6.539  3.0200  0.0459 -1.4800
 6100SOL    HW229937   3.678   3.583   6.534 -3.4771  2.1598 -0.7892
 6101SOL     OW29938   3.870   3.556  15.032  0.1765  0.3922  0.2862
 6101SOL    HW129939   3.940   3.613  15.064 -0.1451  1.3571 -0.7598
 6101SOL    HW229940   3.897   3.544  14.941 -1.7337 -0.2482 -0.1740
 6102SOL     OW29941   4.592   0.772   5.993 -0.4131  0.1996  0.1761
 6102SOL    HW129942   4.591   0.853   6.043  2.0189  0.6070 -0.4622
 6102SOL    HW229943   4.593   0.705   6.062  1.0406 -0.6213 -0.6396
 6103SOL     OW29944   4.541   0.796  13.203 -0.0097  0.2101  0.3352
 6103SOL    HW129945   4.564   0.841  13.285 -1.4737  2.1722 -0.3214
 6103SOL    HW229946   4.487   0.724  13.234  0.3286 -0.2620 -0.1801
 6104SOL     OW29947   3.179   4.318  10.522  0.1263  0.1828 -0.0346
 6104SOL    HW129948   3.141   4.405  10.531  1.1242  0.9311 -3.0576
 6104SOL    HW229949   3.168   4.289  10.612  2.7428 -4.0957 -1.1070
 6105SOL     OW29950   3.315   0.606   7.339  0.2320 -0.7197 -0.3592
 6105SOL    HW129951   3.306   0.545   7.412  0.6944  0.8668  1.0337
 6105SOL    HW229952   3.344   0.549   7.267  0.2559 -0.8807 -0.2219
 6106SOL     OW29953   2.124   0.943   7.476  0.2489 -0.1602 -0.3098
 6106SOL    HW129954   2.062   0.995   7.528 -0.9282 -2.2026  0.3430
 6106SOL    HW229955   2.211   0.978   7.494  0.0240 -0.0939  0.6979
 6107SOL     OW29956   3.228   2.288  14.901 -0.3711  0.0052  0.2292
 6107SOL    HW129957   3.170   2.362  14.884  0.8854  0.8878 -0.2483
 6107SOL    HW229958   3.316   2.327  14.902 -1.3212  2.2155 -1.1151
 6108SOL     OW29959   2.035   2.221  12.632 -0.6281 -0.2268 -0.7713
 6108SOL    HW129960   2.027   2.266  12.716 -0.4517  1.4578 -1.6651
 6108SOL    HW229961   1.957   2.165  12.640 -0.0404 -0.7628  1.4630
 6109SOL     OW29962   0.710   4.507  17.593  0.3889 -0.2096 -0.1116
 6109SOL    HW129963   0.754   4.580  17.548 -0.0287 -0.7603 -1.4208
 6109SOL    HW229964   0.634   4.555  17.626  0.7386  0.2826 -0.0252
 6110SOL     OW29965   0.651   0.421   2.622 -0.3353 -0.1915 -0.4222
 6110SOL    HW129966   0.571   0.372   2.638  0.0813 -0.3954  1.1192
 6110SOL    HW229967   0.651   0.425   2.527 -0.7580  1.0457 -0.3713
 6111SOL     OW29968   4.303   0.782   7.653  0.0418  0.6676 -0.4438
 6111SOL    HW129969   4.384   0.806   7.697  0.7415  1.3695 -2.0864
 6111SOL    HW229970   4.285   0.867   7.612  1.0186  0.9794 -0.1993
 6112SOL     OW29971   1.639   1.021   3.606 -0.0927  0.1915 -0.0822
 6112SOL    HW129972   1.553   0.998   3.641  0.7227  0.4562  2.0701
 6112SOL    HW229973   1.615   1.112   3.589 -0.1958  0.1592 -0.1106
 6113SOL     OW29974   3.270   4.340  16.987  0.0539  0.5596 -0.5186
 6113SOL    HW129975   3.187   4.299  17.012 -1.1188  1.3326 -3.0898
 6113SOL    HW229976   3.321   4.260  16.986  1.5054  1.4753 -0.0848
 6114SOL     OW29977   1.929   3.356   8.207 -0.1853 -0.6577  0.3690
 6114SOL    HW129978   1.955   3.301   8.280  1.6328  2.9228  2.4160
 6114SOL    HW229979   1.835   3.360   8.226 -0.1660 -2.8288  0.8842
 6115SOL     OW29980   2.508   1.544   4.981 -0.2680 -0.1519 -0.3050
 6115SOL    HW129981   2.581   1.607   4.988 -0.6988  0.4912 -1.6470
 6115SOL    HW229982   2.448   1.588   5.041  0.0864 -0.4277  0.2479
 6116SOL     OW29983   4.401   3.177   7.052 -0.6545  0.0053 -0.3147
 6116SOL    HW129984   4.354   3.102   7.015  0.9254 -1.5452  0.8566
 6116SOL    HW229985   4.384   3.242   6.984  0.0654 -0.4418 -0.9338
 6117SOL     OW29986   0.161   0.927  14.228  0.1003 -0.0621  0.0202
 6117SOL    HW129987   0.134   0.881  14.308 -1.1391 -2.4637 -1.7912
 6117SOL    HW229988   0.084   0.912  14.174  0.9189 -0.2533 -1.0816
 6118SOL     OW29989   3.366   4.295   7.592  0.2197 -0.5644 -0.2198
 6118SOL    HW129990   3.381   4.343   7.510  0.8780  1.2028  0.9306
 6118SOL    HW229991   3.447   4.244   7.586 -0.4219 -1.7413  1.1376
 6119SOL     OW29992   2.091   3.840   6.678 -0.0686  0.1219  0.0592
 6119SOL    HW129993   2.071   3.847   6.772 -0.3017 -1.5620  0.1447
 6119SOL    HW229994   2.130   3.752   6.681 -1.6819 -0.5216  3.1536
 6120SOL     OW29995   2.709   4.632   8.889  0.0015 -0.4428  0.0965
 6120SOL    HW129996   2.709   4.585   8.806  2.9164  1.3521 -0.8996
 6120SOL    HW229997   2.622   4.673   8.893  0.8014  1.4314 -2.1115
 6121SOL     OW29998   2.711   2.204  11.903 -0.3137 -0.0130  0.6538
 6121SOL    HW129999   2.753   2.276  11.951  0.5586 -0.3935  0.4644
 6121SOL    HW230000   2.711   2.128  11.961 -0.9203 -0.4770  0.0442
 6122SOL     OW30001   3.841   3.400  17.733  0.8408  0.7603 -0.1024
 6122SOL    HW130002   3.902   3.344   0.023  0.8192 -0.9320 -2.0585
 6122SOL    HW230003   3.879   3.388  17.646  0.3162 -0.3052 -0.1861
 6123SOL     OW30004   4.194   1.805   8.208 -0.2032  0.0772  0.2637
 6123SOL    HW130005   4.227   1.795   8.298  2.6041 -0.6828 -0.8530
 6123SOL    HW230006   4.104   1.773   8.220 -0.0967  0.1422  1.2581
 6124SOL     OW30007   2.551   1.425   6.498  0.7449  0.6685 -0.2154
 6124SOL    HW130008   2.591   1.500   6.454  1.6211 -0.0117 -0.5535
 6124SOL    HW230009   2.622   1.361   6.506 -0.0884 -0.2962 -0.5418
 6125SOL     OW30010   2.317   2.396   5.380 -0.2679 -0.2203 -0.4798
 6125SOL    HW130011   2.347   2.418   5.292  0.7204  0.5276  0.0478
 6125SOL    HW230012   2.386   2.447   5.422 -1.2677  2.2816 -1.8828
 6126SOL     OW30013   0.817   1.309   2.412  0.5094  0.1031  0.4243
 6126SOL    HW130014   0.890   1.271   2.461  2.1530  0.9279 -1.3516
 6126SOL    HW230015   0.817   1.398   2.448 -0.1682  0.0411  0.5651
 6127SOL     OW30016   2.787   2.326   3.135 -0.3531 -0.2241  0.3173
 6127SOL    HW130017   2.692   2.336   3.143 -0.4586 -0.9554  0.0303
 6127SOL    HW230018   2.797   2.289   3.223 -1.3829 -2.0320 -0.3356
 6128SOL     OW30019   0.876   3.730   4.511  0.3710  0.3346 -0.1649
 6128SOL    HW130020   0.935   3.688   4.449 -0.1704  0.9427 -1.0873
 6128SOL    HW230021   0.924   3.728   4.594  1.6763  2.6898 -0.8873
 6129SOL     OW30022   1.243   4.316   7.642  0.0293  0.2052  0.2583
 6129SOL    HW130023   1.295   4.236   7.646  0.5904  0.5580 -0.0542
 6129SOL    HW230024   1.300   4.379   7.685  1.7124 -2.0035  1.2565
 6130SOL     OW30025   2.765   2.773   8.815  0.1018 -0.1400 -0.1147
 6130SOL    HW130026   2.820   2.752   8.740 -1.7029  1.1080 -1.7853
 6130SOL    HW230027   2.685   2.796   8.768 -0.0552 -0.8158 -0.1770
 6131SOL     OW30028   4.329   2.296   2.673 -0.6343 -0.2984  0.3080
 6131SOL    HW130029   4.382   2.232   2.721  0.8784  1.4857  1.0182
 6131SOL    HW230030   4.280   2.327   2.749 -2.5008  0.8706 -1.3725
 6132SOL     OW30031   3.746   0.286   2.498  0.0203  0.1836 -0.2316
 6132SOL    HW130032   3.751   0.201   2.455  0.5235  0.0689  0.0564
 6132SOL    HW230033   3.830   0.327   2.473  0.3885 -1.2893 -1.3816
 6133SOL     OW30034   3.175   1.299   0.317 -0.5859 -0.5548  0.4886
 6133SOL    HW130035   3.267   1.303   0.292 -0.5608 -0.1114  0.6667
 6133SOL    HW230036   3.146   1.390   0.321 -1.1289 -0.5738 -2.7408
 6134SOL     OW30037   0.437   4.284   7.631  0.1405  0.2201 -0.4809
 6134SOL    HW130038   0.483   4.357   7.589 -0.3819 -0.8126 -2.8445
 6134SOL    HW230039   0.450   4.302   7.724 -0.2009  0.3561 -0.4607
 6135SOL     OW30040   1.717   4.234   7.064  0.3694 -0.0771  0.8799
 6135SOL    HW130041   1.759   4.314   7.097  0.0136  0.5708 -0.2402
 6135SOL    HW230042   1.792   4.193   7.021  0.7620  1.2358  0.3036
 6136SOL     OW30043   1.789   4.135   5.493 -0.1727  0.4760  0.3406
 6136SOL    HW130044   1.802   4.040   5.487 -2.6881  0.1431  0.0381
 6136SOL    HW230045   1.880   4.162   5.506  0.6007 -2.0482  0.1675
 6137SOL     OW30046   1.119   0.337   3.040  0.0165 -0.2815  0.6168
 6137SOL    HW130047   1.187   0.394   3.002  0.5436 -1.9374 -0.8777
 6137SOL    HW230048   1.149   0.335   3.131  1.6008 -0.7262  0.0870
 6138SOL     OW30049   2.135   0.417   4.244 -0.0981  0.2130  0.2108
 6138SOL    HW130050   2.166   0.503   4.272  1.0742 -0.0281 -0.3424
 6138SOL    HW230051   2.215   0.369   4.266  0.9607  3.2647  2.9836
 6139SOL     OW30052   0.444   2.529   7.750  0.2307  0.0517  0.6217
 6139SOL    HW130053   0.491   2.489   7.678  0.3070  1.8918 -0.3504
 6139SOL    HW230054   0.355   2.493   7.744 -0.6379  1.6713  3.3343
 6140SOL     OW30055   2.401   1.766   6.509  0.3042  0.2135 -0.0366
 6140SOL    HW130056   2.490   1.739   6.486 -0.2438 -0.4022 -1.3901
 6140SOL    HW230057   2.349   1.688   6.492 -1.3971  0.7886  2.6200
 6141SOL     OW30058   2.881   4.631   4.393  0.5578 -0.1257 -0.4339
 6141SOL    HW130059   2.917   4.600   4.310  2.9984 -0.0646  0.5991
 6141SOL    HW230060   2.860   4.723   4.380 -0.1078 -0.4892 -1.9836
 6142SOL     OW30061   3.717   2.615  11.200 -0.6218 -0.4740 -0.0115
 6142SOL    HW130062   3.722   2.570  11.115 -1.1423  1.1833 -0.9209
 6142SOL    HW230063   3.774   2.565  11.258  0.2824 -0.5060 -0.9388
 6143SOL     OW30064   0.914   1.337   4.572  0.3412  0.2675 -0.4410
 6143SOL    HW130065   0.865   1.285   4.636  1.6118  2.0076  1.9242
 6143SOL    HW230066   1.001   1.299   4.583 -0.0098 -0.1985  0.7445
 6144SOL     OW30067   3.436   0.285  14.086 -0.4433 -0.2419  0.1442
 6144SOL    HW130068   3.431   0.208  14.143 -3.1855 -0.6089 -0.5753
 6144SOL    HW230069   3.516   0.327  14.116 -1.1541  2.0186 -1.0898
 6145SOL     OW30070   1.462   1.863   1.658 -0.2427  0.2750 -0.4134
 6145SOL    HW130071   1.546   1.872   1.613 -0.1108  1.8103  0.1578
 6145SOL    HW230072   1.465   1.910   1.741 -1.4654 -1.3883  0.5963
 6146SOL     OW30073   4.366   4.392   9.481  0.1796  0.2030  0.3558
 6146SOL    HW130074   4.319   4.349   9.409  0.1897  0.3246  0.2758
 6146SOL    HW230075   4.454   4.388   9.443  0.6891 -2.8669  1.8771
 6147SOL     OW30076   0.393   2.372   1.764 -0.5195  0.0584  0.0514
 6147SOL    HW130077   0.412   2.313   1.691 -0.2225 -1.2188  1.1550
 6147SOL    HW230078   0.411   2.310   1.834 -0.8763  0.4578  0.4932
 6148SOL     OW30079   4.352   2.094   7.803 -0.1581 -0.2411  0.6103
 6148SOL    HW130080   4.296   2.161   7.764  0.5831  0.2397  0.3702
 6148SOL    HW230081   4.290   2.051   7.861  1.6983 -1.9957  1.2931
 6149SOL     OW30082   0.735   0.849   5.114  0.0735 -0.3103 -0.2328
 6149SOL    HW130083   0.812   0.891   5.074  0.9130  1.1867  2.9561
 6149SOL    HW230084   0.766   0.765   5.146  0.1387 -0.1343  0.1683
 6150SOL     OW30085   3.823   1.075   8.931  0.4908  0.2100  0.2240
 6150SOL    HW130086   3.769   1.014   8.880  0.1338  1.1039 -0.4503
 6150SOL    HW230087   3.876   1.116   8.863 -1.8155  1.9882 -0.4793
 6151SOL     OW30088   4.699   2.965  10.360 -0.0271  0.1433 -0.6923
 6151SOL    HW130089   4.621   2.917  10.334  0.1689 -0.2846 -0.4957
 6151SOL    HW230090   0.006   2.906  10.419  0.1566 -0.7751 -1.7511
 6152SOL     OW30091   1.968   3.953   4.401 -0.1406  0.1446 -0.2445
 6152SOL    HW130092   1.885   3.913   4.376 -0.2760 -0.2505  0.8641
 6152SOL    HW230093   1.939   3.989   4.484  0.0623  4.6012 -2.1312
 6153SOL     OW30094   4.569   2.814   7.592  0.1613 -0.3873 -0.3721
 6153SOL    HW130095   4.605   2.725   7.592  0.7756 -0.1411 -0.0540
 6153SOL    HW230096   4.590   2.843   7.681  0.6972  0.1568 -0.6699
 6154SOL     OW30097   0.133   2.786   4.234  0.1013  0.4925  0.0081
 6154SOL    HW130098   0.072   2.722   4.269 -0.3949  1.0374  0.1386
 6154SOL    HW230099   0.125   2.859   4.295  1.7833  0.6158  0.1003
 6155SOL     OW30100   3.503   3.531   6.841  0.0715  0.0161  0.1804
 6155SOL    HW130101   3.547   3.540   6.926 -0.7529  0.9813  0.5016
 6155SOL    HW230102   3.583   3.509   6.793 -0.8594 -3.1014  0.0665
 6156SOL     OW30103   0.296   3.946   6.052  0.4849  0.0975  0.2955
 6156SOL    HW130104   0.290   3.909   5.964  1.5580 -0.0346  0.2824
 6156SOL    HW230105   0.337   4.031   6.037  2.5716 -1.3239 -1.9659
 6157SOL     OW30106   4.020   1.322   4.827  0.4027 -0.0298  0.0743
 6157SOL    HW130107   4.054   1.293   4.743  0.7864  0.5402  0.0323
 6157SOL    HW230108   3.976   1.406   4.811 -1.2466 -0.7249  0.9245
 6158SOL     OW30109   3.432   2.355   1.237 -0.1666 -0.2961  0.3030
 6158SOL    HW130110   3.338   2.346   1.249 -0.3119  0.6766 -0.1056
 6158SOL    HW230111   3.460   2.266   1.214  3.2233  0.7752  0.3461
 6159SOL     OW30112   2.865   3.755  17.384 -0.0139  0.2803 -0.3538
 6159SOL    HW130113   2.893   3.771  17.294  0.5905  0.4311 -0.1379
 6159SOL    HW230114   2.948   3.729  17.423 -0.1213  0.1434 -0.2183
 6160SOL     OW30115   1.839   2.255   4.417 -0.4010  0.2834  0.0083
 6160SOL    HW130116   1.843   2.193   4.490  1.0286 -0.0534 -0.3616
 6160SOL    HW230117   1.813   2.337   4.459 -2.6442  0.1248 -1.0792
 6161SOL     OW30118   3.116   0.861   4.606 -0.2990  0.2897 -0.2126
 6161SOL    HW130119   3.116   0.838   4.514  1.5508 -3.8641  0.8366
 6161SOL    HW230120   3.210   0.852   4.624  0.0476 -2.4330 -3.4779
 6162SOL     OW30121   3.852   2.051  11.423 -0.0724 -0.6842 -0.6656
 6162SOL    HW130122   3.830   2.082  11.511 -1.8746 -2.7385 -0.3821
 6162SOL    HW230123   3.769   2.073  11.380 -1.0177 -0.1657  1.4290
 6163SOL     OW30124   3.962   0.010   5.573  0.2050  0.1815  0.6346
 6163SOL    HW130125   3.986   0.093   5.532 -0.3909 -0.4769 -1.0600
 6163SOL    HW230126   3.936   4.712   5.489  0.2030  0.8170  0.3488
 6164SOL     OW30127   4.488   3.818   7.267  0.0772 -0.0386  0.1272
 6164SOL    HW130128   4.459   3.854   7.351  2.1570  1.8531  0.0328
 6164SOL    HW230129   4.542   3.890   7.235  2.2363 -0.2922  3.2216
 6165SOL     OW30130   3.905   2.407   8.317 -0.3072  0.2369 -0.4153
 6165SOL    HW130131   3.996   2.400   8.346 -0.6815 -1.1679  0.3899
 6165SOL    HW230132   3.916   2.398   8.222 -1.1410  1.5351 -0.6448
 6166SOL     OW30133   1.952   1.857   6.685  0.2609 -0.0023  0.2491
 6166SOL    HW130134   2.016   1.883   6.618 -0.5467  0.7731 -0.2054
 6166SOL    HW230135   1.994   1.885   6.766 -2.2937 -1.5633  2.0922
 6167SOL     OW30136   4.542   0.825   1.917 -0.3020  0.0692 -0.3715
 6167SOL    HW130137   4.529   0.885   1.843 -1.2028 -0.0927 -0.3353
 6167SOL    HW230138   4.636   0.810   1.904 -0.0734  1.3256 -0.1843
 6168SOL     OW30139   3.750   2.249  11.605  0.2579  0.0689  0.3426
 6168SOL    HW130140   3.832   2.299  11.613 -1.0657  2.2269  0.6618
 6168SOL    HW230141   3.691   2.320  11.579  0.3463 -0.0652 -0.2109
 6169SOL     OW30142   4.479   3.583   7.154  0.1918  0.4933 -0.2605
 6169SOL    HW130143   4.486   3.604   7.061 -0.2010 -0.3410 -0.4804
 6169SOL    HW230144   4.480   3.669   7.197 -0.5726  0.6530 -0.5637
 6170SOL     OW30145   0.137   0.321   2.715 -0.4507 -0.3071  0.3323
 6170SOL    HW130146   0.094   0.267   2.781 -1.7956 -0.2060 -0.4615
 6170SOL    HW230147   0.062   0.356   2.666 -0.7114  0.6366  1.4236
 6171SOL     OW30148   1.010   0.203   7.447  0.1234  0.0513  0.4281
 6171SOL    HW130149   1.100   0.192   7.418  0.9053  1.0912  2.4668
 6171SOL    HW230150   0.971   0.263   7.383  1.0639  0.0699 -0.1214
 6172SOL     OW30151   1.597   1.389   0.244  0.2565  0.3941  0.1015
 6172SOL    HW130152   1.546   1.468   0.261  0.2299 -0.1445  2.6014
 6172SOL    HW230153   1.600   1.387   0.148  0.7363  1.7391  0.1001
 6173SOL     OW30154   3.080   2.726  17.624  0.5173 -1.2593  0.0665
 6173SOL    HW130155   3.030   2.753  17.547 -1.7123 -0.9455  1.6392
 6173SOL    HW230156   3.061   2.790  17.692  1.8307 -0.6888 -0.0941
 6174SOL     OW30157   2.555   3.536   0.931 -0.1865 -0.2848 -0.7541
 6174SOL    HW130158   2.610   3.612   0.912 -1.2995  1.4100  2.7438
 6174SOL    HW230159   2.531   3.502   0.845  2.6021  0.0875 -1.6449
 6175SOL     OW30160   2.900   4.040   0.778 -0.3445  0.1055  0.4576
 6175SOL    HW130161   2.988   4.015   0.751 -0.2631 -0.3648  1.1808
 6175SOL    HW230162   2.846   3.987   0.719  0.8485  2.3472 -2.7091
 6176SOL     OW30163   0.700   3.929  10.464 -0.2614  0.3042  0.2716
 6176SOL    HW130164   0.775   3.890  10.509 -0.4323 -1.2694 -0.7826
 6176SOL    HW230165   0.649   3.981  10.526  0.2174  0.1671  0.7835
 6177SOL     OW30166   3.072   1.438  14.038 -0.2034  0.0058  0.1395
 6177SOL    HW130167   3.113   1.513  14.082 -1.1843  1.5565 -1.5714
 6177SOL    HW230168   2.981   1.468  14.043 -0.0601  0.3821  0.5521
 6178SOL     OW30169   0.216   3.601   7.551 -0.4812 -0.1575 -0.1968
 6178SOL    HW130170   0.150   3.669   7.543 -0.2545  0.1022  0.1697
 6178SOL    HW230171   0.284   3.643   7.604  0.9920 -1.2573 -1.1790
 6179SOL     OW30172   1.993   0.320   7.946  0.2784  0.2913 -0.4194
 6179SOL    HW130173   2.036   0.394   7.987  0.9346 -0.2378 -0.1583
 6179SOL    HW230174   2.021   0.249   8.004  1.4946  0.2571 -1.0665
 6180SOL     OW30175   0.391   4.260   2.476  0.3413  0.9257  0.2283
 6180SOL    HW130176   0.305   4.302   2.479 -0.4805 -0.7986  0.3781
 6180SOL    HW230177   0.452   4.322   2.436  0.3587  0.8685  0.1676
 6181SOL     OW30178   1.149   3.545  16.621  0.1360  0.7685 -0.2133
 6181SOL    HW130179   1.148   3.542  16.717 -0.1635  2.0226 -0.1762
 6181SOL    HW230180   1.066   3.589  16.602 -0.9375 -0.5179  1.4780
 6182SOL     OW30181   2.429   0.923   3.280  0.4112 -0.3513 -0.6523
 6182SOL    HW130182   2.482   0.870   3.338  0.8420  0.6344 -0.1441
 6182SOL    HW230183   2.448   1.011   3.313 -0.5105 -0.8247  1.1106
 6183SOL     OW30184   2.471   4.427   3.597 -0.5339  0.3378  0.4255
 6183SOL    HW130185   2.474   4.523   3.590 -1.2915  0.3979  1.0293
 6183SOL    HW230186   2.541   4.398   3.538  0.1937  0.9137  1.0093
 6184SOL     OW30187   2.182   3.588   1.609  0.3938 -0.1692  0.4336
 6184SOL    HW130188   2.107   3.567   1.555  0.7291  0.4398 -0.2714
 6184SOL    HW230189   2.170   3.680   1.632 -0.6126 -0.5188  1.2767
 6185SOL     OW30190   2.009   4.445   8.855  0.0364  0.2540  0.1015
 6185SOL    HW130191   1.935   4.449   8.916  1.2181 -1.6203  1.6787
 6185SOL    HW230192   2.042   4.356   8.866  2.2326  1.0838  0.2477
 6186SOL     OW30193   2.497   2.401  15.261  0.3528 -0.1531 -0.3963
 6186SOL    HW130194   2.446   2.372  15.337  0.8783 -0.8700 -0.3179
 6186SOL    HW230195   2.497   2.321  15.208 -1.8751  0.0932 -0.7807
 6187SOL     OW30196   0.477   1.047   3.887  0.4961 -0.0165  0.5036
 6187SOL    HW130197   0.384   1.071   3.887  0.3121 -0.7397  1.1731
 6187SOL    HW230198   0.466   0.965   3.934  2.2005 -1.2796 -1.3155
 6188SOL     OW30199   1.171   0.245   4.942  0.1085  0.0556 -0.3023
 6188SOL    HW130200   1.132   0.192   5.011  0.5296  0.5886  0.3528
 6188SOL    HW230201   1.097   0.302   4.917 -0.0275 -0.0654 -0.1747
 6189SOL     OW30202   0.370   3.812   2.923  0.4906  0.5693  0.5382
 6189SOL    HW130203   0.418   3.854   2.851  3.6257 -0.2410  2.1882
 6189SOL    HW230204   0.432   3.749   2.959  0.2920  0.4563  0.6853
 6190SOL     OW30205   1.711   3.635   1.082  0.0185 -0.1078 -0.1204
 6190SOL    HW130206   1.784   3.647   1.143 -1.8201 -0.7664  2.2093
 6190SOL    HW230207   1.644   3.676   1.137 -0.8512 -0.4002 -0.9492
 6191SOL     OW30208   3.653   0.385  14.190 -0.3075  0.1009  0.1090
 6191SOL    HW130209   3.676   0.477  14.206  3.7994 -0.8825 -0.1334
 6191SOL    HW230210   3.723   0.338  14.235  0.1562  0.9136  0.2268
 6192SOL     OW30211   3.207   1.295   4.951 -0.3150 -0.7552 -0.5711
 6192SOL    HW130212   3.243   1.354   4.885 -1.5202  2.7106  1.8728
 6192SOL    HW230213   3.259   1.219   4.927  1.1067  0.1293 -0.2977
 6193SOL     OW30214   3.135   2.648   9.398 -0.2745 -0.3930 -0.2296
 6193SOL    HW130215   3.120   2.734   9.360 -0.2085  0.1883  1.0399
 6193SOL    HW230216   3.131   2.594   9.319  2.8585 -0.3544 -0.4002
 6194SOL     OW30217   0.141   2.751   1.529 -0.5895  0.2382 -0.1879
 6194SOL    HW130218   0.169   2.661   1.546 -0.0837  0.3140 -0.6138
 6194SOL    HW230219   0.226   2.791   1.548 -0.1029  0.0418 -1.9883
 6195SOL     OW30220   2.119   2.488   0.004 -0.2931  0.0345 -0.4298
 6195SOL    HW130221   2.212   2.485  17.741  0.0563  2.8575  0.7073
 6195SOL    HW230222   2.081   2.535  17.687 -0.6512  1.5040  0.6755
 6196SOL     OW30223   1.548   4.124   2.718 -0.1412  0.3880  0.3303
 6196SOL    HW130224   1.621   4.148   2.776  0.0813 -1.5886  0.8804
 6196SOL    HW230225   1.526   4.037   2.751  0.3127 -0.3661 -1.3781
 6197SOL     OW30226   2.459   1.724   3.854 -0.3453  0.2975 -0.6256
 6197SOL    HW130227   2.395   1.793   3.835 -1.3091 -0.5571 -0.4803
 6197SOL    HW230228   2.507   1.765   3.926 -1.3842  0.4337 -0.0130
 6198SOL     OW30229   2.580   3.085   8.063  0.5114 -0.0002  0.1275
 6198SOL    HW130230   2.656   3.042   8.102  1.2506 -0.3832 -1.7312
 6198SOL    HW230231   2.544   3.143   8.130  0.4696  0.1154  0.0051
 6199SOL     OW30232   0.883   2.979   2.147  0.0032  0.5665  0.0938
 6199SOL    HW130233   0.800   3.019   2.122 -2.1862 -4.0403 -0.1031
 6199SOL    HW230234   0.850   2.939   2.228  1.5077 -0.0207  0.4144
 6200SOL     OW30235   1.851   4.587   3.107 -0.1314  0.3113  0.6091
 6200SOL    HW130236   1.869   4.618   3.018 -1.7772 -0.0111  0.1531
 6200SOL    HW230237   1.830   4.669   3.151  0.8614  0.9625 -0.1216
 6201SOL     OW30238   2.568   3.540   7.743 -0.1777 -0.8847  0.0480
 6201SOL    HW130239   2.625   3.553   7.819  0.1742  2.0734 -0.7282
 6201SOL    HW230240   2.621   3.591   7.682 -1.1533 -1.5370 -1.3429
 6202SOL     OW30241   1.132   3.375   9.254 -0.2217 -0.1105 -0.1000
 6202SOL    HW130242   1.075   3.440   9.213 -0.3485  0.2743  0.6936
 6202SOL    HW230243   1.074   3.364   9.330  1.3347  1.4485  1.3178
 6203SOL     OW30244   3.248   0.159   2.653  0.1160 -0.2419  0.9335
 6203SOL    HW130245   3.178   0.142   2.591  0.5721  1.6208 -0.0991
 6203SOL    HW230246   3.299   0.081   2.634 -1.4093 -0.9081 -0.4183
 6204SOL     OW30247   0.110   3.744  15.055 -0.2252  0.1171  0.1865
 6204SOL    HW130248   0.086   3.734  15.147  3.2965 -0.9647  1.0032
 6204SOL    HW230249   0.114   3.652  15.029  1.7778  0.1475  0.3589
 6205SOL     OW30250   3.748   0.657   1.940  0.2859 -0.4333 -0.3391
 6205SOL    HW130251   3.701   0.621   1.864 -1.3464 -0.0813  0.4969
 6205SOL    HW230252   3.717   0.602   2.012 -1.4282  1.9415  0.7230
 6206SOL     OW30253   0.247   3.127   1.646 -0.4500  0.0159  0.1611
 6206SOL    HW130254   0.260   3.039   1.610 -0.1173  0.5041 -0.9301
 6206SOL    HW230255   0.158   3.147   1.618 -1.8864 -2.2662  3.1814
 6207SOL     OW30256   3.263   3.589   0.114 -0.1703 -0.0239 -0.0480
 6207SOL    HW130257   3.194   3.607   0.178  1.2427 -0.1234  1.4962
 6207SOL    HW230258   3.343   3.638   0.130  1.0683 -2.0898  0.0296
 6208SOL     OW30259   2.301   2.640  12.227 -0.1931 -0.8468  0.6071
 6208SOL    HW130260   2.331   2.700  12.158  0.0058  0.1520  1.5593
 6208SOL    HW230261   2.354   2.564  12.205  2.7176  1.8883 -1.9154
 6209SOL     OW30262   3.628   1.548  17.168 -0.3426  0.2570  0.0892
 6209SOL    HW130263   3.645   1.459  17.136  0.9332  0.2910  0.6806
 6209SOL    HW230264   3.535   1.557  17.148 -0.3777 -0.1488  0.0650
 6210SOL     OW30265   3.586   2.278   7.541 -0.0215  0.4080  0.1967
 6210SOL    HW130266   3.558   2.327   7.618  1.2682  0.1944  0.8065
 6210SOL    HW230267   3.627   2.210   7.594  0.3836  0.7114  0.2745
 6211SOL     OW30268   2.941   2.739   5.912 -0.3618 -0.2699 -0.6125
 6211SOL    HW130269   2.948   2.749   5.817  1.1047  2.9102 -0.1732
 6211SOL    HW230270   3.023   2.767   5.952 -1.0412  1.5328 -0.4866
 6212SOL     OW30271   3.941   3.317  15.181 -0.8519 -0.6677 -0.0323
 6212SOL    HW130272   4.035   3.326  15.165 -0.6640 -1.3860  0.6558
 6212SOL    HW230273   3.912   3.384  15.119 -0.5754 -0.9985 -0.5199
 6213SOL     OW30274   3.866   1.050   2.670 -0.4190  0.0102  0.5545
 6213SOL    HW130275   3.820   1.130   2.642  0.3127  0.7092  1.3738
 6213SOL    HW230276   3.823   0.992   2.607 -1.2124 -0.3525  1.4275
 6214SOL     OW30277   0.703   4.096   4.447  0.1194  0.0454  0.5511
 6214SOL    HW130278   0.692   4.186   4.416 -0.5617 -0.3002 -0.1910
 6214SOL    HW230279   0.784   4.066   4.407 -0.1288  0.0666  0.0424
 6215SOL     OW30280   3.109   4.222   8.737  0.2982  0.1502 -0.0136
 6215SOL    HW130281   3.101   4.127   8.748 -1.6805 -0.0138 -2.8558
 6215SOL    HW230282   3.172   4.215   8.665 -0.5932  3.7262 -1.1269
 6216SOL     OW30283   1.062   2.671   1.841  0.6639  0.5533  0.1756
 6216SOL    HW130284   1.136   2.710   1.795  1.4125  0.0534  0.9612
 6216SOL    HW230285   1.074   2.730   1.915  1.2571 -2.0439  2.1660
 6217SOL     OW30286   3.447   1.157   8.486  0.5735  0.0244 -0.4389
 6217SOL    HW130287   3.445   1.068   8.520 -0.4217 -0.3692 -1.5155
 6217SOL    HW230288   3.411   1.143   8.398  0.0956  2.6655 -0.6744
 6218SOL     OW30289   0.638   2.270   4.362  0.5897 -0.4346  0.0474
 6218SOL    HW130290   0.569   2.204   4.363  0.8135 -0.6525  1.2707
 6218SOL    HW230291   0.700   2.248   4.432 -0.8578 -2.8554  0.5726
 6219SOL     OW30292   0.496   2.768   1.153  0.1679 -0.1260 -0.1067
 6219SOL    HW130293   0.475   2.685   1.196 -0.9178 -0.0600 -0.5171
 6219SOL    HW230294   0.561   2.798   1.216 -0.6289 -2.3757  1.8145
 6220SOL     OW30295   3.504   3.388  17.213  0.0459  0.3260 -0.1481
 6220SOL    HW130296   3.524   3.352  17.127  0.0798  1.1846 -0.4972
 6220SOL    HW230297   3.586   3.423  17.246  0.9775 -0.1342 -1.9582
 6221SOL     OW30298   0.405   0.220   7.484 -0.4946 -0.0133  0.0630
 6221SOL    HW130299   0.497   0.220   7.508 -0.4928  0.0034  0.0565
 6221SOL    HW230300   0.372   0.309   7.497 -1.8132 -0.2318 -1.7364
 6222SOL     OW30301   4.175   3.019   7.953 -0.2623 -0.5870  0.2920
 6222SOL    HW130302   4.209   2.930   7.944 -2.6088 -1.3850 -0.5621
 6222SOL    HW230303   4.130   3.016   8.038 -0.8227 -0.1812  0.0096
 6223SOL     OW30304   1.121   3.672   6.099  0.2621  0.2813  0.0797
 6223SOL    HW130305   1.205   3.702   6.063 -0.6929  2.5820 -0.2192
 6223SOL    HW230306   1.128   3.689   6.193  0.6677  2.7090 -0.3954
 6224SOL     OW30307   0.481   1.157   7.306 -0.3773 -0.2758 -0.1954
 6224SOL    HW130308   0.500   1.181   7.396  1.6654  0.8274 -0.9312
 6224SOL    HW230309   0.568   1.142   7.268  0.2687 -0.2245  1.2905
 6225SOL     OW30310   1.622   3.187   4.483 -0.1687  0.5929 -0.2670
 6225SOL    HW130311   1.705   3.223   4.516  0.8456 -0.6305 -1.4832
 6225SOL    HW230312   1.658   3.109   4.441  1.7071  0.3246  1.8084
 6226SOL     OW30313   3.201   0.972   2.846  0.3129 -0.1520 -0.5499
 6226SOL    HW130314   3.254   1.051   2.858 -1.2089  1.0505 -1.7558
 6226SOL    HW230315   3.236   0.938   2.763  2.6154 -2.1482  1.2177
 6227SOL     OW30316   1.035   2.283   8.360  0.1034 -0.0464 -0.1497
 6227SOL    HW130317   1.131   2.286   8.361  0.0655  1.3440  0.1018
 6227SOL    HW230318   1.020   2.210   8.300  0.3838 -0.8055  0.7054
 6228SOL     OW30319   2.437   0.692  11.252 -0.2375 -0.1320  0.5821
 6228SOL    HW130320   2.345   0.709  11.230  0.2297  0.0415 -1.2460
 6228SOL    HW230321   2.476   0.709  11.166 -0.5415  1.5606  0.7919
 6229SOL     OW30322   2.295   2.486   5.123 -0.6286 -0.2247 -0.6050
 6229SOL    HW130323   2.362   2.506   5.057 -1.6780  0.7119 -1.3841
 6229SOL    HW230324   2.237   2.562   5.118  0.0018  0.4484  2.3434
 6230SOL     OW30325   0.695   4.466   3.877  0.0640  0.3718  0.3211
 6230SOL    HW130326   0.736   4.544   3.913  1.0387 -0.5454  1.1997
 6230SOL    HW230327   0.688   4.486   3.783 -1.7758  1.8042  0.7643
 6231SOL     OW30328   0.393   1.538   9.575 -0.2151  0.0373  0.1231
 6231SOL    HW130329   0.323   1.494   9.623  0.3041  0.6784  1.4677
 6231SOL    HW230330   0.362   1.627   9.559 -1.7679 -0.4956  0.1705
 6232SOL     OW30331   2.725   1.551   6.763  0.7576  0.4756 -0.0254
 6232SOL    HW130332   2.747   1.523   6.674  0.3539 -1.3350  0.4465
 6232SOL    HW230333   2.746   1.472   6.812 -0.2269  0.8820  1.0365
 6233SOL     OW30334   4.053   3.475   6.856 -0.2219  0.1856  0.1239
 6233SOL    HW130335   4.000   3.491   6.934 -1.2646 -0.7286 -0.3959
 6233SOL    HW230336   4.058   3.380   6.852 -0.8381  0.1047  1.0870
 6234SOL     OW30337   1.158   2.612   8.123 -0.1211 -0.7720  0.1648
 6234SOL    HW130338   1.231   2.670   8.100  0.7737 -1.7124  0.6489
 6234SOL    HW230339   1.185   2.532   8.077 -0.2142 -1.7790  1.8929
 6235SOL     OW30340   4.353   2.559   4.600  0.3368  0.9561  0.3171
 6235SOL    HW130341   4.284   2.506   4.640  1.8248 -0.8483  0.5212
 6235SOL    HW230342   4.347   2.648   4.636 -0.2375  1.2763 -0.5866
 6236SOL     OW30343   0.929   3.254   4.319 -0.3761  0.1245 -0.0886
 6236SOL    HW130344   0.884   3.186   4.368 -0.4997  0.0793 -0.2636
 6236SOL    HW230345   1.019   3.253   4.352  0.2136 -1.9255 -1.7200
 6237SOL     OW30346   2.753   1.617   3.010  0.1911  0.1883 -0.4528
 6237SOL    HW130347   2.697   1.683   3.051 -2.2703 -1.2604 -1.4706
 6237SOL    HW230348   2.770   1.668   2.930 -0.6450 -0.9190 -1.3384
 6238SOL     OW30349   4.200   3.762   7.701  0.6462 -0.4164  0.1121
 6238SOL    HW130350   4.213   3.786   7.793  0.9280  0.6860 -0.2086
 6238SOL    HW230351   4.286   3.731   7.674  0.9794 -0.3031  1.0552
 6239SOL     OW30352   3.601   1.115   2.834 -0.0588  0.3216 -0.0416
 6239SOL    HW130353   3.573   1.058   2.763 -2.3497  0.1984  0.9732
 6239SOL    HW230354   3.568   1.203   2.817 -0.3217  0.4126  0.9467
 6240SOL     OW30355   4.732   0.924  13.544  0.1388 -0.5844  0.4696
 6240SOL    HW130356   0.039   1.007  13.549 -0.3480 -0.2205 -0.8112
 6240SOL    HW230357   0.049   0.886  13.477 -1.0637  0.2522 -1.0449
 6241SOL     OW30358   2.204   1.450   1.129  0.0368  0.6591  0.1903
 6241SOL    HW130359   2.233   1.461   1.220 -2.0233  3.1976  0.5545
 6241SOL    HW230360   2.157   1.367   1.135  0.1277  0.5050 -1.2043
 6242SOL     OW30361   3.997   2.991  17.665  0.1752 -0.1471  0.1003
 6242SOL    HW130362   3.936   3.057  17.635 -0.0905 -0.1259  0.6834
 6242SOL    HW230363   3.937   2.917  17.664  0.7855 -0.6176 -0.9923
 6243SOL     OW30364   3.154   2.362   1.158  0.3108  0.2590  0.3061
 6243SOL    HW130365   3.140   2.392   1.248 -3.2133  0.5434 -0.3308
 6243SOL    HW230366   3.116   2.426   1.098  2.3236  0.3567 -0.8456
 6244SOL     OW30367   4.676   4.685  13.865 -0.5597  0.2663 -0.6199
 6244SOL    HW130368   4.605   0.000  13.830 -0.6413  1.0632  0.8166
 6244SOL    HW230369   4.639   4.670  13.952 -1.1462 -0.5859 -1.0203
 6245SOL     OW30370   3.906   3.371  17.478 -0.1129 -0.0744  0.0911
 6245SOL    HW130371   3.997   3.386  17.503 -0.4237  0.8894  0.6508
 6245SOL    HW230372   3.912   3.303  17.411  0.2145  0.3993 -0.3629
 6246SOL     OW30373   2.514   2.975   1.276  0.3779  0.2123  0.0695
 6246SOL    HW130374   2.477   3.046   1.327  1.0938 -1.1716  2.5232
 6246SOL    HW230375   2.573   3.025   1.219 -0.0813  1.0533  0.3314
 6247SOL     OW30376   3.321   0.883   8.140 -0.4065  0.1908  0.3825
 6247SOL    HW130377   3.248   0.861   8.083  1.1367  0.2940 -1.6174
 6247SOL    HW230378   3.275   0.871   8.223 -1.6518  0.6099 -0.2497
 6248SOL     OW30379   0.271   2.033  15.556  0.3728 -0.1911  0.1937
 6248SOL    HW130380   0.354   2.059  15.597 -0.4067  0.9262  1.0539
 6248SOL    HW230381   0.226   2.116  15.572 -0.7415 -0.3198 -2.3387
 6249SOL     OW30382   0.354   4.345  11.749  0.2139  0.0013  0.1427
 6249SOL    HW130383   0.278   4.294  11.721 -0.3862  0.1937  1.4113
 6249SOL    HW230384   0.317   4.420  11.796  0.0295  1.5926 -2.5589
 6250SOL     OW30385   3.229   0.184   3.649 -0.3058  0.6110 -0.4217
 6250SOL    HW130386   3.295   0.183   3.720  1.2996 -0.0124 -1.9249
 6250SOL    HW230387   3.234   0.097   3.609  0.4699  1.5639 -2.3863
 6251SOL     OW30388   3.330   4.431  13.936 -0.4478  0.3090 -0.7439
 6251SOL    HW130389   3.297   4.388  14.015  1.7479 -0.5394 -0.2878
 6251SOL    HW230390   3.258   4.425  13.873 -1.3256 -0.1614  0.2899
 6252SOL     OW30391   0.679   0.305   8.762  0.4522  0.3134  0.2935
 6252SOL    HW130392   0.761   0.318   8.715 -0.3632  1.1593 -0.8893
 6252SOL    HW230393   0.676   0.371   8.832  0.8014  0.2383  0.3787
 6253SOL     OW30394   4.321   0.644   4.442 -0.5988  0.1638  0.1073
 6253SOL    HW130395   4.365   0.633   4.358  1.3531 -3.5078  1.6391
 6253SOL    HW230396   4.325   0.559   4.486 -3.8817 -0.3126 -0.5142
 6254SOL     OW30397   1.957   0.307   9.555  0.5955 -0.5744  0.0825
 6254SOL    HW130398   1.894   0.240   9.583  0.6563 -1.3231 -1.5739
 6254SOL    HW230399   1.898   0.383   9.559 -0.9398 -1.7838  0.4877
 6255SOL     OW30400   1.928   2.319   8.427  0.5643  0.4097 -0.0498
 6255SOL    HW130401   1.958   2.403   8.392  0.9380  0.2374 -0.1392
 6255SOL    HW230402   1.855   2.350   8.482  0.6269  1.4644 -0.5607
 6256SOL     OW30403   2.804   3.576   2.599 -0.4880  0.5015 -0.7685
 6256SOL    HW130404   2.737   3.508   2.589  0.9480 -1.1461  0.8469
 6256SOL    HW230405   2.868   3.531   2.654 -1.9665  0.3661  0.8723
 6257SOL     OW30406   2.900   4.669  12.864 -0.4664 -0.2402 -0.5876
 6257SOL    HW130407   2.979   4.677  12.811  1.5041 -0.4724  2.2850
 6257SOL    HW230408   2.835   4.654  12.796 -1.3429  0.7710  0.0534
 6258SOL     OW30409   3.122   3.946   8.756  0.0270  0.0821 -0.7393
 6258SOL    HW130410   3.082   3.918   8.673  1.3310 -2.5666 -0.4825
 6258SOL    HW230411   3.171   3.869   8.785 -1.2938 -0.3555  0.3408
 6259SOL     OW30412   3.686   3.309   3.479 -0.1898  0.4189 -0.5493
 6259SOL    HW130413   3.683   3.390   3.427 -0.9150  1.5403  1.2316
 6259SOL    HW230414   3.644   3.238   3.430  2.0517  0.2633 -2.2246
 6260SOL     OW30415   3.887   4.134   7.641 -0.4105 -0.1320  0.2205
 6260SOL    HW130416   3.889   4.088   7.724  0.6373 -1.9406 -0.7900
 6260SOL    HW230417   3.948   4.207   7.653  0.7755 -0.5653 -3.0005
 6261SOL     OW30418   4.135   2.112  15.195 -0.0851 -0.2394  0.0894
 6261SOL    HW130419   4.050   2.085  15.231  0.0578  2.1501  2.1799
 6261SOL    HW230420   4.194   2.055  15.244 -0.0443  1.0585  1.5659
 6262SOL     OW30421   4.023   2.899   4.601 -0.0693 -0.6190 -0.7640
 6262SOL    HW130422   3.945   2.845   4.588  0.5810 -1.5556 -0.7835
 6262SOL    HW230423   4.075   2.888   4.521 -0.7476 -1.0560 -1.1412
 6263SOL     OW30424   3.333   3.064  17.653  0.0416 -0.2731 -0.7235
 6263SOL    HW130425   3.357   3.129  17.587  2.4276 -0.9185 -0.5037
 6263SOL    HW230426   3.354   3.116  17.731  0.0318 -0.7355 -0.4080
 6264SOL     OW30427   1.231   3.674   9.123  0.1336  0.1834 -0.2028
 6264SOL    HW130428   1.144   3.634   9.121 -0.4823  1.4506  1.3776
 6264SOL    HW230429   1.297   3.605   9.128 -0.2906 -0.1895  0.1342
 6265SOL     OW30430   3.031   3.439   2.382  0.4396 -0.6851  0.3173
 6265SOL    HW130431   3.071   3.375   2.323  4.6744  0.5915  1.8656
 6265SOL    HW230432   2.938   3.422   2.364 -0.2111  0.7451  2.3783
 6266SOL     OW30433   1.723   3.968   7.222 -0.4213 -0.1092 -0.0818
 6266SOL    HW130434   1.633   3.995   7.240 -1.1625 -0.7667 -2.6976
 6266SOL    HW230435   1.745   4.045   7.169 -0.0323  0.8646  1.5215
 6267SOL     OW30436   1.778   2.138   8.278 -0.2117 -0.2448 -0.0105
 6267SOL    HW130437   1.731   2.091   8.347 -2.4482  1.8511 -0.1253
 6267SOL    HW230438   1.853   2.159   8.333  0.3944 -2.1261 -0.1119
 6268SOL     OW30439   4.453   0.038  16.152 -0.0188  0.3890 -0.3103
 6268SOL    HW130440   4.467   0.004  16.064  0.8176 -0.7359  0.2618
 6268SOL    HW230441   4.360   0.030  16.169  0.0626  0.5128  0.1854
 6269SOL     OW30442   2.750   1.917   3.680  0.1640  0.1470  0.5672
 6269SOL    HW130443   2.693   1.894   3.608  0.9888  0.1829 -0.1024
 6269SOL    HW230444   2.687   1.968   3.731 -0.0568  0.3341  0.1078
 6270SOL     OW30445   1.520   4.171   3.594 -0.4272  0.4761 -0.1874
 6270SOL    HW130446   1.508   4.135   3.505 -0.6245  0.3241 -0.0992
 6270SOL    HW230447   1.492   4.260   3.574 -1.3705  0.2105 -0.0289
 6271SOL     OW30448   0.796   1.536   7.334 -0.3038  0.7539 -0.6187
 6271SOL    HW130449   0.832   1.617   7.370 -0.6190  0.0961  1.2006
 6271SOL    HW230450   0.875   1.483   7.323  0.1876  1.1346  1.0284
 6272SOL     OW30451   2.629   3.173   7.025 -0.2156  0.2723 -0.0002
 6272SOL    HW130452   2.615   3.236   7.095  0.9047 -0.0015  0.4741
 6272SOL    HW230453   2.595   3.096   7.071  0.1567 -0.6962 -1.3455
 6273SOL     OW30454   2.233   0.779  14.381 -0.6572  0.2395 -0.0121
 6273SOL    HW130455   2.221   0.815  14.469 -1.2181  2.9860 -1.2201
 6273SOL    HW230456   2.145   0.809  14.358  0.2515  1.9726 -1.1649
 6274SOL     OW30457   3.567   1.425   4.434  0.0237  0.0574 -0.3795
 6274SOL    HW130458   3.528   1.505   4.468 -0.9998 -0.7752  0.4080
 6274SOL    HW230459   3.629   1.471   4.378 -0.3364  2.1322  0.9252
 6275SOL     OW30460   0.016   2.736   7.909 -0.2406 -0.1156 -0.1623
 6275SOL    HW130461   4.730   2.646   7.891  0.4929 -0.4368  0.3748
 6275SOL    HW230462   0.013   2.735   8.005 -0.0855 -2.8553 -0.1920
 6276SOL     OW30463   3.898   2.636   1.894 -0.1483  0.2163  0.0723
 6276SOL    HW130464   3.855   2.667   1.974  0.3071  1.0615 -0.0055
 6276SOL    HW230465   3.971   2.580   1.923 -0.7781  0.0291  1.3197
 6277SOL     OW30466   0.898   0.149   1.762  0.2690  1.1252  0.3461
 6277SOL    HW130467   0.832   0.099   1.809 -0.3002 -0.5969 -2.3220
 6277SOL    HW230468   0.964   0.083   1.742 -1.1202 -0.2172  0.2236
 6278SOL     OW30469   0.695   0.043  10.633  0.1907 -0.4839  0.2758
 6278SOL    HW130470   0.648   4.704  10.661 -2.1731  0.7702 -0.1774
 6278SOL    HW230471   0.737   0.005  10.556  0.3400  1.4632 -0.5872
 6279SOL     OW30472   2.474   0.629  14.334  0.1047 -0.1300  0.5701
 6279SOL    HW130473   2.394   0.678  14.350 -0.5164 -1.4679  1.5863
 6279SOL    HW230474   2.441   0.545  14.366  0.3693 -0.9302 -1.2648
 6280SOL     OW30475   0.188   3.714   7.049  0.4977  0.2609 -0.7173
 6280SOL    HW130476   0.118   3.693   7.111 -0.4836  2.8108 -0.9924
 6280SOL    HW230477   0.252   3.657   7.091 -0.0427 -1.8149 -2.7112
 6281SOL     OW30478   3.860   4.069   9.286 -0.0839  0.2361  0.2497
 6281SOL    HW130479   3.892   4.035   9.370  0.2122  2.1729  0.9377
 6281SOL    HW230480   3.794   4.135   9.307 -0.8317 -0.4685  0.1145
 6282SOL     OW30481   0.459   2.170   9.188 -0.2636 -0.6049 -0.1938
 6282SOL    HW130482   0.377   2.157   9.237  0.4265  1.7994  1.5866
 6282SOL    HW230483   0.475   2.256   9.227 -1.5485 -0.2782 -0.3761
 6283SOL     OW30484   3.203   3.534   7.051 -0.1708  0.0334  0.1666
 6283SOL    HW130485   3.276   3.482   7.084 -0.0154  1.5539  2.2216
 6283SOL    HW230486   3.164   3.477   6.985 -2.9121  1.9678  0.1077
 6284SOL     OW30487   1.057   4.331   2.016 -0.1034 -0.5119 -0.1320
 6284SOL    HW130488   1.140   4.370   1.988 -0.5513 -0.1628 -0.9529
 6284SOL    HW230489   1.093   4.253   2.059  1.2334  0.7274  1.0031
 6285SOL     OW30490   1.310   1.038  16.542 -0.0261 -0.3610  0.6751
 6285SOL    HW130491   1.259   1.104  16.589  1.0927 -0.0852  1.4948
 6285SOL    HW230492   1.275   1.063  16.456 -1.5346 -3.7578  0.3086
 6286SOL     OW30493   4.656   4.121   8.564  0.0861 -0.5851  0.3182
 6286SOL    HW130494   0.008   4.129   8.592  0.1855 -0.8033  0.0506
 6286SOL    HW230495   4.654   4.040   8.513  1.5261 -1.3930  1.5335
 6287SOL     OW30496   0.408   1.173  14.724  0.6047 -0.2613  0.5614
 6287SOL    HW130497   0.371   1.183  14.636 -1.4632  1.7647  1.6520
 6287SOL    HW230498   0.339   1.118  14.761 -0.3624 -0.2437 -1.1720
 6288SOL     OW30499   0.999   0.077   2.385 -0.7905 -0.5844 -0.3381
 6288SOL    HW130500   1.058   0.061   2.459 -2.0721  2.4155  1.3243
 6288SOL    HW230501   0.988   0.170   2.401 -1.3508 -0.5041 -1.2018
 6289SOL     OW30502   4.703   1.026   7.067 -0.4423  0.5663  0.1508
 6289SOL    HW130503   4.643   1.100   7.068 -0.9259  0.1869 -0.7393
 6289SOL    HW230504   0.051   1.066   7.073 -0.4606  0.9523 -2.0391
 6290SOL     OW30505   2.749   2.571   2.962 -0.4891 -0.3016  0.1221
 6290SOL    HW130506   2.696   2.508   2.914  2.5057 -3.0025  0.3733
 6290SOL    HW230507   2.781   2.513   3.032  1.4905  1.1317  0.3969
 6291SOL     OW30508   0.470   3.000   5.031  0.1882 -0.3537  0.1541
 6291SOL    HW130509   0.514   3.029   4.951 -0.2661  0.4204  0.1849
 6291SOL    HW230510   0.528   2.933   5.066  2.3993  1.2630 -0.4027
 6292SOL     OW30511   1.719   1.946   6.327  0.3028  0.0876 -0.0871
 6292SOL    HW130512   1.714   1.969   6.420 -0.6473 -0.4669 -0.0046
 6292SOL    HW230513   1.636   1.901   6.310  0.7632 -1.1565  0.9942
 6293SOL     OW30514   1.200   3.155  10.895  0.0317 -0.4523  0.2088
 6293SOL    HW130515   1.247   3.120  10.970  1.3154 -1.5846 -1.1287
 6293SOL    HW230516   1.269   3.174  10.832 -0.1585  1.1042  0.4746
 6294SOL     OW30517   4.329   2.085   3.337  0.1985  0.9973  0.0396
 6294SOL    HW130518   4.353   2.059   3.425  1.1374  3.3546  0.4924
 6294SOL    HW230519   4.386   2.021   3.295 -1.1157  0.4885 -0.9543
 6295SOL     OW30520   0.777   3.912   1.573 -0.1215 -0.3122 -0.8020
 6295SOL    HW130521   0.792   3.827   1.530  0.9535  0.4145 -1.8747
 6295SOL    HW230522   0.689   3.939   1.547  0.0423  0.3539 -0.6552
 6296SOL     OW30523   4.659   3.592   2.626 -0.0318 -0.6175  0.6607
 6296SOL    HW130524   4.636   3.673   2.670 -1.9165 -0.5472 -0.4376
 6296SOL    HW230525   4.592   3.543   2.674 -2.0208  2.4751  1.0481
 6297SOL     OW30526   2.866   2.553   3.946  0.0861 -0.1152  0.5045
 6297SOL    HW130527   2.934   2.621   3.954 -0.0051  0.2878 -2.0217
 6297SOL    HW230528   2.854   2.511   4.031 -0.1897 -0.1299  0.4579
 6298SOL     OW30529   4.524   3.324   5.521 -0.2854  0.1510 -0.0414
 6298SOL    HW130530   4.499   3.403   5.473 -1.4568 -0.4135 -0.3500
 6298SOL    HW230531   4.583   3.349   5.593  4.0763 -2.0892 -2.8350
 6299SOL     OW30532   3.156   4.456   3.733  0.1383 -0.2807  0.2786
 6299SOL    HW130533   3.238   4.490   3.698  0.3233 -1.8655 -0.8342
 6299SOL    HW230534   3.124   4.424   3.649  0.1343 -0.3614  0.3112
 6300SOL     OW30535   3.268   2.676   6.061  0.2715 -0.3850 -0.3483
 6300SOL    HW130536   3.345   2.636   6.103  0.3881  0.4358  0.2168
 6300SOL    HW230537   3.209   2.601   6.064 -0.5432  0.3369  1.5080
 6301SOL     OW30538   3.933   2.802   8.894 -0.6055  0.4582 -0.4997
 6301SOL    HW130539   3.950   2.856   8.816 -2.3120 -1.1009 -1.9452
 6301SOL    HW230540   3.839   2.793   8.903 -0.6261  1.3271  0.1494
 6302SOL     OW30541   1.940   3.099   6.197 -0.2095  0.2082 -0.3134
 6302SOL    HW130542   1.943   3.115   6.291 -2.3695  0.1341 -0.2479
 6302SOL    HW230543   2.034   3.107   6.178  0.1980 -0.7253  1.3570
 6303SOL     OW30544   2.898   0.402   8.524  0.0209  0.5377 -0.0726
 6303SOL    HW130545   2.807   0.382   8.546  0.0527  0.5185  0.0400
 6303SOL    HW230546   2.922   0.465   8.592  0.0397  1.7874 -1.2365
 6304SOL     OW30547   3.083   3.140   3.146  0.2354 -0.4491  1.1464
 6304SOL    HW130548   3.049   3.220   3.106 -2.2300 -0.5785  3.0543
 6304SOL    HW230549   3.136   3.124   3.067 -0.0487 -2.3424  1.3472
 6305SOL     OW30550   0.100   1.541   6.075  0.9186 -0.3827 -0.3958
 6305SOL    HW130551   0.059   1.545   6.161  0.5430 -0.8995 -0.5470
 6305SOL    HW230552   0.161   1.612   6.095  0.1684 -0.5129  2.3558
 6306SOL     OW30553   1.023   1.972   5.637  0.4350  0.0909 -0.0303
 6306SOL    HW130554   1.019   2.065   5.659  1.8822  0.4391 -1.2248
 6306SOL    HW230555   1.070   1.951   5.718  1.8329  1.0654 -0.5740
 6307SOL     OW30556   3.820   1.649  10.073  0.0151  0.2657 -0.0279
 6307SOL    HW130557   3.770   1.633   9.994  0.7623 -1.8910 -0.0511
 6307SOL    HW230558   3.808   1.558  10.100 -1.8274  0.8719  1.2089
 6308SOL     OW30559   2.150   0.905  14.639 -0.4676  0.1736 -0.4336
 6308SOL    HW130560   2.167   0.906  14.733  0.5647 -0.6327 -0.6085
 6308SOL    HW230561   2.132   0.999  14.629  3.6094  1.0117 -0.2094
 6309SOL     OW30562   4.446   3.734  17.679 -0.3371 -0.2107  0.7678
 6309SOL    HW130563   4.351   3.738  17.684 -0.3426 -1.5323  1.7296
 6309SOL    HW230564   4.443   3.787  17.600  0.4384 -0.7750  0.3521
 6310SOL     OW30565   0.530   1.615   7.899  0.6022  0.2053  0.0012
 6310SOL    HW130566   0.452   1.664   7.872  0.1065  0.2952  1.5751
 6310SOL    HW230567   0.531   1.610   7.995 -1.0681 -0.2827 -0.0003
 6311SOL     OW30568   2.982   0.487   8.241  0.0980  0.3215 -0.2520
 6311SOL    HW130569   2.887   0.492   8.234 -0.2604 -0.7208  3.7787
 6311SOL    HW230570   3.005   0.469   8.150 -2.4093 -1.6819 -0.4659
 6312SOL     OW30571   2.348   3.597   4.604  0.3207 -0.1650 -0.5552
 6312SOL    HW130572   2.277   3.652   4.570 -0.3547 -0.3362  0.5584
 6312SOL    HW230573   2.307   3.511   4.604 -0.1839  0.0747 -0.8282
 6313SOL     OW30574   1.504   3.293   8.007 -0.1922  0.1104  0.0806
 6313SOL    HW130575   1.425   3.343   8.026 -1.1666 -0.9675 -1.0901
 6313SOL    HW230576   1.462   3.216   7.970 -2.0052  0.0493  2.3288
 6314SOL     OW30577   4.452   3.654   7.612  0.3338  0.3584  0.2408
 6314SOL    HW130578   4.416   3.566   7.598 -3.2401  1.7798  0.4046
 6314SOL    HW230579   4.534   3.650   7.563  1.1987 -0.7060  1.7584
 6315SOL     OW30580   2.234   3.959   8.425  0.0951  1.2081  0.1945
 6315SOL    HW130581   2.326   3.940   8.444 -0.4903 -1.5881  0.3005
 6315SOL    HW230582   2.184   3.915   8.494  0.5082  0.0158 -0.2669
 6316SOL     OW30583   1.341   0.614   0.091  0.0997  0.2414  0.2300
 6316SOL    HW130584   1.323   0.529   0.052 -1.4653  0.3332  0.7494
 6316SOL    HW230585   1.379   0.591   0.176 -1.6052 -0.5089  0.8068
 6317SOL     OW30586   3.267   2.465   7.771  0.2388  0.5705  0.2464
 6317SOL    HW130587   3.312   2.492   7.691 -1.2855  0.0551 -0.7841
 6317SOL    HW230588   3.174   2.483   7.760 -0.0827 -1.1895  0.0906
 6318SOL     OW30589   4.563   0.018   4.818  0.3768 -0.2017 -0.5102
 6318SOL    HW130590   4.479   0.023   4.772  0.3450  1.6456 -0.2334
 6318SOL    HW230591   4.558   0.110   4.845 -0.4473 -0.6366  0.8229
 6319SOL     OW30592   2.007   1.863   2.526 -0.2931  0.6858  0.7692
 6319SOL    HW130593   1.952   1.932   2.563  1.4793  2.3720  0.3141
 6319SOL    HW230594   1.951   1.814   2.466 -2.4970  1.8994  1.8405
 6320SOL     OW30595   3.302   2.330   5.517 -0.9476 -0.3110 -0.6425
 6320SOL    HW130596   3.385   2.338   5.564 -1.1846  1.7168 -0.5722
 6320SOL    HW230597   3.325   2.306   5.427 -0.3234  1.9764 -1.0921
 6321SOL     OW30598   1.386   2.383  12.678  0.3058  0.2623  0.2968
 6321SOL    HW130599   1.475   2.418  12.665  0.2357  0.3371  0.0219
 6321SOL    HW230600   1.368   2.422  12.764 -0.0199 -0.7023  0.6650
 6322SOL     OW30601   3.805   3.812   3.759  0.4679 -0.2173  0.9814
 6322SOL    HW130602   3.896   3.841   3.768  0.8597 -1.3413  0.7208
 6322SOL    HW230603   3.767   3.900   3.757 -1.2150 -0.9305  1.7948
 6323SOL     OW30604   4.304   3.943   4.401 -0.5042 -0.1025  0.2112
 6323SOL    HW130605   4.363   3.884   4.449 -0.2428  0.9295  1.1641
 6323SOL    HW230606   4.230   3.956   4.460 -0.5438 -2.9264  0.7926
 6324SOL     OW30607   0.990   1.431  13.836 -0.2015 -0.2687 -0.4376
 6324SOL    HW130608   1.085   1.434  13.822 -0.7248 -0.9742 -4.0623
 6324SOL    HW230609   0.982   1.482  13.917 -0.8565 -2.1384  0.6670
 6325SOL     OW30610   2.977   3.386   3.056  0.0510  0.4541  0.2292
 6325SOL    HW130611   2.988   3.473   3.017  3.2381 -0.5519 -1.1152
 6325SOL    HW230612   2.900   3.402   3.111  2.1546  1.5630  2.8454
 6326SOL     OW30613   2.505   3.578   2.032 -0.1902 -0.0731 -0.1481
 6326SOL    HW130614   2.510   3.649   2.096  2.6753  1.5331 -2.1540
 6326SOL    HW230615   2.439   3.523   2.074 -3.2820  2.3693 -1.8129
 6327SOL     OW30616   4.472   4.606   5.230 -0.6252 -0.2445 -0.4855
 6327SOL    HW130617   4.417   4.622   5.307 -1.3348  0.0373 -1.0490
 6327SOL    HW230618   4.489   4.699   5.211  0.1629 -0.0229  1.3533
 6328SOL     OW30619   1.673   2.574  15.715  0.1635 -0.3106 -0.2935
 6328SOL    HW130620   1.764   2.593  15.737  0.6325 -4.5138  1.3197
 6328SOL    HW230621   1.673   2.562  15.620  3.1347  0.4903 -0.3913
 6329SOL     OW30622   2.853   1.352  11.623 -0.4708 -0.1333  0.3831
 6329SOL    HW130623   2.874   1.424  11.564  2.2653  0.4648  2.1088
 6329SOL    HW230624   2.758   1.359  11.633 -0.3632  1.0178  0.6911
 6330SOL     OW30625   3.004   2.845  17.395 -0.2357  0.2894 -0.2821
 6330SOL    HW130626   2.927   2.795  17.369  0.0358  0.0446 -0.6097
 6330SOL    HW230627   3.027   2.890  17.313 -0.6398 -2.2323 -1.7583
 6331SOL     OW30628   2.745   2.265   3.384 -0.1691  0.1346  0.0942
 6331SOL    HW130629   2.680   2.275   3.453 -0.4435 -0.3464 -0.1002
 6331SOL    HW230630   2.815   2.243   3.446 -0.9275 -1.0980  0.4899
 6332SOL     OW30631   4.517   1.506   3.422 -0.2952  0.5372  0.0301
 6332SOL    HW130632   4.448   1.538   3.480 -1.9106 -1.7172 -0.6508
 6332SOL    HW230633   4.556   1.433   3.469  0.3377  0.7013 -0.2444
 6333SOL     OW30634   2.963   0.316   5.265  0.1947  0.3291  0.0062
 6333SOL    HW130635   3.039   0.367   5.237 -0.7672  1.2060 -1.0004
 6333SOL    HW230636   2.938   0.267   5.187  0.2417  2.0847 -1.1256
 6334SOL     OW30637   0.102   3.643   5.969 -0.0443  0.2630  0.8259
 6334SOL    HW130638   0.030   3.684   5.921 -1.6357 -1.0187  2.0722
 6334SOL    HW230639   0.172   3.679   5.916 -0.3601  0.5798  0.6223
 6335SOL     OW30640   4.723   0.484   4.250 -0.3172 -0.0200 -0.0447
 6335SOL    HW130641   4.636   0.523   4.262 -0.7780 -1.1935  0.3837
 6335SOL    HW230642   4.713   0.396   4.215 -0.7131  0.3842 -0.9490
 6336SOL     OW30643   0.262   1.515   8.248 -0.0924  0.3679 -0.0907
 6336SOL    HW130644   0.272   1.420   8.258  0.7048  0.6065  1.3487
 6336SOL    HW230645   0.166   1.515   8.245 -0.0104 -1.6231 -2.3467
 6337SOL     OW30646   0.926   1.439   2.921  0.2138  0.3736  0.0408
 6337SOL    HW130647   0.843   1.423   2.877 -0.4245 -1.7378  2.0172
 6337SOL    HW230648   0.987   1.383   2.872  1.5716  1.5268  0.4061
 6338SOL     OW30649   2.173   3.195   6.855  0.0079  0.3524 -0.3206
 6338SOL    HW130650   2.263   3.167   6.875 -0.0914 -0.1818 -0.6260
 6338SOL    HW230651   2.144   3.196   6.946  0.7087  1.0211 -0.1066
 6339SOL     OW30652   1.081   3.379   8.001  0.4107  0.2059  0.3062
 6339SOL    HW130653   1.088   3.338   7.914  0.0025  0.8280 -0.0262
 6339SOL    HW230654   1.160   3.433   8.002  0.4589  0.1365  0.2434
 6340SOL     OW30655   1.696   1.855   5.343  0.2052 -0.0976  0.0104
 6340SOL    HW130656   1.702   1.787   5.276  1.0535 -0.5251  0.5263
 6340SOL    HW230657   1.700   1.943   5.304  0.3596  0.3307  0.9983
 6341SOL     OW30658   3.034   2.694   7.456  0.4484  0.2262  0.6001
 6341SOL    HW130659   2.972   2.756   7.418  0.5954  0.0576  0.0839
 6341SOL    HW230660   2.981   2.631   7.505  1.4375 -1.4695 -0.4995
 6342SOL     OW30661   1.359   2.561   2.794 -0.1835 -0.0135 -0.4280
 6342SOL    HW130662   1.395   2.547   2.707  1.4432 -1.2725  0.4454
 6342SOL    HW230663   1.432   2.594   2.846 -0.6058  1.7713 -0.9698
 6343SOL     OW30664   0.537   0.378   5.995 -0.2524  0.3543 -0.7924
 6343SOL    HW130665   0.601   0.445   6.020 -0.7685  1.3434 -2.1852
 6343SOL    HW230666   0.580   0.335   5.921 -0.2464 -0.0330 -0.5683
 6344SOL     OW30667   3.050   1.542   4.474 -0.1274 -1.0914 -0.0034
 6344SOL    HW130668   3.086   1.564   4.388 -1.0047  1.2096  0.1954
 6344SOL    HW230669   2.959   1.571   4.461 -0.8622 -3.3858  0.1010
 6345SOL     OW30670   4.564   1.046  12.023  1.0197 -0.3963  0.9764
 6345SOL    HW130671   4.576   0.960  12.063 -2.5470 -1.4289 -0.1624
 6345SOL    HW230672   4.602   1.103  12.090  0.6103 -1.6368  2.2469
 6346SOL     OW30673   1.826   0.540   5.359  0.2750 -0.3773 -0.4327
 6346SOL    HW130674   1.741   0.552   5.401  0.6736 -0.8275  0.4924
 6346SOL    HW230675   1.873   0.511   5.437  1.3601 -0.6841 -1.2045
 6347SOL     OW30676   2.300   2.566  10.826  0.0734 -0.3724 -0.1844
 6347SOL    HW130677   2.260   2.496  10.773 -0.7664  0.7531 -1.0223
 6347SOL    HW230678   2.393   2.575  10.805 -0.1185  0.4844 -0.6765
 6348SOL     OW30679   1.285   4.195   9.714 -0.0719 -0.2523  0.6679
 6348SOL    HW130680   1.298   4.130   9.644  0.5781  0.1770  0.3932
 6348SOL    HW230681   1.190   4.203   9.722 -0.1406  0.5622 -0.8997
 6349SOL     OW30682   0.280   2.553   8.938 -0.4452 -0.4798 -0.0318
 6349SOL    HW130683   0.350   2.570   8.874 -2.1486 -0.5181 -1.8918
 6349SOL    HW230684   0.204   2.595   8.898 -0.4262  0.8561  1.3314
 6350SOL     OW30685   1.379   4.198  16.076  0.2243  0.2850 -0.4146
 6350SOL    HW130686   1.421   4.112  16.080  1.0421  0.5853 -2.4881
 6350SOL    HW230687   1.413   4.224  15.990  0.0281  1.4214 -0.1462
 6351SOL     OW30688   1.535   0.309   8.685  0.3180 -0.0773  0.4916
 6351SOL    HW130689   1.622   0.340   8.713  0.3677  1.7848 -1.7228
 6351SOL    HW230690   1.508   0.253   8.758  0.2658  0.7627  1.1270
 6352SOL     OW30691   2.008   2.492   0.259 -0.4957  0.1407  0.6981
 6352SOL    HW130692   2.073   2.501   0.189  0.4433 -1.2996  1.3962
 6352SOL    HW230693   1.937   2.514   0.198 -0.5873  1.6568  1.3490
 6353SOL     OW30694   0.550   4.733  14.984 -0.1370  0.4110 -0.5564
 6353SOL    HW130695   0.522   0.077  15.019 -1.4677  0.4968 -1.8156
 6353SOL    HW230696   0.514   4.728  14.895 -0.8396 -2.8256 -0.1220
 6354SOL     OW30697   2.136   2.788   7.614  0.3526 -0.7088  0.0681
 6354SOL    HW130698   2.107   2.778   7.524  0.1368  0.4629  0.0036
 6354SOL    HW230699   2.225   2.817   7.594  0.1264 -0.3220 -0.3631
 6355SOL     OW30700   2.460   2.192   9.355 -0.4857 -0.1316  0.1053
 6355SOL    HW130701   2.460   2.287   9.366 -2.5724 -0.2048  0.8028
 6355SOL    HW230702   2.500   2.167   9.438 -2.1664 -1.4870  0.5233
 6356SOL     OW30703   0.002   2.978   6.005  0.1164 -0.1655 -0.1803
 6356SOL    HW130704   0.071   2.912   6.007  0.9080  0.7032  0.7253
 6356SOL    HW230705   4.664   2.922   6.008  0.8240 -1.3623 -3.1885
 6357SOL     OW30706   0.462   3.895   2.685  0.0743  0.6110  0.2003
 6357SOL    HW130707   0.541   3.949   2.676 -0.9819  2.4590  2.2754
 6357SOL    HW230708   0.434   3.874   2.596  2.2390 -3.0169  0.3775
 6358SOL     OW30709   2.762   0.589   2.963 -1.2148 -0.2245 -0.6234
 6358SOL    HW130710   2.720   0.671   2.937  1.9670  1.9650  1.1753
 6358SOL    HW230711   2.701   0.563   3.033 -0.2716  0.6923  0.5337
 6359SOL     OW30712   1.208   4.371  10.486  0.0621 -0.6187 -0.2645
 6359SOL    HW130713   1.200   4.391  10.580 -0.0633  1.9997 -0.8433
 6359SOL    HW230714   1.280   4.309  10.493  0.7060  0.1976  0.3426
 6360SOL     OW30715   2.033   2.845   7.869 -0.1932 -0.5078 -0.0505
 6360SOL    HW130716   2.047   2.768   7.924  0.7711  0.2590  0.7843
 6360SOL    HW230717   2.085   2.822   7.791 -0.0035  0.0074 -0.0752
 6361SOL     OW30718   1.879   0.319   5.191 -0.4242  0.2041  0.5585
 6361SOL    HW130719   1.868   0.409   5.224  0.1543  0.1161  0.9966
 6361SOL    HW230720   1.868   0.260   5.266 -1.2232  1.4984  1.4532
 6362SOL     OW30721   0.331   3.663   3.764 -0.2471 -0.0561  0.2225
 6362SOL    HW130722   0.362   3.601   3.831  3.6842  0.8674 -0.7259
 6362SOL    HW230723   0.385   3.738   3.790 -1.2431  1.2217 -1.3985
 6363SOL     OW30724   2.427   1.694   1.688 -0.0376 -0.3049 -0.2136
 6363SOL    HW130725   2.413   1.674   1.781  0.2230  1.0287  0.1128
 6363SOL    HW230726   2.352   1.745   1.659  0.4040  0.2989 -0.2812
 6364SOL     OW30727   2.254   2.736   8.316  0.4074  0.4637  0.0498
 6364SOL    HW130728   2.177   2.787   8.292 -0.0929 -0.6387 -0.6689
 6364SOL    HW230729   2.304   2.728   8.235 -0.2528 -1.5899 -0.1529
 6365SOL     OW30730   2.777   3.268   4.415  0.1330 -0.6482 -0.2362
 6365SOL    HW130731   2.808   3.291   4.503  2.2854  0.9610 -1.4350
 6365SOL    HW230732   2.704   3.329   4.406 -0.5547 -1.3631  0.5463
 6366SOL     OW30733   2.668   0.971   3.745  0.3332 -0.3493  0.0036
 6366SOL    HW130734   2.723   0.937   3.815 -0.8005 -0.4938  0.8323
 6366SOL    HW230735   2.730   1.032   3.704 -0.6701  1.0901  0.6406
 6367SOL     OW30736   1.450   2.174   1.680 -0.0660 -0.1095  0.2862
 6367SOL    HW130737   1.416   2.260   1.654  0.6276  0.2052  0.4228
 6367SOL    HW230738   1.528   2.201   1.728 -0.2017  0.9701 -0.1014
 6368SOL     OW30739   2.402   0.407   6.360  0.5348  0.2135 -0.0285
 6368SOL    HW130740   2.357   0.371   6.436 -0.1630  0.9626 -0.0844
 6368SOL    HW230741   2.406   0.499   6.387  0.5730  0.6774 -1.5940
 6369SOL     OW30742   0.420   3.426  12.244  0.4330  0.5582  0.0793
 6369SOL    HW130743   0.422   3.455  12.153 -1.2855  0.9214  0.1493
 6369SOL    HW230744   0.326   3.426  12.261  0.2003 -0.3805 -1.1443
 6370SOL     OW30745   2.228   4.662  10.422  0.1126 -0.0167 -0.3034
 6370SOL    HW130746   2.189   4.576  10.406 -0.3863 -0.0359  0.9798
 6370SOL    HW230747   2.320   4.638  10.409 -0.4179 -0.8188 -2.4646
 6371SOL     OW30748   0.117   2.423   8.184 -0.1771 -0.1280  0.0861
 6371SOL    HW130749   0.100   2.350   8.124  0.7864  1.4235 -2.0586
 6371SOL    HW230750   0.042   2.482   8.182 -1.2133 -1.4355  0.3351
 6372SOL     OW30751   4.506   2.096   2.128 -0.2951  1.2271  0.3574
 6372SOL    HW130752   4.470   2.165   2.073 -2.3054  0.3357  0.5483
 6372SOL    HW230753   4.509   2.139   2.214 -1.1084 -0.4839  1.2444
 6373SOL     OW30754   3.417   0.282   3.843 -0.0872  0.3646  0.1339
 6373SOL    HW130755   3.396   0.343   3.914  1.5904  0.8629  0.2169
 6373SOL    HW230756   3.491   0.328   3.802  0.5584 -1.1858 -0.4317
 6374SOL     OW30757   1.152   0.327   8.168 -0.2927 -0.0558  0.1094
 6374SOL    HW130758   1.081   0.263   8.163  1.0450 -1.4975 -0.5370
 6374SOL    HW230759   1.112   0.413   8.173 -1.1651 -0.5301  1.4856
 6375SOL     OW30760   2.441   0.039   9.212 -0.2499  0.5271 -0.3431
 6375SOL    HW130761   2.497   0.111   9.241 -0.3980  0.7185 -0.5284
 6375SOL    HW230762   2.457   0.049   9.118  1.2908  0.8134 -0.0528
 6376SOL     OW30763   2.267   2.172   7.768 -0.0481 -0.4618  0.0546
 6376SOL    HW130764   2.186   2.190   7.814 -0.1887 -0.5842 -0.1442
 6376SOL    HW230765   2.300   2.097   7.818 -0.0844 -0.7157 -0.2942
 6377SOL     OW30766   2.963   3.796   2.444 -0.0526  0.0623 -0.6368
 6377SOL    HW130767   2.919   3.722   2.486 -0.8441  1.6210  1.2368
 6377SOL    HW230768   2.890   3.822   2.388 -0.6979 -1.0140 -0.2876
 6378SOL     OW30769   1.314   0.707   9.373 -0.4005 -0.2536 -0.1422
 6378SOL    HW130770   1.363   0.764   9.313 -0.4823 -0.5118 -0.4595
 6378SOL    HW230771   1.322   0.618   9.337  0.7601  0.2177 -1.0765
 6379SOL     OW30772   3.362   3.288   7.418  0.0422  0.1896  0.1509
 6379SOL    HW130773   3.436   3.348   7.413 -1.4748  2.0555 -0.2620
 6379SOL    HW230774   3.302   3.325   7.353 -0.1092  0.3222  0.3607
 6380SOL     OW30775   3.477   0.689   5.993 -0.3441  0.4558  0.0922
 6380SOL    HW130776   3.573   0.687   5.990 -0.3470  0.7587 -0.1686
 6380SOL    HW230777   3.458   0.627   6.064 -2.7718  0.9394 -0.1260
 6381SOL     OW30778   1.325   1.186   4.934 -0.1135 -0.0761 -0.2615
 6381SOL    HW130779   1.253   1.205   4.994  0.4054 -0.5641  0.5267
 6381SOL    HW230780   1.297   1.101   4.900 -2.0499  0.6937 -0.5590
 6382SOL     OW30781   0.059   3.685   5.320 -0.0373  0.1625  0.5131
 6382SOL    HW130782   0.049   3.593   5.344  1.7887  0.1925  1.4104
 6382SOL    HW230783   0.019   3.718   5.401  0.5494 -0.3915  1.0241
 6383SOL     OW30784   1.718   2.858   9.160  0.3425  0.5416  0.1398
 6383SOL    HW130785   1.729   2.831   9.251 -1.3088  1.6574  0.6706
 6383SOL    HW230786   1.810   2.878   9.141  0.2676 -0.6175 -1.4493
 6384SOL     OW30787   2.573   3.303   5.064 -0.2435  0.4447  0.1173
 6384SOL    HW130788   2.485   3.342   5.063  0.8737  2.9000 -2.3481
 6384SOL    HW230789   2.611   3.374   5.013 -1.1412  0.3645 -0.6532
 6385SOL     OW30790   3.447   1.826  11.569 -0.5330 -0.0150  0.9808
 6385SOL    HW130791   3.490   1.757  11.618  2.9289  1.4591 -0.0311
 6385SOL    HW230792   3.493   1.905  11.598  0.6881 -1.0975  1.9667
 6386SOL     OW30793   3.399   4.099   6.186  0.2761 -0.0364 -0.1487
 6386SOL    HW130794   3.472   4.142   6.231 -0.1501  0.2101  0.3102
 6386SOL    HW230795   3.380   4.166   6.120 -0.5197  1.2275  1.3467
 6387SOL     OW30796   1.342   4.169   4.479 -0.3704  0.1311 -0.1951
 6387SOL    HW130797   1.281   4.227   4.525 -1.1459 -1.5271  0.8293
 6387SOL    HW230798   1.368   4.098   4.537 -0.3481 -1.1746 -1.8068
 6388SOL     OW30799   2.645   4.144   7.152 -0.1560  0.7206 -0.2550
 6388SOL    HW130800   2.645   4.235   7.124 -0.8169  0.7593 -0.1397
 6388SOL    HW230801   2.685   4.098   7.079 -3.6048 -1.0507 -1.0243
 6389SOL     OW30802   4.161   0.171  13.646  0.1251 -1.2979 -0.1678
 6389SOL    HW130803   4.192   0.085  13.673 -3.3780 -1.7416  2.3339
 6389SOL    HW230804   4.075   0.166  13.686  0.6759 -1.8106  0.9486
 6390SOL     OW30805   0.976   4.708   3.028  0.6470  0.3136 -0.0615
 6390SOL    HW130806   0.895   4.657   3.033  0.0017  1.4061  1.0093
 6390SOL    HW230807   0.991   4.731   2.937  1.3936 -1.3652 -0.3565
 6391SOL     OW30808   4.190   4.203   7.090  0.2284  0.4686 -0.3103
 6391SOL    HW130809   4.127   4.159   7.148  1.4977 -1.4068 -0.3502
 6391SOL    HW230810   4.274   4.165   7.114 -1.1438 -1.4007  1.5154
 6392SOL     OW30811   2.811   1.194  14.281 -0.1789  0.1678 -0.4048
 6392SOL    HW130812   2.898   1.185  14.243  0.7917 -0.0938  1.9205
 6392SOL    HW230813   2.819   1.163  14.371 -3.0765 -0.5014 -0.3632
 6393SOL     OW30814   0.269   1.773   3.759  0.4629 -0.0489  0.5909
 6393SOL    HW130815   0.190   1.761   3.707  1.9591 -0.7419 -1.5216
 6393SOL    HW230816   0.315   1.694   3.732  2.1919  1.3975 -0.6874
 6394SOL     OW30817   4.184   2.741   4.941  0.3303  0.1926 -0.0398
 6394SOL    HW130818   4.277   2.739   4.965 -0.1150  0.0246  1.6036
 6394SOL    HW230819   4.176   2.796   4.863  2.4784  0.1460 -0.2914
 6395SOL     OW30820   0.784   4.002  10.201 -0.0610  0.0671  0.6240
 6395SOL    HW130821   0.763   3.976  10.290  0.7681 -1.1618  0.4672
 6395SOL    HW230822   0.800   4.095  10.213 -1.6427  0.4942 -0.6054
 6396SOL     OW30823   0.142   2.889   5.124 -0.3255 -0.1233  0.2859
 6396SOL    HW130824   0.223   2.899   5.174  0.1171 -1.3813 -0.1744
 6396SOL    HW230825   0.138   2.964   5.065  0.9785  0.2923  0.7289
 6397SOL     OW30826   0.860   4.071  13.184  0.7395  0.4277 -0.4658
 6397SOL    HW130827   0.943   4.088  13.140  2.2502 -0.4028  2.0433
 6397SOL    HW230828   0.816   4.011  13.123 -0.6222  2.7399 -1.7310
 6398SOL     OW30829   2.044   4.543   4.916 -0.3048  0.0344 -0.0653
 6398SOL    HW130830   2.119   4.535   4.975 -1.5533 -0.6387  1.4369
 6398SOL    HW230831   2.022   4.624   4.960  0.2615  1.7284 -2.8920
 6399SOL     OW30832   2.988   3.626   7.756 -0.3098  0.1554 -0.4092
 6399SOL    HW130833   3.057   3.655   7.697  1.1423 -0.4588  0.9711
 6399SOL    HW230834   3.009   3.670   7.839  1.7508  0.2014 -0.9707
 6400SOL     OW30835   1.962   0.705  12.515 -0.1223  0.2857  0.1245
 6400SOL    HW130836   2.049   0.727  12.481 -0.2191  0.0083 -0.2947
 6400SOL    HW230837   1.975   0.682  12.607 -0.6883 -1.0891 -0.1406
 6401SOL     OW30838   0.711   4.539   8.065  0.3386 -0.4539  0.0720
 6401SOL    HW130839   0.801   4.568   8.078  0.1731  0.4277 -0.7227
 6401SOL    HW230840   0.690   4.495   8.147 -1.5789  0.9756  0.3403
 6402SOL     OW30841   2.346   0.597   8.217 -0.0299 -0.2774  0.3931
 6402SOL    HW130842   2.422   0.539   8.213 -0.0256 -0.2049 -0.4225
 6402SOL    HW230843   2.348   0.627   8.308 -1.2741  0.1843  0.2651
 6403SOL     OW30844   0.863   1.111   9.416 -0.0714  0.5908  0.3870
 6403SOL    HW130845   0.926   1.044   9.442 -0.2216  0.2011 -0.2435
 6403SOL    HW230846   0.793   1.111   9.481 -0.0089 -2.2835  0.4325
 6404SOL     OW30847   3.736   2.223   4.245  0.5599  0.3393  0.1056
 6404SOL    HW130848   3.753   2.234   4.339 -1.2064 -2.0942  0.7193
 6404SOL    HW230849   3.819   2.257   4.212  0.3633 -0.4218 -1.1513
 6405SOL     OW30850   1.708   3.848   9.146 -0.3591 -0.1328 -0.1520
 6405SOL    HW130851   1.676   3.877   9.231  2.0047 -0.6099  0.8905
 6405SOL    HW230852   1.783   3.796   9.175  1.2682  2.8650  1.0129
 6406SOL     OW30853   0.176   4.446  13.074  0.0148  0.0020 -0.0182
 6406SOL    HW130854   0.224   4.385  13.130  0.0871  0.3709  0.3185
 6406SOL    HW230855   0.093   4.401  13.056  0.1237 -1.4602  3.2678
 6407SOL     OW30856   4.130   0.209  11.061 -0.0483  0.0096  0.2829
 6407SOL    HW130857   4.086   0.278  11.011 -1.0132 -1.0248 -0.3012
 6407SOL    HW230858   4.222   0.206  11.036  0.2437  0.2667  1.3308
 6408SOL     OW30859   0.779   0.742   3.854  0.0307  0.2517 -0.3011
 6408SOL    HW130860   0.777   0.784   3.940  0.8675 -2.2478  0.9420
 6408SOL    HW230861   0.862   0.772   3.817 -0.0131 -1.5690 -1.8668
 6409SOL     OW30862   2.232   2.040   4.329 -0.3502  0.4332 -0.4827
 6409SOL    HW130863   2.191   1.956   4.349 -0.9167  1.0197  0.7722
 6409SOL    HW230864   2.228   2.086   4.412  2.4706  0.5169 -0.3708
 6410SOL     OW30865   3.518   4.571   6.808 -0.2124  0.5259  0.6444
 6410SOL    HW130866   3.581   4.597   6.741 -1.5718 -0.2980 -0.9470
 6410SOL    HW230867   3.463   4.649   6.818 -1.6025 -0.6809  2.4973
 6411SOL     OW30868   2.622   0.425   3.601  0.2162 -0.4299 -0.5507
 6411SOL    HW130869   2.530   0.435   3.627  0.8001  0.1068  1.3254
 6411SOL    HW230870   2.612   0.365   3.527 -0.7125 -0.4455 -0.4116
 6412SOL     OW30871   4.088   4.377   3.000  0.3505 -0.0706  0.1814
 6412SOL    HW130872   4.182   4.389   2.986  0.5060 -0.0886  1.1764
 6412SOL    HW230873   4.062   4.363   2.909  2.0774 -0.6517 -0.2271
 6413SOL     OW30874   0.915   3.369  11.546 -0.0637  0.2298  0.2208
 6413SOL    HW130875   0.839   3.352  11.602  0.8353 -1.2242  1.0036
 6413SOL    HW230876   0.947   3.442  11.599 -1.1329  0.5124  0.4613
 6414SOL     OW30877   1.701   1.301   3.786  0.2941 -0.6326 -0.3400
 6414SOL    HW130878   1.794   1.278   3.793  0.4030 -0.6375 -1.8595
 6414SOL    HW230879   1.680   1.352   3.864 -0.7482 -1.0265 -0.3570
 6415SOL     OW30880   0.802   1.415   8.629  0.2243 -0.2946  0.4590
 6415SOL    HW130881   0.812   1.431   8.723  0.7203 -2.5442  0.7791
 6415SOL    HW230882   0.871   1.469   8.591  1.1888  0.3816  3.1301
 6416SOL     OW30883   1.772   0.788   8.103  0.2217  0.5935 -0.4955
 6416SOL    HW130884   1.700   0.751   8.155 -1.7899  2.8942 -1.6341
 6416SOL    HW230885   1.847   0.743   8.141 -1.7684 -0.4109  2.2731
 6417SOL     OW30886   0.003   3.011   2.551  0.6236  0.5565 -0.0636
 6417SOL    HW130887   0.010   3.004   2.456  0.8923  3.2996 -0.2462
 6417SOL    HW230888   0.094   3.021   2.579 -0.5718  0.4890  3.7658
 6418SOL     OW30889   4.542   3.206  13.517 -0.6178 -0.3980 -0.5441
 6418SOL    HW130890   4.495   3.152  13.452  0.3368  0.8689 -2.2920
 6418SOL    HW230891   4.631   3.185  13.489  0.0068  0.1790  1.0074
 6419SOL     OW30892   1.936   0.771  14.333 -0.4479 -0.0038 -0.2462
 6419SOL    HW130893   1.926   0.695  14.276  0.2313 -0.6711  0.5181
 6419SOL    HW230894   1.900   0.729  14.411 -2.6826 -0.5916 -1.6013
 6420SOL     OW30895   2.171   0.956   1.493 -0.1245 -0.2830 -0.2809
 6420SOL    HW130896   2.172   1.011   1.571 -1.0505  2.5594 -2.2897
 6420SOL    HW230897   2.090   0.909   1.514  0.5817 -1.2006  0.3541
 6421SOL     OW30898   2.187   0.172   2.112  0.1067 -0.2448 -0.1341
 6421SOL    HW130899   2.100   0.205   2.134  0.0827 -0.3711 -0.0378
 6421SOL    HW230900   2.170   0.115   2.037  1.7256  0.8808 -1.3532
 6422SOL     OW30901   2.686   0.454   2.709 -0.1802  0.4665 -0.3823
 6422SOL    HW130902   2.742   0.384   2.673 -3.3487 -1.0817 -2.3079
 6422SOL    HW230903   2.742   0.516   2.756 -0.3573  1.5235 -1.5834
 6423SOL     OW30904   1.508   3.562  11.554  0.1262 -0.2446  0.6187
 6423SOL    HW130905   1.570   3.520  11.494 -0.4050 -1.0788  0.6468
 6423SOL    HW230906   1.423   3.535  11.519 -0.4569 -0.2343  2.0238
 6424SOL     OW30907   4.577   3.024  13.297  0.2080 -0.2145 -0.6999
 6424SOL    HW130908   4.564   3.012  13.203  0.6990  1.6528 -1.0052
 6424SOL    HW230909   4.662   2.982  13.306 -0.5254 -1.1736  1.7566
 6425SOL     OW30910   3.320   0.419   8.740 -0.4939  0.2625  0.0239
 6425SOL    HW130911   3.389   0.455   8.796  0.7570 -2.5053  0.2726
 6425SOL    HW230912   3.293   0.338   8.784 -1.1576  0.4840  0.0202
 6426SOL     OW30913   4.507   3.565   5.416 -0.4628  0.3935 -0.4087
 6426SOL    HW130914   4.503   3.649   5.462 -3.3421  0.6204 -1.0520
 6426SOL    HW230915   4.462   3.593   5.335 -0.5840  0.5654 -0.2826
 6427SOL     OW30916   0.819   0.152   9.751 -0.2598  0.3498  0.5907
 6427SOL    HW130917   0.790   0.179   9.838 -1.0445  1.4806 -0.0315
 6427SOL    HW230918   0.756   0.191   9.692 -1.1217 -1.6806  0.1567
 6428SOL     OW30919   1.960   1.635   7.931 -0.1370 -0.1167  0.1270
 6428SOL    HW130920   1.876   1.654   7.890 -1.0282  1.8024  2.9158
 6428SOL    HW230921   1.993   1.724   7.942  0.3060 -0.2608 -0.0368
 6429SOL     OW30922   4.522   0.837   3.612 -0.1152 -0.2824 -0.0886
 6429SOL    HW130923   4.543   0.929   3.625  0.2245 -0.4001  0.1987
 6429SOL    HW230924   4.492   0.826   3.522  0.7794 -1.6231 -0.2401
 6430SOL     OW30925   3.333   4.156  12.156 -0.5021  0.3134  0.3312
 6430SOL    HW130926   3.243   4.186  12.148 -0.5947 -0.3884 -1.3036
 6430SOL    HW230927   3.315   4.074  12.112  1.0963  1.4414 -2.4621
 6431SOL     OW30928   0.901   2.332   6.166 -0.2281  0.0051  0.0521
 6431SOL    HW130929   0.907   2.303   6.075 -1.8429  0.9198 -0.3408
 6431SOL    HW230930   0.986   2.376   6.162 -1.9405  3.2182 -0.5710
 6432SOL     OW30931   0.494   2.949   3.697  0.3181  0.4096 -0.2382
 6432SOL    HW130932   0.455   2.915   3.778 -1.9078 -2.7786 -2.6057
 6432SOL    HW230933   0.589   2.941   3.706  0.0723 -0.9408  1.3168
 6433SOL     OW30934   0.446   2.591   5.562  0.1265 -0.0730 -0.0741
 6433SOL    HW130935   0.514   2.605   5.628  0.4611 -0.3009 -0.3661
 6433SOL    HW230936   0.373   2.542   5.599  0.1493 -0.8389 -1.0452
 6434SOL     OW30937   4.378   4.142   9.015 -0.4061 -0.2157 -0.1808
 6434SOL    HW130938   4.403   4.071   8.956 -0.9949  0.0607 -0.7568
 6434SOL    HW230939   4.291   4.116   9.047  0.5393 -1.3674  1.4520
 6435SOL     OW30940   3.662   3.376  14.060 -0.2970  0.4142  0.1553
 6435SOL    HW130941   3.717   3.444  14.100  0.1964  1.2341 -1.9072
 6435SOL    HW230942   3.619   3.332  14.133  3.0433 -3.4042 -0.2011
 6436SOL     OW30943   4.724   0.186   8.279  0.5170 -0.0539  0.2435
 6436SOL    HW130944   4.629   0.195   8.292  0.4272 -0.6401 -0.0149
 6436SOL    HW230945   0.015   0.249   8.343 -1.1834  0.7036  0.3307
 6437SOL     OW30946   0.623   3.495   2.454  0.1069 -0.1714  0.5044
 6437SOL    HW130947   0.569   3.564   2.416 -1.6662 -1.2929  0.9685
 6437SOL    HW230948   0.575   3.480   2.535 -0.3311  0.3059  0.3340
 6438SOL     OW30949   1.025   3.900   8.979 -0.5388 -0.2433 -0.0768
 6438SOL    HW130950   1.105   3.852   8.956  0.4647  1.0223  0.8201
 6438SOL    HW230951   1.049   3.935   9.065  3.2277  0.4148 -1.3847
 6439SOL     OW30952   4.209   0.932   5.123 -0.0683  0.1069 -0.2135
 6439SOL    HW130953   4.184   0.958   5.035  2.3692 -1.6127 -1.4194
 6439SOL    HW230954   4.286   0.882   5.098 -0.7634  0.3712 -2.8592
 6440SOL     OW30955   2.362   4.130   4.446 -0.3404 -0.3417  0.5230
 6440SOL    HW130956   2.337   4.049   4.489 -1.5717  0.4294  1.2746
 6440SOL    HW230957   2.346   4.197   4.513 -2.5191 -1.3195  0.9703
 6441SOL     OW30958   1.832   2.855   6.095  0.4504  0.4111  0.0446
 6441SOL    HW130959   1.845   2.922   6.162 -0.4772  0.9451 -0.3115
 6441SOL    HW230960   1.823   2.902   6.012 -0.5561 -2.0106 -1.2083
 6442SOL     OW30961   3.814   4.282   2.564 -0.0644 -0.8124 -0.2055
 6442SOL    HW130962   3.771   4.224   2.501 -0.4268  0.1010 -0.8087
 6442SOL    HW230963   3.865   4.216   2.610 -0.1037 -1.8767 -1.6934
 6443SOL     OW30964   3.520   2.055   2.374  0.2104 -0.0255  0.3752
 6443SOL    HW130965   3.559   2.107   2.304  0.2654  0.1540  0.5366
 6443SOL    HW230966   3.598   2.008   2.404  0.2520  1.7395  3.0241
 6444SOL     OW30967   1.149   3.077  14.939 -0.1013  0.5483 -0.1322
 6444SOL    HW130968   1.170   3.000  14.886  1.5265  0.0975  1.1857
 6444SOL    HW230969   1.240   3.094  14.963 -0.3834  0.6679  0.8341
 6445SOL     OW30970   3.617   1.333  12.224  0.2486  0.2951  0.8572
 6445SOL    HW130971   3.688   1.274  12.248  0.1468  0.3333  1.2559
 6445SOL    HW230972   3.553   1.265  12.202 -1.0914  1.3858  1.4168
 6446SOL     OW30973   3.274   1.048   6.998  0.1018 -0.7484  0.1196
 6446SOL    HW130974   3.271   1.114   6.929 -1.4625 -2.1201 -1.0956
 6446SOL    HW230975   3.341   1.090   7.053  0.2614 -0.1484 -0.5263
 6447SOL     OW30976   0.720   4.540  12.322  0.0160 -0.1026  0.8342
 6447SOL    HW130977   0.723   4.548  12.226  1.4236  2.2821  1.0810
 6447SOL    HW230978   0.647   4.599  12.337 -1.9599 -2.1811 -0.5738
 6448SOL     OW30979   3.247   4.327  14.179  0.2486 -0.4184  0.1092
 6448SOL    HW130980   3.298   4.253  14.212  1.1878  1.7648  3.5749
 6448SOL    HW230981   3.176   4.333  14.243 -0.6661  0.5434 -0.9964
 6449SOL     OW30982   2.936   3.181  16.565  1.0597  0.2021 -0.0469
 6449SOL    HW130983   2.852   3.214  16.597  2.2889  4.1852 -0.8776
 6449SOL    HW230984   2.954   3.126  16.642 -2.6997 -0.3878  0.4425
 6450SOL     OW30985   1.853   0.403   3.725 -0.2493  0.9524  0.6619
 6450SOL    HW130986   1.885   0.430   3.811  2.4569  1.2440 -0.4118
 6450SOL    HW230987   1.777   0.348   3.742 -0.4940  0.9746 -0.3251
 6451SOL     OW30988   4.535   0.626   7.118  0.0684  0.3506 -0.5034
 6451SOL    HW130989   4.608   0.653   7.174  1.0113 -2.7396 -0.2584
 6451SOL    HW230990   4.550   0.683   7.042  1.6086  0.3069 -0.2323
 6452SOL     OW30991   2.375   0.171   6.877  0.1332 -0.4203 -0.0758
 6452SOL    HW130992   2.360   0.171   6.972  0.6187 -0.1984  0.0044
 6452SOL    HW230993   2.372   0.076   6.871  1.7420 -0.4469 -0.4247
 6453SOL     OW30994   3.072   3.937   8.149 -0.1906 -0.5818  0.0611
 6453SOL    HW130995   3.003   4.001   8.165 -1.3174 -1.4283 -1.3653
 6453SOL    HW230996   3.141   3.997   8.176 -0.5886  0.7926 -1.9496
 6454SOL     OW30997   0.186   0.559  11.052  0.3813  0.1698  0.5502
 6454SOL    HW130998   0.095   0.556  11.023  0.1598  0.4345  1.2336
 6454SOL    HW230999   0.201   0.465  11.043  1.7940  0.3282  1.2924
 6455SOL     OW31000   4.515   0.050   5.860  0.1947  0.0376 -1.0465
 6455SOL    HW131001   4.593   4.736   5.863  0.5529  0.5278 -1.5190
 6455SOL    HW231002   4.448   4.739   5.906  1.3711 -0.9109 -0.3995
 6456SOL     OW31003   2.456   3.872   1.730  0.4710 -0.0007  0.5055
 6456SOL    HW131004   2.552   3.873   1.726  0.4662 -0.5788  0.2443
 6456SOL    HW231005   2.462   3.912   1.817 -0.8727 -0.5553  0.8590
 6457SOL     OW31006   4.079   4.180   3.466  0.4062 -0.3564 -0.1557
 6457SOL    HW131007   4.103   4.105   3.520 -1.5753  0.5728  2.0392
 6457SOL    HW231008   4.141   4.176   3.393  0.9644 -0.1939  0.3152
 6458SOL     OW31009   3.569   0.434   8.058  0.0353  0.1888  0.6495
 6458SOL    HW131010   3.644   0.403   8.110  1.0319  0.1894 -0.8071
 6458SOL    HW231011   3.613   0.456   7.977 -0.0104 -1.7091  0.0982
 6459SOL     OW31012   0.791   2.332   1.191  0.2195  0.1242  0.2435
 6459SOL    HW131013   0.838   2.413   1.211 -1.2451  0.4550  2.2976
 6459SOL    HW231014   0.703   2.360   1.169  0.0481  1.1624  2.2524
 6460SOL     OW31015   4.299   0.791  13.430  0.4500 -0.5092  0.3001
 6460SOL    HW131016   4.211   0.821  13.407  1.2797  0.8268 -1.1486
 6460SOL    HW231017   4.341   0.877  13.427 -0.3485 -0.1489 -0.6018
 6461SOL     OW31018   1.872   4.052   4.657  0.3370 -0.0213 -0.1176
 6461SOL    HW131019   1.884   4.116   4.727  1.5266 -1.5632  1.0840
 6461SOL    HW231020   1.848   3.969   4.698  2.3281 -0.7691 -0.4235
 6462SOL     OW31021   4.019   0.165   2.279  0.3760 -0.4502 -0.0436
 6462SOL    HW131022   3.946   0.191   2.222 -0.4492 -1.5735  0.5118
 6462SOL    HW231023   4.089   0.137   2.220 -1.5777  0.2309 -2.7171
 6463SOL     OW31024   3.513   2.436   3.210  0.2276  0.1271 -0.7206
 6463SOL    HW131025   3.431   2.484   3.226  0.7520  0.7092  0.2233
 6463SOL    HW231026   3.491   2.355   3.255  0.9855  0.6562  0.5845
 6464SOL     OW31027   1.738   1.242   7.524  0.7265  0.1230  0.0250
 6464SOL    HW131028   1.729   1.147   7.524 -2.5942  0.4484  2.0783
 6464SOL    HW231029   1.649   1.271   7.503  2.1308  3.7514 -0.9879
 6465SOL     OW31030   2.247   3.684   8.823 -0.6725  0.1176  0.4702
 6465SOL    HW131031   2.176   3.663   8.762 -0.3469 -1.0333  0.4827
 6465SOL    HW231032   2.193   3.740   8.878 -0.8082  1.3394 -0.8970
 6466SOL     OW31033   0.716   0.782   9.131  0.1751  0.2117 -0.4505
 6466SOL    HW131034   0.704   0.877   9.139  3.7994  0.4354  2.2417
 6466SOL    HW231035   0.763   0.781   9.048 -1.1764 -3.0371 -1.1614
 6467SOL     OW31036   4.568   0.535   1.986 -0.2869  0.2406 -0.1211
 6467SOL    HW131037   4.570   0.621   1.943 -1.7659 -0.6437 -1.9689
 6467SOL    HW231038   4.495   0.540   2.048 -0.8827 -1.4076 -0.6893
 6468SOL     OW31039   2.022   1.602   6.918  0.7315 -0.4014  0.0004
 6468SOL    HW131040   2.042   1.520   6.963 -1.9979 -1.4257 -0.6914
 6468SOL    HW231041   1.942   1.597   6.867  1.3386  0.0489 -1.0121
 6469SOL     OW31042   3.768   3.847   7.178  0.6125 -0.1903  0.1110
 6469SOL    HW131043   3.720   3.928   7.164  0.2509 -0.3411  0.4753
 6469SOL    HW231044   3.838   3.867   7.240  0.1847  0.2640  0.4475
 6470SOL     OW31045   0.337   4.646  10.850  0.0275  0.2648  0.1308
 6470SOL    HW131046   0.354   4.727  10.899  0.7923  0.5655 -0.6398
 6470SOL    HW231047   0.332   4.575  10.915 -2.2160 -0.0625 -0.4185
 6471SOL     OW31048   2.643   2.844   6.394 -0.1860  0.1607  0.2730
 6471SOL    HW131049   2.616   2.872   6.307 -0.0731  2.2970  0.9182
 6471SOL    HW231050   2.736   2.827   6.382 -0.2520  0.2513 -0.3607
 6472SOL     OW31051   4.233   3.784   7.972  0.7119  0.8623  0.1318
 6472SOL    HW131052   4.259   3.708   8.024  1.7744  0.4330 -1.0252
 6472SOL    HW231053   4.319   3.825   7.960  1.4365 -1.2147 -1.7627
 6473SOL     OW31054   0.165   2.736  10.258  0.1100  0.3231  0.4135
 6473SOL    HW131055   0.171   2.755  10.351  0.3220 -0.2056  0.5055
 6473SOL    HW231056   0.145   2.643  10.261  4.6704 -0.6298  1.1402
 6474SOL     OW31057   1.408   3.525   2.430  0.6499  0.1267 -0.5535
 6474SOL    HW131058   1.349   3.591   2.392 -0.6608 -0.4640  0.4595
 6474SOL    HW231059   1.392   3.526   2.524  1.4780 -1.1096 -0.4101
 6475SOL     OW31060   0.828   0.384  13.454 -0.3194 -0.2358 -0.3472
 6475SOL    HW131061   0.874   0.317  13.505 -0.4022  0.1765  0.2766
 6475SOL    HW231062   0.797   0.438  13.527  2.5479  1.7557 -0.6025
 6476SOL     OW31063   2.676   1.626   9.287 -0.2188  0.2336  0.7180
 6476SOL    HW131064   2.684   1.574   9.367 -0.5280  0.4807  0.9079
 6476SOL    HW231065   2.730   1.562   9.239 -0.6529  0.1287  0.3679
 6477SOL     OW31066   1.273   1.846   5.187  0.4145  0.7237 -0.3612
 6477SOL    HW131067   1.295   1.915   5.249  0.5795  1.0299 -0.7638
 6477SOL    HW231068   1.180   1.866   5.174  0.5626  2.4749  1.4096
 6478SOL     OW31069   0.326   3.803  16.988 -0.4984 -0.2477 -0.0092
 6478SOL    HW131070   0.285   3.730  16.943 -0.9791 -1.8791  3.1223
 6478SOL    HW231071   0.416   3.781  16.962 -0.1036  0.7647  0.4862
 6479SOL     OW31072   1.920   3.597  16.760  0.0276  0.4844 -0.1131
 6479SOL    HW131073   1.869   3.668  16.721  0.3300  0.6204 -0.2605
 6479SOL    HW231074   1.860   3.523  16.752 -0.5247  1.1687 -2.4092
 6480SOL     OW31075   0.437   3.396   3.178  0.2880  0.1031 -0.2799
 6480SOL    HW131076   0.478   3.356   3.255 -1.5561 -0.0364  0.6399
 6480SOL    HW231077   0.389   3.323   3.139  2.4004 -1.1232 -0.5913
 6481SOL     OW31078   1.989   2.195   8.697 -0.4308  0.4689 -0.7744
 6481SOL    HW131079   1.998   2.289   8.711 -0.0589  0.5694 -1.6884
 6481SOL    HW231080   1.982   2.173   8.790  1.0616 -0.4185 -0.8734
 6482SOL     OW31081   1.843   1.415   8.427 -0.5157 -0.2870  0.0288
 6482SOL    HW131082   1.899   1.446   8.356  1.8799 -0.7941  1.6586
 6482SOL    HW231083   1.898   1.342   8.459 -0.8102  0.1464  1.5277
 6483SOL     OW31084   4.106   1.515   8.645 -0.1075  0.0884  0.6755
 6483SOL    HW131085   4.083   1.552   8.731  0.0039 -0.2941  0.8715
 6483SOL    HW231086   4.019   1.493   8.611 -1.6338  2.1331  3.2629
 6484SOL     OW31087   3.533   4.346   5.246  0.6076 -0.2292 -0.5206
 6484SOL    HW131088   3.584   4.324   5.168 -0.9859 -1.1329 -1.3283
 6484SOL    HW231089   3.592   4.333   5.320  1.1942  0.3303 -0.8916
 6485SOL     OW31090   1.453   4.214   6.954 -0.1134  0.7624 -0.2452
 6485SOL    HW131091   1.546   4.227   6.973 -0.0108  2.1628 -1.7620
 6485SOL    HW231092   1.444   4.283   6.889  0.0994 -1.2315 -2.3610
 6486SOL     OW31093   2.933   1.357   5.726 -0.3420 -0.2286  0.1518
 6486SOL    HW131094   2.908   1.316   5.809  0.3064 -0.6142  0.1597
 6486SOL    HW231095   2.937   1.277   5.673 -1.3775 -0.0487 -0.1865
 6487SOL     OW31096   3.891   4.616   7.703  0.1929 -0.0773  0.2864
 6487SOL    HW131097   3.811   4.578   7.668  0.4585 -1.7874  1.5263
 6487SOL    HW231098   3.905   4.692   7.647 -0.5883 -0.9298 -1.0513
 6488SOL     OW31099   0.040   1.218   2.063  0.5905 -0.5809  0.4386
 6488SOL    HW131100   4.723   1.218   2.140  1.9343 -0.6567  1.4400
 6488SOL    HW231101   0.115   1.251   2.113 -0.4040  1.7732  0.3871
 6489SOL     OW31102   1.554   2.979  16.337  0.0414 -0.2392  0.0699
 6489SOL    HW131103   1.637   3.025  16.350 -1.0203  1.6473  0.2015
 6489SOL    HW231104   1.580   2.903  16.286  1.7282 -0.3431  1.0906
 6490SOL     OW31105   3.786   3.075   3.055 -0.2478  0.5916 -0.2353
 6490SOL    HW131106   3.822   3.011   3.116 -1.2946 -1.1494 -1.4464
 6490SOL    HW231107   3.703   3.105   3.092  0.4428 -0.3096  2.0468
 6491SOL     OW31108   2.789   4.222   4.639 -0.0187 -0.0985  0.4286
 6491SOL    HW131109   2.739   4.296   4.607  1.9988  0.8634 -0.4529
 6491SOL    HW231110   2.875   4.265   4.639  0.6451 -1.4237  3.0337
 6492SOL     OW31111   0.516   3.572  11.144  0.2201 -0.7368  0.0733
 6492SOL    HW131112   0.586   3.617  11.192 -0.7538 -1.1092  1.8170
 6492SOL    HW231113   0.560   3.543  11.064  1.5884  0.0725  0.5296
 6493SOL     OW31114   1.305   2.110  10.467 -0.3884 -0.5838  0.7343
 6493SOL    HW131115   1.257   2.186  10.500 -2.5763 -1.3957 -0.5522
 6493SOL    HW231116   1.238   2.069  10.412  1.2634 -0.5174 -1.3471
 6494SOL     OW31117   2.304   4.310   8.159 -0.1282 -0.4793 -0.2690
 6494SOL    HW131118   2.241   4.267   8.100  0.4007 -1.1913 -0.3214
 6494SOL    HW231119   2.257   4.388   8.187  1.3326 -0.3194  1.7197
 6495SOL     OW31120   1.564   4.140   5.072 -0.4079 -0.4231  0.0748
 6495SOL    HW131121   1.648   4.100   5.046 -0.3912  0.3647 -1.1061
 6495SOL    HW231122   1.504   4.088   5.018 -1.8161  0.7023  0.5855
 6496SOL     OW31123   1.513   0.546   3.034 -0.2076 -0.3343 -0.1673
 6496SOL    HW131124   1.511   0.467   2.980  1.3493  0.7040 -1.7628
 6496SOL    HW231125   1.604   0.544   3.062 -0.7092 -0.7260  1.4722
 6497SOL     OW31126   0.054   2.163   9.543 -0.2406  0.0894  0.6205
 6497SOL    HW131127   0.002   2.235   9.578 -2.1000 -0.2762 -1.3855
 6497SOL    HW231128   0.052   2.115   9.626 -1.6641  1.7628  1.5446
 6498SOL     OW31129   0.616   4.576  15.651  0.7930  0.2180  0.3292
 6498SOL    HW131130   0.704   4.538  15.643 -0.3502 -2.0958 -1.1597
 6498SOL    HW231131   0.568   4.531  15.582  0.8703  0.2990  0.2229
 6499SOL     OW31132   2.848   4.073   2.973 -0.1998 -0.4498  0.8102
 6499SOL    HW131133   2.853   3.997   3.031  1.3277 -1.9018 -1.2035
 6499SOL    HW231134   2.938   4.105   2.972 -0.4360  0.2106  1.0487
 6500SOL     OW31135   0.261   3.323   6.343  0.3275 -0.0532 -0.1193
 6500SOL    HW131136   0.185   3.333   6.286  2.0220 -1.4860 -2.6338
 6500SOL    HW231137   0.303   3.409   6.346 -0.6592  0.3748  1.6880
 6501SOL     OW31138   0.918   4.533   0.650  0.4875  0.2255 -0.1836
 6501SOL    HW131139   0.875   4.576   0.724  1.3734  1.4620 -0.3811
 6501SOL    HW231140   1.000   4.582   0.653  0.7015 -0.2125  1.2416
 6502SOL     OW31141   1.029   3.503   6.451  0.5216  0.9524 -0.0112
 6502SOL    HW131142   0.946   3.534   6.488  0.6066 -0.3580  1.2783
 6502SOL    HW231143   1.077   3.585   6.439 -2.7451  2.8110 -0.3069
 6503SOL     OW31144   0.113   3.841   1.990  0.1804  0.0826  0.3913
 6503SOL    HW131145   0.159   3.763   2.020 -0.7922  0.5628  3.1287
 6503SOL    HW231146   0.027   3.800   1.974  1.2576 -1.4229 -1.6395
 6504SOL     OW31147   3.935   1.345  11.605 -0.1941  0.0081 -0.3589
 6504SOL    HW131148   3.994   1.329  11.531  1.2491  0.7909  0.5999
 6504SOL    HW231149   3.987   1.398  11.665 -1.2138  0.1143  0.4243
 6505SOL     OW31150   3.564   1.847   8.911  0.0956 -0.3070  0.2727
 6505SOL    HW131151   3.469   1.855   8.912  0.1437  0.3134 -0.5266
 6505SOL    HW231152   3.565   1.775   8.974 -0.0100 -0.2313  0.3600
 6506SOL     OW31153   0.426   4.699  17.351 -0.0273 -0.2572  0.0432
 6506SOL    HW131154   0.359   4.694  17.283  0.8672 -1.7490 -0.7068
 6506SOL    HW231155   0.412   0.048  17.384  1.2813 -0.0436 -0.0095
 6507SOL     OW31156   1.345   0.135  15.549  0.2171  0.0042  0.0261
 6507SOL    HW131157   1.418   0.079  15.522 -0.4306 -1.0445  0.4110
 6507SOL    HW231158   1.351   0.213  15.495 -0.9517 -1.8561 -2.8211
 6508SOL     OW31159   0.002   4.710   3.846  0.2985 -0.3747 -0.0364
 6508SOL    HW131160   4.662   0.017   3.870  0.8998  0.2769  0.7145
 6508SOL    HW231161   0.047   0.031   3.788 -2.2295  0.1609 -1.4258
 6509SOL     OW31162   2.365   3.117   1.610 -0.1723  0.3062  0.0738
 6509SOL    HW131163   2.414   3.183   1.658 -0.0261 -1.2237  2.0130
 6509SOL    HW231164   2.354   3.145   1.519 -2.7493  0.8356  0.5584
 6510SOL     OW31165   3.234   1.182   3.435 -0.5269 -0.3690  0.0572
 6510SOL    HW131166   3.159   1.148   3.385  0.2917 -0.8015 -0.8754
 6510SOL    HW231167   3.190   1.187   3.520 -1.6412 -2.3980 -0.4003
 6511SOL     OW31168   2.263   3.413   6.051 -0.5922 -0.0352  0.1890
 6511SOL    HW131169   2.225   3.416   5.963  1.7535  0.1852 -0.8234
 6511SOL    HW231170   2.272   3.319   6.069  0.5458  0.1785  0.7081
 6512SOL     OW31171   4.118   1.681   0.036  0.4200 -0.0541  0.0770
 6512SOL    HW131172   4.113   1.774   0.017  1.0401  0.4392  2.4109
 6512SOL    HW231173   4.158   1.691   0.121 -0.8653 -0.6552  0.7609
 6513SOL     OW31174   0.727   2.787  11.891  0.4072  0.1091  0.0158
 6513SOL    HW131175   0.715   2.856  11.956 -0.3120  0.8729 -0.9390
 6513SOL    HW231176   0.795   2.737  11.936  0.1147  2.0194  2.5538
 6514SOL     OW31177   2.203   0.739   0.043  0.3130 -0.1626 -0.4721
 6514SOL    HW131178   2.261   0.811   0.021  1.7810 -0.4882  2.2999
 6514SOL    HW231179   2.131   0.749  17.738 -0.5898 -0.0777  0.5892
 6515SOL     OW31180   0.467   4.538   2.723 -0.7298 -0.1470 -0.2732
 6515SOL    HW131181   0.510   4.453   2.717  0.8856  0.6590 -0.2922
 6515SOL    HW231182   0.510   4.562   2.805 -4.0270  0.7076  1.2023
 6516SOL     OW31183   1.388   0.041   9.118 -0.1354 -0.3328 -0.1949
 6516SOL    HW131184   1.361   0.032   9.210 -1.1818  0.4717 -0.4192
 6516SOL    HW231185   1.465   0.097   9.125 -0.5360  0.2361 -0.3113
 6517SOL     OW31186   4.270   2.986   9.718 -0.1771 -0.6597 -0.1271
 6517SOL    HW131187   4.175   2.976   9.718 -0.3179  0.7134  0.8016
 6517SOL    HW231188   4.287   2.897   9.687 -2.8925 -1.2740  0.1066
 6518SOL     OW31189   4.393   3.187   9.538 -0.1143  0.0350 -0.0029
 6518SOL    HW131190   4.369   3.109   9.587  0.4495 -0.9662 -1.3303
 6518SOL    HW231191   4.475   3.214   9.580 -0.4093  1.4456 -0.3305
 6519SOL     OW31192   4.344   1.360   4.315  0.0553 -0.0487 -0.9260
 6519SOL    HW131193   4.285   1.420   4.361  1.1063 -0.3513  0.8020
 6519SOL    HW231194   4.365   1.418   4.242  0.4320 -0.1320 -0.8817
 6520SOL     OW31195   1.124   1.231  16.639 -0.0441 -0.2081 -0.1512
 6520SOL    HW131196   1.030   1.224  16.622 -0.0172 -1.0676  0.0335
 6520SOL    HW231197   1.117   1.303  16.701  2.3027 -1.1478  1.1922
 6521SOL     OW31198   0.625   2.769   6.326  0.2835 -0.2407  0.1593
 6521SOL    HW131199   0.718   2.788   6.320  0.1741  0.0748 -0.5903
 6521SOL    HW231200   0.627   2.691   6.381 -0.0733 -0.2542  0.1520
 6522SOL     OW31201   1.943   3.582   0.950 -0.6069  0.4058 -0.1031
 6522SOL    HW131202   1.978   3.543   1.030 -0.5940 -1.0461 -0.8014
 6522SOL    HW231203   1.853   3.609   0.967 -0.8922 -0.7621  0.2858
 6523SOL     OW31204   0.813   0.826  12.147  0.3483  0.1329 -0.4820
 6523SOL    HW131205   0.852   0.894  12.201 -1.9287 -0.2086  1.5672
 6523SOL    HW231206   0.780   0.761  12.208 -0.0942  1.8303  1.0679
 6524SOL     OW31207   2.994   4.039   3.913 -0.1176 -0.3814  0.1011
 6524SOL    HW131208   2.923   4.103   3.911 -0.9144 -1.3270 -1.7204
 6524SOL    HW231209   2.951   3.982   3.849 -3.3829 -2.2468  3.9421
 6525SOL     OW31210   4.478   3.019   2.884  0.2526  0.2071 -0.1405
 6525SOL    HW131211   4.551   2.959   2.870  1.7954  1.8014  0.9805
 6525SOL    HW231212   4.412   2.965   2.926  1.4037 -0.8750  0.2723
 6526SOL     OW31213   1.090   4.192   4.336  0.4770  0.1311 -0.0068
 6526SOL    HW131214   1.014   4.134   4.333  0.4141  0.2186 -0.0951
 6526SOL    HW231215   1.139   4.143   4.403  0.7841  0.1553 -0.2159
 6527SOL     OW31216   2.027   1.575   4.051  0.3286  0.0926 -0.2058
 6527SOL    HW131217   2.016   1.483   4.075  1.2716 -0.4242 -1.7835
 6527SOL    HW231218   1.947   1.615   4.085 -0.9316 -1.5978 -1.2483
 6528SOL     OW31219   4.199   0.141   9.429 -0.4292 -0.4964 -0.4070
 6528SOL    HW131220   4.273   0.124   9.370  0.5386  0.0630  0.6298
 6528SOL    HW231221   4.192   0.234   9.405  1.1537 -0.0418  0.8596
 6529SOL     OW31222   3.688   3.817   6.374  0.2162 -0.0527  0.2210
 6529SOL    HW131223   3.752   3.766   6.325  0.4261  0.7180 -0.3141
 6529SOL    HW231224   3.643   3.858   6.299 -2.5222  0.7838  2.2777
 6530SOL     OW31225   1.305   0.921   4.861  0.3484 -0.0447 -0.4799
 6530SOL    HW131226   1.378   0.863   4.878  0.7859  0.0439 -2.0859
 6530SOL    HW231227   1.282   0.887   4.774  0.2180 -1.6572  0.1834
 6531SOL     OW31228   3.287   2.927   2.223 -0.0126 -0.0052  0.2489
 6531SOL    HW131229   3.327   2.859   2.169  0.1261 -0.0012  0.3471
 6531SOL    HW231230   3.349   2.967   2.284  0.0922 -1.6387  1.2058
 6532SOL     OW31231   4.727   0.560  13.417  0.3011 -0.1009  0.1294
 6532SOL    HW131232   4.632   0.571  13.411  0.4262 -0.4511 -2.2834
 6532SOL    HW231233   4.723   0.543  13.511  2.8070  0.7622  0.3930
 6533SOL     OW31234   3.053   0.026   6.206  0.0191 -0.4031 -0.2706
 6533SOL    HW131235   3.100   4.728   6.281 -0.8180  1.0417  0.9924
 6533SOL    HW231236   3.129   0.060   6.160  0.8089 -3.2846 -1.1144
 6534SOL     OW31237   3.851   3.213   0.526  0.5818 -0.3120 -0.1964
 6534SOL    HW131238   3.885   3.129   0.496 -0.2768  0.1233 -2.3392
 6534SOL    HW231239   3.898   3.205   0.609  2.0143  0.5957 -0.9195
 6535SOL     OW31240   2.216   1.511  14.604  0.4212 -0.3894 -0.0417
 6535SOL    HW131241   2.311   1.507  14.618  0.5871 -0.6526 -1.1855
 6535SOL    HW231242   2.209   1.605  14.587  0.5191 -0.2934  0.4481
 6536SOL     OW31243   0.070   1.920   5.565 -0.0585 -0.2314 -0.0239
 6536SOL    HW131244   0.062   1.862   5.640 -0.7833 -0.8471 -0.5749
 6536SOL    HW231245   0.145   1.893   5.513  0.5488 -0.4223  0.9520
 6537SOL     OW31246   3.000   2.612  15.208 -0.0688  0.7256  0.3859
 6537SOL    HW131247   2.975   2.569  15.126 -0.3661  2.0108 -0.2038
 6537SOL    HW231248   2.940   2.568  15.268 -1.2500  1.4337 -0.2615
 6538SOL     OW31249   3.351   4.637  16.941  0.1534  0.0951 -0.3596
 6538SOL    HW131250   3.317   4.548  16.938 -0.5568  0.3814 -1.1126
 6538SOL    HW231251   3.334   4.670  16.852 -1.6482  1.4241  0.4605
 6539SOL     OW31252   2.336   0.665   5.576  0.1168  0.3894  0.0675
 6539SOL    HW131253   2.284   0.729   5.527  0.6847  2.1512  1.7430
 6539SOL    HW231254   2.270   0.596   5.588  0.5563 -0.5674 -3.1504
 6540SOL     OW31255   2.512   1.452  16.246  0.1336  0.0845  0.3805
 6540SOL    HW131256   2.480   1.370  16.208  0.1801  1.5154 -2.7334
 6540SOL    HW231257   2.534   1.413  16.330 -1.3825  1.0538  1.2347
 6541SOL     OW31258   4.525   0.245   4.354  0.4085 -0.3272  0.0075
 6541SOL    HW131259   4.445   0.247   4.302  0.3168  2.9809  0.2392
 6541SOL    HW231260   4.580   0.231   4.278  1.0588 -0.7451  0.5612
 6542SOL     OW31261   4.484   4.677   7.239 -0.1263  0.4729 -0.1122
 6542SOL    HW131262   4.555   4.623   7.271  1.5886  2.2836 -0.8484
 6542SOL    HW231263   4.418   4.644   7.300  0.4342 -0.8291 -0.2186
 6543SOL     OW31264   3.351   1.814   9.406  0.1748  0.3101  0.1692
 6543SOL    HW131265   3.408   1.885   9.434  2.5863 -1.7509  0.4323
 6543SOL    HW231266   3.344   1.830   9.312  0.4282 -2.1379 -0.2606
 6544SOL     OW31267   1.780   0.546   2.296  0.1734 -0.1851  0.5634
 6544SOL    HW131268   1.749   0.549   2.387 -0.8368 -2.0628  0.2715
 6544SOL    HW231269   1.713   0.485   2.265  1.8690 -0.5336 -2.4196
 6545SOL     OW31270   3.111   1.915   6.940  0.3341  0.6376  0.3632
 6545SOL    HW131271   3.092   1.915   7.034 -0.3988 -0.1528  0.2139
 6545SOL    HW231272   3.048   1.982   6.914  1.0548  1.1721 -0.0224
 6546SOL     OW31273   2.975   2.407   8.795  0.0637  0.2991 -0.3683
 6546SOL    HW131274   3.025   2.355   8.858 -0.0776  0.2683 -0.2805
 6546SOL    HW231275   2.894   2.432   8.839  1.0559  2.0928  0.4667
 6547SOL     OW31276   3.666   2.956  13.510 -0.1779  0.3790 -0.1926
 6547SOL    HW131277   3.651   2.992  13.598  0.1681 -1.6598  0.7162
 6547SOL    HW231278   3.645   3.032  13.456  2.4172 -0.7378 -2.7205
 6548SOL     OW31279   0.404   3.516   2.168 -0.2098 -0.0729  0.4323
 6548SOL    HW131280   0.496   3.500   2.148 -0.1556  0.7516  0.0393
 6548SOL    HW231281   0.403   3.591   2.227 -1.4949  0.4894 -0.3020
 6549SOL     OW31282   1.884   2.424  12.055 -0.4188 -0.4515  0.2780
 6549SOL    HW131283   1.811   2.381  12.011 -0.2901 -1.3348  0.9434
 6549SOL    HW231284   1.949   2.355  12.066 -1.3374 -1.4530 -0.6501
 6550SOL     OW31285   3.285   1.375   6.152  0.0790  0.1094  0.4504
 6550SOL    HW131286   3.236   1.346   6.075 -0.0629  0.9773  0.2076
 6550SOL    HW231287   3.328   1.293   6.176  0.8375 -0.2291 -2.1049
 6551SOL     OW31288   4.026   3.006  12.794 -0.0473 -0.0991  0.2351
 6551SOL    HW131289   3.992   2.920  12.769  1.0752 -0.5284  0.1680
 6551SOL    HW231290   4.047   2.985  12.885  0.4749 -2.6900 -0.4538
 6552SOL     OW31291   1.180   2.883  17.608  0.3263 -0.0856 -0.1966
 6552SOL    HW131292   1.135   2.813  17.656 -0.4171  0.1404 -0.5662
 6552SOL    HW231293   1.262   2.894  17.656 -0.4646  0.8212  0.9677
 6553SOL     OW31294   0.143   2.812   7.675 -0.0646  0.0033  0.0061
 6553SOL    HW131295   0.116   2.811   7.767  2.4250  1.3480  0.7677
 6553SOL    HW231296   0.143   2.717   7.661 -0.4031  0.0522 -0.3185
 6554SOL     OW31297   3.331   0.010   6.639 -0.4213  0.4093 -0.9383
 6554SOL    HW131298   3.338   0.100   6.608 -2.0409  1.1041  0.7614
 6554SOL    HW231299   3.374   4.699   6.570 -1.5105 -1.8506  0.0410
 6555SOL     OW31300   2.844   1.744   7.332 -0.2720  0.1005 -1.2037
 6555SOL    HW131301   2.848   1.741   7.236  1.6004  1.9004 -1.1755
 6555SOL    HW231302   2.814   1.656   7.351 -0.7934  0.0037 -2.4514
 6556SOL     OW31303   2.161   4.381   4.639  0.5111 -0.1494 -0.8771
 6556SOL    HW131304   2.208   4.459   4.612  2.3322 -1.0427 -0.2551
 6556SOL    HW231305   2.070   4.411   4.637  0.4118 -0.4479 -0.8108
 6557SOL     OW31306   4.379   3.098   4.532 -0.0668 -0.4061 -0.2521
 6557SOL    HW131307   4.466   3.059   4.540  0.3926  0.9139  0.9581
 6557SOL    HW231308   4.371   3.143   4.616  1.2449  0.8684 -0.8167
 6558SOL     OW31309   4.177   3.561   7.104  0.5331  0.3309 -0.4461
 6558SOL    HW131310   4.144   3.631   7.047  0.2307  0.7173  0.2041
 6558SOL    HW231311   4.262   3.540   7.065  0.6110  1.5810 -0.9490
 6559SOL     OW31312   1.659   3.758   2.005 -0.4166 -0.4987 -0.4159
 6559SOL    HW131313   1.634   3.833   1.951 -0.2330 -1.4484 -1.8093
 6559SOL    HW231314   1.585   3.703   2.029 -0.8751 -0.1971 -1.1570
 6560SOL     OW31315   3.326   1.574   8.726  0.6482  0.4014 -0.1044
 6560SOL    HW131316   3.333   1.656   8.677 -1.3037  1.4728  1.3861
 6560SOL    HW231317   3.312   1.522   8.647  2.1059 -0.6406  0.3322
 6561SOL     OW31318   3.197   3.597  11.015  0.2636 -0.2878 -0.0927
 6561SOL    HW131319   3.200   3.665  11.083  0.8394 -1.3749  0.9667
 6561SOL    HW231320   3.222   3.520  11.066  0.3409 -0.0158  0.2819
 6562SOL     OW31321   3.933   3.469   2.369 -0.4293  0.2079 -0.1927
 6562SOL    HW131322   3.998   3.486   2.301 -0.5442 -2.0898 -0.8941
 6562SOL    HW231323   3.944   3.374   2.380 -1.5758 -0.0656 -1.4557
 6563SOL     OW31324   0.981   3.195   5.059  0.0912  0.2434 -0.1691
 6563SOL    HW131325   1.055   3.165   5.112  1.4261  1.4414 -1.3750
 6563SOL    HW231326   0.914   3.212   5.127 -0.4242  1.0312 -0.8701
 6564SOL     OW31327   0.250   4.608   5.879  0.5636  0.3220 -0.7935
 6564SOL    HW131328   0.197   4.550   5.935 -0.1073  0.4121 -1.3384
 6564SOL    HW231329   0.313   4.541   5.851  1.9000  0.9951  0.6338
 6565SOL     OW31330   2.986   0.805   9.590 -0.0539  0.3739 -0.0018
 6565SOL    HW131331   3.035   0.736   9.545 -0.2391  1.2907 -1.6299
 6565SOL    HW231332   2.968   0.761   9.673 -0.0598 -1.9462 -1.2401
 6566SOL     OW31333   2.204   3.625  14.016  0.2110 -0.4620 -0.5517
 6566SOL    HW131334   2.239   3.541  13.986 -0.9324 -2.0167  2.4438
 6566SOL    HW231335   2.208   3.613  14.111 -5.1287 -0.5054 -0.3351
 6567SOL     OW31336   2.108   3.868   1.213  0.0784  0.3271  0.3439
 6567SOL    HW131337   2.091   3.928   1.141 -1.8789 -0.9181 -0.2499
 6567SOL    HW231338   2.183   3.914   1.250 -1.0260  1.6013  1.0123
 6568SOL     OW31339   3.619   3.302   7.071 -0.0276  0.1751 -0.5332
 6568SOL    HW131340   3.655   3.245   7.003 -1.1838  1.2292 -2.0266
 6568SOL    HW231341   3.530   3.302   7.037  0.5944  0.1999 -2.1741
 6569SOL     OW31342   2.903   3.030   7.791  0.2636  0.1018  0.1076
 6569SOL    HW131343   2.884   3.115   7.832 -2.4931 -0.4384 -0.0366
 6569SOL    HW231344   2.839   2.977   7.838 -0.4702  1.4708  0.6466
 6570SOL     OW31345   2.856   0.627   7.429 -0.1714 -0.4177  0.3795
 6570SOL    HW131346   2.907   0.692   7.379  0.9456 -0.6735  1.1937
 6570SOL    HW231347   2.795   0.612   7.357  0.6970  0.6132 -0.5953
 6571SOL     OW31348   0.416   0.065   5.001  0.2013  0.1765 -0.3602
 6571SOL    HW131349   0.445   0.081   5.091 -1.7933  0.9072  0.1485
 6571SOL    HW231350   0.380   4.716   5.002  0.8346 -0.0762  0.3910
 6572SOL     OW31351   0.751   1.930   5.565 -0.0493  0.4669  0.2717
 6572SOL    HW131352   0.710   1.977   5.492 -2.2301 -2.5876 -0.4631
 6572SOL    HW231353   0.838   1.965   5.584  1.2166 -1.9369 -1.0645
 6573SOL     OW31354   4.375   2.064  10.343  0.0083 -0.0436 -0.1699
 6573SOL    HW131355   4.301   2.005  10.328 -0.7246  0.2288  2.2831
 6573SOL    HW231356   4.334   2.148  10.319 -0.1963  0.0306  0.4300
 6574SOL     OW31357   4.038   3.626   7.478  0.7183 -0.1562  0.7610
 6574SOL    HW131358   4.048   3.534   7.501  0.6754 -0.0335  1.2643
 6574SOL    HW231359   4.064   3.663   7.562  3.5880 -0.7769  0.1418
 6575SOL     OW31360   4.581   3.205   2.643  0.1867 -0.0589  0.0043
 6575SOL    HW131361   4.528   3.125   2.645  0.1149 -0.0929 -3.3806
 6575SOL    HW231362   4.656   3.166   2.597  1.3003  2.7159 -0.5567
 6576SOL     OW31363   0.048   3.011   4.400  0.5511 -0.2548  0.1200
 6576SOL    HW131364   0.134   3.046   4.424  0.0741  0.8800  0.2070
 6576SOL    HW231365   4.728   3.055   4.460 -1.1107 -2.4170  0.0278
 6577SOL     OW31366   3.005   3.536   3.365  0.3318  0.0145  0.4534
 6577SOL    HW131367   2.949   3.614   3.362  1.0222  0.4678 -0.4619
 6577SOL    HW231368   2.948   3.468   3.329 -0.1137  0.4710  0.3095
 6578SOL     OW31369   2.761   0.327   3.219  0.2052 -0.1377 -0.0934
 6578SOL    HW131370   2.711   0.404   3.192 -0.5836 -1.0176 -1.1307
 6578SOL    HW231371   2.701   0.296   3.287  0.9434  1.8349  1.4758
 6579SOL     OW31372   4.288   2.505   3.964  0.6375 -1.0639 -0.6635
 6579SOL    HW131373   4.251   2.575   3.911  1.4262 -1.6188 -1.9496
 6579SOL    HW231374   4.362   2.472   3.913  0.1095 -1.6243 -1.0660
 6580SOL     OW31375   2.396   3.841   2.914 -0.0257  0.7439 -0.3433
 6580SOL    HW131376   2.431   3.854   3.003 -2.3381  0.2504  0.6250
 6580SOL    HW231377   2.437   3.916   2.871  0.4405 -0.6519 -2.3172
 6581SOL     OW31378   3.399   0.802   2.317 -0.2164  0.3065  0.3662
 6581SOL    HW131379   3.395   0.726   2.259  1.4213 -0.6280  1.4821
 6581SOL    HW231380   3.494   0.815   2.323 -0.2000  0.2709  0.1932
 6582SOL     OW31381   0.735   2.603   6.018 -0.2131  0.0143 -0.3875
 6582SOL    HW131382   0.791   2.530   5.990  0.5943  1.4588 -2.5082
 6582SOL    HW231383   0.683   2.564   6.088  1.2037  0.9916  1.2387
 6583SOL     OW31384   2.548   0.914   1.490 -0.6072  0.0477  0.0029
 6583SOL    HW131385   2.592   0.879   1.567 -0.6140 -1.1460 -0.5415
 6583SOL    HW231386   2.564   0.837   1.436 -1.1952  0.3307 -0.5745
 6584SOL     OW31387   4.207   4.725  17.203 -0.0242 -0.2045  0.6602
 6584SOL    HW131388   4.203   4.629  17.197 -0.9454 -0.1044 -0.4909
 6584SOL    HW231389   4.119   0.023  17.197 -0.9013 -2.1927  0.9193
 6585SOL     OW31390   3.256   0.315   2.885 -0.2228 -0.4824 -0.1146
 6585SOL    HW131391   3.262   0.276   2.798 -1.0908 -2.8408  0.8609
 6585SOL    HW231392   3.163   0.337   2.889 -0.5044 -1.4496 -1.3920
 6586SOL     OW31393   4.649   1.782   7.448 -0.3392  0.0623 -0.3671
 6586SOL    HW131394   4.694   1.714   7.397 -0.4098  0.6639 -1.2368
 6586SOL    HW231395   4.611   1.837   7.379 -0.9799  1.0157  0.7501
 6587SOL     OW31396   2.438   4.200   3.854 -0.2420  0.5840  0.1694
 6587SOL    HW131397   2.441   4.215   3.948  2.0658 -0.9323  0.3363
 6587SOL    HW231398   2.361   4.252   3.830 -0.4901  0.0155 -0.2950
 6588SOL     OW31399   1.545   0.982   6.459  0.6517  0.8328  0.2094
 6588SOL    HW131400   1.628   0.935   6.460  0.3026  0.2110  0.2362
 6588SOL    HW231401   1.490   0.907   6.481  1.5655  0.3885  0.9736
 6589SOL     OW31402   3.267   4.269   0.615 -0.4658 -0.0232  0.1396
 6589SOL    HW131403   3.344   4.274   0.558 -0.3309  0.1536  0.3376
 6589SOL    HW231404   3.303   4.232   0.696  0.7837  1.0782  0.0810
 6590SOL     OW31405   2.984   1.922  17.112  0.3444 -0.2693  0.6798
 6590SOL    HW131406   3.033   1.914  17.030 -3.5050 -1.9853 -1.4810
 6590SOL    HW231407   2.984   1.834  17.149  0.2481 -0.6963 -0.3216
 6591SOL     OW31408   3.311   2.091  13.169 -0.0515 -0.2471 -0.5237
 6591SOL    HW131409   3.322   2.108  13.076  1.5465  0.6480 -0.1658
 6591SOL    HW231410   3.260   2.169  13.191  0.0557  0.1368 -1.6391
 6592SOL     OW31411   4.690   1.838   9.123  0.3974 -0.3367 -0.4679
 6592SOL    HW131412   4.688   1.762   9.180  0.0387 -1.2364 -1.6844
 6592SOL    HW231413   4.600   1.867   9.113  0.8314  1.6371  1.3735
 6593SOL     OW31414   4.540   3.918  13.811 -0.0439  0.2574 -0.6704
 6593SOL    HW131415   4.513   3.830  13.785  2.5454 -0.5815 -0.5725
 6593SOL    HW231416   4.635   3.909  13.803  0.0943  4.2394 -3.3880
 6594SOL     OW31417   3.053   1.242  11.349  0.2615  0.4274 -0.0599
 6594SOL    HW131418   3.048   1.188  11.428  0.1491 -0.0991 -0.4255
 6594SOL    HW231419   2.982   1.201  11.300 -1.2905  0.0890  2.4341
 6595SOL     OW31420   4.264   2.595   1.713  0.3691  0.1286 -0.1345
 6595SOL    HW131421   4.207   2.666   1.742  2.4655  1.0145  1.7868
 6595SOL    HW231422   4.329   2.608   1.782 -0.2140  0.0426  0.4241
 6596SOL     OW31423   3.045   0.864  14.866 -0.1858 -0.6042  0.5089
 6596SOL    HW131424   3.104   0.911  14.806 -1.9134 -0.5084 -1.1311
 6596SOL    HW231425   3.093   0.876  14.947  0.9554 -1.5644 -0.0216
 6597SOL     OW31426   3.916   2.322   6.807 -1.0996 -0.1294  0.2033
 6597SOL    HW131427   4.008   2.330   6.782 -1.3301  0.2487 -0.5289
 6597SOL    HW231428   3.916   2.353   6.897 -1.1210 -0.0909  0.1901
 6598SOL     OW31429   0.615   3.666   8.382 -0.0278 -0.4731  0.2697
 6598SOL    HW131430   0.709   3.678   8.372  0.0471 -1.0309  0.2966
 6598SOL    HW231431   0.572   3.722   8.317  1.0650  0.4148  0.3139
 6599SOL     OW31432   2.266   0.664  15.848  0.0596 -0.4716 -0.5345
 6599SOL    HW131433   2.182   0.620  15.836  0.5733 -2.0747  1.6440
 6599SOL    HW231434   2.288   0.689  15.758  0.3532  0.8338 -0.1049
 6600SOL     OW31435   1.857   3.401  10.875  0.0661  0.1200  0.0191
 6600SOL    HW131436   1.911   3.337  10.921 -0.4547  0.1703  0.7023
 6600SOL    HW231437   1.830   3.461  10.945 -0.1842  0.1089 -0.0701
 6601SOL     OW31438   2.556   3.560   9.233 -0.5671 -0.8507 -0.6038
 6601SOL    HW131439   2.639   3.597   9.202  0.1092 -1.4672  0.4532
 6601SOL    HW231440   2.535   3.538   9.142  0.4868  2.4093 -1.6490
 6602SOL     OW31441   3.777   0.189   9.095  0.1127 -0.3331 -0.4259
 6602SOL    HW131442   3.847   0.144   9.142  1.5739  0.4154 -1.8995
 6602SOL    HW231443   3.806   0.280   9.096  1.1163 -0.6547  0.1984
 6603SOL     OW31444   0.571   4.502   9.416  0.3919  1.0994  0.3833
 6603SOL    HW131445   0.489   4.454   9.418 -0.7926  3.1039  0.2790
 6603SOL    HW231446   0.561   4.561   9.491 -0.7817  0.2210  0.9124
 6604SOL     OW31447   4.455   0.388   5.140 -0.6581  0.2152  0.1261
 6604SOL    HW131448   4.523   0.411   5.077 -0.4256 -4.1311 -1.1681
 6604SOL    HW231449   4.500   0.312   5.177 -0.1305 -0.0586 -1.0762
 6605SOL     OW31450   3.481   4.417  15.899 -0.0318 -0.0242  0.1574
 6605SOL    HW131451   3.482   4.507  15.931  0.7749 -0.3117  0.9541
 6605SOL    HW231452   3.511   4.427  15.808 -1.7728 -3.0764 -0.7514
 6606SOL     OW31453   1.146   0.488   6.092 -0.1260  0.3552  0.1946
 6606SOL    HW131454   1.155   0.426   6.165 -0.5174  0.2182  0.1291
 6606SOL    HW231455   1.137   0.573   6.135 -2.1791  0.1753  0.1268
 6607SOL     OW31456   0.400   0.493  16.734  0.4664 -0.4237  0.7094
 6607SOL    HW131457   0.322   0.542  16.709 -0.4977 -2.2322  0.1340
 6607SOL    HW231458   0.411   0.543  16.815 -0.3048 -0.9853  1.1587
 6608SOL     OW31459   0.657   1.653   4.478  0.4272  0.3483  0.0034
 6608SOL    HW131460   0.697   1.573   4.443  0.9192  0.4812  0.2740
 6608SOL    HW231461   0.685   1.653   4.569 -0.1657  2.7679  0.1745
 6609SOL     OW31462   1.944   2.733  15.070 -0.0289  0.2539  0.3181
 6609SOL    HW131463   1.987   2.648  15.067  0.5268  0.5952 -1.2431
 6609SOL    HW231464   1.990   2.787  15.006  1.8136 -0.0810  1.3518
 6610SOL     OW31465   4.004   4.609  11.245 -0.3046  1.1057 -0.1856
 6610SOL    HW131466   4.018   4.637  11.336 -0.2695 -1.1048  0.4938
 6610SOL    HW231467   3.994   4.516  11.264 -0.3505  1.1436 -0.0219
 6611SOL     OW31468   1.629   3.265   2.627 -0.3555 -0.5388 -0.2473
 6611SOL    HW131469   1.632   3.310   2.542 -1.9020 -1.0912 -0.5853
 6611SOL    HW231470   1.549   3.217   2.609 -1.2618  1.3845 -1.3729
 6612SOL     OW31471   0.142   3.352  12.159 -0.3129  0.3175 -0.3789
 6612SOL    HW131472   0.049   3.344  12.136  0.2163  1.7527 -3.0408
 6612SOL    HW231473   0.184   3.369  12.075 -1.3637 -3.8243 -1.7199
 6613SOL     OW31474   1.943   3.105   8.846 -0.1250  0.3473  0.4194
 6613SOL    HW131475   1.891   3.130   8.769  0.5452  0.6736  0.0663
 6613SOL    HW231476   1.923   3.013   8.860 -2.2703  0.5785 -1.0905
 6614SOL     OW31477   2.546   0.131  10.185  0.0372  0.5287 -0.3073
 6614SOL    HW131478   2.581   0.042  10.176  2.0805  1.6348 -3.2002
 6614SOL    HW231479   2.494   0.134  10.105 -1.2031  2.3382  0.5621
 6615SOL     OW31480   0.908   2.340   6.563 -0.0068  0.1822  0.6811
 6615SOL    HW131481   0.881   2.402   6.631  2.4244  0.8986  1.0080
 6615SOL    HW231482   0.867   2.261   6.599  0.5728 -1.4272 -2.1708
 6616SOL     OW31483   2.192   1.745   7.483  0.3185  0.1077  0.6425
 6616SOL    HW131484   2.141   1.730   7.403  2.6729  3.0700 -1.4329
 6616SOL    HW231485   2.176   1.664   7.530  1.6859 -0.3856  0.2637
 6617SOL     OW31486   2.525   1.830   3.541 -1.0410  0.1950 -0.6395
 6617SOL    HW131487   2.458   1.803   3.477 -1.5010  0.1251 -0.1269
 6617SOL    HW231488   2.521   1.753   3.598  0.3927  0.2814 -0.4460
 6618SOL     OW31489   3.632   0.275   6.374 -0.7341 -0.0914 -0.0402
 6618SOL    HW131490   3.675   0.350   6.415 -0.5882 -0.2254  0.0522
 6618SOL    HW231491   3.589   0.238   6.451  0.9006  1.6538  1.7080
 6619SOL     OW31492   3.308   2.544   8.556  0.8266  0.5231 -0.0662
 6619SOL    HW131493   3.338   2.456   8.535  0.0507  0.1009  0.5999
 6619SOL    HW231494   3.320   2.583   8.469  0.2010  1.5077  0.2875
 6620SOL     OW31495   3.356   2.846  11.187 -0.0187 -1.0478 -0.3477
 6620SOL    HW131496   3.437   2.889  11.159  0.3009 -0.2069  1.8617
 6620SOL    HW231497   3.337   2.789  11.113  2.0054 -0.7231 -1.1191
 6621SOL     OW31498   4.697   1.415  13.875 -0.0922 -0.1117  0.6035
 6621SOL    HW131499   4.616   1.465  13.883  0.2242  0.7504 -1.6135
 6621SOL    HW231500   0.014   1.492  13.868 -0.7127  0.4012  1.2080
 6622SOL     OW31501   1.933   1.951   3.866  0.1219  0.1181 -0.5631
 6622SOL    HW131502   1.859   1.919   3.917 -1.0257 -1.6280 -3.3620
 6622SOL    HW231503   1.894   1.966   3.781  1.0579  2.4806 -0.5735
 6623SOL     OW31504   4.329   0.249  15.815 -0.0019  0.2163  0.2020
 6623SOL    HW131505   4.290   0.336  15.827 -1.5108 -0.5170  0.4886
 6623SOL    HW231506   4.410   0.269  15.863 -1.4576  5.4068  0.5656
 6624SOL     OW31507   3.652   2.842   6.161 -0.5223 -0.1682  0.1333
 6624SOL    HW131508   3.597   2.799   6.095 -2.0548  1.7698  0.1695
 6624SOL    HW231509   3.723   2.852   6.097 -0.8676  0.3375 -0.1684
 6625SOL     OW31510   0.030   0.252   9.624 -0.2417  0.2596 -0.1706
 6625SOL    HW131511   0.086   0.322   9.590  0.9374 -0.0100  1.1837
 6625SOL    HW231512   4.695   0.268   9.567 -0.4993 -1.0353 -0.2045
 6626SOL     OW31513   0.263   0.516   2.525  0.0324 -0.1561  0.1723
 6626SOL    HW131514   0.316   0.438   2.540  0.9776  0.7468  1.6011
 6626SOL    HW231515   0.231   0.525   2.616 -1.2634 -1.0671 -0.1843
 6627SOL     OW31516   0.408   0.173  13.207  0.3779 -0.1206  0.3089
 6627SOL    HW131517   0.425   0.079  13.213 -0.9800 -0.5372 -2.1971
 6627SOL    HW231518   0.478   0.211  13.260  0.2244  1.0599 -0.3356
 6628SOL     OW31519   2.385   2.133   3.309 -0.4502 -0.1725 -0.3164
 6628SOL    HW131520   2.331   2.145   3.387  1.6373 -3.2094  1.5511
 6628SOL    HW231521   2.432   2.217   3.302  1.8131 -1.4415 -0.2279
 6629SOL     OW31522   1.378   4.070   5.481  0.5874 -0.0537 -0.0575
 6629SOL    HW131523   1.314   4.141   5.475 -1.8265 -2.3403 -1.5993
 6629SOL    HW231524   1.453   4.107   5.435 -0.2318  1.5157 -0.1455
 6630SOL     OW31525   2.196   0.184   8.475  0.1925 -0.1091  0.3623
 6630SOL    HW131526   2.189   0.276   8.499 -1.7988 -0.0234 -0.5151
 6630SOL    HW231527   2.105   0.161   8.493 -0.7710  1.4176 -2.6342
 6631SOL     OW31528   1.289   3.778  12.948  0.1631  0.0774  0.0361
 6631SOL    HW131529   1.370   3.807  12.905  0.9285  1.4282  2.4249
 6631SOL    HW231530   1.285   3.683  12.941 -2.2049  0.0575  1.6400
 6632SOL     OW31531   1.332   3.728   9.535 -0.0864  0.0013 -0.2524
 6632SOL    HW131532   1.298   3.806   9.580 -0.6248 -1.2484  1.5449
 6632SOL    HW231533   1.372   3.767   9.458  0.7843  0.8953  0.6523
 6633SOL     OW31534   1.298   0.411  13.045 -0.0661 -0.2072 -0.1924
 6633SOL    HW131535   1.271   0.494  13.005  1.4741 -0.0120 -0.8226
 6633SOL    HW231536   1.328   0.363  12.968  1.4748  1.1168 -0.4050
 6634SOL     OW31537   4.012   3.238   0.090 -0.6431  0.6042 -0.2011
 6634SOL    HW131538   4.092   3.185   0.079 -1.3834 -1.3188  3.5726
 6634SOL    HW231539   3.988   3.218   0.181 -0.5647  1.5280  0.0246
 6635SOL     OW31540   4.541   2.309   4.621  0.2667 -0.1910 -0.5538
 6635SOL    HW131541   4.573   2.382   4.674 -2.5370 -0.3997  1.4681
 6635SOL    HW231542   4.457   2.297   4.666 -0.1462  1.1958 -0.9551
 6636SOL     OW31543   4.361   4.734  15.896 -0.1062  0.2542 -0.2294
 6636SOL    HW131544   4.270   4.704  15.894 -0.1558  0.2605  1.7935
 6636SOL    HW231545   4.356   0.086  15.871  1.3848  0.8197  1.5479
 6637SOL     OW31546   1.749   1.734  14.808  0.0472  0.5826 -0.1407
 6637SOL    HW131547   1.797   1.810  14.777 -0.6043  0.6019 -1.1012
 6637SOL    HW231548   1.663   1.751  14.769 -0.0579 -0.2600 -0.2810
 6638SOL     OW31549   0.705   2.824   3.156  0.1381  0.2320 -0.3825
 6638SOL    HW131550   0.684   2.917   3.160 -1.7769 -0.2243  0.0598
 6638SOL    HW231551   0.639   2.782   3.210  0.6606  0.7372  0.6422
 6639SOL     OW31552   1.218   2.583  13.950 -0.3047 -0.0809 -0.4607
 6639SOL    HW131553   1.222   2.541  13.864  0.4231 -2.0884  0.5598
 6639SOL    HW231554   1.142   2.538  13.985 -0.6570 -0.8269 -2.1695
 6640SOL     OW31555   3.515   1.055   9.160  0.2462  0.2349 -0.1121
 6640SOL    HW131556   3.542   1.107   9.236 -2.4676  0.8602  0.4180
 6640SOL    HW231557   3.481   1.123   9.102 -2.0403 -1.4329 -0.7611
 6641SOL     OW31558   1.649   2.065  14.551 -0.2013 -0.3736  0.2826
 6641SOL    HW131559   1.595   2.018  14.488  1.0003 -1.0158 -0.2758
 6641SOL    HW231560   1.673   2.147  14.508 -1.2529 -0.6356 -0.8039
 6642SOL     OW31561   0.120   0.239   3.167 -0.8831 -0.1018 -0.5111
 6642SOL    HW131562   0.159   0.322   3.138  1.3112 -0.6410  0.9974
 6642SOL    HW231563   0.165   0.231   3.251  0.9250 -0.3588 -1.5059
 6643SOL     OW31564   3.383   3.821   1.220  0.5078  0.2941  0.2175
 6643SOL    HW131565   3.444   3.749   1.205  3.7344  3.1133 -0.0160
 6643SOL    HW231566   3.305   3.767   1.235 -0.6357  1.9758  0.3533
 6644SOL     OW31567   0.558   1.787   6.789 -0.5376 -0.3575  0.1857
 6644SOL    HW131568   0.549   1.809   6.696 -2.8672 -1.1177  0.2249
 6644SOL    HW231569   0.651   1.773   6.810  0.0006 -0.9086 -2.5597
 6645SOL     OW31570   0.732   0.558   5.208 -0.0300  0.1938  0.7041
 6645SOL    HW131571   0.806   0.542   5.267 -1.6303 -0.5761  2.5145
 6645SOL    HW231572   0.654   0.544   5.261 -2.8196  1.2143 -3.1506
 6646SOL     OW31573   3.737   2.950   3.491  0.6896 -0.0016 -0.1462
 6646SOL    HW131574   3.699   2.868   3.461 -0.2847 -0.1282  1.4085
 6646SOL    HW231575   3.652   2.992   3.474  0.7763  0.0925 -0.3430
 6647SOL     OW31576   2.288   1.712  16.462 -0.0558  0.3673 -0.2463
 6647SOL    HW131577   2.261   1.654  16.392 -2.6007  1.6213 -0.3164
 6647SOL    HW231578   2.381   1.719  16.439  0.1528 -1.1635  0.1250
 6648SOL     OW31579   3.557   4.247  14.680  1.0393  0.2533  0.5583
 6648SOL    HW131580   3.601   4.163  14.695  1.8063  0.6114  0.3656
 6648SOL    HW231581   3.491   4.238  14.748 -1.4387 -0.1613 -1.9118
 6649SOL     OW31582   1.216   2.572   9.072  0.0408  0.2367 -0.3498
 6649SOL    HW131583   1.276   2.630   9.119 -0.5364 -0.9003  1.7896
 6649SOL    HW231584   1.232   2.490   9.118 -0.3958 -0.4501 -1.4263
 6650SOL     OW31585   3.086   3.089   8.741 -0.2867 -0.5927 -0.2572
 6650SOL    HW131586   3.157   3.136   8.697 -2.8670  1.2679 -2.3966
 6650SOL    HW231587   3.133   3.007   8.754  0.8427  0.0544 -0.2643
 6651SOL     OW31588   3.588   0.024   9.224  0.2186  0.4005  0.2359
 6651SOL    HW131589   3.633   0.086   9.167 -0.4629 -0.6905 -1.4819
 6651SOL    HW231590   3.571   0.086   9.295  0.3791  0.7514 -0.0324
 6652SOL     OW31591   0.872   0.314   6.695  0.3596  0.0535  0.0759
 6652SOL    HW131592   0.875   0.408   6.714 -0.1625  0.1388 -0.2675
 6652SOL    HW231593   0.949   0.289   6.747  1.2109  1.8032 -0.3102
 6653SOL     OW31594   4.637   2.828   2.769  0.6689 -0.0639  0.1264
 6653SOL    HW131595   4.695   2.847   2.695  1.8011  1.4897  1.4119
 6653SOL    HW231596   4.656   2.735   2.777  0.3953  0.0832  2.5986
 6654SOL     OW31597   0.896   1.707   7.521  0.3063 -0.0674 -0.5408
 6654SOL    HW131598   0.828   1.775   7.523 -1.4278 -1.8067 -0.2428
 6654SOL    HW231599   0.952   1.738   7.592 -0.2696  4.4259 -2.0143
 6655SOL     OW31600   2.432   4.007   1.481  0.1045  0.0187 -0.2405
 6655SOL    HW131601   2.392   4.089   1.509  1.0417  0.3063  0.2650
 6655SOL    HW231602   2.451   3.965   1.564  1.5702 -0.4187 -0.7965
 6656SOL     OW31603   1.956   0.451   5.566  0.9373 -0.0285 -0.1022
 6656SOL    HW131604   1.977   0.504   5.643 -0.0435  3.3486 -2.2107
 6656SOL    HW231605   2.028   0.389   5.582 -0.0557 -0.1785  3.8950
 6657SOL     OW31606   0.210   3.945  14.916  0.4500 -0.4089  0.0886
 6657SOL    HW131607   0.136   3.935  14.855 -0.7894 -2.4257  1.9089
 6657SOL    HW231608   0.190   3.865  14.965  0.0118 -0.0040  0.5711
 6658SOL     OW31609   4.661   2.319   8.471  0.0017  0.2999 -0.0931
 6658SOL    HW131610   4.607   2.240   8.476 -0.6111  0.6736 -0.6651
 6658SOL    HW231611   0.006   2.278   8.459  0.5994  1.3666  0.5641
 6659SOL     OW31612   0.206   2.027  17.581  0.2055 -0.2338  0.0750
 6659SOL    HW131613   0.112   2.024  17.564  0.4448 -0.7432 -1.1982
 6659SOL    HW231614   0.219   2.095  17.647  0.9125  0.0601 -0.3677
 6660SOL     OW31615   3.940   0.864   1.509 -0.6457  0.3378 -0.4818
 6660SOL    HW131616   3.985   0.925   1.450  1.0367 -1.7721 -1.3895
 6660SOL    HW231617   3.965   0.777   1.477 -2.8712 -0.3414 -0.3845
 6661SOL     OW31618   0.391   4.622   7.338  0.0467 -0.1690  0.9613
 6661SOL    HW131619   0.467   4.670   7.306 -0.7102  2.3701  2.9603
 6661SOL    HW231620   0.435   4.552   7.387 -2.1126 -1.6292  0.8192
 6662SOL     OW31621   2.010   1.440   4.873 -0.6057 -0.3518 -0.0228
 6662SOL    HW131622   1.916   1.462   4.873 -0.7990 -1.1662 -0.4068
 6662SOL    HW231623   2.019   1.394   4.790  2.6239  0.2006  0.0313
 6663SOL     OW31624   1.955   3.185   5.102  0.2668  0.7760  0.6142
 6663SOL    HW131625   1.951   3.182   5.197  1.5408 -2.2963  0.5629
 6663SOL    HW231626   1.861   3.195   5.085 -0.0000  1.0571  2.3287
 6664SOL     OW31627   0.974   1.972   7.107 -0.2667 -0.2471  0.0348
 6664SOL    HW131628   1.061   1.936   7.094 -0.4273 -0.8436  0.6718
 6664SOL    HW231629   0.971   1.998   7.199 -1.0060 -0.1910 -0.0018
 6665SOL     OW31630   0.927   3.733   1.229 -0.7935  0.3749 -0.4982
 6665SOL    HW131631   0.967   3.713   1.144  0.2159  0.1382  0.0208
 6665SOL    HW231632   0.895   3.822   1.216  2.3311  1.9296  2.6154
 6666SOL     OW31633   1.456   0.164  15.979 -0.1518 -0.0485 -0.5067
 6666SOL    HW131634   1.490   0.253  15.987 -1.6780  0.6320 -1.5038
 6666SOL    HW231635   1.407   0.159  16.062 -1.9768 -0.5374 -1.6054
 6667SOL     OW31636   1.986   2.443   0.526  0.2520 -0.0457 -0.1841
 6667SOL    HW131637   1.897   2.408   0.525  0.2867 -0.2561  3.0773
 6667SOL    HW231638   1.996   2.473   0.436  2.6192  2.3554  0.8760
 6668SOL     OW31639   3.477   2.200   6.073 -0.2269  0.2140 -0.9773
 6668SOL    HW131640   3.392   2.217   6.114  0.9288 -1.5655  2.1891
 6668SOL    HW231641   3.469   2.113   6.035 -2.4410  1.1376 -2.6137
 6669SOL     OW31642   4.374   2.603   9.353  0.0134  0.0410 -0.1412
 6669SOL    HW131643   4.393   2.580   9.262  0.6794 -2.4378  0.6296
 6669SOL    HW231644   4.443   2.556   9.401 -1.0808  0.5997  1.9420
 6670SOL     OW31645   0.949   4.070   6.921  0.0870  0.0913 -0.1446
 6670SOL    HW131646   0.983   4.154   6.891  1.3157  0.3506  1.9104
 6670SOL    HW231647   1.022   4.056   6.982  1.1569  0.4018 -1.3715
 6671SOL     OW31648   0.119   2.159   2.003  1.0933  0.2684 -0.2510
 6671SOL    HW131649   0.053   2.108   1.956  0.8124 -0.1515  0.5970
 6671SOL    HW231650   0.083   2.247   1.987 -0.7374 -0.3132  0.6991
 6672SOL     OW31651   0.150   0.386   8.064 -0.1310  0.4062 -0.2564
 6672SOL    HW131652   0.179   0.295   8.074 -1.5440 -0.2988 -2.4988
 6672SOL    HW231653   0.130   0.388   7.970 -0.6230  0.2628 -0.1526
 6673SOL     OW31654   1.488   0.910   7.998  0.2198 -0.7110  0.2950
 6673SOL    HW131655   1.513   0.953   8.080  1.5963  0.3461 -0.6920
 6673SOL    HW231656   1.470   0.821   8.029  0.7701 -0.5152  1.1796
 6674SOL     OW31657   1.857   1.345   5.702  0.2361 -0.5590  0.2185
 6674SOL    HW131658   1.799   1.320   5.630 -1.4670  1.2964  0.9692
 6674SOL    HW231659   1.945   1.335   5.665 -0.9134 -1.0156 -2.4175
 6675SOL     OW31660   2.770   4.344   6.755 -0.3569 -0.0409 -0.1571
 6675SOL    HW131661   2.864   4.348   6.773 -0.3423  1.5234 -0.5223
 6675SOL    HW231662   2.768   4.356   6.660  1.9408  1.8176  0.0267
 6676SOL     OW31663   4.732   3.190   2.299 -0.5329  0.3933 -0.0441
 6676SOL    HW131664   4.694   3.270   2.336  0.9693  0.4897  1.3007
 6676SOL    HW231665   4.695   3.176   2.212  0.4898 -1.6845 -0.1556
 6677SOL     OW31666   2.379   0.274   3.258  0.5269 -0.0671 -0.2904
 6677SOL    HW131667   2.307   0.298   3.317  1.0027 -1.7801  1.0031
 6677SOL    HW231668   2.354   0.319   3.177 -1.0327 -2.8386 -1.3522
 6678SOL     OW31669   4.535   0.736   4.838  0.0124  0.4364 -0.4258
 6678SOL    HW131670   4.555   0.821   4.798 -1.9531  0.6371 -0.9692
 6678SOL    HW231671   4.453   0.728   4.789 -0.7935  3.4874  0.3836
 6679SOL     OW31672   1.301   1.843   8.182 -0.1251  0.1352  0.6944
 6679SOL    HW131673   1.259   1.757   8.176  0.6453 -0.1518 -0.6316
 6679SOL    HW231674   1.278   1.861   8.273  1.3449 -0.0903  1.1106
 6680SOL     OW31675   1.544   0.784  15.406 -0.0636 -1.3394 -0.1876
 6680SOL    HW131676   1.491   0.705  15.402 -0.9467 -0.7646  0.1349
 6680SOL    HW231677   1.474   0.848  15.419  0.4108 -0.0958 -3.7954
 6681SOL     OW31678   1.470   2.197  16.096 -0.7337 -0.7312  0.4053
 6681SOL    HW131679   1.552   2.220  16.141 -1.4958  0.3924  1.2115
 6681SOL    HW231680   1.445   2.124  16.153 -1.4390 -0.8937 -0.1093
 6682SOL     OW31681   0.743   3.469   4.438 -0.1004 -0.0371 -0.0483
 6682SOL    HW131682   0.808   3.427   4.382  1.6496  1.2432  1.0338
 6682SOL    HW231683   0.790   3.521   4.503  1.0935 -0.2384 -0.7684
 6683SOL     OW31684   1.820   0.156   6.894  0.0063 -0.2608  0.2923
 6683SOL    HW131685   1.879   0.231   6.886  0.3377 -0.6852 -1.2501
 6683SOL    HW231686   1.878   0.084   6.920  0.6188 -0.4452 -1.5682
 6684SOL     OW31687   1.844   2.989  10.075  0.4066 -0.0801  0.4046
 6684SOL    HW131688   1.887   3.052  10.133  1.2730 -0.2937 -0.0183
 6684SOL    HW231689   1.905   2.916  10.086 -2.0154 -2.2379 -0.5167
 6685SOL     OW31690   2.643   3.194   1.166  0.7995 -0.3629 -0.2772
 6685SOL    HW131691   2.726   3.224   1.129  1.1795  0.9396  1.6865
 6685SOL    HW231692   2.588   3.268   1.141 -1.0425 -1.0334  1.7666
 6686SOL     OW31693   4.232   2.100  12.326 -0.0205 -0.3828  0.2367
 6686SOL    HW131694   4.307   2.042  12.316 -1.2107 -1.4523 -2.6230
 6686SOL    HW231695   4.264   2.178  12.372  0.5115 -0.5323  0.1170
 6687SOL     OW31696   2.742   0.316   1.426  0.1132 -0.1064 -0.0276
 6687SOL    HW131697   2.798   0.241   1.408  1.0539  0.3012  1.1739
 6687SOL    HW231698   2.667   0.265   1.457  0.2419 -0.5120 -0.3872
 6688SOL     OW31699   0.147   1.243   7.347  0.0420 -0.3741  0.2763
 6688SOL    HW131700   0.205   1.319   7.353  2.0335 -1.8583 -0.3293
 6688SOL    HW231701   0.186   1.207   7.267 -0.0426  1.2905 -0.5248
 6689SOL     OW31702   0.717   0.076   2.681  0.3945  0.5484 -0.0211
 6689SOL    HW131703   0.667   0.093   2.602  1.9723 -3.0493 -1.7533
 6689SOL    HW231704   0.811   0.085   2.662  0.6678  1.0710  1.5547
 6690SOL     OW31705   0.302   2.294  15.698  0.1869 -0.1914  0.2031
 6690SOL    HW131706   0.211   2.283  15.727 -1.0092  3.5476 -2.0425
 6690SOL    HW231707   0.289   2.343  15.616 -1.8710  0.8208  1.1425
 6691SOL     OW31708   3.430   0.213  17.714 -0.0004 -0.3558 -0.1725
 6691SOL    HW131709   3.516   0.239  17.748 -1.0250  2.2126  0.4702
 6691SOL    HW231710   3.447   0.133  17.664  0.7740 -0.0039 -0.4827
 6692SOL     OW31711   4.105   3.800   7.276 -0.1348 -0.1843  0.4785
 6692SOL    HW131712   4.059   3.760   7.349 -0.9535 -0.2398 -0.0679
 6692SOL    HW231713   4.169   3.729   7.265 -0.3200 -0.0565 -1.5072
 6693SOL     OW31714   4.158   2.107   1.768  0.1209 -0.0937  0.1755
 6693SOL    HW131715   4.139   2.013   1.759 -1.1603  0.2631 -0.9035
 6693SOL    HW231716   4.100   2.134   1.838 -0.3115 -1.7508  0.4563
 6694SOL     OW31717   2.903   1.083   5.668  0.3628  0.2649  0.3194
 6694SOL    HW131718   2.829   1.084   5.608 -0.7654 -1.2597  1.7010
 6694SOL    HW231719   2.954   1.011   5.631 -0.0439  0.0228  0.2360
 6695SOL     OW31720   3.161   1.220  12.410 -0.1810  0.4009  0.0680
 6695SOL    HW131721   3.182   1.137  12.366 -0.7487  0.7629 -0.8754
 6695SOL    HW231722   3.103   1.259  12.345 -1.7855  1.7849  2.3052
 6696SOL     OW31723   2.843   1.936   8.554  0.3798  0.2599 -0.2531
 6696SOL    HW131724   2.799   1.856   8.582  0.4431  1.0160  1.9880
 6696SOL    HW231725   2.781   2.003   8.582 -1.0589 -0.7119 -1.1328
 6697SOL     OW31726   2.416   2.704  14.971 -0.2263  0.5218  0.1494
 6697SOL    HW131727   2.352   2.757  14.924  1.1437 -0.1757 -2.4657
 6697SOL    HW231728   2.376   2.616  14.970 -1.1158  0.9272 -0.4949
 6698SOL     OW31729   2.601   3.507   3.085  0.0412 -0.1264  0.3152
 6698SOL    HW131730   2.579   3.551   3.003 -0.1887  1.0953  1.0284
 6698SOL    HW231731   2.518   3.482   3.127 -0.7146  1.6989 -0.0937
 6699SOL     OW31732   1.124   3.741   3.233 -0.0021 -0.0951 -0.3673
 6699SOL    HW131733   1.206   3.772   3.195  0.8440 -0.0578  1.4913
 6699SOL    HW231734   1.088   3.817   3.278 -0.8469 -1.2794  0.9552
 6700SOL     OW31735   3.140   0.666  17.282 -0.0755  0.0389 -0.1568
 6700SOL    HW131736   3.233   0.664  17.258 -0.1580  0.8495 -0.5359
 6700SOL    HW231737   3.093   0.596  17.237  0.9192 -0.6015 -0.2057
 6701SOL     OW31738   2.805   4.233   3.617  0.5932  0.5066 -0.0366
 6701SOL    HW131739   2.783   4.224   3.710 -0.6891  0.4368 -0.3502
 6701SOL    HW231740   2.896   4.205   3.606  0.1018 -1.2711  0.4835
 6702SOL     OW31741   3.152   3.761   7.546  0.1223  0.5177 -0.2278
 6702SOL    HW131742   3.237   3.776   7.586  0.1601 -0.1086 -0.0665
 6702SOL    HW231743   3.127   3.852   7.531 -0.5691  0.3319 -0.2162
 6703SOL     OW31744   0.132   4.225  11.653 -0.1136  0.8887  0.8552
 6703SOL    HW131745   0.089   4.302  11.616 -2.2418 -0.1195  1.2620
 6703SOL    HW231746   0.074   4.156  11.623  1.2724  0.4017 -0.6758
 6704SOL     OW31747   4.437   0.570   4.159 -0.5962  0.2665  0.1692
 6704SOL    HW131748   4.406   0.480   4.159 -0.0082  0.0614 -0.6369
 6704SOL    HW231749   4.425   0.593   4.067  2.0197  0.8977 -0.0243
 6705SOL     OW31750   2.643   4.648   0.825  0.5973  0.3716 -0.3983
 6705SOL    HW131751   2.580   4.684   0.762  1.0589 -0.7691 -1.5219
 6705SOL    HW231752   2.587   4.574   0.849  0.8054  0.4019  0.1697
 6706SOL     OW31753   4.259   4.125   2.410  0.2331  0.7737  0.0381
 6706SOL    HW131754   4.261   4.182   2.333 -0.6666  1.3055  0.4046
 6706SOL    HW231755   4.196   4.061   2.378 -0.4949  1.3386  0.3306
 6707SOL     OW31756   1.309   2.020   4.875 -0.0074 -0.0129 -0.3713
 6707SOL    HW131757   1.362   2.040   4.797  0.5640  1.0245  0.2862
 6707SOL    HW231758   1.378   1.994   4.936  0.8352 -0.8248 -1.6762
 6708SOL     OW31759   1.967   1.795   5.106 -0.2897  0.2558  0.1171
 6708SOL    HW131760   1.978   1.888   5.087  0.2299  0.5972  2.0858
 6708SOL    HW231761   2.042   1.767   5.159  0.2499  0.5860 -0.4693
 6709SOL     OW31762   1.390   1.951   4.171 -0.2008  0.3658 -0.5750
 6709SOL    HW131763   1.381   2.028   4.228  0.6307 -0.3842  0.5678
 6709SOL    HW231764   1.386   1.980   4.080 -0.9626  1.8854 -0.0523
 6710SOL     OW31765   1.117   2.073   2.816 -0.1525 -0.1018 -0.7278
 6710SOL    HW131766   1.040   2.128   2.831  0.5021  0.3992  0.7941
 6710SOL    HW231767   1.180   2.096   2.885 -1.2248 -0.4752  0.3693
 6711SOL     OW31768   4.276   3.318  13.234 -0.3558  0.1787  0.3802
 6711SOL    HW131769   4.329   3.366  13.170  1.6204  0.4432  2.1875
 6711SOL    HW231770   4.229   3.391  13.275 -1.6085  0.0296 -0.7872
 6712SOL     OW31771   0.524   2.020   0.636 -0.2758 -0.6373  0.0535
 6712SOL    HW131772   0.459   2.008   0.706 -0.3824  0.8007  0.1980
 6712SOL    HW231773   0.594   1.964   0.671 -1.1778 -1.0840  1.1560
 6713SOL     OW31774   2.131   0.802   6.638  0.5178 -0.6404 -0.0676
 6713SOL    HW131775   2.097   0.883   6.676 -0.6602 -0.3290 -1.7716
 6713SOL    HW231776   2.193   0.833   6.573 -0.3809  0.8737 -0.1960
 6714SOL     OW31777   0.575   0.854   6.678  0.0979  0.1228  0.8897
 6714SOL    HW131778   0.583   0.768   6.636 -0.6040  1.0968 -1.2244
 6714SOL    HW231779   0.600   0.838   6.769  0.4462 -0.3489  0.7134
 6715SOL     OW31780   1.554   4.688   6.303  0.0503 -1.1152 -0.2747
 6715SOL    HW131781   1.571   0.042   6.302 -0.5889 -0.9890  0.9054
 6715SOL    HW231782   1.463   4.699   6.277  0.8281  2.3527 -1.5814
 6716SOL     OW31783   3.024   2.427   8.393 -0.4308 -0.3596  0.0927
 6716SOL    HW131784   3.053   2.501   8.340  0.5001 -1.0896 -0.4391
 6716SOL    HW231785   3.105   2.379   8.411  0.6618  0.5980 -2.1420
 6717SOL     OW31786   4.192   1.169   7.793  0.2261  0.0717 -0.0152
 6717SOL    HW131787   4.138   1.091   7.798  2.0544 -1.1624  0.2663
 6717SOL    HW231788   4.132   1.240   7.768  0.5572 -0.3158 -1.8711
 6718SOL     OW31789   1.916   0.587   1.602 -0.1972 -0.2800 -0.2760
 6718SOL    HW131790   2.011   0.586   1.605 -0.0609  1.1995 -4.4038
 6718SOL    HW231791   1.902   0.494   1.623 -0.8390  0.2458  1.6470
 6719SOL     OW31792   0.535   1.672   3.996  0.5396 -0.4265 -0.7465
 6719SOL    HW131793   0.523   1.610   3.924  0.1826 -2.1428  0.7932
 6719SOL    HW231794   0.606   1.631   4.045 -0.6448 -1.3573  0.1947
 6720SOL     OW31795   4.502   2.005   4.685 -0.4515  0.6935 -0.0045
 6720SOL    HW131796   4.580   1.951   4.673 -0.0275  1.2100  0.4279
 6720SOL    HW231797   4.453   1.988   4.604  0.0391 -0.0913 -0.1409
 6721SOL     OW31798   4.144   0.919   1.736  0.3811  0.0320  0.1751
 6721SOL    HW131799   4.059   0.909   1.695  0.3940 -0.0941  0.1817
 6721SOL    HW231800   4.184   0.836   1.711  0.1923 -1.3901  4.5804
 6722SOL     OW31801   0.527   0.845  13.882 -0.2005 -0.1689 -0.1290
 6722SOL    HW131802   0.521   0.801  13.967  1.0810  0.4044  0.2534
 6722SOL    HW231803   0.434   0.868  13.875 -0.2155 -0.5773 -1.2908
 6723SOL     OW31804   0.508   0.925   4.496 -0.1122  0.2347  0.1081
 6723SOL    HW131805   0.486   0.974   4.576 -3.0253 -1.5791  0.4421
 6723SOL    HW231806   0.423   0.924   4.452  0.2253  0.4850 -0.5372
 6724SOL     OW31807   2.333   3.147   3.921 -0.2811 -0.1537 -0.0940
 6724SOL    HW131808   2.287   3.064   3.934  1.5181 -0.9809  0.9934
 6724SOL    HW231809   2.259   3.207   3.927  0.4671  0.7972 -0.4328
 6725SOL     OW31810   1.021   0.095  13.139  0.5956 -0.3914  0.0662
 6725SOL    HW131811   0.932   0.129  13.128 -0.2626 -2.5331  0.2773
 6725SOL    HW231812   1.067   0.167  13.181 -1.7234  1.4559 -0.5446
 6726SOL     OW31813   0.329   1.471   7.295  0.0011 -0.8422 -0.4311
 6726SOL    HW131814   0.393   1.415   7.251  1.7184  0.5339  0.3133
 6726SOL    HW231815   0.386   1.538   7.333 -0.3221  0.1510 -1.7095
 6727SOL     OW31816   1.175   3.388   2.011 -0.0751 -0.3940 -0.2656
 6727SOL    HW131817   1.116   3.335   1.959 -1.0129  0.9872 -0.5884
 6727SOL    HW231818   1.251   3.380   1.953 -0.9374 -1.5410 -1.2272
 6728SOL     OW31819   0.662   0.275   7.581 -0.1457  0.3957  0.4851
 6728SOL    HW131820   0.664   0.197   7.637 -1.2234 -1.1034 -1.5715
 6728SOL    HW231821   0.686   0.344   7.643  0.4234  2.1004 -1.6479
 6729SOL     OW31822   2.221   2.210  14.371  0.6836 -0.1475 -0.3886
 6729SOL    HW131823   2.296   2.175  14.322  0.2927 -0.2667 -0.8999
 6729SOL    HW231824   2.192   2.275  14.307  2.5343  1.6454  0.5599
 6730SOL     OW31825   3.573   1.554   5.713 -0.5851 -0.7371  0.9187
 6730SOL    HW131826   3.544   1.645   5.714 -1.8247 -1.1269 -0.0155
 6730SOL    HW231827   3.490   1.505   5.708 -0.7334 -0.4562  0.6200
 6731SOL     OW31828   0.653   4.229   5.735 -0.0923  0.0085 -0.5244
 6731SOL    HW131829   0.643   4.143   5.694 -0.7061 -0.9565  1.6234
 6731SOL    HW231830   0.727   4.264   5.685 -0.4694  0.5554 -0.6971
 6732SOL     OW31831   3.769   2.468   1.694  0.2284  0.2359  0.4116
 6732SOL    HW131832   3.726   2.433   1.772  0.9445 -3.2173 -0.7661
 6732SOL    HW231833   3.833   2.526   1.737 -1.3119  1.7242  0.7201
 6733SOL     OW31834   2.634   3.097   1.848  0.0627 -0.4075  0.0077
 6733SOL    HW131835   2.632   3.165   1.781 -0.5734  0.4583  0.8990
 6733SOL    HW231836   2.581   3.134   1.919  2.3895  0.4226  1.3086
 6734SOL     OW31837   1.851   1.231   4.376 -0.5609 -0.0824  0.4342
 6734SOL    HW131838   1.825   1.230   4.284  0.0028  2.6998  0.2287
 6734SOL    HW231839   1.789   1.175   4.421 -0.2832 -1.7968 -1.3358
 6735SOL     OW31840   1.974   0.510   0.201 -0.6748  0.0860  0.3722
 6735SOL    HW131841   1.975   0.415   0.209  0.0945  0.0991  0.5073
 6735SOL    HW231842   2.022   0.537   0.279 -2.2414 -0.3661  1.4774
 6736SOL     OW31843   4.082   1.352   2.132  0.1422  0.0654 -0.1318
 6736SOL    HW131844   4.101   1.360   2.039  2.7168 -0.0891  0.3734
 6736SOL    HW231845   4.164   1.316   2.167  0.1461  0.7788  0.6116
 6737SOL     OW31846   4.462   4.082   6.931 -0.2304  0.0734  0.6758
 6737SOL    HW131847   4.482   4.165   6.975  0.1087  0.1929  0.2982
 6737SOL    HW231848   4.548   4.052   6.900 -0.7729 -0.1222 -0.6433
 6738SOL     OW31849   4.439   4.652   0.400 -0.2290 -0.1879 -0.0057
 6738SOL    HW131850   4.416   4.691   0.485 -1.0781 -0.4776 -0.1039
 6738SOL    HW231851   4.352   4.622   0.372  0.7614 -1.8787 -1.2021
 6739SOL     OW31852   0.902   2.141   9.046 -0.2078 -0.0466  0.1473
 6739SOL    HW131853   0.912   2.235   9.035 -0.7181 -0.0158 -0.0412
 6739SOL    HW231854   0.860   2.142   9.132 -2.0147 -2.4429 -0.7179
 6740SOL     OW31855   1.579   1.492   8.986  0.0620 -0.0578 -0.6773
 6740SOL    HW131856   1.556   1.566   9.042 -4.0979  0.7108 -3.3651
 6740SOL    HW231857   1.628   1.535   8.917 -1.1662  0.3574 -1.2843
 6741SOL     OW31858   3.187   2.523   0.568  0.4488 -0.8115  1.0447
 6741SOL    HW131859   3.180   2.480   0.653  0.3291 -1.3761  0.7477
 6741SOL    HW231860   3.191   2.445   0.512 -3.0083 -0.1398 -0.1597
 6742SOL     OW31861   3.687   0.190   8.840 -0.1050 -0.1388 -0.5531
 6742SOL    HW131862   3.708   0.200   8.932  0.6142  1.5540 -0.9050
 6742SOL    HW231863   3.700   0.281   8.814  2.1775  0.2904  2.1384
 6743SOL     OW31864   2.502   1.802   5.889 -0.8939  0.1159 -0.0535
 6743SOL    HW131865   2.572   1.765   5.944 -1.1081 -1.9287 -1.1419
 6743SOL    HW231866   2.477   1.877   5.943 -1.0226 -0.9811  1.3991
 6744SOL     OW31867   1.025   2.981   3.958  0.5064  0.0721 -0.6417
 6744SOL    HW131868   1.099   3.006   3.903 -0.4556 -0.7452 -2.2965
 6744SOL    HW231869   0.978   3.063   3.975  0.8960 -0.1748  1.6472
 6745SOL     OW31870   2.095   2.707   3.147 -0.0028 -0.6727 -0.0209
 6745SOL    HW131871   2.053   2.670   3.225  0.0320 -1.5040 -0.4050
 6745SOL    HW231872   2.137   2.633   3.104 -0.6880  0.0158 -1.8551
 6746SOL     OW31873   1.218   4.134   7.864  0.3117 -0.2382 -0.1726
 6746SOL    HW131874   1.301   4.109   7.823  0.3896  0.2327 -0.3041
 6746SOL    HW231875   1.241   4.136   7.957 -1.3707  2.2218  0.2075
 6747SOL     OW31876   2.959   2.937   7.196  0.2942 -0.3578 -0.0256
 6747SOL    HW131877   3.049   2.922   7.167  0.0966 -1.0061 -0.3092
 6747SOL    HW231878   2.913   2.888   7.127 -0.3003 -0.4676  0.4491
 6748SOL     OW31879   4.197   2.989   0.336 -0.4800  0.1198  0.4893
 6748SOL    HW131880   4.226   3.045   0.264 -1.9290  0.7799  0.4040
 6748SOL    HW231881   4.251   2.914   0.312 -0.1793  0.0394  1.4082
 6749SOL     OW31882   3.252   4.304   6.906  0.6761  0.2450  0.7777
 6749SOL    HW131883   3.321   4.309   6.840  0.8308 -1.2607  0.8181
 6749SOL    HW231884   3.311   4.266   6.970  0.2893 -0.5783  0.6563
 6750SOL     OW31885   4.607   0.925  14.690  0.2753  0.4742  0.3021
 6750SOL    HW131886   4.530   0.875  14.717 -1.0478  2.5565  0.3368
 6750SOL    HW231887   4.668   0.898  14.759 -0.4636  1.4552  1.3374
 6751SOL     OW31888   0.109   0.379   7.813 -0.1131  0.7120  0.3629
 6751SOL    HW131889   0.103   0.464   7.770  1.0620  0.2531 -0.7058
 6751SOL    HW231890   0.037   0.335   7.768 -0.0129 -0.8873  1.7456
 6752SOL     OW31891   1.468   2.831   7.829  0.0601 -0.3235  0.5780
 6752SOL    HW131892   1.456   2.746   7.872  0.8267 -0.0281  1.3986
 6752SOL    HW231893   1.559   2.810   7.807  0.0809  2.3465 -1.8392
 6753SOL     OW31894   0.136   0.207  13.233  0.1706  0.4125  0.0640
 6753SOL    HW131895   0.119   0.115  13.250  0.4508  0.5871  1.2669
 6753SOL    HW231896   0.232   0.213  13.232  0.2643 -1.0315  1.1814
 6754SOL     OW31897   3.610   3.608  15.102 -0.0485  0.2067  0.4170
 6754SOL    HW131898   3.705   3.617  15.100 -0.0874 -0.3840 -4.1239
 6754SOL    HW231899   3.607   3.520  15.064 -0.7643 -1.3807  4.2346
 6755SOL     OW31900   1.348   0.964   7.447  0.6947 -0.0567 -0.4540
 6755SOL    HW131901   1.253   0.948   7.442  0.7306 -0.8621  1.5505
 6755SOL    HW231902   1.364   0.872   7.468 -0.8606  0.2785  2.1505
 6756SOL     OW31903   3.571   2.322  13.147 -0.1053  0.1693  0.1083
 6756SOL    HW131904   3.510   2.278  13.207 -1.0923  1.8429  0.3214
 6756SOL    HW231905   3.601   2.398  13.197  1.5118  0.6949 -1.6776
 6757SOL     OW31906   0.462   2.429  15.872 -0.7888 -0.5011 -0.3641
 6757SOL    HW131907   0.446   2.380  15.953 -2.9544 -0.3485 -0.7180
 6757SOL    HW231908   0.411   2.385  15.805 -2.2789 -0.1972  0.5729
 6758SOL     OW31909   2.952   2.633   8.568 -0.3928 -0.6550  0.3106
 6758SOL    HW131910   2.969   2.539   8.576 -1.6901 -0.8388  0.8191
 6758SOL    HW231911   2.874   2.634   8.513  0.3841  0.2382 -0.7931
 6759SOL     OW31912   1.547   0.275  12.014 -0.3789  0.6821 -0.4881
 6759SOL    HW131913   1.505   0.330  11.947 -0.2942 -2.2583 -2.9352
 6759SOL    HW231914   1.494   0.196  12.015  1.5568 -0.5805  0.7525
 6760SOL     OW31915   2.782   3.214   0.717 -0.0312 -0.4026  0.3126
 6760SOL    HW131916   2.860   3.210   0.662 -1.5733  0.4612 -1.9292
 6760SOL    HW231917   2.793   3.302   0.753 -1.3814 -0.6795  1.3956
 6761SOL     OW31918   2.784   4.031   7.364  0.9099  0.0725  0.4712
 6761SOL    HW131919   2.722   4.054   7.295  1.2250 -3.7757 -1.1119
 6761SOL    HW231920   2.839   3.983   7.302 -1.4158 -0.9139 -0.8368
 6762SOL     OW31921   0.430   4.498   5.691 -0.3027 -0.1704  0.3630
 6762SOL    HW131922   0.365   4.451   5.639  1.3611 -0.6024 -1.3131
 6762SOL    HW231923   0.496   4.505   5.623  0.8664 -2.5423  1.2593
 6763SOL     OW31924   2.634   0.944  10.895 -0.6321  0.5190 -0.3714
 6763SOL    HW131925   2.685   0.886  10.839 -1.0023 -0.0375 -0.1286
 6763SOL    HW231926   2.563   0.888  10.927 -1.5243  0.1352 -3.0422
 6764SOL     OW31927   2.772   1.774   5.289  0.3962  0.0299  0.3383
 6764SOL    HW131928   2.727   1.712   5.232 -3.1940  1.8293  1.2003
 6764SOL    HW231929   2.751   1.851   5.236  1.6882  0.7011  0.8067
 6765SOL     OW31930   0.278   2.105   0.188  0.0018  0.8690 -0.2403
 6765SOL    HW131931   0.331   2.032   0.154 -0.7190  1.0809 -1.8246
 6765SOL    HW231932   0.349   2.148   0.236  0.2388 -0.4345  0.5751
 6766SOL     OW31933   2.231   2.154   4.583 -0.1692 -0.0801  0.6348
 6766SOL    HW131934   2.318   2.115   4.600 -0.7827 -2.3194 -1.3159
 6766SOL    HW231935   2.167   2.097   4.626 -1.7292  0.3086 -1.2135
 6767SOL     OW31936   3.407   1.580   5.120 -0.0985 -0.2172 -0.4296
 6767SOL    HW131937   3.454   1.637   5.181 -0.0063 -0.0257 -0.6776
 6767SOL    HW231938   3.441   1.494   5.143  0.6274  0.6932  1.9453
 6768SOL     OW31939   4.545   3.671   3.678 -0.4023 -0.1392 -0.4834
 6768SOL    HW131940   4.597   3.696   3.602  0.7696 -0.9206  0.0555
 6768SOL    HW231941   4.616   3.668   3.743 -0.6738  0.9046 -0.1354
 6769SOL     OW31942   3.409   3.711   2.470 -0.4182  0.0195 -0.3508
 6769SOL    HW131943   3.406   3.793   2.520  0.5052  0.8846 -1.7061
 6769SOL    HW231944   3.401   3.648   2.541  0.0076  1.0917  0.6469
 6770SOL     OW31945   1.890   3.706   5.799 -0.0074 -0.0760  0.2877
 6770SOL    HW131946   1.917   3.663   5.881 -1.1076  1.3582  1.4052
 6770SOL    HW231947   1.889   3.798   5.823  1.4775 -0.0422  0.2276
 6771SOL     OW31948   2.601   1.085   6.658  0.2975 -0.6418 -0.0787
 6771SOL    HW131949   2.595   0.992   6.636 -0.4351  0.0705 -2.9216
 6771SOL    HW231950   2.513   1.100   6.693  0.2040 -0.6720 -0.2992
 6772SOL     OW31951   1.268   0.918   0.177  0.3896 -0.4477 -0.7936
 6772SOL    HW131952   1.178   0.934   0.150 -0.2484 -1.2221  0.9050
 6772SOL    HW231953   1.266   0.872   0.261  2.2840  1.9366  0.5585
 6773SOL     OW31954   1.636   4.439   7.342  0.5059  0.5483  0.0150
 6773SOL    HW131955   1.655   4.519   7.392  0.0900 -0.1960  1.3853
 6773SOL    HW231956   1.680   4.456   7.259  2.3606 -0.8831  0.7157
 6774SOL     OW31957   0.682   4.257  14.375  0.4049 -0.0400 -0.0090
 6774SOL    HW131958   0.653   4.325  14.316  0.0085 -0.9892 -0.9095
 6774SOL    HW231959   0.691   4.176  14.325  0.7815  0.1517 -0.2481
 6775SOL     OW31960   2.637   4.478   1.783 -0.2193  0.0852 -0.8337
 6775SOL    HW131961   2.718   4.482   1.734 -0.2255  0.0676 -0.8452
 6775SOL    HW231962   2.662   4.534   1.857 -1.0004  1.6930 -1.7774
 6776SOL     OW31963   1.827   1.108  17.735  0.4667 -0.0011  0.0958
 6776SOL    HW131964   1.768   1.050   0.027  0.9563  0.1760  0.8743
 6776SOL    HW231965   1.913   1.087   0.014  1.2415  0.8909 -1.2085
 6777SOL     OW31966   2.675   2.906   0.254 -0.0020 -0.5283 -0.3914
 6777SOL    HW131967   2.719   2.921   0.337  1.8088 -1.0814 -1.2490
 6777SOL    HW231968   2.614   2.977   0.236  1.1427  0.2435 -1.2740
 6778SOL     OW31969   1.851   0.951  11.175  0.3444 -0.2961 -0.3085
 6778SOL    HW131970   1.847   0.855  11.175  0.7598 -0.3084 -0.6526
 6778SOL    HW231971   1.932   0.961  11.126  0.3537 -0.3446 -0.3030
 6779SOL     OW31972   4.461   0.590   8.508  0.1284  0.6869 -0.0951
 6779SOL    HW131973   4.427   0.674   8.477 -0.8087  1.0540  1.9504
 6779SOL    HW231974   4.550   0.584   8.472  0.7365  0.7565  1.4001
 6780SOL     OW31975   1.886   3.854   5.536 -0.3190  0.2211  0.9624
 6780SOL    HW131976   1.975   3.820   5.529  0.2594  1.6648  1.3019
 6780SOL    HW231977   1.856   3.806   5.613 -1.1222 -0.0100  0.5117
 6781SOL     OW31978   2.381   2.469   6.922  0.3846 -0.1836  0.1497
 6781SOL    HW131979   2.476   2.456   6.911  0.5074  0.5753  0.2991
 6781SOL    HW231980   2.370   2.559   6.891  1.7116 -0.2419 -0.5296
 6782SOL     OW31981   3.525   1.343   6.879 -0.0528  0.2961  0.4999
 6782SOL    HW131982   3.583   1.291   6.935  0.5431 -0.7566 -1.0929
 6782SOL    HW231983   3.558   1.433   6.887  2.0509 -0.5560  1.4984
 6783SOL     OW31984   4.299   1.772   1.771 -0.1860  0.0494  0.8659
 6783SOL    HW131985   4.220   1.791   1.821 -1.8798  1.1049 -2.2077
 6783SOL    HW231986   4.346   1.720   1.835  1.1460 -0.1830 -0.2854
 6784SOL     OW31987   3.253   1.661   9.595  0.3338 -0.5276  0.4131
 6784SOL    HW131988   3.187   1.711   9.643  1.7673  0.2022  1.6400
 6784SOL    HW231989   3.295   1.726   9.538  0.1651 -3.0080 -2.5442
 6785SOL     OW31990   1.875   4.714   8.887 -0.3598 -0.6254  0.1878
 6785SOL    HW131991   1.953   0.001   8.837 -0.8106 -1.6928 -1.0961
 6785SOL    HW231992   1.826   4.661   8.824  0.3318  0.4530 -1.2698
 6786SOL     OW31993   3.684   2.226   9.553 -0.2239  0.3434 -1.0165
 6786SOL    HW131994   3.696   2.270   9.637  0.4169 -1.2124 -0.2948
 6786SOL    HW231995   3.769   2.234   9.510  0.3082  0.3983  0.0437
 6787SOL     OW31996   0.674   4.153   6.131  0.2840 -0.0934  0.2721
 6787SOL    HW131997   0.637   4.126   6.215 -0.8263  0.8311  0.0793
 6787SOL    HW231998   0.765   4.150   6.159  0.5887  2.8060 -0.3384
 6788SOL     OW31999   1.433   0.076   7.144 -0.0665 -0.3346 -0.2195
 6788SOL    HW132000   1.488   0.007   7.182  0.4508  0.5597  0.6508
 6788SOL    HW232001   1.488   0.151   7.121 -0.6077  0.7589  2.0753
 6789SOL     OW32002   1.757   3.201   9.130 -0.0322  0.1675  0.7155
 6789SOL    HW132003   1.724   3.214   9.041  0.3248  1.6605  0.8036
 6789SOL    HW232004   1.806   3.119   9.127 -1.5642 -0.7330  0.0550
 6790SOL     OW32005   2.467   0.653   2.123 -0.2253 -0.2402 -0.2856
 6790SOL    HW132006   2.497   0.596   2.194 -1.4172  0.0202  0.4452
 6790SOL    HW232007   2.493   0.738   2.158 -0.1582 -0.3451 -0.0769
 6791SOL     OW32008   3.662   3.823   8.265  0.3975  0.4740 -0.1332
 6791SOL    HW132009   3.700   3.761   8.327 -1.0898 -0.0973  0.1939
 6791SOL    HW232010   3.570   3.819   8.290  0.5657  1.1713  0.6031
 6792SOL     OW32011   0.517   3.447   4.949 -0.0213  0.5649  0.4566
 6792SOL    HW132012   0.433   3.469   4.907  0.9196  3.4729  0.1062
 6792SOL    HW232013   0.545   3.380   4.886 -1.2965 -1.1794  1.7279
 6793SOL     OW32014   3.543   2.586   6.088  0.5528  0.0469 -0.1283
 6793SOL    HW132015   3.553   2.552   5.999  1.5572  2.2719 -0.8558
 6793SOL    HW232016   3.600   2.527   6.137  0.9312  3.2219  3.2337
 6794SOL     OW32017   2.412   1.942   7.853  0.4204 -0.4288 -0.6726
 6794SOL    HW132018   2.398   1.865   7.907  0.0189 -1.6377 -2.5181
 6794SOL    HW232019   2.502   1.919   7.831  1.1491  0.6146  1.1419
 6795SOL     OW32020   3.107   4.475   0.532 -0.2220  0.1326 -0.6820
 6795SOL    HW132021   3.171   4.406   0.515 -0.9869 -1.1511  1.6946
 6795SOL    HW232022   3.175   4.533   0.567 -0.3739 -1.6929  2.6259
 6796SOL     OW32023   0.851   2.795   0.239 -0.2422 -0.2528 -0.3635
 6796SOL    HW132024   0.869   2.856   0.168  0.7253 -0.5790 -0.4029
 6796SOL    HW232025   0.827   2.714   0.195  1.0223  0.6871 -2.7947
 6797SOL     OW32026   2.200   0.274  16.007 -0.2331  0.1353 -0.1901
 6797SOL    HW132027   2.116   0.229  16.003  0.8033 -1.6814 -1.4121
 6797SOL    HW232028   2.264   0.203  16.004 -2.1574 -1.5600 -0.1123
 6798SOL     OW32029   2.842   2.780   4.315 -0.2284 -0.4438  0.4239
 6798SOL    HW132030   2.887   2.697   4.327  2.6194  1.0789  0.3440
 6798SOL    HW232031   2.916   2.840   4.330  0.3433 -1.4673  1.6824
 6799SOL     OW32032   3.693   0.772   5.044  0.5024 -0.0968  0.1079
 6799SOL    HW132033   3.746   0.783   5.123  0.2918  0.2097  0.2026
 6799SOL    HW232034   3.763   0.779   4.980 -0.1212 -0.9095 -0.6640
 6800SOL     OW32035   1.568   0.270  17.550 -0.2238  0.1806 -0.5343
 6800SOL    HW132036   1.556   0.287  17.457 -1.8065 -0.3409 -0.4203
 6800SOL    HW232037   1.565   0.176  17.567  0.5341  0.6870  2.4484
 6801SOL     OW32038   3.587   4.103   4.081  0.4794  0.2792  0.3817
 6801SOL    HW132039   3.681   4.102   4.098  0.4590  0.5962  0.5073
 6801SOL    HW232040   3.565   4.013   4.105  2.9032 -0.4943 -0.3257
 6802SOL     OW32041   0.876   0.492   9.346  0.4589  1.2119 -0.0547
 6802SOL    HW132042   0.931   0.570   9.344  0.9200  0.8948  0.1733
 6802SOL    HW232043   0.944   0.434   9.381 -0.7825  1.0191  2.0316
 6803SOL     OW32044   1.136   1.254  11.724 -0.5299 -0.4284 -0.3274
 6803SOL    HW132045   1.174   1.325  11.672  0.0362  1.5636  2.7922
 6803SOL    HW232046   1.058   1.286  11.770 -0.4921 -0.3454 -0.3209
 6804SOL     OW32047   4.466   1.547   6.157 -0.0990 -0.1651 -0.4344
 6804SOL    HW132048   4.525   1.551   6.232 -0.4527 -1.0323 -0.1105
 6804SOL    HW232049   4.519   1.524   6.081  0.5729  1.2055 -0.3802
 6805SOL     OW32050   2.680   2.123   8.643 -0.2372  0.2598 -0.0640
 6805SOL    HW132051   2.653   2.138   8.734  1.1263 -1.2139  0.5873
 6805SOL    HW232052   2.719   2.209   8.625  1.5822 -0.4912  0.2954
 6806SOL     OW32053   3.057   3.400   7.878  0.1258 -0.4796 -0.0093
 6806SOL    HW132054   3.101   3.370   7.798  0.4308  0.4356 -0.1855
 6806SOL    HW232055   3.005   3.475   7.848 -0.0037 -0.5884 -0.0600
 6807SOL     OW32056   3.396   1.953   6.998 -0.1228  0.2981 -1.0594
 6807SOL    HW132057   3.302   1.962   6.984 -0.6674 -2.0646  1.0163
 6807SOL    HW232058   3.417   2.012   7.071  1.6507 -1.8479  0.1816
 6808SOL     OW32059   1.968   4.159   7.254  0.2621  0.0154  0.6086
 6808SOL    HW132060   1.976   4.073   7.294  1.4110  1.1736  2.8326
 6808SOL    HW232061   2.011   4.146   7.169 -0.9909  1.8174 -0.3163
 6809SOL     OW32062   4.639   4.263  12.021 -0.3855 -0.2223 -0.2123
 6809SOL    HW132063   4.723   4.258  11.976 -0.2740 -0.2289 -0.0011
 6809SOL    HW232064   4.672   4.287  12.107 -0.0783  2.9267 -1.2120
 6810SOL     OW32065   4.406   4.631   9.600  0.2950  0.4236 -0.5909
 6810SOL    HW132066   4.318   4.661   9.624  0.3795  1.7861 -2.0188
 6810SOL    HW232067   4.392   4.549   9.552 -1.0282 -0.4494  1.2921
 6811SOL     OW32068   1.778   1.795   4.399  0.5178 -0.2308  0.2691
 6811SOL    HW132069   1.825   1.879   4.399 -0.1663  0.1462  1.0223
 6811SOL    HW232070   1.761   1.770   4.489  2.1940  0.1215  0.6939
 6812SOL     OW32071   3.103   0.792   7.983 -0.1204  0.3801 -0.0446
 6812SOL    HW132072   3.055   0.711   7.999  0.2765  0.3481  0.9857
 6812SOL    HW232073   3.032   0.856   7.973  0.3023  1.3323  2.9604
 6813SOL     OW32074   2.958   1.996   4.157  0.0522  0.0809  0.5307
 6813SOL    HW132075   3.009   1.983   4.237 -1.9147  0.9562  1.9372
 6813SOL    HW232076   2.919   2.082   4.173  1.4957  0.7779  0.3035
 6814SOL     OW32077   3.305   3.778   0.828  0.3556 -0.1740  0.0202
 6814SOL    HW132078   3.394   3.814   0.824  0.6460 -1.0903 -2.3100
 6814SOL    HW232079   3.249   3.839   0.780  1.1988  1.4628  1.1466
 6815SOL     OW32080   2.616   3.188   8.970 -0.1752 -0.2082  0.3666
 6815SOL    HW132081   2.686   3.133   8.934 -1.7559 -1.4449 -0.7653
 6815SOL    HW232082   2.658   3.209   9.054  2.3224  0.9476 -1.1451
 6816SOL     OW32083   0.730   2.561   7.548 -0.0344  0.7950 -0.0586
 6816SOL    HW132084   0.729   2.610   7.630  0.0081  3.0840 -1.4097
 6816SOL    HW232085   0.745   2.630   7.483  0.1021  1.5887  0.8086
 6817SOL     OW32086   4.221   1.765   0.269 -0.6732 -0.3353 -0.1596
 6817SOL    HW132087   4.181   1.764   0.355  0.0867  2.1327  0.2201
 6817SOL    HW232088   4.296   1.821   0.290 -0.1799 -0.8631 -0.4983
 6818SOL     OW32089   0.409   1.925   2.215  0.1142 -0.1287  0.3688
 6818SOL    HW132090   0.328   1.975   2.224  1.2377  1.4394  1.7635
 6818SOL    HW232091   0.416   1.866   2.290  2.4114 -0.5183 -0.1405
 6819SOL     OW32092   1.970   2.881  13.596  0.0293 -0.3814 -0.0322
 6819SOL    HW132093   1.944   2.803  13.645  1.5584 -0.2358  1.0321
 6819SOL    HW232094   2.009   2.934  13.665  2.4647 -0.4244 -1.3572
 6820SOL     OW32095   3.077   2.509   2.107 -0.2004  0.3521  0.1171
 6820SOL    HW132096   3.125   2.562   2.043 -0.4209  0.8813  0.3859
 6820SOL    HW232097   3.138   2.525   2.179  0.8755 -0.0825 -0.6895
 6821SOL     OW32098   2.756   2.483   0.071 -0.6535 -0.7742 -0.3295
 6821SOL    HW132099   2.807   2.481   0.152  0.3710  1.4166 -0.9084
 6821SOL    HW232100   2.677   2.528   0.101  0.9170  2.8845 -1.6244
 6822SOL     OW32101   3.351   3.558   5.788 -0.1930 -0.5267 -0.1807
 6822SOL    HW132102   3.384   3.612   5.860  0.3956 -1.7693  0.4965
 6822SOL    HW232103   3.411   3.486   5.808  1.4436  0.2684 -2.2453
 6823SOL     OW32104   0.798   3.023  16.135  0.2219 -0.2253  0.2015
 6823SOL    HW132105   0.862   3.093  16.118  0.6422 -1.1000 -1.9130
 6823SOL    HW232106   0.711   3.062  16.134  0.3307  0.0104 -0.5577
 6824SOL     OW32107   0.613   2.118   8.408 -0.2391  0.7589  0.3357
 6824SOL    HW132108   0.611   2.169   8.327 -0.3665  0.6238  0.2530
 6824SOL    HW232109   0.524   2.081   8.414  1.3938 -3.2180  0.0469
 6825SOL     OW32110   1.512   2.999   0.574  0.0969 -0.7288 -0.0031
 6825SOL    HW132111   1.465   3.079   0.551  0.0960 -0.5119  0.7521
 6825SOL    HW232112   1.586   2.999   0.513  1.2653 -1.5801  1.4241
 6826SOL     OW32113   0.875   2.343  12.587  0.1839 -0.4109 -0.2294
 6826SOL    HW132114   0.902   2.430  12.616 -0.7934 -0.4952  0.9166
 6826SOL    HW232115   0.905   2.286  12.658 -1.8124 -2.0822 -0.7300
 6827SOL     OW32116   3.761   3.292   1.705  0.2179  0.1813 -0.1465
 6827SOL    HW132117   3.751   3.209   1.658  2.5480 -0.5787  0.7238
 6827SOL    HW232118   3.745   3.264   1.795  2.2531 -1.4715 -0.3071
 6828SOL     OW32119   2.962   3.320   4.199 -0.0337  0.1611  0.3871
 6828SOL    HW132120   2.943   3.247   4.141  1.4484  0.1167 -0.0480
 6828SOL    HW232121   2.891   3.318   4.263 -0.3197  0.9563  0.0996
 6829SOL     OW32122   2.711   0.114   7.684  0.7437  0.0422 -0.2851
 6829SOL    HW132123   2.708   0.165   7.604  0.3950  3.4748  1.8869
 6829SOL    HW232124   2.804   0.093   7.691  0.0975 -1.9613  2.5781
 6830SOL     OW32125   2.905   3.604  11.640  0.0949  0.3207  0.2619
 6830SOL    HW132126   2.840   3.672  11.620 -0.7417 -0.8871 -1.0413
 6830SOL    HW232127   2.980   3.663  11.654 -0.2760  0.7520  0.4412
 6831SOL     OW32128   2.226   0.419   1.917 -0.0492 -0.1531  0.2636
 6831SOL    HW132129   2.220   0.484   1.987 -0.6367  0.6610 -0.5345
 6831SOL    HW232130   2.308   0.448   1.876  0.7780  0.1555  2.1369
 6832SOL     OW32131   4.440   2.404   5.416  0.3468 -0.4911 -0.1860
 6832SOL    HW132132   4.418   2.480   5.469  2.4559 -1.8070  2.5653
 6832SOL    HW232133   4.376   2.343   5.452  0.7615 -1.1150 -0.4970
 6833SOL     OW32134   1.059   3.750   0.655 -0.2747  0.3350  0.1614
 6833SOL    HW132135   1.145   3.726   0.689 -1.4418 -4.8961 -0.4520
 6833SOL    HW232136   1.077   3.813   0.586  0.2841  1.8350  1.6978
 6834SOL     OW32137   1.999   0.721  17.600 -0.4970  0.8982 -0.1526
 6834SOL    HW132138   1.950   0.692  17.523  0.2920  2.2723 -1.1687
 6834SOL    HW232139   1.998   0.813  17.572  1.9379  0.3996 -1.9157
 6835SOL     OW32140   2.826   1.495   4.276  0.1557  0.2304  0.0520
 6835SOL    HW132141   2.732   1.488   4.292 -0.2220  0.6965 -1.9522
 6835SOL    HW232142   2.846   1.402   4.291  0.5869 -0.1845 -2.9008
 6836SOL     OW32143   4.053   1.792   4.525  0.6000  0.4751 -0.1167
 6836SOL    HW132144   3.990   1.830   4.465 -1.9290 -1.0499  1.5979
 6836SOL    HW232145   4.095   1.872   4.557  0.2512  1.3369 -1.8461
 6837SOL     OW32146   0.582   3.698  14.302 -0.3737 -0.1909  0.1501
 6837SOL    HW132147   0.619   3.782  14.329 -1.9198  0.3245  0.6612
 6837SOL    HW232148   0.637   3.630  14.340  0.5923  1.0021  0.8607
 6838SOL     OW32149   4.156   4.660   3.702 -0.2286  0.0733 -0.2482
 6838SOL    HW132150   4.176   0.004   3.743 -1.1816 -0.1885  0.7631
 6838SOL    HW232151   4.113   4.613   3.774  0.2685  0.5328  0.3540
 6839SOL     OW32152   4.591   1.506   4.635 -0.6378  0.0765 -0.8622
 6839SOL    HW132153   4.590   1.469   4.547 -0.1923  0.8607 -1.2033
 6839SOL    HW232154   4.539   1.584   4.616  0.1467  0.6271 -0.8046
 6840SOL     OW32155   2.124   0.098   4.844  0.3545 -0.9638  0.2782
 6840SOL    HW132156   2.070   0.076   4.768  0.2022 -0.1360  0.1517
 6840SOL    HW232157   2.064   0.162   4.883  1.1648 -1.8525  2.9860
 6841SOL     OW32158   3.369   2.872  16.716 -0.0324 -0.5968 -0.1025
 6841SOL    HW132159   3.441   2.817  16.686  0.0268  0.4161 -1.7764
 6841SOL    HW232160   3.310   2.812  16.762 -0.7626 -1.6099 -2.3652
 6842SOL     OW32161   4.502   0.194  10.713  0.6589 -0.3566  0.2765
 6842SOL    HW132162   4.569   0.262  10.712  0.5242 -0.2159  0.6287
 6842SOL    HW232163   4.427   0.247  10.739 -0.4044 -1.4704 -0.4860
 6843SOL     OW32164   0.131   4.487   9.816 -0.6878 -0.2342  0.2360
 6843SOL    HW132165   0.137   4.468   9.722 -2.0009 -3.3247  0.7562
 6843SOL    HW232166   0.210   4.542   9.816 -1.4876  0.8978  2.1532
 6844SOL     OW32167   3.272   0.554  10.560 -0.0825  0.2416 -0.2212
 6844SOL    HW132168   3.338   0.514  10.616  0.8249 -2.0661 -2.9096
 6844SOL    HW232169   3.222   0.479  10.525  1.6846  0.8620 -4.1063
 6845SOL     OW32170   3.894   0.530   3.915  0.6018  0.3684 -0.2887
 6845SOL    HW132171   3.902   0.591   3.988 -3.0549  0.6050 -0.0770
 6845SOL    HW232172   3.934   0.576   3.841  0.8195  0.1969 -0.2804
 6846SOL     OW32173   2.942   1.923   9.424  0.5679  0.1416  0.4513
 6846SOL    HW132174   2.869   1.920   9.361  0.7027 -0.1579  0.3108
 6846SOL    HW232175   2.958   1.830   9.437 -0.6697 -0.1429 -0.0725
 6847SOL     OW32176   4.327   0.668   2.454  0.4323 -0.4369  0.2002
 6847SOL    HW132177   4.239   0.693   2.480  0.4905  0.7137 -0.6907
 6847SOL    HW232178   4.353   0.745   2.403  2.5963 -1.4329 -0.2193
 6848SOL     OW32179   0.622   1.018   9.183 -0.6901 -0.4012  0.7684
 6848SOL    HW132180   0.545   0.982   9.139 -0.9958  1.1599  0.0463
 6848SOL    HW232181   0.577   1.052   9.260  0.6258  1.4206  0.7293
 6849SOL     OW32182   3.355   1.875   6.332  0.3554  0.8866 -0.1991
 6849SOL    HW132183   3.349   1.837   6.244  2.9462 -2.0185  0.8825
 6849SOL    HW232184   3.271   1.851   6.370  1.0207  0.6096  1.1128
 6850SOL     OW32185   0.481   1.132   8.811 -0.3807  0.1128  0.0437
 6850SOL    HW132186   0.433   1.080   8.875  0.9118  0.0946  1.0009
 6850SOL    HW232187   0.566   1.103   8.843  0.7474  1.2384 -1.9765
 6851SOL     OW32188   2.407   2.082   8.172 -0.0640 -0.2150  0.4932
 6851SOL    HW132189   2.494   2.119   8.158  0.3646 -0.2715  3.0366
 6851SOL    HW232190   2.353   2.160   8.184  0.7413  0.4263 -0.0625
 6852SOL     OW32191   2.832   1.403   9.216 -0.5859  0.3747 -0.9437
 6852SOL    HW132192   2.917   1.446   9.207 -0.8769  1.4225  1.4953
 6852SOL    HW232193   2.852   1.336   9.281  1.0995  1.8294  0.0135
 6853SOL     OW32194   1.120   0.128   5.910 -0.3892  0.1460 -0.0617
 6853SOL    HW132195   1.113   0.191   5.982  2.5709  1.3076 -0.7998
 6853SOL    HW232196   1.026   0.113   5.895  0.4715 -0.7631 -4.6686
 6854SOL     OW32197   4.317   3.395   6.894  0.0026  0.1161  0.3458
 6854SOL    HW132198   4.362   3.474   6.865  1.6592 -0.1273  2.2892
 6854SOL    HW232199   4.226   3.427   6.896  0.6165  1.6620  4.2390
 6855SOL     OW32200   1.855   0.214   5.446 -0.2887 -0.2277  0.6141
 6855SOL    HW132201   1.861   0.296   5.496  0.2475  0.4746 -0.6112
 6855SOL    HW232202   1.761   0.201   5.457 -0.5872  1.0136 -0.3712
 6856SOL     OW32203   0.148   3.017  17.409  0.1736 -0.4505  0.3168
 6856SOL    HW132204   0.235   3.000  17.373  0.2717 -2.5195  1.5429
 6856SOL    HW232205   0.119   2.931  17.438 -0.1675 -0.3531  0.2577
 6857SOL     OW32206   2.842   0.316   5.562  0.4063  0.3614 -0.3542
 6857SOL    HW132207   2.833   0.311   5.467  1.5037 -1.3321 -0.3638
 6857SOL    HW232208   2.814   0.228   5.587 -1.9826  1.3264  0.4681
 6858SOL     OW32209   0.374   3.607   7.299 -0.0205  0.0593 -0.3881
 6858SOL    HW132210   0.363   3.512   7.309 -0.4349  0.3539  1.8354
 6858SOL    HW232211   0.309   3.645   7.358  0.6586  0.2397  0.2295
 6859SOL     OW32212   2.058   1.461  13.018 -0.3514  0.2822  0.2023
 6859SOL    HW132213   2.101   1.477  12.934  0.4130 -0.2489  0.4894
 6859SOL    HW232214   1.969   1.476  12.986 -0.9782 -1.4860  1.1206
 6860SOL     OW32215   4.298   3.292   8.662  0.3161  0.3776  0.9157
 6860SOL    HW132216   4.319   3.202   8.636 -1.9504  1.3227 -4.0897
 6860SOL    HW232217   4.287   3.336   8.578 -0.1167 -3.2906 -0.9941
 6861SOL     OW32218   2.686   2.403  14.962  0.1085 -0.1083 -0.0240
 6861SOL    HW132219   2.661   2.469  15.027 -0.0616  0.8849 -1.0896
 6861SOL    HW232220   2.601   2.387  14.921 -0.2556 -1.4703  1.2613
 6862SOL     OW32221   3.291   3.709   4.196  0.3214 -0.3884 -0.0209
 6862SOL    HW132222   3.283   3.616   4.217 -1.5812 -0.1686  0.2480
 6862SOL    HW232223   3.234   3.719   4.120  0.5561 -1.8223 -0.3855
 6863SOL     OW32224   3.674   0.752   7.493  0.4972 -0.2714 -0.0843
 6863SOL    HW132225   3.750   0.695   7.477  0.3406 -0.7529  0.8916
 6863SOL    HW232226   3.627   0.724   7.571 -0.4035 -1.9859 -1.2149
 6864SOL     OW32227   2.257   1.743   4.135  0.3729  0.2824 -0.1476
 6864SOL    HW132228   2.338   1.695   4.120  0.1308 -0.5773  1.2835
 6864SOL    HW232229   2.215   1.754   4.049  0.8787  1.2219 -0.2739
 6865SOL     OW32230   1.066   0.094   3.356 -0.0586  0.0957 -0.1311
 6865SOL    HW132231   1.106   0.041   3.287 -1.6345  0.1620 -1.1012
 6865SOL    HW232232   1.094   0.183   3.334  0.4114 -0.2166 -0.7757
 6866SOL     OW32233   2.341   0.069   8.062 -0.0175  0.0866 -0.1149
 6866SOL    HW132234   2.369   0.146   8.013  0.6385 -1.3159 -1.9122
 6866SOL    HW232235   2.421   0.054   8.112  1.0301  0.7638 -1.6024
 6867SOL     OW32236   0.943   2.254   7.553  0.2358 -0.1531 -0.0918
 6867SOL    HW132237   1.009   2.321   7.569 -0.2611  0.3815 -0.3064
 6867SOL    HW232238   0.871   2.309   7.522  1.8895  0.5116 -2.6704
 6868SOL     OW32239   3.653   3.357   0.203 -0.1224  0.4805  0.0333
 6868SOL    HW132240   3.705   3.394   0.131 -0.3258  2.4069  0.8751
 6868SOL    HW232241   3.659   3.264   0.182  0.6950  0.4242  0.5000
 6869SOL     OW32242   3.339   4.521   5.139 -0.2163  0.1386  0.7578
 6869SOL    HW132243   3.384   4.440   5.165 -0.1543  0.2487  0.9912
 6869SOL    HW232244   3.381   4.593   5.185 -1.4889  0.0818  1.9923
 6870SOL     OW32245   0.579   1.855   8.834  0.4785  0.7551 -0.4703
 6870SOL    HW132246   0.650   1.817   8.887  0.4298  3.8407  1.8582
 6870SOL    HW232247   0.519   1.782   8.822 -3.8410  4.1227  0.4740
 6871SOL     OW32248   3.841   1.803   4.314  0.3622 -0.1798  0.1825
 6871SOL    HW132249   3.766   1.749   4.338  0.7947  0.3655  2.7690
 6871SOL    HW232250   3.856   1.782   4.222  0.2383  1.9113 -0.3082
 6872SOL     OW32251   1.521   2.985   4.658  0.1771  0.0357  0.6556
 6872SOL    HW132252   1.561   3.071   4.649  1.2522 -0.4638  0.5847
 6872SOL    HW232253   1.504   2.985   4.752  0.1878  0.3480  0.6563
 6873SOL     OW32254   2.311   4.370   1.781 -0.2374 -0.4487  0.8693
 6873SOL    HW132255   2.293   4.436   1.715 -1.7344 -2.2961 -0.5583
 6873SOL    HW232256   2.244   4.401   1.842 -0.5637 -1.1145  0.8533
 6874SOL     OW32257   0.640   0.761   9.957  0.0407  0.5246  0.7289
 6874SOL    HW132258   0.574   0.697   9.930 -0.6781  1.1621  1.0014
 6874SOL    HW232259   0.710   0.750   9.892 -1.3058  4.8957 -1.4510
 6875SOL     OW32260   3.639   0.351  12.869 -0.3413 -0.0177 -0.4387
 6875SOL    HW132261   3.586   0.273  12.851 -0.0816 -0.2154 -0.3450
 6875SOL    HW232262   3.610   0.372  12.958  2.3525 -2.4084  0.9890
 6876SOL     OW32263   0.695   1.051   4.295 -0.3169  0.0263 -0.0427
 6876SOL    HW132264   0.641   1.010   4.362 -0.2951 -1.1781 -0.7472
 6876SOL    HW232265   0.779   1.062   4.339 -1.8533  1.0646  2.6368
 6877SOL     OW32266   2.722   0.694  17.422  0.5792  0.4989  0.4243
 6877SOL    HW132267   2.799   0.668  17.471  1.8381 -0.4829 -2.0873
 6877SOL    HW232268   2.750   0.776  17.381 -1.0055  0.4194 -0.8274
 6878SOL     OW32269   3.446   2.048   4.073 -0.3093  0.2536  0.0987
 6878SOL    HW132270   3.484   2.010   4.152 -1.6923 -0.7826  0.2643
 6878SOL    HW232271   3.461   2.143   4.072 -0.2320  0.2233 -1.7573
 6879SOL     OW32272   2.961   0.867  13.661 -0.4204  0.0344 -0.4649
 6879SOL    HW132273   2.894   0.857  13.593 -1.0729 -0.5412  0.2598
 6879SOL    HW232274   2.940   0.790  13.714  0.8385 -1.6745 -2.4511
 6880SOL     OW32275   1.746   4.545   6.140 -0.3896  0.2992  0.6114
 6880SOL    HW132276   1.675   4.589   6.186  0.6264  2.0881  0.4420
 6880SOL    HW232277   1.733   4.572   6.049  1.2298 -1.8084 -0.2360
 6881SOL     OW32278   4.222   4.215   4.696  0.6853  0.4188 -0.6188
 6881SOL    HW132279   4.294   4.152   4.695 -1.4293 -2.0025  0.1569
 6881SOL    HW232280   4.192   4.210   4.786  1.1475  0.4570 -0.4620
 6882SOL     OW32281   0.968   3.177   6.134  0.2887 -0.0346 -0.2063
 6882SOL    HW132282   0.941   3.155   6.045  1.8205 -2.2721 -0.1368
 6882SOL    HW232283   0.882   3.165   6.173 -0.4333  0.8812 -1.5360
 6883SOL     OW32284   4.717   2.985   9.447 -0.3037 -0.2903  0.4709
 6883SOL    HW132285   4.645   2.932   9.413 -0.6875  0.5903 -0.0777
 6883SOL    HW232286   4.688   2.994   9.538 -2.6779 -0.3881 -0.2598
 6884SOL     OW32287   3.120   4.305   0.234 -0.7784 -0.7149 -0.0245
 6884SOL    HW132288   3.209   4.339   0.224 -1.1848  0.1864 -0.6783
 6884SOL    HW232289   3.081   4.324   0.148 -0.3294  0.4557  0.0349
 6885SOL     OW32290   3.352   3.007   2.681 -0.2916  0.0040  0.3558
 6885SOL    HW132291   3.259   3.026   2.668 -0.3970 -0.6787  0.0894
 6885SOL    HW232292   3.392   3.032   2.598 -2.8836  2.2614 -0.2279
 6886SOL     OW32293   3.415   1.938   9.159  0.0432  0.5910 -0.0083
 6886SOL    HW132294   3.388   2.030   9.162 -2.2419 -0.0492 -0.7440
 6886SOL    HW232295   3.494   1.938   9.213 -0.2393 -0.6490  0.4119
 6887SOL     OW32296   2.828   0.129  15.709  0.1675 -0.1465  0.0852
 6887SOL    HW132297   2.747   0.119  15.659  0.5738 -0.0183 -0.5964
 6887SOL    HW232298   2.801   0.124  15.801 -0.4759  0.0244 -0.0990
 6888SOL     OW32299   4.398   4.322   3.829 -0.1165 -0.1037 -0.2379
 6888SOL    HW132300   4.391   4.411   3.863  0.4159  0.2799 -1.1253
 6888SOL    HW232301   4.413   4.272   3.909 -0.5908  1.9754  1.1442
 6889SOL     OW32302   0.898   3.603   0.486 -0.0900 -0.1861 -0.2179
 6889SOL    HW132303   0.966   3.636   0.544 -2.0076  0.1055  1.8796
 6889SOL    HW232304   0.816   3.629   0.529  0.7637 -1.3830  2.1672
 6890SOL     OW32305   2.178   2.186   2.486  0.0985 -0.4251  0.8625
 6890SOL    HW132306   2.211   2.253   2.546 -1.6422  2.1033 -1.0048
 6890SOL    HW232307   2.246   2.118   2.487  0.1926 -0.3435 -2.1217
 6891SOL     OW32308   3.628   3.754  14.633  0.5425  0.4849  0.2348
 6891SOL    HW132309   3.683   3.676  14.644 -0.2289 -0.3627 -1.9671
 6891SOL    HW232310   3.592   3.739  14.546 -0.7130  1.2014  0.6404
 6892SOL     OW32311   2.110   3.073   3.692  0.2141  0.2734 -0.2986
 6892SOL    HW132312   2.144   3.009   3.755 -0.7321 -1.9379 -2.0337
 6892SOL    HW232313   2.053   3.013   3.643 -0.7925  0.3444  0.7819
 6893SOL     OW32314   3.668   1.304   0.417 -0.5765  0.4689  0.8396
 6893SOL    HW132315   3.698   1.392   0.441  2.1629 -0.6081  1.3942
 6893SOL    HW232316   3.734   1.252   0.463 -0.2445  0.7967  0.7383
 6894SOL     OW32317   2.741   2.625  15.522 -0.2805  0.1059  0.3536
 6894SOL    HW132318   2.809   2.692  15.535 -0.4371  0.1362  1.0415
 6894SOL    HW232319   2.715   2.594  15.609 -1.0753 -0.2707 -0.0209
 6895SOL     OW32320   3.046   2.422   5.811 -0.0476 -0.2136  0.7340
 6895SOL    HW132321   2.968   2.452   5.859  0.3182  2.3384 -0.2299
 6895SOL    HW232322   3.005   2.412   5.725 -0.1576 -2.3857  1.0530
 6896SOL     OW32323   1.530   3.864   5.278 -0.2575 -0.1251  0.6233
 6896SOL    HW132324   1.529   3.878   5.184 -0.9365  0.0138  0.6521
 6896SOL    HW232325   1.622   3.872   5.304 -0.6657  0.1773  1.9975
 6897SOL     OW32326   0.725   0.791   5.819  0.1732 -0.0194  0.0802
 6897SOL    HW132327   0.715   0.881   5.850  2.5687  0.8869 -1.7772
 6897SOL    HW232328   0.792   0.793   5.751  1.3831 -1.0793  1.2351
 6898SOL     OW32329   3.151   1.304  12.096  0.3104 -0.1438  0.0642
 6898SOL    HW132330   3.227   1.266  12.053  0.3341 -1.2961  1.1346
 6898SOL    HW232331   3.084   1.272  12.035  1.9369 -0.5718 -1.4750
 6899SOL     OW32332   3.147   3.835  16.960 -0.3633 -0.0654  0.2898
 6899SOL    HW132333   3.230   3.866  16.923 -1.2418  0.3011 -1.3551
 6899SOL    HW232334   3.119   3.760  16.908  0.9434 -0.0689 -0.4168
 6900SOL     OW32335   2.947   1.018  17.126  0.2426  0.2561  0.2717
 6900SOL    HW132336   2.924   1.100  17.172 -2.1734 -0.4960  0.4164
 6900SOL    HW232337   2.980   1.048  17.042  2.1201 -0.4166  0.7759
 6901SOL     OW32338   4.363   1.863   2.134  0.7398 -0.0527  0.1408
 6901SOL    HW132339   4.396   1.952   2.145 -0.4026  0.6429 -2.0840
 6901SOL    HW232340   4.278   1.868   2.178  0.7115  1.6225 -0.1290
 6902SOL     OW32341   1.431   3.592  13.998  0.8575 -0.0280  0.0445
 6902SOL    HW132342   1.473   3.571  13.914  1.2114  0.2342  0.1529
 6902SOL    HW232343   1.337   3.577  13.989  0.9205 -0.1605 -0.4169
 6903SOL     OW32344   3.530   1.136   4.155  0.5045 -0.0927  0.1532
 6903SOL    HW132345   3.476   1.059   4.137 -1.5425  0.6880  2.8490
 6903SOL    HW232346   3.595   1.099   4.214  2.5879  2.1687 -0.7314
 6904SOL     OW32347   2.134   4.400   7.399  0.0362 -0.4403  0.0701
 6904SOL    HW132348   2.041   4.379   7.405  0.3236 -1.8648 -0.2431
 6904SOL    HW232349   2.173   4.315   7.378  0.0509 -0.9317  2.1044
 6905SOL     OW32350   4.469   3.628   8.097 -0.0542  0.1843 -0.4291
 6905SOL    HW132351   4.427   3.574   8.030 -1.8688  0.5470  0.4011
 6905SOL    HW232352   4.561   3.603   8.088  0.2708  0.2317  2.8691
 6906SOL     OW32353   0.015   4.688  11.466  0.0864 -0.1747 -0.1140
 6906SOL    HW132354   4.662   4.667  11.454  0.1882 -0.4384 -0.4547
 6906SOL    HW232355   0.028   0.018  11.530 -0.1388 -0.4671  0.2543
 6907SOL     OW32356   2.391   1.022   5.566 -0.0173 -0.0387  0.0187
 6907SOL    HW132357   2.329   0.962   5.524  1.2688 -1.2745 -0.1109
 6907SOL    HW232358   2.407   1.083   5.495  2.9929 -0.7388  0.0854
 6908SOL     OW32359   0.830   0.797   5.526 -0.2562 -0.0231 -0.1616
 6908SOL    HW132360   0.898   0.739   5.490  0.4398  0.5961  0.1531
 6908SOL    HW232361   0.872   0.879   5.501  1.8893 -1.4588 -1.3346
 6909SOL     OW32362   0.617   4.582   4.335  0.3572 -0.2750 -0.2974
 6909SOL    HW132363   0.681   4.651   4.317  0.7872 -1.1712 -2.1591
 6909SOL    HW232364   0.656   4.509   4.286  1.3182  0.1323 -0.1488
 6910SOL     OW32365   2.336   2.000   5.600  0.4268  0.7738  0.5646
 6910SOL    HW132366   2.380   1.916   5.615  2.0961  0.9871 -3.1438
 6910SOL    HW232367   2.258   1.986   5.654  0.4393 -1.3334  0.0358
 6911SOL     OW32368   3.253   0.217  17.267  0.0294  0.2404  0.1524
 6911SOL    HW132369   3.262   0.139  17.212  2.9364 -0.4719  1.6338
 6911SOL    HW232370   3.242   0.173  17.351 -0.8214  0.3234  0.0869
 6912SOL     OW32371   0.995   3.782   1.904 -0.1799  0.0657 -0.4478
 6912SOL    HW132372   1.080   3.747   1.878 -0.0107  0.8228 -0.9142
 6912SOL    HW232373   0.974   3.822   1.820  1.3978  0.3183 -0.7205
 6913SOL     OW32374   3.651   1.815   4.611  0.3377  0.0908  0.0021
 6913SOL    HW132375   3.703   1.833   4.689 -0.7776 -1.6265  1.1451
 6913SOL    HW232376   3.623   1.726   4.633 -1.0719  0.4743 -0.2056
 6914SOL     OW32377   2.097   0.642   2.701  0.1385  0.1574 -0.0301
 6914SOL    HW132378   2.168   0.702   2.678 -0.4746  2.0821  3.0754
 6914SOL    HW232379   2.016   0.665   2.655  0.3574 -0.0955 -0.5404
 6915SOL     OW32380   2.747   3.220   9.783 -0.5053 -0.1271 -0.5838
 6915SOL    HW132381   2.679   3.242   9.719 -0.2396  1.0311 -0.4669
 6915SOL    HW232382   2.718   3.135   9.818 -2.7041  0.4765 -0.9569
 6916SOL     OW32383   1.493   2.159  16.507 -0.0187  0.4396  0.3028
 6916SOL    HW132384   1.564   2.138  16.446 -1.5070 -0.3058 -1.1660
 6916SOL    HW232385   1.504   2.091  16.573 -0.5488 -0.0998 -0.1679
 6917SOL     OW32386   2.297   3.828   5.085 -0.1735 -0.2603 -0.1461
 6917SOL    HW132387   2.361   3.784   5.028  0.5447  0.3984  0.1523
 6917SOL    HW232388   2.233   3.758   5.083  1.2243 -1.4555 -2.8891
 6918SOL     OW32389   1.006   0.959  15.743  0.0502 -0.2682 -0.1998
 6918SOL    HW132390   1.009   0.940  15.836  2.3783  1.9860  0.1744
 6918SOL    HW232391   1.095   0.987  15.721 -1.2712  2.3311 -2.3235
 6919SOL     OW32392   2.248   1.647   6.772 -0.2678 -0.2012 -0.2895
 6919SOL    HW132393   2.223   1.596   6.695 -1.7446 -0.2498  0.2301
 6919SOL    HW232394   2.173   1.629   6.828  0.1786 -0.6200  0.1686
 6920SOL     OW32395   4.140   1.014   7.035 -0.0278 -0.5012  0.6680
 6920SOL    HW132396   4.186   1.098   7.029 -0.0643 -0.5234  0.0709
 6920SOL    HW232397   4.212   0.952   7.020  0.3930  0.5032 -1.4437
 6921SOL     OW32398   3.062   4.426   4.211  0.0742 -0.6679  0.3217
 6921SOL    HW132399   3.009   4.480   4.153  3.3699  1.5944 -0.5730
 6921SOL    HW232400   3.079   4.366   4.138 -0.6549  0.4272 -0.7473
 6922SOL     OW32401   3.065   0.677   2.911  0.0523  0.2528 -0.1351
 6922SOL    HW132402   3.051   0.717   2.825  1.2569  0.5527 -0.1892
 6922SOL    HW232403   3.002   0.605   2.909 -0.0610  0.4512 -2.9814
 6923SOL     OW32404   3.654   2.123   1.614 -0.0379  0.1161 -0.8216
 6923SOL    HW132405   3.567   2.119   1.653 -0.6852  1.9352 -2.1225
 6923SOL    HW232406   3.650   2.051   1.551  0.3806 -0.8068  0.2115
 6924SOL     OW32407   0.797   0.144   7.926 -0.1541  0.1244 -0.4938
 6924SOL    HW132408   0.773   0.236   7.939  2.0082  0.7724 -1.1335
 6924SOL    HW232409   0.828   0.130   7.837  1.5622 -0.7936  0.2419
 6925SOL     OW32410   3.733   4.714   2.554  0.1397  0.1417  0.2247
 6925SOL    HW132411   3.766   4.641   2.606 -1.9091 -2.0441 -1.5510
 6925SOL    HW232412   3.669   0.018   2.610 -1.9020 -0.0723 -1.9199
 6926SOL     OW32413   1.823   3.981   3.275  0.2836  0.2540  0.3212
 6926SOL    HW132414   1.859   3.972   3.363  2.3479  1.7557 -0.3619
 6926SOL    HW232415   1.782   4.067   3.283 -0.2281  0.0601 -0.1949
 6927SOL     OW32416   4.451   0.049   5.462  0.3144 -0.2062  0.6894
 6927SOL    HW132417   4.400   0.053   5.543 -0.4009  0.0362  0.2273
 6927SOL    HW232418   4.527   0.098   5.495 -0.2440  2.2154 -1.6751
 6928SOL     OW32419   1.977   2.034   7.379 -0.8515 -0.4821 -0.0457
 6928SOL    HW132420   2.054   2.056   7.431 -0.6251 -0.1370 -0.5234
 6928SOL    HW232421   1.982   2.105   7.315  3.2600  0.5178  1.3955
 6929SOL     OW32422   2.307   2.113   3.603  0.2622  0.0174  0.9214
 6929SOL    HW132423   2.224   2.085   3.564  0.0055  0.4217  1.1711
 6929SOL    HW232424   2.311   2.046   3.671 -0.8074 -1.3493 -0.3541
 6930SOL     OW32425   0.539   1.927   9.308 -0.1046  0.3342  0.0609
 6930SOL    HW132426   0.504   1.908   9.221  0.4815 -0.7673  0.0670
 6930SOL    HW232427   0.499   2.013   9.315 -2.0299 -0.5559  0.0926
 6931SOL     OW32428   2.292   0.416  11.890  1.1399 -0.6975  0.6221
 6931SOL    HW132429   2.210   0.393  11.933  0.4208  0.2668 -0.2012
 6931SOL    HW232430   2.262   0.493  11.840  2.3567 -0.0123  0.9549
 6932SOL     OW32431   3.506   0.171   7.111  0.0925 -0.2412 -0.7724
 6932SOL    HW132432   3.478   0.108   7.044 -0.1460 -0.9167 -0.0383
 6932SOL    HW232433   3.601   0.179   7.100  0.0724  0.0651 -0.7313
 6933SOL     OW32434   1.353   4.276  10.884 -0.2285  0.5826  0.2043
 6933SOL    HW132435   1.288   4.250  10.950 -1.2284  0.9302 -0.6453
 6933SOL    HW232436   1.401   4.341  10.934 -0.7392  0.5671  0.7211
 6934SOL     OW32437   2.370   3.830   5.389 -0.2238  0.2473 -0.6966
 6934SOL    HW132438   2.288   3.805   5.431  0.0667 -1.2388 -1.0054
 6934SOL    HW232439   2.335   3.875   5.313 -2.5363  1.1656  0.9342
 6935SOL     OW32440   2.258   3.758   3.260  0.1540 -0.8119  0.5954
 6935SOL    HW132441   2.324   3.819   3.228 -1.8829  1.0197 -0.1033
 6935SOL    HW232442   2.178   3.808   3.244  0.9930  0.6027  0.8911
 6936SOL     OW32443   2.176   2.862   8.836 -0.2762  0.1049 -0.0531
 6936SOL    HW132444   2.246   2.927   8.827 -1.0433  0.8416 -0.5858
 6936SOL    HW232445   2.174   2.851   8.931  0.2929  1.5101  0.1236
 6937SOL     OW32446   3.497   0.312   9.832  0.2503 -0.6306 -0.3002
 6937SOL    HW132447   3.483   0.243   9.767  0.3887 -1.4982  0.5984
 6937SOL    HW232448   3.465   0.271   9.912 -2.2858 -2.3341 -2.1963
 6938SOL     OW32449   2.337   2.242   8.769 -0.0281  0.1023 -0.3441
 6938SOL    HW132450   2.302   2.158   8.798  0.1667 -0.0440 -0.5271
 6938SOL    HW232451   2.296   2.306   8.826  0.2029 -0.6743  0.6942
 6939SOL     OW32452   0.555   4.144   5.094  0.2677 -0.7486 -0.0882
 6939SOL    HW132453   0.491   4.210   5.068  1.1190  0.0290 -0.2021
 6939SOL    HW232454   0.561   4.095   5.011 -0.3394 -1.0564  0.0531
 6940SOL     OW32455   1.305   2.730   5.429 -0.1888 -0.1810 -0.2804
 6940SOL    HW132456   1.246   2.782   5.482 -0.8516 -0.1346 -1.0634
 6940SOL    HW232457   1.262   2.728   5.343  0.7251  0.8469 -0.7680
 6941SOL     OW32458   0.796   1.244  16.889  0.7567  0.2843  0.4012
 6941SOL    HW132459   0.807   1.200  16.805 -1.3449  0.6331 -0.0754
 6941SOL    HW232460   0.881   1.234  16.932  1.0160 -1.2003 -0.4684
 6942SOL     OW32461   2.848   2.278   9.105  0.8804 -0.0733  0.0947
 6942SOL    HW132462   2.871   2.230   9.025 -1.6515 -2.1555  0.6261
 6942SOL    HW232463   2.762   2.238   9.121  0.4237  0.4088 -1.1565
 6943SOL     OW32464   1.125   2.012   7.935 -0.0123 -0.1604 -0.4537
 6943SOL    HW132465   1.043   2.029   7.981  0.9277  0.1005  1.1126
 6943SOL    HW232466   1.195   2.008   8.000  0.5900  0.1711 -1.0931
 6944SOL     OW32467   2.517   3.889   4.058  0.4249 -0.2907 -0.5779
 6944SOL    HW132468   2.449   3.951   4.029 -0.1429  0.0166  1.4514
 6944SOL    HW232469   2.490   3.883   4.149 -0.7139 -1.9846 -1.0320
 6945SOL     OW32470   4.023   1.364   7.738  0.2608 -0.0640  0.1617
 6945SOL    HW132471   3.974   1.407   7.668 -1.1811 -1.8876  0.0289
 6945SOL    HW232472   3.962   1.390   7.807  0.5399  1.5195 -0.1947
 6946SOL     OW32473   2.968   2.723   5.647 -0.4806  0.2639 -0.3478
 6946SOL    HW132474   2.987   2.646   5.593  0.8627  0.8605 -0.7173
 6946SOL    HW232475   3.053   2.763   5.664 -1.4103  1.7587  0.8386
 6947SOL     OW32476   3.371   1.810   0.769 -0.4048  0.1203 -0.2850
 6947SOL    HW132477   3.411   1.845   0.689  1.0153  1.3550  0.9700
 6947SOL    HW232478   3.282   1.793   0.737 -0.9453  0.4510  1.0437
 6948SOL     OW32479   3.694   2.854   2.601 -0.0523 -0.2460 -0.3581
 6948SOL    HW132480   3.719   2.888   2.687  0.3061  0.7165 -0.8443
 6948SOL    HW232481   3.782   2.834   2.568  0.4048 -1.7686  1.7394
 6949SOL     OW32482   1.941   4.435  12.832 -0.5239  0.3634  0.2969
 6949SOL    HW132483   1.946   4.402  12.742 -1.6018 -0.3834  0.5026
 6949SOL    HW232484   1.891   4.365  12.875 -1.5947  0.3165 -1.0046
 6950SOL     OW32485   4.142   0.354   3.842 -0.3155  0.4038 -1.3459
 6950SOL    HW132486   4.164   0.392   3.757 -1.4521  3.4937 -0.2288
 6950SOL    HW232487   4.070   0.410   3.870  1.1770  1.4347  0.3725
 6951SOL     OW32488   4.343   0.205   2.658 -0.4192  0.8465 -0.6641
 6951SOL    HW132489   4.419   0.193   2.715 -1.2764  1.2250  0.5627
 6951SOL    HW232490   4.364   0.288   2.614 -0.6088  0.9267 -0.6014
 6952SOL     OW32491   4.605   1.195   5.674 -0.6154  0.1673  0.1070
 6952SOL    HW132492   4.620   1.222   5.584  1.2756  2.8272  1.2334
 6952SOL    HW232493   4.520   1.235   5.692 -0.6806  0.0658  0.0219
 6953SOL     OW32494   1.978   0.798   7.793 -0.1754  0.3097 -0.4629
 6953SOL    HW132495   2.033   0.875   7.807  0.6665 -0.3901  0.0362
 6953SOL    HW232496   1.977   0.743   7.871 -1.1994  2.0319  0.7452
 6954SOL     OW32497   1.194   3.130   5.194 -0.0596 -0.1582 -0.0400
 6954SOL    HW132498   1.248   3.053   5.174  0.9078  0.9412 -1.5426
 6954SOL    HW232499   1.237   3.157   5.275  0.0916  0.7495 -0.4244
 6955SOL     OW32500   0.843   3.486   4.693 -0.3104 -0.3316 -0.3693
 6955SOL    HW132501   0.830   3.579   4.715  0.0763 -0.6181  1.0502
 6955SOL    HW232502   0.930   3.460   4.723  0.0279  1.5862  0.3311
 6956SOL     OW32503   0.803   1.106  16.664  0.0381  0.6567 -0.8133
 6956SOL    HW132504   0.716   1.067  16.665 -0.6025  2.0940 -0.8533
 6956SOL    HW232505   0.810   1.120  16.569  1.2398 -1.2493 -1.0148
 6957SOL     OW32506   1.438   0.349   5.843  0.3700  0.0761 -0.2321
 6957SOL    HW132507   1.453   0.277   5.905  1.5437 -0.1551 -0.7667
 6957SOL    HW232508   1.505   0.406   5.881 -0.5082  1.7367 -1.1983
 6958SOL     OW32509   0.896   0.381   1.923 -0.1945 -0.1780  0.3113
 6958SOL    HW132510   0.902   0.308   1.862  2.9987 -1.0026  1.6436
 6958SOL    HW232511   0.872   0.338   2.005 -2.2667  1.2310  0.4374
 6959SOL     OW32512   4.269   0.277  13.424  0.3784 -0.0269 -0.2295
 6959SOL    HW132513   4.294   0.214  13.356  0.1172  0.0904 -0.4338
 6959SOL    HW232514   4.208   0.229  13.480  1.2115  1.8781  2.3228
 6960SOL     OW32515   1.323   0.938  15.434 -0.4035  0.3091 -0.9532
 6960SOL    HW132516   1.283   0.991  15.503  1.1576  1.6348 -1.0605
 6960SOL    HW232517   1.258   0.929  15.364 -0.0371  0.1401 -1.2677
 6961SOL     OW32518   2.598   0.554   9.214  0.1179  0.0984 -0.3508
 6961SOL    HW132519   2.684   0.554   9.254 -0.3552  0.2396  0.6681
 6961SOL    HW232520   2.622   0.591   9.129  0.6825  1.9519  0.6350
 6962SOL     OW32521   3.548   2.383   5.879  0.4508  0.0663  0.1146
 6962SOL    HW132522   3.454   2.404   5.874  0.0443 -1.5658  0.7731
 6962SOL    HW232523   3.551   2.316   5.947 -0.8894 -0.1815 -0.0652
 6963SOL     OW32524   4.319   4.222   3.297 -0.3358  0.2164  0.1619
 6963SOL    HW132525   4.384   4.207   3.229  0.6055  0.9084  0.9132
 6963SOL    HW232526   4.355   4.173   3.371 -1.4376 -0.7162  0.0841
 6964SOL     OW32527   3.969   1.624   4.742 -1.2099 -0.2304  0.0229
 6964SOL    HW132528   3.992   1.685   4.672  3.5088 -1.9550  0.1170
 6964SOL    HW232529   3.895   1.679   4.769 -0.3884  0.3299  1.1177
 6965SOL     OW32530   0.034   2.621   9.692 -0.3232 -0.2391 -0.2558
 6965SOL    HW132531   0.108   2.615   9.752 -1.0384 -0.5570  0.5863
 6965SOL    HW232532   4.698   2.590   9.742 -0.3546 -2.4664 -1.6631
 6966SOL     OW32533   1.695   4.481   7.794  0.2833 -0.3031  0.4721
 6966SOL    HW132534   1.773   4.428   7.810  0.6704  0.2666  0.4671
 6966SOL    HW232535   1.632   4.410   7.803 -0.4437  0.7114  3.5916
 6967SOL     OW32536   3.152   0.191   8.596 -0.8007  0.4106  0.3253
 6967SOL    HW132537   3.233   0.143   8.578 -2.6655 -2.1473 -1.2943
 6967SOL    HW232538   3.150   0.190   8.692 -1.8536  1.2551  0.3084
 6968SOL     OW32539   3.044   1.903  10.186  0.7952 -0.0552 -0.3482
 6968SOL    HW132540   2.980   1.964  10.221  2.3991  1.3367  0.1416
 6968SOL    HW232541   3.028   1.917  10.093  1.1705 -1.9396 -0.6918
 6969SOL     OW32542   1.208   1.729   9.328  0.7669  0.4641 -0.4507
 6969SOL    HW132543   1.241   1.647   9.290  0.0472 -0.0078 -0.0501
 6969SOL    HW232544   1.210   1.792   9.256  2.1670  0.7548 -0.1505
 6970SOL     OW32545   1.766   3.887  11.199  0.2810 -0.1360 -0.1592
 6970SOL    HW132546   1.821   3.877  11.122  1.3812  0.5359  0.5324
 6970SOL    HW232547   1.694   3.929  11.152  1.4818  0.6683 -1.2801
 6971SOL     OW32548   4.347   0.383  10.803 -0.1909 -0.8565  0.2045
 6971SOL    HW132549   4.333   0.455  10.742 -0.8213 -1.9765 -0.9754
 6971SOL    HW232550   4.342   0.432  10.885 -0.8933 -1.1053  0.3163
 6972SOL     OW32551   4.232   3.153  14.618 -0.5730  0.1712  0.2476
 6972SOL    HW132552   4.198   3.234  14.579 -1.0930 -1.3760 -2.5042
 6972SOL    HW232553   4.266   3.177  14.705 -1.0466  0.3742  0.3824
 6973SOL     OW32554   4.299   1.473   9.503  0.0971 -0.4581  0.1563
 6973SOL    HW132555   4.326   1.436   9.419  2.3355  1.1061  0.1847
 6973SOL    HW232556   4.349   1.418   9.562  0.3089 -0.2299  0.1877
 6974SOL     OW32557   4.560   2.962   1.294 -0.5353  0.2472  0.3283
 6974SOL    HW132558   4.600   2.926   1.215 -2.2840  0.3022 -0.5577
 6974SOL    HW232559   4.594   3.051   1.288  1.1235 -0.5047 -1.6101
 6975SOL     OW32560   1.172   3.602  13.943  0.0717  0.0745 -0.0234
 6975SOL    HW132561   1.080   3.583  13.958 -0.1680  1.3828  0.1366
 6975SOL    HW232562   1.172   3.666  13.872 -0.5330  1.1266  0.9296
 6976SOL     OW32563   1.412   4.134  11.412  0.7471  0.0937  0.1344
 6976SOL    HW132564   1.402   4.219  11.457 -0.2954 -0.2088  0.4747
 6976SOL    HW232565   1.477   4.100  11.474  1.4889  0.4577 -0.4523
 6977SOL     OW32566   4.656   0.280   5.921 -0.3898  0.0416  0.1428
 6977SOL    HW132567   4.730   0.220   5.910  0.9365  1.6630  0.1096
 6977SOL    HW232568   4.582   0.229   5.889  1.0970 -2.6415  1.0160
 6978SOL     OW32569   2.865   1.905   2.427 -0.0360 -0.1602 -0.2184
 6978SOL    HW132570   2.875   1.987   2.475 -1.9790  0.3504 -0.6732
 6978SOL    HW232571   2.940   1.903   2.368  1.8711  2.0320  2.1361
 6979SOL     OW32572   3.224   3.143   0.675  0.1158 -0.2008  0.2196
 6979SOL    HW132573   3.295   3.101   0.628  1.2855  0.9149  0.9946
 6979SOL    HW232574   3.204   3.071   0.735  0.2026 -0.1008  0.3702
 6980SOL     OW32575   3.822   0.152   9.720  0.1740 -0.0823 -0.0405
 6980SOL    HW132576   3.856   0.090   9.784  1.1902  2.3161  1.7633
 6980SOL    HW232577   3.885   0.222   9.740 -0.4968  0.3788  0.4831
 6981SOL     OW32578   4.364   1.172  17.183  0.6107  0.0143  0.4349
 6981SOL    HW132579   4.375   1.132  17.097 -1.9083  1.3496 -0.4999
 6981SOL    HW232580   4.344   1.264  17.166 -0.8465 -0.7593 -1.9819
 6982SOL     OW32581   2.229   3.225   5.748  0.2050  0.3049 -0.2559
 6982SOL    HW132582   2.252   3.245   5.657  1.9347 -0.3923  0.0280
 6982SOL    HW232583   2.172   3.299   5.771 -1.3348 -0.7756 -0.6086
 6983SOL     OW32584   4.219   2.944   7.025 -0.6439  0.1953 -0.0473
 6983SOL    HW132585   4.215   2.860   6.978  1.5695  2.1044 -3.6893
 6983SOL    HW232586   4.223   2.902   7.111 -0.3675  1.0989  0.3724
 6984SOL     OW32587   0.042   4.467   6.334 -0.2439 -0.2687 -0.1683
 6984SOL    HW132588   0.081   4.553   6.328 -1.8240  0.3630 -1.4484
 6984SOL    HW232589   4.694   4.479   6.299  0.2688  0.0790 -1.3231
 6985SOL     OW32590   0.469   1.893  17.577  0.7974  0.1485 -0.4174
 6985SOL    HW132591   0.527   1.944  17.522 -0.1000  2.0655  0.4287
 6985SOL    HW232592   0.384   1.903  17.534  0.4287 -0.7934  0.0874
 6986SOL     OW32593   2.337   2.048   2.792 -0.4359  0.9827 -0.3951
 6986SOL    HW132594   2.343   2.100   2.712  0.9220 -0.0527 -0.9680
 6986SOL    HW232595   2.271   1.984   2.765  0.1068  0.4839 -0.5417
 6987SOL     OW32596   3.589   1.319   9.636  0.1448 -0.2772 -0.0065
 6987SOL    HW132597   3.570   1.411   9.619 -0.5918 -0.4342 -0.0081
 6987SOL    HW232598   3.509   1.273   9.663 -1.1382  3.4593  2.5084
 6988SOL     OW32599   3.870   1.659   4.041 -0.0339 -0.1397 -0.2350
 6988SOL    HW132600   3.800   1.664   3.975  1.3016  0.9290 -1.5718
 6988SOL    HW232601   3.951   1.649   3.991  2.1041  1.2940  2.9773
 6989SOL     OW32602   4.358   0.817   9.201  0.0221 -0.1151  0.0138
 6989SOL    HW132603   4.341   0.774   9.117 -0.3054 -0.3505  0.1992
 6989SOL    HW232604   4.311   0.759   9.261 -0.6660  0.6878  0.2461
 6990SOL     OW32605   2.845   1.891   9.741 -0.6666  0.6619 -0.0695
 6990SOL    HW132606   2.757   1.904   9.777 -0.2340 -0.6136  1.4970
 6990SOL    HW232607   2.834   1.887   9.646 -0.8176 -2.1481  0.0708
 6991SOL     OW32608   0.439   3.516   3.950  0.5084 -0.3834  0.1322
 6991SOL    HW132609   0.421   3.424   3.930  0.2591 -0.5156  0.9671
 6991SOL    HW232610   0.482   3.509   4.035 -0.6447 -3.6755  0.4462
 6992SOL     OW32611   1.668   1.485   6.423 -0.2108 -0.3184  0.0387
 6992SOL    HW132612   1.612   1.409   6.405 -1.1697  0.6814 -1.1818
 6992SOL    HW232613   1.601   1.553   6.428  0.3515  0.3810 -1.7152
 6993SOL     OW32614   2.183   1.389   3.156  0.5847 -0.0459 -0.1884
 6993SOL    HW132615   2.203   1.338   3.235 -3.2249  0.0602  0.8374
 6993SOL    HW232616   2.108   1.441   3.186  1.5786  1.8781 -1.0511
 6994SOL     OW32617   2.132   0.265   0.940 -0.1855  0.2749 -0.1660
 6994SOL    HW132618   2.162   0.349   0.975 -1.5271  1.5332 -2.0434
 6994SOL    HW232619   2.220   0.229   0.927  0.3117  0.3807  2.9660
 6995SOL     OW32620   2.758   1.341   3.045 -0.1552 -0.0228 -0.0772
 6995SOL    HW132621   2.790   1.429   3.028  2.2581 -1.0261 -0.8225
 6995SOL    HW232622   2.692   1.338   2.975 -0.0769  0.3758 -0.1692
 6996SOL     OW32623   1.753   3.759  15.721 -0.2871 -0.0865 -0.0183
 6996SOL    HW132624   1.683   3.773  15.658  0.4606 -0.7149 -0.9936
 6996SOL    HW232625   1.827   3.802  15.677 -0.7988 -0.3667 -1.1611
 6997SOL     OW32626   3.990   0.223  11.274  0.1424 -0.6173 -0.1525
 6997SOL    HW132627   3.916   0.161  11.274  0.8358 -1.4604 -2.3425
 6997SOL    HW232628   4.044   0.198  11.199  4.0384  0.8114  2.2099
 6998SOL     OW32629   1.471   0.588  10.415 -0.0720 -0.3874  0.2125
 6998SOL    HW132630   1.550   0.641  10.418 -0.5697  0.3660  0.1726
 6998SOL    HW232631   1.480   0.536  10.495 -0.3445 -0.1434  0.4058
 6999SOL     OW32632   3.899   0.132  13.735 -0.2691 -0.0017 -0.1234
 6999SOL    HW132633   3.822   0.076  13.739  0.1738 -0.6457 -0.6339
 6999SOL    HW232634   3.846   0.210  13.720  0.1062 -0.0774 -1.7719
 7000SOL     OW32635   3.686   1.783   3.318 -0.3400  0.2147 -0.3149
 7000SOL    HW132636   3.642   1.708   3.279 -0.2706 -0.5425  1.0736
 7000SOL    HW232637   3.781   1.769   3.314 -0.4684 -1.1298  1.3760
 7001SOL     OW32638   1.041   3.632   0.120  0.0785  0.4396  0.5279
 7001SOL    HW132639   0.946   3.626   0.111  0.2384 -2.8777  1.1198
 7001SOL    HW232640   1.053   3.727   0.121  0.2208  0.3858  3.0758
 7002SOL     OW32641   3.650   0.078   7.480 -0.3351  0.2174  0.0268
 7002SOL    HW132642   3.568   0.109   7.443 -1.0444  0.1277  1.5266
 7002SOL    HW232643   3.648   4.728   7.447  1.2569  1.3020 -3.0774
 7003SOL     OW32644   1.037   2.429  16.165 -0.1748  0.7759 -0.3856
 7003SOL    HW132645   1.053   2.402  16.256  2.7745  0.2883 -1.0290
 7003SOL    HW232646   1.076   2.363  16.108 -0.1846  1.3637 -1.0664
 7004SOL     OW32647   2.011   1.186   1.556  0.3145  0.6956 -0.3624
 7004SOL    HW132648   1.928   1.139   1.552 -0.2779  1.4471  2.4997
 7004SOL    HW232649   2.033   1.168   1.648  0.3706 -4.9248 -1.4775
 7005SOL     OW32650   2.861   1.145   8.784 -0.4310  0.2611  0.5154
 7005SOL    HW132651   2.951   1.119   8.769 -0.4572  0.8467 -0.6044
 7005SOL    HW232652   2.864   1.238   8.804  0.1551  1.1011 -3.6404
 7006SOL     OW32653   4.544   2.552   9.842 -0.4476 -0.0108  0.0131
 7006SOL    HW132654   4.578   2.492   9.908 -1.9391  0.4417  1.2087
 7006SOL    HW232655   4.521   2.628   9.896 -1.0640  1.2265 -2.0261
 7007SOL     OW32656   1.367   1.133   2.607 -0.1233 -0.0198 -1.4864
 7007SOL    HW132657   1.437   1.197   2.619  0.4459 -0.8340 -0.4510
 7007SOL    HW232658   1.394   1.057   2.658 -0.7353 -0.3330 -1.6266
 7008SOL     OW32659   2.983   1.575   5.983 -0.5145 -0.0803 -0.1750
 7008SOL    HW132660   2.999   1.583   5.889  0.6748 -0.5098 -0.0139
 7008SOL    HW232661   3.071   1.555   6.017 -0.5786 -1.1171 -0.6230
 7009SOL     OW32662   2.151   0.475   6.522  0.6209  0.4034  0.3798
 7009SOL    HW132663   2.080   0.411   6.529  0.5939  0.4705  0.7266
 7009SOL    HW232664   2.128   0.545   6.461  1.5844  1.0871  0.7973
 7010SOL     OW32665   2.035   4.357  16.541  0.1373  0.9056  0.3148
 7010SOL    HW132666   1.978   4.377  16.616 -0.4068  1.0595 -0.1347
 7010SOL    HW232667   1.994   4.411  16.473  1.4036 -0.4166 -1.4944
 7011SOL     OW32668   3.669   2.674   7.224 -0.5358  0.1857 -0.0911
 7011SOL    HW132669   3.737   2.735   7.195 -2.8244  2.9290  0.4134
 7011SOL    HW232670   3.717   2.596   7.254  0.4894  0.5315 -0.8324
 7012SOL     OW32671   1.668   1.851   7.057 -0.2063  0.1974 -0.5345
 7012SOL    HW132672   1.738   1.867   7.121 -0.7322  2.9915 -0.6491
 7012SOL    HW232673   1.586   1.862   7.104  0.1887 -0.6833  0.3482
 7013SOL     OW32674   0.421   0.304   6.991 -0.0249  0.3287  0.0119
 7013SOL    HW132675   0.508   0.263   6.986 -0.0477  0.0738  1.6659
 7013SOL    HW232676   0.390   0.305   7.081 -1.5192  1.4866 -0.5168
 7014SOL     OW32677   3.078   3.022   5.524  0.5603 -0.2018 -0.5526
 7014SOL    HW132678   3.113   3.054   5.441  0.3667  1.5304  0.0416
 7014SOL    HW232679   2.998   2.983   5.489 -0.2058  1.2466 -0.4367
 7015SOL     OW32680   4.126   3.888   2.302 -0.0073  0.0593 -0.7281
 7015SOL    HW132681   4.171   3.825   2.246 -0.7126 -0.8545 -0.2611
 7015SOL    HW232682   4.109   3.954   2.235  2.0288 -1.2255 -2.5260
 7016SOL     OW32683   0.206   1.003   4.464 -0.4750  0.1162  0.6846
 7016SOL    HW132684   0.193   1.059   4.541 -1.3753 -0.1302  0.7050
 7016SOL    HW232685   0.119   0.974   4.437 -0.1917  0.5699 -0.6906
 7017SOL     OW32686   4.118   0.159   8.485  0.3545 -0.5793  0.2064
 7017SOL    HW132687   4.195   0.215   8.471 -0.3666  0.2193 -0.6116
 7017SOL    HW232688   4.139   0.096   8.416  1.8918 -0.9819  1.0410
 7018SOL     OW32689   3.362   3.833   7.081  0.6560  0.2563 -0.1089
 7018SOL    HW132690   3.369   3.802   7.172 -1.1846 -2.1564 -0.7897
 7018SOL    HW232691   3.318   3.761   7.035  2.1311 -0.6356 -0.1108
 7019SOL     OW32692   3.716   3.844  17.687 -0.2410  0.3543 -0.0132
 7019SOL    HW132693   3.678   3.932  17.695 -1.5271 -0.3011  1.0337
 7019SOL    HW232694   3.729   3.835  17.592 -0.8150  0.2365 -0.0834
 7020SOL     OW32695   0.257   3.472  11.654 -0.1893 -0.0708  1.0014
 7020SOL    HW132696   0.302   3.497  11.573 -1.4511 -0.4458  0.1934
 7020SOL    HW232697   0.218   3.556  11.679  2.2794  1.5326 -0.4534
 7021SOL     OW32698   3.418   4.233   6.686  0.3117 -0.6569 -0.4106
 7021SOL    HW132699   3.427   4.140   6.704 -2.9298 -2.1120 -6.2887
 7021SOL    HW232700   3.497   4.284   6.703 -0.7957  0.5309  1.1923
 7022SOL     OW32701   4.370   1.688   5.811 -0.6858 -0.5439  0.2958
 7022SOL    HW132702   4.446   1.648   5.855  0.4370  2.7353  1.3812
 7022SOL    HW232703   4.409   1.729   5.734 -0.1963 -3.4094 -0.9851
 7023SOL     OW32704   4.473   2.072   3.955  0.1860 -0.0290  0.6690
 7023SOL    HW132705   4.450   2.163   3.934 -0.3295 -0.5611 -1.0430
 7023SOL    HW232706   4.567   2.067   3.941 -0.0345 -1.4023 -0.3403
 7024SOL     OW32707   3.189   2.795  15.139  0.3974 -0.1213 -0.9283
 7024SOL    HW132708   3.242   2.731  15.092  1.2468  1.2432 -1.8055
 7024SOL    HW232709   3.124   2.739  15.181  2.2526 -1.6756 -0.1075
 7025SOL     OW32710   1.801   1.563   3.640  0.0253 -0.4517 -0.5664
 7025SOL    HW132711   1.879   1.572   3.695 -0.6076 -2.8920  0.7590
 7025SOL    HW232712   1.762   1.483   3.676 -0.1833  0.2185  0.6847
 7026SOL     OW32713   3.743   1.543  12.091  0.3092 -0.4546 -0.0092
 7026SOL    HW132714   3.829   1.511  12.063  0.1328 -0.7852 -0.1768
 7026SOL    HW232715   3.721   1.465  12.143 -1.8038 -0.5169 -1.0051
 7027SOL     OW32716   4.448   2.383   4.385  0.0603 -0.8271  0.3769
 7027SOL    HW132717   4.464   2.476   4.403 -0.0148 -0.4497 -1.4984
 7027SOL    HW232718   4.479   2.339   4.464  0.8125 -0.5084  0.2648
 7028SOL     OW32719   3.019   3.033  13.984  0.3777 -0.2449  0.0279
 7028SOL    HW132720   3.061   3.096  14.041  0.8092  0.1867 -0.7673
 7028SOL    HW232721   3.055   2.958  14.031 -0.9213 -0.6153  0.4383
 7029SOL     OW32722   4.450   2.341   3.828  0.2322  0.6366 -0.3866
 7029SOL    HW132723   4.515   2.363   3.761  2.3221 -0.6881  1.2145
 7029SOL    HW232724   4.378   2.324   3.767 -0.7761 -1.6873  1.4574
 7030SOL     OW32725   0.140   0.724  16.060  0.3291  0.9796  0.2122
 7030SOL    HW132726   0.191   0.788  16.010  1.4792 -0.6181 -0.6779
 7030SOL    HW232727   0.183   0.640  16.047 -0.3926  0.4335  1.4154
 7031SOL     OW32728   3.530   2.878  10.882  1.0829  0.2536 -0.1894
 7031SOL    HW132729   3.572   2.888  10.967  0.8804  1.0867 -0.1880
 7031SOL    HW232730   3.503   2.787  10.894  1.1827 -0.0530 -2.1516
 7032SOL     OW32731   3.314   3.512   6.463  0.4337 -0.2182  0.4407
 7032SOL    HW132732   3.287   3.596   6.499  0.4610  1.3580 -3.1743
 7032SOL    HW232733   3.407   3.523   6.443 -0.5118  2.1945 -2.6469
 7033SOL     OW32734   1.922   4.674   1.470  0.1546  0.3112 -0.0464
 7033SOL    HW132735   1.883   4.724   1.399 -0.9694 -1.7917 -0.9219
 7033SOL    HW232736   1.915   4.592   1.420  0.2786  0.5976 -0.5297
 7034SOL     OW32737   4.454   2.556   2.839  0.5076  0.3475  0.3709
 7034SOL    HW132738   4.397   2.630   2.817 -1.2411 -0.7453  1.1794
 7034SOL    HW232739   4.444   2.564   2.934  0.4889  0.6944  0.3388
 7035SOL     OW32740   3.393   1.081   4.920 -0.2702  0.0759 -0.2787
 7035SOL    HW132741   3.465   1.108   4.976 -0.6322 -0.1368  0.2859
 7035SOL    HW232742   3.397   0.985   4.926  1.4807  0.2290  1.0253
 7036SOL     OW32743   0.920   3.241  16.816  0.3931  0.0940  0.2130
 7036SOL    HW132744   0.874   3.299  16.876  0.3633  0.4840 -0.1830
 7036SOL    HW232745   0.849   3.218  16.756  0.5678 -1.3536  0.5595
 7037SOL     OW32746   3.799   0.412   6.788  0.3138  0.4048  0.0516
 7037SOL    HW132747   3.779   0.462   6.867  2.3838  0.4796  0.5378
 7037SOL    HW232748   3.840   0.340   6.836 -1.4744 -0.1043  0.7880
 7038SOL     OW32749   2.075   1.805   4.326  0.1319 -0.3260 -0.2485
 7038SOL    HW132750   2.134   1.781   4.254 -0.7595 -1.1836 -0.6912
 7038SOL    HW232751   1.997   1.759   4.296 -3.1490  2.9017  3.3828
 7039SOL     OW32752   4.129   3.178   2.675  0.1327 -0.2684 -0.2396
 7039SOL    HW132753   4.181   3.198   2.753  1.1593  1.9107 -1.4907
 7039SOL    HW232754   4.069   3.115   2.715 -0.7552  0.3277 -0.6234
 7040SOL     OW32755   2.834   2.150   7.187 -0.3826 -0.3722  0.1168
 7040SOL    HW132756   2.877   2.219   7.237 -0.9549  1.5375 -2.0324
 7040SOL    HW232757   2.740   2.170   7.192 -0.4661 -0.5673 -0.6016
 7041SOL     OW32758   1.974   0.136  15.941 -0.1979  0.2957  0.0990
 7041SOL    HW132759   1.909   0.090  15.993 -1.8381  0.0719 -2.1583
 7041SOL    HW232760   1.938   0.122  15.854  0.2025  1.5856 -0.2726
 7042SOL     OW32761   3.446   0.098   5.218  0.3314  0.0971 -0.0505
 7042SOL    HW132762   3.484   0.066   5.300 -0.8852 -0.5971  0.2249
 7042SOL    HW232763   3.489   0.041   5.154  0.0836 -1.5187  1.2420
 7043SOL     OW32764   4.279   2.324   3.587  0.3805 -0.1573 -0.7468
 7043SOL    HW132765   4.186   2.346   3.591 -0.5880 -4.6795  1.7120
 7043SOL    HW232766   4.289   2.241   3.540 -0.2092  0.2406 -1.5762
 7044SOL     OW32767   1.845   4.239   9.382  0.1506  0.2904 -0.0569
 7044SOL    HW132768   1.927   4.215   9.425  0.3110 -1.0843 -1.1365
 7044SOL    HW232769   1.885   4.316   9.340  0.2207 -1.2788 -2.8377
 7045SOL     OW32770   1.865   4.389   3.620 -0.4595 -0.3887 -0.5682
 7045SOL    HW132771   1.836   4.458   3.560 -2.0896 -0.0562  0.6155
 7045SOL    HW232772   1.958   4.415   3.619 -0.9097  1.2328  0.0179
 7046SOL     OW32773   1.814   0.767   4.151 -0.6569  0.3498 -0.4052
 7046SOL    HW132774   1.903   0.800   4.165 -0.5221 -0.5648  0.8303
 7046SOL    HW232775   1.781   0.732   4.233  2.2830 -0.1629  0.5551
 7047SOL     OW32776   3.627   1.679   3.891  0.0734 -0.6204  0.0327
 7047SOL    HW132777   3.654   1.762   3.852 -1.7322 -1.1811 -2.4789
 7047SOL    HW232778   3.536   1.709   3.899  0.0087 -0.8959  0.3113
 7048SOL     OW32779   3.950   2.367  11.857  0.0371 -0.1182 -0.3905
 7048SOL    HW132780   3.966   2.300  11.790 -0.2427 -4.3751  3.8553
 7048SOL    HW232781   3.933   2.440  11.798 -0.5938  0.0371 -0.0131
 7049SOL     OW32782   3.831   1.628  11.778 -0.5253 -0.3794  0.0109
 7049SOL    HW132783   3.880   1.567  11.833  1.1816  2.0183  1.1830
 7049SOL    HW232784   3.853   1.708  11.826  2.8311 -2.1307  1.4384
 7050SOL     OW32785   1.506   1.578   7.283 -0.4513  0.1088  0.3456
 7050SOL    HW132786   1.498   1.581   7.187  2.5181 -1.7670  0.0390
 7050SOL    HW232787   1.595   1.546   7.300 -0.5468 -0.4215 -0.1216
 7051SOL     OW32788   0.247   0.343   7.219  0.2827 -0.4762  0.4756
 7051SOL    HW132789   0.262   0.373   7.308  0.7512  0.8101 -0.0361
 7051SOL    HW232790   0.215   0.253   7.231 -1.4892 -0.1084 -1.5371
 7052SOL     OW32791   0.759   3.849  13.734 -0.8352 -0.0825 -0.0660
 7052SOL    HW132792   0.787   3.814  13.649 -0.7213  0.5122 -0.2707
 7052SOL    HW232793   0.732   3.768  13.778  1.0738  0.7099  2.5674
 7053SOL     OW32794   0.104   3.485   4.614 -0.3495 -0.0058  0.4691
 7053SOL    HW132795   0.199   3.495   4.609 -0.5092  1.2704 -0.1553
 7053SOL    HW232796   0.113   3.482   4.709  0.7353  1.7343  0.4362
 7054SOL     OW32797   4.193   1.824   9.173 -0.3789 -0.2558  0.1055
 7054SOL    HW132798   4.145   1.746   9.199 -1.2599  0.9939  2.2056
 7054SOL    HW232799   4.167   1.843   9.083  1.9963 -0.6141 -0.6631
 7055SOL     OW32800   1.707   0.410  12.189  0.1384 -0.4698 -0.2438
 7055SOL    HW132801   1.634   0.366  12.146 -1.0297  0.0395  1.2167
 7055SOL    HW232802   1.754   0.436  12.110 -0.0433  0.2461 -0.1198
 7056SOL     OW32803   0.916   0.307   2.792 -0.6118  0.7933  0.0517
 7056SOL    HW132804   0.844   0.368   2.777 -1.5422 -0.1201  0.8247
 7056SOL    HW232805   0.927   0.317   2.886 -0.1207  1.3488 -0.0656
 7057SOL     OW32806   3.659   2.175   8.511  0.1510  0.0192 -0.3447
 7057SOL    HW132807   3.651   2.163   8.606  0.5717  1.9036 -0.0667
 7057SOL    HW232808   3.612   2.098   8.479 -0.8922  1.1856 -1.6488
 7058SOL     OW32809   4.640   2.828  17.571  0.0737 -0.1913 -0.2536
 7058SOL    HW132810   4.722   2.842  17.618 -0.3197  1.4127 -0.0306
 7058SOL    HW232811   4.678   2.803  17.487 -0.5267 -1.3803 -0.1705
 7059SOL     OW32812   2.925   3.440   8.447 -0.5284  0.2420 -0.2473
 7059SOL    HW132813   2.873   3.503   8.497  1.3362  0.4011  1.4759
 7059SOL    HW232814   2.927   3.366   8.507  1.0188  1.5449  1.2910
 7060SOL     OW32815   3.666   0.420   0.930 -0.0972  0.0359 -0.3904
 7060SOL    HW132816   3.642   0.495   0.983 -0.0421 -0.6811  0.6407
 7060SOL    HW232817   3.581   0.421   0.886 -0.1289  0.4762 -0.3152
 7061SOL     OW32818   3.701   3.544   1.754 -0.5938  0.0328 -0.0641
 7061SOL    HW132819   3.731   3.460   1.721 -0.0465  1.0356 -2.1389
 7061SOL    HW232820   3.701   3.591   1.670 -0.0548 -0.3757 -0.2876
 7062SOL     OW32821   4.550   3.135   2.090 -0.3669 -0.2965  0.4970
 7062SOL    HW132822   4.554   3.043   2.064 -1.2242 -0.0871 -0.3344
 7062SOL    HW232823   4.464   3.137   2.132  0.0060  0.4799  1.2152
 7063SOL     OW32824   3.666   1.236  16.335 -0.6226 -0.4381 -0.1749
 7063SOL    HW132825   3.665   1.290  16.256 -0.8743  0.4732  0.4515
 7063SOL    HW232826   3.716   1.289  16.397 -0.7545  1.1427 -1.4107
 7064SOL     OW32827   0.859   1.833   9.539  0.4082  1.0776  0.1733
 7064SOL    HW132828   0.770   1.803   9.559  0.8371 -0.9082 -0.8980
 7064SOL    HW232829   0.844   1.904   9.477  0.8376  1.4066  0.4467
 7065SOL     OW32830   3.648   4.445  13.365  0.1610 -0.1704  0.1173
 7065SOL    HW132831   3.729   4.399  13.386  0.2613 -0.9003 -1.8633
 7065SOL    HW232832   3.646   4.440  13.269 -1.2700  2.3623  0.0079
 7066SOL     OW32833   2.874   0.284   2.623 -0.2584  0.1543  0.0191
 7066SOL    HW132834   2.911   0.214   2.677 -0.6883 -0.4931 -0.5268
 7066SOL    HW232835   2.802   0.247   2.572 -0.8722  1.1139  0.1823
 7067SOL     OW32836   1.403   4.431   3.556 -0.0965  0.5359 -0.3578
 7067SOL    HW132837   1.338   4.394   3.616  0.1331 -0.7938 -0.9325
 7067SOL    HW232838   1.348   4.455   3.481  3.5766 -0.8632 -3.4864
 7068SOL     OW32839   1.645   1.188  11.291  0.1604 -0.4253  0.2154
 7068SOL    HW132840   1.722   1.174  11.347  0.4033  0.8491  0.1980
 7068SOL    HW232841   1.682   1.258  11.238  0.7148 -0.0094  1.1482
 7069SOL     OW32842   3.694   3.002   1.584 -0.0188 -0.9352 -0.1606
 7069SOL    HW132843   3.723   2.917   1.618  3.0233 -0.4829 -1.6338
 7069SOL    HW232844   3.621   2.984   1.525 -0.0656 -0.0511 -0.3755
 7070SOL     OW32845   0.917   1.450  10.255  0.0519 -0.4641 -0.3837
 7070SOL    HW132846   0.908   1.532  10.208  1.6528  1.0724  2.0122
 7070SOL    HW232847   1.011   1.434  10.254 -0.2793 -2.4965  0.7813
 7071SOL     OW32848   2.818   0.147   4.433  0.1522  0.3343 -0.1365
 7071SOL    HW132849   2.838   0.195   4.513 -1.0398  1.3625 -0.4605
 7071SOL    HW232850   2.793   0.219   4.375 -2.4753 -1.0453 -0.7067
 7072SOL     OW32851   1.213   1.749   7.024 -0.3721 -0.0332  0.3281
 7072SOL    HW132852   1.207   1.667   7.073  0.0378 -0.2371  0.0385
 7072SOL    HW232853   1.170   1.717   6.945 -0.8869 -0.7864  0.9215
 7073SOL     OW32854   2.226   0.191   5.179  0.2745 -0.5072 -0.5026
 7073SOL    HW132855   2.199   0.100   5.173 -0.5090 -0.3132  0.1070
 7073SOL    HW232856   2.303   0.190   5.123 -0.7772 -1.5284 -1.9312
 7074SOL     OW32857   4.502   2.730   3.335  0.1585  0.0080  0.0864
 7074SOL    HW132858   4.578   2.686   3.371  0.7833  1.4077  0.4630
 7074SOL    HW232859   4.538   2.819   3.335  0.0034  0.0707 -0.6858
 7075SOL     OW32860   2.702   2.538   9.589 -0.4915 -0.4002 -0.4685
 7075SOL    HW132861   2.672   2.533   9.680 -0.9989  0.9867 -0.5616
 7075SOL    HW232862   2.792   2.571   9.590 -0.2064 -1.1794 -0.1384
 7076SOL     OW32863   2.302   1.938   2.100 -0.5819  0.2333  0.0252
 7076SOL    HW132864   2.353   2.014   2.130 -0.3925 -0.3187  1.0982
 7076SOL    HW232865   2.263   1.984   2.025 -0.2023  1.5429  0.6145
 7077SOL     OW32866   2.679   1.552   1.985  0.0381 -0.3265 -0.3011
 7077SOL    HW132867   2.641   1.516   1.905 -0.1001 -0.6543 -0.0901
 7077SOL    HW232868   2.607   1.593   2.033  0.8508  0.8539 -0.0874
 7078SOL     OW32869   3.344   2.816   1.665 -0.0791  0.0091 -0.0281
 7078SOL    HW132870   3.330   2.727   1.634 -0.0920  0.2439 -0.7011
 7078SOL    HW232871   3.436   2.834   1.645 -0.0678 -0.4828 -0.4198
 7079SOL     OW32872   3.362   0.927   4.081 -0.4442 -0.4431 -0.4811
 7079SOL    HW132873   3.381   0.841   4.042  1.4671 -0.2247 -0.0310
 7079SOL    HW232874   3.301   0.966   4.018 -1.7235 -1.1786  0.3160
 7080SOL     OW32875   0.441   2.145   0.386  0.0546 -0.1494  0.6012
 7080SOL    HW132876   0.438   2.240   0.394  0.8095  0.0342 -1.4005
 7080SOL    HW232877   0.454   2.117   0.477  0.3598  0.9617  0.8987
 7081SOL     OW32878   2.326   0.749  17.437  0.4873 -0.0002  0.4440
 7081SOL    HW132879   2.333   0.778  17.346 -1.1862 -0.1464  0.2605
 7081SOL    HW232880   2.296   0.832  17.475 -0.5779 -0.2508  0.1449
 7082SOL     OW32881   3.721   3.598   3.015  0.1857 -0.0027  0.2423
 7082SOL    HW132882   3.731   3.530   3.082  2.5923 -0.1019 -0.2305
 7082SOL    HW232883   3.697   3.670   3.074 -1.7723  0.3609 -1.0190
 7083SOL     OW32884   3.622   3.542  13.693 -0.2791 -0.2242  0.0702
 7083SOL    HW132885   3.665   3.627  13.702  0.7490 -0.6198 -1.2199
 7083SOL    HW232886   3.695   3.489  13.723  1.1267  1.0112 -1.1542
 7084SOL     OW32887   3.691   4.377   5.018  0.5018 -0.2081 -0.1406
 7084SOL    HW132888   3.768   4.324   4.995  0.3593  0.2072 -1.5928
 7084SOL    HW232889   3.624   4.329   4.969  1.3453 -0.3918 -1.1268
 7085SOL     OW32890   4.613   3.548   2.071 -0.3817  0.4337  0.4773
 7085SOL    HW132891   4.695   3.556   2.120  0.2671 -1.4201 -0.3251
 7085SOL    HW232892   4.626   3.472   2.015 -1.9730  0.3716  0.2043
 7086SOL     OW32893   3.592   3.309   4.157 -0.6904 -0.3288  0.2234
 7086SOL    HW132894   3.534   3.351   4.093 -1.7986  0.8580  2.0224
 7086SOL    HW232895   3.593   3.360   4.238 -2.9051  1.3883 -0.8308
 7087SOL     OW32896   2.577   0.706  16.167 -0.0202 -0.1740  0.5427
 7087SOL    HW132897   2.481   0.699  16.165 -0.0042 -0.1443 -0.9433
 7087SOL    HW232898   2.589   0.686  16.259 -0.7306 -0.7479  0.5082
 7088SOL     OW32899   3.457   2.800   5.682 -0.0642  0.6704 -0.3627
 7088SOL    HW132900   3.469   2.773   5.591  4.2316 -1.5417  0.8811
 7088SOL    HW232901   3.540   2.781   5.725 -1.5564 -1.8462  1.3874
 7089SOL     OW32902   0.135   0.737   3.101 -0.4380 -0.2236 -0.0087
 7089SOL    HW132903   0.079   0.737   3.023  1.7444 -0.4166 -1.5624
 7089SOL    HW232904   0.217   0.770   3.064  0.4481 -2.7965 -0.3540
 7090SOL     OW32905   4.330   2.998   6.322  0.2344 -0.2456  0.5517
 7090SOL    HW132906   4.353   2.906   6.310  2.3535  0.0783  2.0447
 7090SOL    HW232907   4.380   3.046   6.256  1.2969 -0.1342  1.4417
 7091SOL     OW32908   2.165   1.860   2.730  0.4772  0.1952 -0.1102
 7091SOL    HW132909   2.166   1.764   2.727  2.7967  0.1317  2.2954
 7091SOL    HW232910   2.109   1.874   2.654 -1.3831  0.2739  1.2817
 7092SOL     OW32911   3.460   2.220   2.628 -0.2953 -0.4203 -0.0157
 7092SOL    HW132912   3.470   2.131   2.594  2.6394 -0.9422  2.2156
 7092SOL    HW232913   3.390   2.202   2.690 -1.8397  1.4506 -1.2336
 7093SOL     OW32914   0.392   3.946   2.134 -0.0769  0.2996 -0.6279
 7093SOL    HW132915   0.446   3.980   2.063 -1.1604  1.5402 -0.8530
 7093SOL    HW232916   0.301   3.959   2.108 -0.0551  3.2872  0.7615
 7094SOL     OW32917   1.892   4.675  10.284  0.3762  0.1161 -0.0831
 7094SOL    HW132918   1.881   4.709  10.372  0.2959  1.0773 -0.4630
 7094SOL    HW232919   1.933   4.589  10.294 -1.6982 -1.0385 -1.4301
 7095SOL     OW32920   1.852   1.179   4.697  0.1692 -0.2183 -0.2193
 7095SOL    HW132921   1.817   1.262   4.730  1.4312  0.0844  0.3362
 7095SOL    HW232922   1.771   1.128   4.696  1.3775 -2.1559  1.1252
 7096SOL     OW32923   1.350   1.329   5.693  0.5601  0.5274 -0.2418
 7096SOL    HW132924   1.305   1.256   5.650 -0.2878  0.4345  0.8135
 7096SOL    HW232925   1.369   1.389   5.621 -0.6515  1.4587  0.2217
 7097SOL     OW32926   3.177   3.994   0.662 -0.1083 -0.5116  0.2307
 7097SOL    HW132927   3.154   3.933   0.591  1.3541 -1.1007  0.2668
 7097SOL    HW232928   3.205   4.067   0.607  1.0301 -0.1094  1.3714
 7098SOL     OW32929   1.987   2.655  17.511  0.0335  0.1566 -0.1737
 7098SOL    HW132930   2.082   2.665  17.517  0.0341 -0.3946  0.8701
 7098SOL    HW232931   1.969   2.567  17.478 -0.6805 -0.1686  1.0676
 7099SOL     OW32932   3.760   1.172   2.426  0.7404 -0.2817 -0.1796
 7099SOL    HW132933   3.799   1.260   2.423  0.5592 -0.1535  1.1573
 7099SOL    HW232934   3.794   1.129   2.348 -1.6093  0.5751 -1.6673
 7100SOL     OW32935   4.291   4.728  17.668 -0.2214 -0.1067 -0.2668
 7100SOL    HW132936   4.291   4.644  17.622 -0.5276  0.0190 -0.4962
 7100SOL    HW232937   4.258   0.037  17.593 -1.9216 -0.4745  0.2343
 7101SOL     OW32938   3.876   2.378  15.575  0.0964  0.1316 -0.4114
 7101SOL    HW132939   3.782   2.361  15.585  0.3173 -1.3758 -1.0016
 7101SOL    HW232940   3.875   2.423  15.491  0.4957  2.4723  0.8309
 7102SOL     OW32941   3.776   2.385   2.182  0.1441 -0.9555 -0.0947
 7102SOL    HW132942   3.760   2.432   2.264 -0.3708 -1.5392  0.1443
 7102SOL    HW232943   3.870   2.367   2.184  0.3681  0.1702 -1.0592
 7103SOL     OW32944   4.436   0.001   6.950 -0.1032 -0.0603  0.3390
 7103SOL    HW132945   4.443   4.738   7.046  0.7877  2.0372  0.3360
 7103SOL    HW232946   4.480   4.660   6.927  1.6937  1.8391 -2.9437
 7104SOL     OW32947   0.769   4.252  15.366 -0.5114  0.2704  0.0370
 7104SOL    HW132948   0.786   4.206  15.448 -2.8848 -2.6040 -1.0783
 7104SOL    HW232949   0.816   4.335  15.376 -0.5858  0.1071  1.6494
 7105SOL     OW32950   4.073   1.168  16.740  0.1824  0.2239 -0.1451
 7105SOL    HW132951   4.151   1.161  16.796 -0.5668 -1.5079  0.6904
 7105SOL    HW232952   4.024   1.096  16.778 -0.0797 -0.1011 -1.0972
 7106SOL     OW32953   4.298   1.714   7.208 -0.0205 -0.3797  0.1319
 7106SOL    HW132954   4.265   1.686   7.293  0.1491  3.7531  1.5509
 7106SOL    HW232955   4.229   1.699   7.143 -2.1201  2.0140  1.8071
 7107SOL     OW32956   1.527   2.011   2.550  0.7192  0.1087  0.2639
 7107SOL    HW132957   1.528   2.023   2.455 -0.0827  2.3279  0.5492
 7107SOL    HW232958   1.520   2.102   2.578  1.3483  0.3780 -0.4597
 7108SOL     OW32959   3.099   4.166   2.283  0.0677  0.0799  0.2300
 7108SOL    HW132960   3.163   4.234   2.304  0.2381 -0.2701  0.8386
 7108SOL    HW232961   3.140   4.092   2.328  0.9328  0.4080 -0.0184
 7109SOL     OW32962   2.499   3.179  16.805 -0.0181 -0.5011 -0.0720
 7109SOL    HW132963   2.569   3.192  16.741  1.7845 -1.7108  1.6287
 7109SOL    HW232964   2.529   3.240  16.873 -0.7989 -0.8750  0.5969
 7110SOL     OW32965   3.556   1.210   4.583  0.5055  0.2007 -0.4144
 7110SOL    HW132966   3.569   1.280   4.519 -2.5713  1.1182 -0.0479
 7110SOL    HW232967   3.554   1.259   4.665 -1.0010  2.0343 -1.5631
 7111SOL     OW32968   3.878   2.169   6.196  0.3081  0.3321 -0.2674
 7111SOL    HW132969   3.922   2.106   6.140  1.2397  1.0716 -0.3708
 7111SOL    HW232970   3.892   2.127   6.281 -0.0110 -0.8010 -0.7922
 7112SOL     OW32971   4.228   4.547  12.546  0.7883 -0.0485  0.0895
 7112SOL    HW132972   4.279   4.487  12.600 -0.2366 -0.0522  1.0677
 7112SOL    HW232973   4.144   4.562  12.589  2.3918  0.6338  2.9601
 7113SOL     OW32974   0.030   1.908   2.892 -0.1074 -0.4026  0.0518
 7113SOL    HW132975   0.116   1.876   2.919  1.3550  1.4140 -2.4593
 7113SOL    HW232976   0.020   1.878   2.801 -0.1319 -1.0507  0.2722
 7114SOL     OW32977   2.721   3.732   8.157  0.5771  0.2152  0.6865
 7114SOL    HW132978   2.789   3.741   8.224  2.2303 -1.6710 -0.7522
 7114SOL    HW232979   2.730   3.811   8.103 -1.5147 -0.0246 -0.0421
 7115SOL     OW32980   2.162   1.185   6.919 -0.2868  0.3021  0.0867
 7115SOL    HW132981   2.144   1.256   6.980 -0.7710  0.1092  0.1706
 7115SOL    HW232982   2.123   1.110   6.964 -0.6242 -0.0455 -0.7925
 7116SOL     OW32983   4.702   3.935  13.455  0.0915  0.0221 -0.3833
 7116SOL    HW132984   0.046   3.897  13.481 -0.3546 -1.7586 -1.5429
 7116SOL    HW232985   4.647   3.858  13.467  0.2266 -0.0998 -0.5394
 7117SOL     OW32986   1.092   3.416   2.285 -0.2408  0.3132  0.2727
 7117SOL    HW132987   1.000   3.392   2.300 -0.7269  1.2835 -1.2164
 7117SOL    HW232988   1.106   3.390   2.194 -0.4367  1.2843 -0.0320
 7118SOL     OW32989   2.277   2.676  14.401 -0.6990 -0.5166  0.1495
 7118SOL    HW132990   2.303   2.703  14.313  0.1363  0.9920  0.8647
 7118SOL    HW232991   2.208   2.737  14.426 -1.4445 -1.5302  0.5744
 7119SOL     OW32992   1.677   2.330   1.991 -0.2808  0.5050 -0.5748
 7119SOL    HW132993   1.761   2.313   2.034 -1.3619  0.3152  1.4317
 7119SOL    HW232994   1.611   2.351   2.056  0.5587 -0.2790  0.5301
 7120SOL     OW32995   1.805   2.856  15.588  0.1458 -0.0086  0.3369
 7120SOL    HW132996   1.825   2.802  15.512 -0.3027  1.2883 -0.6865
 7120SOL    HW232997   1.731   2.907  15.554  1.0782  2.0517  1.3957
 7121SOL     OW32998   4.420   4.033   3.480  0.0437 -0.1107 -0.0542
 7121SOL    HW132999   4.455   4.024   3.569 -0.4550 -0.9408  0.0510
 7121SOL    HW233000   4.456   3.950   3.450 -2.3573 -0.3261 -2.2786
 7122SOL     OW33001   3.087   3.032  15.553  0.3324 -0.5753  0.0468
 7122SOL    HW133002   3.122   3.057  15.639  0.6322 -0.8333 -0.0026
 7122SOL    HW233003   3.173   3.022  15.512  0.7962  0.7183  0.7104
 7123SOL     OW33004   0.849   2.684  15.670 -0.0588 -0.1797  0.5310
 7123SOL    HW133005   0.816   2.723  15.589  1.1870 -1.5777 -0.6477
 7123SOL    HW233006   0.768   2.657  15.713  0.8470 -1.3332  1.5000
 7124SOL     OW33007   2.848   0.349   4.621  0.1793 -0.1224  0.2975
 7124SOL    HW133008   2.776   0.341   4.685 -1.2546  0.1905 -1.2780
 7124SOL    HW233009   2.875   0.438   4.645 -1.4798  0.5500 -0.2548
 7125SOL     OW33010   4.148   1.092  16.493  0.8317  0.7978  0.0830
 7125SOL    HW133011   4.151   1.171  16.548  1.5578  0.9266 -0.1496
 7125SOL    HW233012   4.149   1.035  16.570 -0.5394 -2.4941 -2.3263
 7126SOL     OW33013   1.976   3.014   9.142  0.3984 -0.8291  0.2654
 7126SOL    HW133014   1.983   3.035   9.049 -1.6185  0.4852  0.4046
 7126SOL    HW233015   2.057   3.054   9.173 -0.9109 -0.7460  3.6483
 7127SOL     OW33016   1.857   1.635   8.247  0.4026 -0.1293 -0.1463
 7127SOL    HW133017   1.838   1.694   8.175  1.4103 -0.6489 -0.8403
 7127SOL    HW233018   1.933   1.588   8.213 -0.0862 -1.4190  0.5366
 7128SOL     OW33019   0.345   3.575   1.913  0.6414  0.2247  0.5049
 7128SOL    HW133020   0.287   3.506   1.881  0.1086 -0.0526  2.0791
 7128SOL    HW233021   0.355   3.553   2.006 -2.7257  0.1836  0.8715
 7129SOL     OW33022   1.249   0.232   7.002 -0.5778  0.1453  0.2946
 7129SOL    HW133023   1.260   0.326   7.018  2.2961 -0.7178  3.4554
 7129SOL    HW233024   1.311   0.183   7.056 -0.9788  1.3026  1.8248
 7130SOL     OW33025   1.271   2.302  11.255 -0.7469 -0.0333 -0.6323
 7130SOL    HW133026   1.194   2.352  11.282  1.5309  2.7202  0.7428
 7130SOL    HW233027   1.268   2.290  11.160  1.5172  1.8139 -0.9310
 7131SOL     OW33028   3.619   3.944   7.761 -0.3069 -0.6430 -0.4210
 7131SOL    HW133029   3.675   3.868   7.777  0.7000  0.3892  0.8545
 7131SOL    HW233030   3.575   3.955   7.845  0.2881 -1.8927  0.0552
 7132SOL     OW33031   0.848   1.830   4.664  0.0037 -0.4088 -0.0823
 7132SOL    HW133032   0.847   1.746   4.709  1.7482  1.4941  3.4552
 7132SOL    HW233033   0.887   1.882   4.734  1.0549  0.0094 -0.9658
 7133SOL     OW33034   2.423   1.014   7.519 -0.1874 -0.1560 -0.1485
 7133SOL    HW133035   2.467   0.999   7.436 -1.5604 -1.5401 -0.6395
 7133SOL    HW233036   2.453   0.937   7.567  1.5786  0.8974  0.4229
 7134SOL     OW33037   2.984   2.562   3.137 -0.4581 -0.0095  0.1009
 7134SOL    HW133038   3.057   2.563   3.075 -1.1649  0.8091 -0.7094
 7134SOL    HW233039   2.966   2.468   3.134  0.7122 -0.2302 -0.2228
 7135SOL     OW33040   3.155   0.449   3.821 -0.2399 -0.3295 -0.5944
 7135SOL    HW133041   3.162   0.472   3.728 -1.7443 -0.3544 -0.7283
 7135SOL    HW233042   3.223   0.381   3.822  1.8590  1.8303  1.1758
 7136SOL     OW33043   2.176   4.522   4.262 -0.5738  0.6459  0.1755
 7136SOL    HW133044   2.116   4.451   4.285 -1.9547  1.9947  0.6679
 7136SOL    HW233045   2.264   4.484   4.270 -1.5479 -1.7033 -0.4112
 7137SOL     OW33046   0.252   0.595   7.073  0.1872 -0.0562  0.7156
 7137SOL    HW133047   0.241   0.514   7.122 -1.2757  0.1898  0.7945
 7137SOL    HW233048   0.185   0.654   7.105  0.3717  0.9206 -0.6667
 7138SOL     OW33049   4.265   4.599   7.915  0.6278 -0.0874  0.5201
 7138SOL    HW133050   4.179   4.574   7.949 -0.4107  1.4334 -0.9945
 7138SOL    HW233051   4.237   4.609   7.824  0.4944  0.1505  0.5892
 7139SOL     OW33052   4.448   0.543   9.450 -0.2574 -0.0828 -0.1584
 7139SOL    HW133053   4.439   0.636   9.474  1.1756  0.6058 -2.2561
 7139SOL    HW233054   4.537   0.521   9.477 -0.1990 -0.1643 -0.4130
 7140SOL     OW33055   1.877   4.003  16.783  0.0946 -0.4083 -0.1812
 7140SOL    HW133056   1.871   3.937  16.852  0.4683  0.9503  1.1458
 7140SOL    HW233057   1.932   4.059  16.838 -1.9849 -0.1271  1.6119
 7141SOL     OW33058   4.483   4.307  10.303  0.4698  0.2369 -0.0156
 7141SOL    HW133059   4.517   4.219  10.322 -0.0180  0.0744  0.0841
 7141SOL    HW233060   4.394   4.280  10.281  0.3969  0.7243 -0.3295
 7142SOL     OW33061   0.005   2.153  11.904  0.1746 -0.4530 -0.1832
 7142SOL    HW133062   4.735   2.144  11.809  1.7129  1.0738 -0.4880
 7142SOL    HW233063   0.061   2.079  11.926 -1.3035 -1.7350 -0.7124
 7143SOL     OW33064   4.713   0.199   1.197 -0.0200 -0.1699  0.1549
 7143SOL    HW133065   0.035   0.133   1.168  1.3999  0.9645  0.6332
 7143SOL    HW233066   4.648   0.137   1.232  1.5325 -1.2353  1.1270
 7144SOL     OW33067   0.510   0.461  16.488  0.0668 -0.5911  0.2376
 7144SOL    HW133068   0.488   0.467  16.581  1.3258  2.0357  0.3782
 7144SOL    HW233069   0.426   0.449  16.444 -1.5973  1.7182  2.7653
 7145SOL     OW33070   2.675   2.956   9.860  0.2375  0.2435 -0.4725
 7145SOL    HW133071   2.684   2.862   9.844  0.9829  0.4216 -1.1422
 7145SOL    HW233072   2.626   2.953   9.942 -1.9967  0.4092 -1.8010
 7146SOL     OW33073   4.060   3.893   4.575  0.1362  0.2446 -0.3470
 7146SOL    HW133074   4.025   3.842   4.502  1.2734  1.3283 -1.6585
 7146SOL    HW233075   3.994   3.962   4.575 -1.8820 -1.6819 -0.6402
 7147SOL     OW33076   2.050   0.075   9.798  0.2978  0.0871  0.6196
 7147SOL    HW133077   2.025   0.144   9.736  2.1505  0.9934  0.8749
 7147SOL    HW233078   2.073   0.125   9.876 -0.2255 -1.2211  1.6254
 7148SOL     OW33079   2.527   2.836  14.342  0.6499 -0.1850 -0.0332
 7148SOL    HW133080   2.596   2.842  14.408  0.5117 -0.8019  0.1699
 7148SOL    HW233081   2.479   2.758  14.373 -0.3654 -0.1083 -1.4113
 7149SOL     OW33082   4.677   3.499   1.369 -0.4163  0.1768 -0.1823
 7149SOL    HW133083   4.731   3.448   1.309  0.8597  1.0225  0.2408
 7149SOL    HW233084   4.712   3.471   1.454  0.9829  1.9433 -0.1597
 7150SOL     OW33085   4.145   3.091   8.992  0.4406  0.6438 -0.5735
 7150SOL    HW133086   4.234   3.076   9.024  0.1921  1.5739  0.5776
 7150SOL    HW233087   4.101   3.038   9.059 -0.2096  1.4233 -0.3794
 7151SOL     OW33088   4.588   2.419  17.681 -0.2190 -0.0369 -0.7199
 7151SOL    HW133089   4.580   2.341  17.736  1.0519  2.0019  2.3539
 7151SOL    HW233090   4.680   2.430  17.658 -0.5109  1.2930 -1.2641
 7152SOL     OW33091   2.074   2.723   6.483  0.0939 -0.2445 -0.1232
 7152SOL    HW133092   2.069   2.666   6.560 -0.9419  0.9447  0.6745
 7152SOL    HW233093   1.983   2.754   6.477  0.1915  0.3696  1.8500
 7153SOL     OW33094   2.765   3.322   8.175  0.2587 -0.7796 -0.0164
 7153SOL    HW133095   2.795   3.231   8.174 -2.0565 -1.5377  1.5661
 7153SOL    HW233096   2.709   3.324   8.252  0.4904  0.0160  0.1319
 7154SOL     OW33097   3.446   0.921   4.672  0.2739 -0.2960  0.5048
 7154SOL    HW133098   3.421   1.001   4.718  2.1601  0.0870  0.8532
 7154SOL    HW233099   3.535   0.942   4.643 -0.8200  0.1006 -2.6099
 7155SOL     OW33100   0.181   3.216   0.232 -0.0665 -0.2005 -0.7175
 7155SOL    HW133101   0.162   3.182   0.144  0.3098 -0.8724 -0.5428
 7155SOL    HW233102   0.117   3.287   0.233  0.1650  0.0031 -0.0633
 7156SOL     OW33103   2.581   1.476   1.725 -0.2441 -0.0996  0.1531
 7156SOL    HW133104   2.543   1.558   1.695  2.5625  1.6527  1.3265
 7156SOL    HW233105   2.511   1.423   1.763 -0.0579 -0.5066 -0.0638
 7157SOL     OW33106   0.791   1.996  17.111 -0.0404  0.0720  0.7693
 7157SOL    HW133107   0.809   1.921  17.055 -0.4508  0.4995  0.0705
 7157SOL    HW233108   0.874   2.017  17.154  0.5376  2.8459 -1.7151
 7158SOL     OW33109   4.211   4.638   5.727 -0.6188 -0.3533  0.5564
 7158SOL    HW133110   4.269   4.628   5.802 -1.0581 -1.2003  0.7886
 7158SOL    HW233111   4.206   4.733   5.725 -0.2285 -0.3903 -1.6645
 7159SOL     OW33112   4.363   3.189   3.607 -0.4936 -0.1961  0.2841
 7159SOL    HW133113   4.457   3.202   3.595 -0.5013  0.9939  1.5583
 7159SOL    HW233114   4.342   3.271   3.651 -2.3089 -0.1996 -0.5744
 7160SOL     OW33115   0.389   3.092  12.362 -0.6392 -0.5047 -0.3875
 7160SOL    HW133116   0.443   3.099  12.441 -0.5188  0.0873 -0.5209
 7160SOL    HW233117   0.437   3.141  12.296 -1.2064 -0.4967 -0.7886
 7161SOL     OW33118   2.545   2.782   5.946  0.6851 -0.3152 -0.6459
 7161SOL    HW133119   2.610   2.848   5.973 -0.0121  0.8585 -1.8540
 7161SOL    HW233120   2.574   2.776   5.855 -1.3887  3.5841 -1.5683
 7162SOL     OW33121   4.450   0.988   1.715  0.1324  0.1300  0.0494
 7162SOL    HW133122   4.469   1.070   1.670  0.0866  0.8281  1.2886
 7162SOL    HW233123   4.373   1.014   1.766  0.3732 -2.4113  1.7101
 7163SOL     OW33124   0.495   0.305   4.600  0.2933 -0.2661 -0.2318
 7163SOL    HW133125   0.476   0.290   4.693  1.1363 -2.9604 -0.4951
 7163SOL    HW233126   0.411   0.345   4.577 -0.7133 -1.7432  0.8878
 7164SOL     OW33127   1.159   3.058   0.692 -0.2752 -0.0223  0.2009
 7164SOL    HW133128   1.194   3.051   0.603  0.3439 -0.6499  0.4918
 7164SOL    HW233129   1.234   3.102   0.733  0.0385 -0.0859 -0.3012
 7165SOL     OW33130   0.230   2.497   1.544 -0.3677  0.0373 -0.5202
 7165SOL    HW133131   0.181   2.415   1.553 -0.9457  0.5313  0.8393
 7165SOL    HW233132   0.291   2.490   1.617 -0.4169  2.6133 -0.2473
 7166SOL     OW33133   1.299   2.319   8.316 -0.5020  0.5263 -0.1339
 7166SOL    HW133134   1.341   2.405   8.314  1.1400 -0.2577  0.9056
 7166SOL    HW233135   1.368   2.260   8.348 -0.0175  0.3560 -1.4776
 7167SOL     OW33136   0.415   3.545  11.988  1.1584  0.3245 -0.4781
 7167SOL    HW133137   0.399   3.639  11.980  1.0430  0.6307  3.3600
 7167SOL    HW233138   0.331   3.509  11.958  0.7512 -0.2878  1.3893
 7168SOL     OW33139   0.999   1.200  17.057 -0.1761  0.2821 -0.0911
 7168SOL    HW133140   1.017   1.109  17.082  0.4365  0.4944  0.2499
 7168SOL    HW233141   1.089   1.231  17.068 -0.6148  1.6488 -0.3898
 7169SOL     OW33142   1.827   0.863   4.519  0.4918 -0.2779 -0.1820
 7169SOL    HW133143   1.902   0.814   4.555  0.1597 -0.4908  0.2231
 7169SOL    HW233144   1.766   0.789   4.513 -0.0762  0.0997  0.8654
 7170SOL     OW33145   1.205   3.307   0.889 -0.4121  0.0595  0.0988
 7170SOL    HW133146   1.155   3.356   0.825 -1.0740 -2.0938 -1.0171
 7170SOL    HW233147   1.263   3.248   0.841  0.1907 -0.1453  1.0722
 7171SOL     OW33148   2.183   4.058   3.041  0.1497  0.0840 -0.3842
 7171SOL    HW133149   2.130   4.010   2.978  0.0871 -1.3551  0.7686
 7171SOL    HW233150   2.266   4.073   2.995 -0.8751  0.1373 -2.1841
 7172SOL     OW33151   0.735   1.095   8.886 -0.3714 -0.1187  0.4369
 7172SOL    HW133152   0.766   1.185   8.875  1.5965 -0.7975  0.5305
 7172SOL    HW233153   0.789   1.048   8.823 -2.7720 -2.3095 -0.0115
 7173SOL     OW33154   3.246   1.733   2.606 -0.4940  0.3585 -0.2631
 7173SOL    HW133155   3.267   1.825   2.623  1.4033 -0.2657  0.8917
 7173SOL    HW233156   3.300   1.731   2.527 -0.9163 -0.5541 -0.5245
 7174SOL     OW33157   3.712   4.256   3.212  0.6493 -0.4317 -0.6506
 7174SOL    HW133158   3.758   4.265   3.296  0.6227  0.5492 -0.7419
 7174SOL    HW233159   3.667   4.173   3.226 -0.0950  0.6531  3.4248
 7175SOL     OW33160   1.139   0.794  11.793 -0.2272 -0.0169 -0.5407
 7175SOL    HW133161   1.178   0.853  11.728 -0.4797  0.0806 -0.6033
 7175SOL    HW233162   1.079   0.849  11.844  0.4644  1.4858 -1.3382
 7176SOL     OW33163   1.088   1.709  13.429 -0.3304 -0.2446 -0.1587
 7176SOL    HW133164   1.148   1.711  13.503 -1.2485  0.9385  0.5504
 7176SOL    HW233165   1.014   1.654  13.454  1.3219 -1.7533  1.4184
 7177SOL     OW33166   1.241   3.510  17.714 -0.1413  0.1086 -0.3291
 7177SOL    HW133167   1.151   3.541  17.703  0.0423  1.3838  1.7333
 7177SOL    HW233168   1.295   3.585  17.689 -2.7756  1.8286 -0.8684
 7178SOL     OW33169   1.230   3.829   5.304 -0.1151 -0.3907  0.2464
 7178SOL    HW133170   1.190   3.912   5.329 -0.7284 -0.2416 -1.1953
 7178SOL    HW233171   1.319   3.861   5.288 -0.3128 -0.1440 -0.3779
 7179SOL     OW33172   0.497   4.663   3.510 -0.3333  0.0171 -0.2434
 7179SOL    HW133173   0.543   4.590   3.550 -3.1671 -1.7270 -0.1458
 7179SOL    HW233174   0.419   4.663   3.566 -0.1350 -0.9504  0.0310
 7180SOL     OW33175   3.937   2.004   6.432  0.2124 -0.6735  0.2230
 7180SOL    HW133176   3.857   1.986   6.481  0.0359  2.1391  0.9777
 7180SOL    HW233177   3.967   1.917   6.406  1.5405 -0.5591  1.3563
 7181SOL     OW33178   0.037   0.943   3.695 -0.5004  0.1215 -0.2177
 7181SOL    HW133179   0.052   0.889   3.617  1.2531 -0.8669  0.7978
 7181SOL    HW233180   0.070   0.878   3.757  1.9658  0.2320 -1.3745
 7182SOL     OW33181   1.239   2.899   7.006 -0.4571  0.1530  0.5818
 7182SOL    HW133182   1.182   2.836   7.050 -1.2775  0.6289  0.1996
 7182SOL    HW233183   1.188   2.931   6.932 -0.5594 -0.0475  0.5667
 7183SOL     OW33184   2.802   1.449   8.212  0.6806 -0.4698 -0.4170
 7183SOL    HW133185   2.831   1.419   8.126 -1.2772  1.2409 -1.6744
 7183SOL    HW233186   2.733   1.386   8.232 -0.4647  1.3445  1.4006
 7184SOL     OW33187   3.789   0.272  16.994  0.5769  0.4206 -0.3375
 7184SOL    HW133188   3.777   0.337  17.064  3.7428  0.3009  0.3162
 7184SOL    HW233189   3.702   0.233  16.986  1.8716 -1.6364 -4.3288
 7185SOL     OW33190   0.880   0.482   5.952 -0.6550 -0.1688  0.3150
 7185SOL    HW133191   0.965   0.495   5.995 -0.7131 -1.3578  0.7939
 7185SOL    HW233192   0.910   0.512   5.866  0.1653  0.9568  0.9998
 7186SOL     OW33193   2.181   3.823   1.716 -0.9051  0.6911 -0.4835
 7186SOL    HW133194   2.277   3.829   1.710 -0.7607  0.3668  1.7728
 7186SOL    HW233195   2.160   3.835   1.808  0.5951 -0.7463  0.0399
 7187SOL     OW33196   2.640   1.026   8.554  0.1364 -0.0642  0.1077
 7187SOL    HW133197   2.681   0.950   8.596 -0.0519  1.1858  2.5355
 7187SOL    HW233198   2.579   1.037   8.626 -0.1539 -1.2613  0.0486
 7188SOL     OW33199   3.488   0.837   7.943 -0.4134  0.5302  0.1691
 7188SOL    HW133200   3.566   0.891   7.927  0.2077 -0.5264 -0.3914
 7188SOL    HW233201   3.450   0.876   8.022  0.7113  2.0329 -0.0326
 7189SOL     OW33202   2.414   4.660   6.497 -0.7579  0.1766  0.5508
 7189SOL    HW133203   2.331   4.621   6.469  0.2848 -1.4665 -0.2625
 7189SOL    HW233204   2.401   4.654   6.591  0.4449 -2.1260  0.5856
 7190SOL     OW33205   1.040   2.726   6.868  0.5572 -0.3776 -0.0443
 7190SOL    HW133206   0.964   2.706   6.923 -0.6992  0.5689 -1.4315
 7190SOL    HW233207   0.990   2.767   6.797  3.1392 -1.1886 -2.3217
 7191SOL     OW33208   2.084   4.514   2.266 -0.5631 -0.5587  0.6598
 7191SOL    HW133209   2.015   4.576   2.244 -1.1749 -0.5815  2.5073
 7191SOL    HW233210   2.130   4.554   2.340 -1.1407  3.6330 -1.2518
 7192SOL     OW33211   4.061   2.992   6.353 -0.0654  0.3630  0.0975
 7192SOL    HW133212   4.154   3.002   6.334  0.1685  0.8990  1.5070
 7192SOL    HW233213   4.049   2.900   6.332  1.7357  0.3605 -0.9563
 7193SOL     OW33214   1.291   4.670   5.919 -0.0561 -0.6414 -0.0629
 7193SOL    HW133215   1.231   0.002   5.898 -0.1133 -0.8978 -0.7634
 7193SOL    HW233216   1.233   4.596   5.900  0.2995 -1.2631  1.2685
 7194SOL     OW33217   4.047   0.694  12.572  0.3818 -0.6706  0.6503
 7194SOL    HW133218   4.020   0.756  12.640  0.8910 -0.2514  0.4687
 7194SOL    HW233219   4.142   0.708  12.574  0.4521 -1.0371 -0.1185
 7195SOL     OW33220   2.242   4.487  15.707  0.5938 -0.2895  0.1446
 7195SOL    HW133221   2.176   4.445  15.653  1.9804 -1.8597 -0.3021
 7195SOL    HW233222   2.185   4.536  15.767 -1.9388  0.5344 -2.9502
 7196SOL     OW33223   4.023   3.381  12.783  0.1983 -0.1215 -0.1461
 7196SOL    HW133224   4.023   3.356  12.876  1.5468  3.0062  0.7182
 7196SOL    HW233225   4.112   3.357  12.757 -0.6922 -0.5989 -2.7145
 7197SOL     OW33226   0.618   0.268  11.226 -0.2163 -0.1544 -0.0674
 7197SOL    HW133227   0.552   0.244  11.292  0.2678  0.0341  0.4904
 7197SOL    HW233228   0.656   0.342  11.273  1.3541 -1.7077  1.1211
 7198SOL     OW33229   2.040   4.624   0.108 -0.1084 -0.5194  0.4465
 7198SOL    HW133230   2.031   4.542   0.155  2.5282  0.0331  1.8938
 7198SOL    HW233231   2.082   4.676   0.176  0.0749 -1.2138  0.8571
 7199SOL     OW33232   0.045   1.500  16.291 -0.7227 -0.3584 -0.3346
 7199SOL    HW133233   4.704   1.550  16.291  0.4382  1.5054 -2.5022
 7199SOL    HW233234   0.049   1.475  16.383 -0.6999 -1.5937 -0.6697
 7200SOL     OW33235   2.522   2.726   3.526  0.3970 -0.0854 -0.1213
 7200SOL    HW133236   2.448   2.667   3.510  0.4052 -0.2621  0.5064
 7200SOL    HW233237   2.524   2.742   3.620 -2.4156 -0.7146  0.0472
 7201SOL     OW33238   3.577   0.615   8.727 -0.5257 -0.0056 -0.4110
 7201SOL    HW133239   3.504   0.603   8.788 -0.1317  0.3448  0.1256
 7201SOL    HW233240   3.535   0.664   8.656 -0.9983 -1.2382 -0.9787
 7202SOL     OW33241   0.295   2.055   3.680  0.2845 -0.1251  0.0440
 7202SOL    HW133242   0.382   2.091   3.694 -0.4481  1.2122  1.1699
 7202SOL    HW233243   0.304   1.964   3.709  2.3880 -1.3554 -4.5327
 7203SOL     OW33244   2.705   1.746   4.965 -0.4686 -0.0520  0.2920
 7203SOL    HW133245   2.686   1.837   4.988 -2.6317 -0.3578 -0.2768
 7203SOL    HW233246   2.796   1.741   4.935 -0.4058  0.5155  0.3706
 7204SOL     OW33247   4.030   0.212   5.402 -0.0709  0.2239  0.3299
 7204SOL    HW133248   4.119   0.243   5.388 -0.8339  1.8860 -0.7993
 7204SOL    HW233249   4.016   0.186   5.311 -1.5916 -0.7695  0.8477
 7205SOL     OW33250   0.310   1.677   8.475  0.1158  0.6036 -0.7079
 7205SOL    HW133251   0.240   1.633   8.523  0.1282  1.7412  0.3631
 7205SOL    HW233252   0.294   1.643   8.386  0.6510  1.2163 -1.0363
 7206SOL     OW33253   0.729   1.412   6.554 -0.5434 -0.0885 -0.5775
 7206SOL    HW133254   0.804   1.470   6.570  0.1130 -0.5544 -1.8987
 7206SOL    HW233255   0.726   1.431   6.460 -1.3940 -0.4648 -0.6237
 7207SOL     OW33256   2.771   1.811   7.905 -0.0891 -1.1868  0.4592
 7207SOL    HW133257   2.851   1.851   7.939 -0.1899 -0.7329  0.1595
 7207SOL    HW233258   2.705   1.854   7.960  1.6457  2.6339 -0.4841
 7208SOL     OW33259   1.839   3.614  16.120 -1.1895 -0.4575 -0.6158
 7208SOL    HW133260   1.877   3.536  16.162  0.6158 -0.4811 -2.2778
 7208SOL    HW233261   1.813   3.657  16.201 -0.4124 -0.1849 -0.5056
 7209SOL     OW33262   2.210   1.191   4.665  0.6741 -0.3073 -0.3663
 7209SOL    HW133263   2.126   1.188   4.711  0.3684 -1.5699 -1.0252
 7209SOL    HW233264   2.176   1.168   4.579 -1.7445  1.3529  0.1464
 7210SOL     OW33265   4.015   1.225   3.121  0.1649 -0.1411  0.5105
 7210SOL    HW133266   3.950   1.288   3.153 -0.7882 -0.5417 -0.5976
 7210SOL    HW233267   3.997   1.225   3.026 -1.4190 -2.0563  0.8158
 7211SOL     OW33268   2.779   0.959   4.956  0.3299  0.5984 -0.5374
 7211SOL    HW133269   2.863   1.003   4.948 -0.3210  2.0105  0.3338
 7211SOL    HW233270   2.724   1.013   5.013 -0.0574 -0.0672 -0.2762
 7212SOL     OW33271   1.902   1.952   2.002  0.3063 -0.2481 -0.1291
 7212SOL    HW133272   1.961   1.898   2.054  1.2092  0.8668  0.0064
 7212SOL    HW233273   1.871   1.894   1.933  1.1703  0.9473 -1.5381
 7213SOL     OW33274   2.624   2.543   8.641  1.1784 -0.0026  0.4337
 7213SOL    HW133275   2.666   2.592   8.570 -2.7169  0.5373 -1.5152
 7213SOL    HW233276   2.634   2.451   8.618 -2.3743 -0.6719  1.5555
 7214SOL     OW33277   1.491   0.898   0.489 -0.3457  0.6458  0.0244
 7214SOL    HW133278   1.491   0.960   0.416 -0.1432  0.8178  0.1719
 7214SOL    HW233279   1.453   0.948   0.561 -0.2960 -0.6411  0.9487
 7215SOL     OW33280   3.299   0.252   1.992  0.3822 -0.1976  0.4712
 7215SOL    HW133281   3.341   0.337   1.984 -0.8118  0.0546 -3.3743
 7215SOL    HW233282   3.321   0.214   2.077  1.7748 -2.0248 -0.7055
 7216SOL     OW33283   0.530   3.032  15.865 -0.1254  0.1557 -0.3170
 7216SOL    HW133284   0.535   3.111  15.812 -0.1039 -0.0348 -0.5987
 7216SOL    HW233285   0.446   2.995  15.839 -0.2229  0.6086 -0.6511
 7217SOL     OW33286   0.877   0.144   8.363  0.6651  0.0883  0.0646
 7217SOL    HW133287   0.914   0.133   8.275 -1.4063  1.7989 -1.0231
 7217SOL    HW233288   0.783   0.126   8.358  1.0778 -1.8508 -0.9521
 7218SOL     OW33289   2.267   0.447   2.738  0.0790 -0.5117 -0.2925
 7218SOL    HW133290   2.336   0.509   2.712 -1.7600  1.5573 -0.2413
 7218SOL    HW233291   2.189   0.496   2.712 -1.3543 -2.4161  0.4222
 7219SOL     OW33292   3.037   0.853   2.118  0.2984  0.2623  0.0311
 7219SOL    HW133293   2.963   0.821   2.169 -0.7910 -1.5396 -2.6853
 7219SOL    HW233294   3.064   0.926   2.174  1.1117 -0.1088  0.1188
 7220SOL     OW33295   2.917   4.162   1.021 -0.2220  0.4532  0.3198
 7220SOL    HW133296   2.913   4.123   0.934  1.0776 -2.3299  1.5259
 7220SOL    HW233297   2.944   4.253   1.006  2.4607 -0.0983  1.8606
 7221SOL     OW33298   4.030   3.809   4.309  0.1188 -0.5978 -0.1409
 7221SOL    HW133299   3.996   3.769   4.228 -0.0479 -2.1839  0.7189
 7221SOL    HW233300   4.122   3.811   4.284 -0.0624  1.4813 -0.6532
 7222SOL     OW33301   0.677   0.343  17.654  0.3404  0.5189 -0.2661
 7222SOL    HW133302   0.587   0.311  17.646  0.1224  1.3662 -1.2146
 7222SOL    HW233303   0.737   0.269  17.649 -1.4361 -1.1992  3.9926
 7223SOL     OW33304   0.463   0.193  12.584  0.0939  0.0724  0.1825
 7223SOL    HW133305   0.544   0.229  12.620  1.4932 -3.4081  0.4639
 7223SOL    HW233306   0.440   0.142  12.661 -1.0048  1.5915  0.8701
 7224SOL     OW33307   3.785   3.006   2.266 -0.0244  0.6056  0.8324
 7224SOL    HW133308   3.726   3.015   2.191  2.3758 -0.0244 -1.1340
 7224SOL    HW233309   3.770   3.083   2.321  1.2579  0.0412  1.9799
 7225SOL     OW33310   4.565   0.819   6.942  0.6886 -0.3120 -0.6092
 7225SOL    HW133311   4.598   0.902   6.978  0.5344 -0.7003  0.4304
 7225SOL    HW233312   4.629   0.797   6.875  1.0320 -0.4992 -0.2217
 7226SOL     OW33313   4.671   0.665   4.547  0.6511 -0.0873  0.3569
 7226SOL    HW133314   0.026   0.680   4.548  0.3864  1.5202  1.0554
 7226SOL    HW233315   4.652   0.673   4.641  2.8245 -0.4675  0.8361
 7227SOL     OW33316   4.580   0.529   7.866  0.2753  0.1116 -0.2723
 7227SOL    HW133317   4.525   0.591   7.915  0.4776 -0.0369  0.1395
 7227SOL    HW233318   4.604   0.465   7.933  0.4482 -1.9906 -2.3569
 7228SOL     OW33319   4.068   0.769  16.040 -0.2691 -0.1705 -0.0438
 7228SOL    HW133320   4.152   0.749  16.080 -1.7144 -3.1220  1.5498
 7228SOL    HW233321   4.052   0.862  16.054  0.4341 -0.0032 -0.3511
 7229SOL     OW33322   4.356   2.592   1.207 -0.3137 -0.6218  0.0407
 7229SOL    HW133323   4.352   2.626   1.296  0.5268 -1.9952  0.6029
 7229SOL    HW233324   4.267   2.567   1.179  0.2833 -1.0076 -1.5122
 7230SOL     OW33325   2.866   1.423   8.841 -0.2084 -0.0433  0.1316
 7230SOL    HW133326   2.912   1.507   8.846 -0.7616  0.2344  0.5083
 7230SOL    HW233327   2.774   1.445   8.852 -0.6335 -0.8286 -1.8399
 7231SOL     OW33328   2.627   0.795   1.136 -0.4169  0.0034 -0.3154
 7231SOL    HW133329   2.628   0.888   1.160  2.0970 -0.1622  0.2066
 7231SOL    HW233330   2.634   0.820   1.044  0.7667 -0.9482 -0.4691
 7232SOL     OW33331   3.577   4.438  15.568  0.6903  0.8709 -0.5392
 7232SOL    HW133332   3.588   4.533  15.575 -4.7796  1.5285 -1.0504
 7232SOL    HW233333   3.667   4.405  15.567 -0.6231 -2.6379 -1.8163
 7233SOL     OW33334   0.278   2.108   5.962 -0.2259 -0.1213  0.0942
 7233SOL    HW133335   0.191   2.131   5.930 -1.4797 -3.0359  1.3735
 7233SOL    HW233336   0.323   2.066   5.889 -1.1071 -3.6379  1.5791
 7234SOL     OW33337   4.713   2.674   6.735 -0.2620 -0.0627 -0.0414
 7234SOL    HW133338   4.676   2.753   6.696  2.3546  1.3158  0.2572
 7234SOL    HW233339   0.042   2.707   6.793 -1.2233  2.5324 -0.3794
 7235SOL     OW33340   4.300   4.548   2.381 -0.2888  0.6380  0.4075
 7235SOL    HW133341   4.350   4.625   2.411 -0.7418  1.4756 -0.9556
 7235SOL    HW233342   4.255   4.576   2.302  1.1875  0.4291 -0.5153
 7236SOL     OW33343   3.334   2.058   8.566 -0.3249  0.3430 -0.0600
 7236SOL    HW133344   3.241   2.077   8.581  0.2024  0.3863  2.9880
 7236SOL    HW233345   3.374   2.015   8.641 -0.2261  1.5425  0.5605
 7237SOL     OW33346   4.046   2.668   2.779  0.5870 -0.1063 -0.4066
 7237SOL    HW133347   3.987   2.596   2.799  0.9102 -0.2450  0.0471
 7237SOL    HW233348   4.090   2.684   2.862  3.1138 -2.8977 -1.2005
 7238SOL     OW33349   3.523   1.996  17.737 -0.2015  0.0499  0.3880
 7238SOL    HW133350   3.520   2.081   0.023 -1.6403 -0.2216  0.8302
 7238SOL    HW233351   3.433   1.981  17.707  0.1349 -1.2065  0.0118
 7239SOL     OW33352   3.428   4.490   1.714 -0.0914 -0.6212  0.9461
 7239SOL    HW133353   3.413   4.503   1.808  1.3217 -0.3354  1.1296
 7239SOL    HW233354   3.363   4.423   1.691  0.6477 -1.1207  0.3090
 7240SOL     OW33355   4.137   1.812   2.716  0.6596 -0.5883  0.4834
 7240SOL    HW133356   4.112   1.738   2.771  2.7752 -1.3504  0.4033
 7240SOL    HW233357   4.230   1.811   2.739  0.2734 -2.6526  1.9431
 7241SOL     OW33358   0.506   2.006   2.833  0.4454 -0.4618  0.3578
 7241SOL    HW133359   0.557   2.039   2.759  1.8615 -0.2418  1.4344
 7241SOL    HW233360   0.429   2.062   2.833  0.0460 -1.0164  0.7125
 7242SOL     OW33361   0.157   1.878  11.856 -0.0435 -0.1854  0.2526
 7242SOL    HW133362   0.209   1.871  11.937 -0.7467  1.9763  0.8882
 7242SOL    HW233363   0.173   1.790  11.822 -1.6578 -0.2437 -0.3186
 7243SOL     OW33364   0.814   1.476   3.519 -0.4698  0.0798 -0.0097
 7243SOL    HW133365   0.873   1.551   3.527  1.2641 -1.3235  0.3280
 7243SOL    HW233366   0.868   1.424   3.460 -0.9304 -0.7289  0.2886
 7244SOL     OW33367   2.476   0.566   4.393  0.1071  0.2166 -0.1055
 7244SOL    HW133368   2.556   0.599   4.434  0.8762 -0.5029 -1.0307
 7244SOL    HW233369   2.506   0.556   4.302  1.3849 -1.9088  0.5445
 7245SOL     OW33370   3.588   2.137   2.884  0.0579 -0.2067 -0.6795
 7245SOL    HW133371   3.640   2.065   2.849  0.6815  0.4952 -1.1906
 7245SOL    HW233372   3.656   2.200   2.907  0.3766 -0.8087  0.0349
 7246SOL     OW33373   1.481   3.927  16.637 -0.2230  0.1428  0.0437
 7246SOL    HW133374   1.423   3.906  16.710 -0.0465  1.1397  0.4573
 7246SOL    HW233375   1.542   3.854  16.650 -0.4272 -0.2945 -1.3704
 7247SOL     OW33376   1.760   3.373   4.684 -0.3596 -0.1066  0.0486
 7247SOL    HW133377   1.717   3.425   4.752 -2.4501 -0.9491 -0.6633
 7247SOL    HW233378   1.747   3.283   4.713  1.8155  0.3641  2.4720
 7248SOL     OW33379   4.525   1.245  15.354  0.7358 -0.3465 -0.0706
 7248SOL    HW133380   4.616   1.217  15.359  0.3674 -1.3979  0.9092
 7248SOL    HW233381   4.518   1.309  15.284 -0.6131 -2.0083 -1.4515
 7249SOL     OW33382   4.424   0.764  12.371  0.3015  0.2412 -0.4172
 7249SOL    HW133383   4.410   0.691  12.431  0.6250 -0.7763 -1.5656
 7249SOL    HW233384   4.349   0.748  12.313  0.5841  2.0631 -1.2796
 7250SOL     OW33385   1.333   2.481  15.512  0.3228  0.1340  0.1791
 7250SOL    HW133386   1.407   2.456  15.567  0.1577 -1.0576 -0.1480
 7250SOL    HW233387   1.254   2.455  15.559 -0.4182 -0.6795 -1.4883
 7251SOL     OW33388   0.813   3.240   5.292  0.2266  0.1871  0.6787
 7251SOL    HW133389   0.855   3.245   5.378 -2.3560  0.5235  1.9226
 7251SOL    HW233390   0.719   3.241   5.309  0.2106 -0.4219  0.6381
 7252SOL     OW33391   1.834   4.587   9.823  0.2984 -0.6568  0.0970
 7252SOL    HW133392   1.873   4.666   9.786  2.2666 -1.2764  0.8759
 7252SOL    HW233393   1.781   4.616   9.897  2.3877  0.2599  1.2189
 7253SOL     OW33394   3.483   2.458   2.131  0.6269 -0.0711 -0.1413
 7253SOL    HW133395   3.434   2.437   2.211  0.7095  0.0554 -0.0577
 7253SOL    HW233396   3.561   2.407   2.151  0.6914  1.0147  2.2916
 7254SOL     OW33397   0.608   3.932  16.287  0.0075 -0.4059  0.3465
 7254SOL    HW133398   0.570   3.881  16.358  0.6029 -0.0367  0.9279
 7254SOL    HW233399   0.627   3.880  16.208  3.3187 -0.7445  1.3535
 7255SOL     OW33400   0.025   1.910   9.417  0.4317  0.1514 -0.4779
 7255SOL    HW133401   0.069   1.907   9.332  0.3576  2.2015 -0.5878
 7255SOL    HW233402   0.055   1.994   9.451  0.8101 -0.4879  0.7305
 7256SOL     OW33403   4.242   2.357   1.055 -0.0030 -0.1496  0.3877
 7256SOL    HW133404   4.189   2.288   1.095 -2.0513 -0.5322 -2.9479
 7256SOL    HW233405   4.179   2.427   1.040 -1.5024 -1.0566  2.4874
 7257SOL     OW33406   2.317   1.465   7.165  0.4589 -0.5071 -0.2116
 7257SOL    HW133407   2.370   1.396   7.207 -0.4876 -1.6070 -0.8227
 7257SOL    HW233408   2.385   1.492   7.104 -0.0732 -0.5685 -0.8297
 7258SOL     OW33409   4.237   3.076   5.918  0.3605 -0.2257 -0.2071
 7258SOL    HW133410   4.276   2.995   5.950 -2.5078 -1.3834  0.3542
 7258SOL    HW233411   4.155   3.056   5.873  0.8761  0.3001 -1.3996
 7259SOL     OW33412   1.100   4.249  11.349  1.3303  0.4331 -0.5226
 7259SOL    HW133413   1.053   4.193  11.411  1.4869  0.8956  0.0152
 7259SOL    HW233414   1.189   4.255  11.385  0.9376  2.9790  0.0221
 7260SOL     OW33415   0.372   2.750  17.543 -0.3872 -0.0216  0.5956
 7260SOL    HW133416   0.393   2.819  17.480  1.3229 -0.6003  0.5354
 7260SOL    HW233417   0.456   2.704  17.551  0.8584  2.1260 -0.2161
 7261SOL     OW33418   3.986   2.558   3.360  0.7407 -0.3608 -0.2468
 7261SOL    HW133419   3.983   2.637   3.415 -0.6868  0.0114 -0.8592
 7261SOL    HW233420   3.907   2.574   3.307  0.6126  1.8784  0.6143
 7262SOL     OW33421   2.551   4.572  12.076  0.0951 -0.1822  0.1970
 7262SOL    HW133422   2.477   4.520  12.048  0.0488 -0.2000  0.3503
 7262SOL    HW233423   2.533   4.559  12.169  0.1981 -0.4204  0.1834
 7263SOL     OW33424   0.083   1.593   7.345  0.0286  0.0782  0.1554
 7263SOL    HW133425   0.172   1.596   7.311  0.3149  1.9646  1.0540
 7263SOL    HW233426   0.060   1.512   7.300 -0.8544  0.1867  0.4064
 7264SOL     OW33427   1.649   2.442   2.839  0.3282  0.0579  0.0730
 7264SOL    HW133428   1.626   2.532   2.861  1.3541  0.5284 -0.7986
 7264SOL    HW233429   1.744   2.443   2.826 -0.0209  0.8724 -2.3732
 7265SOL     OW33430   3.944   0.027   7.913 -0.0304  0.2767  0.1023
 7265SOL    HW133431   3.923   4.709   7.840 -0.5382  1.0611 -0.3740
 7265SOL    HW233432   3.994   0.099   7.874 -0.2716  0.5160  0.2353
 7266SOL     OW33433   4.317   2.236   5.753 -0.3339  0.6315 -0.2359
 7266SOL    HW133434   4.394   2.211   5.702 -0.0958 -2.9923  1.8819
 7266SOL    HW233435   4.357   2.282   5.826 -0.7882  0.3924  0.1603
 7267SOL     OW33436   4.392   2.256   7.463  0.0791  0.5388  0.3862
 7267SOL    HW133437   4.322   2.233   7.401 -1.1054  1.5161  1.3527
 7267SOL    HW233438   4.345   2.323   7.513  0.7109  1.3775 -0.1329
 7268SOL     OW33439   4.457   2.247   6.828  0.4007 -0.4964 -0.3715
 7268SOL    HW133440   4.520   2.187   6.788  0.1079 -1.1522  0.1590
 7268SOL    HW233441   4.522   2.310   6.860 -1.2503  0.6383  0.7544
 7269SOL     OW33442   1.062   2.505   4.720 -0.4661  0.5575 -0.0364
 7269SOL    HW133443   1.065   2.494   4.625  2.6232  0.9012  0.0155
 7269SOL    HW233444   1.151   2.479   4.747  0.1599  1.5355 -1.1594
 7270SOL     OW33445   0.521   0.822   4.932  0.3984 -0.3537 -0.0176
 7270SOL    HW133446   0.575   0.838   5.009  0.8114  2.1533 -0.8237
 7270SOL    HW233447   0.517   0.727   4.917 -0.3175 -0.6498  2.1405
 7271SOL     OW33448   4.296   0.757   6.983  0.0454 -0.1994  0.1226
 7271SOL    HW133449   4.298   0.719   7.071 -1.2298 -0.6767 -0.0455
 7271SOL    HW233450   4.389   0.759   6.961  0.3762 -0.2012  1.5080
 7272SOL     OW33451   1.340   2.744   5.901 -0.0257  0.9528  0.5052
 7272SOL    HW133452   1.334   2.733   5.996 -0.0142  1.0977  0.5223
 7272SOL    HW233453   1.342   2.655   5.867 -2.5356 -0.0888  3.0240
 7273SOL     OW33454   4.617   4.137  14.381  0.0932 -0.4051  0.1835
 7273SOL    HW133455   4.570   4.142  14.298 -2.2423 -0.7424  1.4977
 7273SOL    HW233456   4.658   4.052  14.366  1.6394  0.7364 -2.1458
 7274SOL     OW33457   3.507   0.985   5.388  0.1995  0.0123  0.8552
 7274SOL    HW133458   3.493   0.896   5.419  1.1823 -1.0895 -1.8737
 7274SOL    HW233459   3.421   1.013   5.358  1.0897  1.9638  0.1104
 7275SOL     OW33460   0.186   0.118   9.968 -0.4154  0.1750  0.0033
 7275SOL    HW133461   0.262   0.082  10.013 -0.9051  0.5568  1.1339
 7275SOL    HW233462   0.188   0.207  10.003  0.9532 -0.5049  1.6226
 7276SOL     OW33463   4.271   1.227   7.016  0.3169 -0.0140  0.2467
 7276SOL    HW133464   4.309   1.275   6.942 -1.1156 -0.2859 -0.6602
 7276SOL    HW233465   4.337   1.240   7.085 -1.5669  0.4917  1.9393
 7277SOL     OW33466   4.372   1.560   4.128 -0.1886  0.1129  0.0764
 7277SOL    HW133467   4.392   1.593   4.041  0.2719  0.7958  0.4381
 7277SOL    HW233468   4.307   1.625   4.152 -0.6259 -0.0441 -0.6840
 7278SOL     OW33469   0.807   3.192  12.340 -0.0951  0.0638 -0.3478
 7278SOL    HW133470   0.882   3.209  12.283  1.8346 -1.6574  1.6940
 7278SOL    HW233471   0.741   3.245  12.294 -0.1755 -1.4019 -1.9183
 7279SOL     OW33472   2.292   4.194   7.375  0.2821  0.4253  0.2447
 7279SOL    HW133473   2.329   4.168   7.460 -1.1661 -0.4219  0.6186
 7279SOL    HW233474   2.290   4.109   7.331 -1.1313  0.7407 -0.2921
 7280SOL     OW33475   1.424   3.906   8.099 -0.3841 -0.7939 -0.0086
 7280SOL    HW133476   1.467   3.871   8.021  1.1250  3.1661 -0.9577
 7280SOL    HW233477   1.492   3.954   8.146 -1.8107  1.7692 -0.5530
 7281SOL     OW33478   4.479   2.391   7.799 -0.0751  0.1518  0.1431
 7281SOL    HW133479   4.421   2.334   7.748  0.7464  0.1591 -0.8013
 7281SOL    HW233480   4.418   2.442   7.852 -0.0968 -1.3554  1.5666
 7282SOL     OW33481   2.582   4.433   1.452 -0.0066 -0.1234  0.0012
 7282SOL    HW133482   2.582   4.357   1.511  1.6524 -2.0633 -2.4780
 7282SOL    HW233483   2.505   4.481   1.483  0.7364  1.5570 -0.7853
 7283SOL     OW33484   3.477   1.828   2.153  0.3572 -0.6202  0.0177
 7283SOL    HW133485   3.450   1.758   2.093 -2.5230 -0.7588  1.4952
 7283SOL    HW233486   3.438   1.907   2.117  0.6727 -0.0339  0.9662
 7284SOL     OW33487   4.656   0.171   7.362 -0.1708  0.6849  0.1656
 7284SOL    HW133488   0.003   0.134   7.375 -0.4169  0.9769  2.8098
 7284SOL    HW233489   4.609   0.093   7.334  1.9631 -0.6010  0.2034
 7285SOL     OW33490   2.076   3.894   1.968  0.1518  0.5364 -0.0928
 7285SOL    HW133491   2.086   3.984   1.936 -0.7515  0.5335 -0.3915
 7285SOL    HW233492   2.020   3.905   2.045  1.3916 -1.0252  1.0213
 7286SOL     OW33493   2.556   2.743   0.817  0.9141 -0.5784 -0.9921
 7286SOL    HW133494   2.557   2.719   0.910  0.4971 -1.7145 -1.2821
 7286SOL    HW233495   2.608   2.823   0.822  0.9620 -0.4744 -3.1074
 7287SOL     OW33496   2.358   4.182   5.906 -0.0671  0.5265 -0.7263
 7287SOL    HW133497   2.409   4.123   5.961 -0.1485  1.0848 -0.0501
 7287SOL    HW233498   2.319   4.131   5.835  0.5942 -0.6976 -0.2116
 7288SOL     OW33499   4.121   4.167   1.140  0.0144  0.3935 -0.4107
 7288SOL    HW133500   4.213   4.193   1.133  0.6306 -1.0487  2.2501
 7288SOL    HW233501   4.133   4.138   1.230 -0.4477  0.3522 -0.3644
 7289SOL     OW33502   0.399   1.166   1.035 -0.2047  0.0833  0.2666
 7289SOL    HW133503   0.377   1.099   1.100  2.2744  0.2540  1.2708
 7289SOL    HW233504   0.382   1.249   1.081 -0.5870  0.5044 -0.6319
 7290SOL     OW33505   3.770   0.604   6.988  0.1401  0.3128  0.5312
 7290SOL    HW133506   3.732   0.587   7.075 -0.5349 -1.0636 -0.0199
 7290SOL    HW233507   3.861   0.632   6.999  0.1801  0.4530 -0.1987
 7291SOL     OW33508   3.399   3.049   5.435  0.1175 -0.1563 -0.5201
 7291SOL    HW133509   3.410   2.954   5.425 -0.7348 -0.4620  1.5792
 7291SOL    HW233510   3.367   3.060   5.525 -1.3533 -1.0974 -0.9316
 7292SOL     OW33511   3.360   0.667   4.279 -0.1186  0.5533  0.3021
 7292SOL    HW133512   3.382   0.679   4.187 -0.8825  2.0030  0.3037
 7292SOL    HW233513   3.423   0.596   4.292 -1.7690 -0.9102  0.2031
 7293SOL     OW33514   3.821   0.808   5.311  0.1443  0.2863 -0.7697
 7293SOL    HW133515   3.892   0.824   5.374  0.3265 -1.7122 -0.4719
 7293SOL    HW233516   3.760   0.785   5.381  0.8559  2.3291  0.5461
 7294SOL     OW33517   4.298   1.232   8.041  0.4152  1.0850 -0.3323
 7294SOL    HW133518   4.261   1.319   8.058 -3.0388 -0.0966 -1.7264
 7294SOL    HW233519   4.265   1.228   7.952 -0.3876  1.5083 -0.0564
 7295SOL     OW33520   4.069   2.719   6.301 -0.2812 -0.4339  0.1870
 7295SOL    HW133521   4.079   2.624   6.302  0.1025 -0.3762  1.4953
 7295SOL    HW233522   3.987   2.727   6.350  0.1212 -2.8539  1.2261
 7296SOL     OW33523   2.207   1.369   9.103  0.1186  0.2573 -0.2502
 7296SOL    HW133524   2.173   1.301   9.162  1.7028  0.0644  0.4340
 7296SOL    HW233525   2.123   1.396   9.067 -0.0931  2.6838  2.1150
 7297SOL     OW33526   4.642   3.890   4.445 -0.8099  0.0051 -0.1760
 7297SOL    HW133527   4.623   3.981   4.469  0.1014  0.0162  0.4657
 7297SOL    HW233528   4.662   3.899   4.351 -0.0105 -1.0146 -0.0944
 7298SOL     OW33529   0.722   3.510   6.482 -0.0949  0.0877  0.2862
 7298SOL    HW133530   0.713   3.507   6.387  1.8258 -0.8950  0.1274
 7298SOL    HW233531   0.652   3.570   6.507 -0.3688 -0.7456  1.5051
 7299SOL     OW33532   0.234   4.674   2.957 -0.9791 -0.1267  0.9020
 7299SOL    HW133533   0.228   4.707   2.867  2.0409 -0.9657  0.3886
 7299SOL    HW233534   0.330   4.676   2.964 -0.8482  0.5894 -0.9314
 7300SOL     OW33535   1.408   1.726   4.954 -0.4744  0.3673 -0.0749
 7300SOL    HW133536   1.450   1.802   4.914  0.6113 -0.1905  0.0056
 7300SOL    HW233537   1.380   1.759   5.039 -0.1860  2.3121 -0.7354
 7301SOL     OW33538   1.075   3.290  15.683  0.1221  0.0993  0.0978
 7301SOL    HW133539   1.161   3.332  15.673  0.8716 -0.8638  2.4250
 7301SOL    HW233540   1.018   3.358  15.718 -0.6385 -1.0050  1.0155
 7302SOL     OW33541   3.913   2.178  14.173 -0.4633 -0.1037 -0.4688
 7302SOL    HW133542   3.893   2.187  14.080 -1.0093 -2.1574 -0.5622
 7302SOL    HW233543   3.859   2.106  14.205 -0.5312 -0.0294 -0.4158
 7303SOL     OW33544   3.171   0.846  16.953 -0.3247 -0.2141  0.1566
 7303SOL    HW133545   3.164   0.932  16.910  0.5993 -0.7824 -1.1030
 7303SOL    HW233546   3.107   0.853  17.024 -1.2167  3.8490 -1.0182
 7304SOL     OW33547   1.419   0.870   8.278 -0.3088 -0.3133  0.3675
 7304SOL    HW133548   1.454   0.790   8.316  0.9282 -0.7947 -1.8167
 7304SOL    HW233549   1.493   0.931   8.274  0.7896 -1.9183 -3.0959
 7305SOL     OW33550   0.300   4.121   9.289  0.4921 -0.1230 -0.3704
 7305SOL    HW133551   0.333   4.052   9.346  0.4063 -1.3389 -1.7656
 7305SOL    HW233552   0.369   4.186   9.295  0.8214 -0.5482  0.4569
 7306SOL     OW33553   3.077   0.121   0.862  0.2722  0.5000  0.3511
 7306SOL    HW133554   3.122   0.187   0.915 -0.4033  0.7436  0.6234
 7306SOL    HW233555   3.104   0.152   0.775 -1.9392  3.3938  0.7150
 7307SOL     OW33556   0.677   4.557  15.147  0.0173 -0.0813  0.0143
 7307SOL    HW133557   0.602   4.502  15.171 -0.7669  0.9964  0.0633
 7307SOL    HW233558   0.631   4.617  15.088 -0.3931 -0.2771  0.1343
 7308SOL     OW33559   0.246   0.661  11.559  0.5987 -0.3520  0.0563
 7308SOL    HW133560   0.165   0.614  11.540  0.0839  0.4377  0.3021
 7308SOL    HW233561   0.305   0.598  11.518 -1.7697 -1.6576 -1.3836
 7309SOL     OW33562   1.340   0.326   3.586  0.3763  0.5609 -0.6910
 7309SOL    HW133563   1.320   0.233   3.581 -0.2988  0.6174  1.1755
 7309SOL    HW233564   1.367   0.345   3.496  4.0977  0.8635  0.4913
 7310SOL     OW33565   3.517   4.561   4.390 -0.9802 -0.0178 -0.0075
 7310SOL    HW133566   3.455   4.516   4.447 -2.3543  0.4808 -1.1071
 7310SOL    HW233567   3.542   4.484   4.338 -0.2860  1.8995 -2.5505
 7311SOL     OW33568   3.430   4.226   0.853 -0.3237 -0.2573 -0.4810
 7311SOL    HW133569   3.391   4.216   0.940 -0.1593 -0.0653 -0.3856
 7311SOL    HW233570   3.524   4.222   0.871 -0.2485  0.9456 -0.5701
 7312SOL     OW33571   4.686   1.852   6.396 -0.3625 -0.1759  0.7225
 7312SOL    HW133572   4.633   1.907   6.339 -0.7400  0.3360  1.5557
 7312SOL    HW233573   0.035   1.869   6.367 -1.1340  1.7265 -0.4464
 7313SOL     OW33574   2.661   0.089   9.752  0.1004  0.3118  0.2054
 7313SOL    HW133575   2.710   0.162   9.714 -3.0748  2.2315 -0.2537
 7313SOL    HW233576   2.596   0.060   9.688  1.0095 -0.8147 -0.2107
 7314SOL     OW33577   0.319   2.267   6.830 -0.3530 -0.0727 -0.2042
 7314SOL    HW133578   0.291   2.176   6.832 -1.1787  0.1615 -0.8916
 7314SOL    HW233579   0.255   2.304   6.890  0.3482  0.7047  0.0635
 7315SOL     OW33580   0.449   2.677   4.473  0.1107  0.4877 -0.1028
 7315SOL    HW133581   0.505   2.604   4.498  0.0844  0.9852  1.3979
 7315SOL    HW233582   0.399   2.637   4.402 -1.6817  3.3304 -0.4229
 7316SOL     OW33583   3.585   2.077   0.423 -0.4766  0.0395  0.5337
 7316SOL    HW133584   3.521   2.110   0.487 -0.5098 -1.2919  1.1805
 7316SOL    HW233585   3.535   2.021   0.364 -0.2853  2.1278 -1.6156
 7317SOL     OW33586   4.199   3.993   6.470  0.0953  0.0727  0.2515
 7317SOL    HW133587   4.285   4.026   6.442 -1.3513  1.9079 -2.0003
 7317SOL    HW233588   4.211   3.982   6.565  1.4789 -0.0203  0.0731
 7318SOL     OW33589   0.809   0.218   5.326  0.2609 -0.7630 -0.2001
 7318SOL    HW133590   0.795   0.142   5.270 -3.6290 -1.1228  1.2308
 7318SOL    HW233591   0.754   0.207   5.404  1.0593  3.3165  0.9729
 7319SOL     OW33592   2.469   0.435   7.135  0.1392 -0.0057  0.4219
 7319SOL    HW133593   2.556   0.458   7.169  0.7707 -1.3835 -0.2650
 7319SOL    HW233594   2.431   0.422   7.222  2.4940 -1.0942  1.2859
 7320SOL     OW33595   0.591   3.830   4.875  0.2305  0.6863 -0.0959
 7320SOL    HW133596   0.495   3.831   4.872  0.1930  1.4979  1.1685
 7320SOL    HW233597   0.601   3.765   4.945  0.3354 -0.1140 -0.8676
 7321SOL     OW33598   0.203   2.901   2.820 -0.3470  0.8186 -0.8830
 7321SOL    HW133599   0.237   2.815   2.793 -1.2209 -0.3866  1.8247
 7321SOL    HW233600   0.169   2.882   2.908  2.5854 -0.9085 -0.1000
 7322SOL     OW33601   2.582   1.414   4.345 -0.1309  0.0024 -0.1105
 7322SOL    HW133602   2.495   1.452   4.357 -0.6295 -0.8361 -1.1015
 7322SOL    HW233603   2.624   1.443   4.426 -3.0516  1.4804  0.8917
 7323SOL     OW33604   2.457   0.440  15.886 -0.2498  0.0068  0.3539
 7323SOL    HW133605   2.447   0.532  15.859 -1.0069  0.4412  2.1092
 7323SOL    HW233606   2.378   0.401  15.850 -0.8532  1.5065  0.0275
 7324SOL     OW33607   0.198   3.427   8.851 -0.1878 -0.5014 -0.8530
 7324SOL    HW133608   0.190   3.351   8.908  0.9179  0.6406  0.8198
 7324SOL    HW233609   0.164   3.504   8.896  0.4592 -0.7255  0.0243
 7325SOL     OW33610   2.492   2.497   1.676 -0.4702 -0.0559 -0.3995
 7325SOL    HW133611   2.540   2.576   1.701  0.6569 -0.3696 -1.5384
 7325SOL    HW233612   2.470   2.518   1.585 -1.1116 -1.0524 -0.4717
 7326SOL     OW33613   3.241   1.381   8.555 -0.3185 -0.0931  0.2438
 7326SOL    HW133614   3.161   1.328   8.565  0.1185 -0.8767 -0.4382
 7326SOL    HW233615   3.301   1.312   8.527 -1.8360 -0.2817 -2.4752
 7327SOL     OW33616   3.368   3.284   1.334  0.7111 -0.5888 -0.1620
 7327SOL    HW133617   3.393   3.289   1.426 -1.1393 -2.1690  0.4149
 7327SOL    HW233618   3.419   3.361   1.308 -0.4285  0.1567 -0.1738
 7328SOL     OW33619   2.396   0.401  16.340 -0.0890  0.1083 -0.1980
 7328SOL    HW133620   2.489   0.383  16.348 -0.3450 -0.9666  0.4619
 7328SOL    HW233621   2.369   0.354  16.262 -0.4694 -0.8001  0.4728
 7329SOL     OW33622   2.813   4.616   9.842 -0.3111 -0.2147 -0.0462
 7329SOL    HW133623   2.756   4.541   9.860  0.8953 -0.8536  1.2181
 7329SOL    HW233624   2.751   4.687   9.828  2.5824  2.2654 -0.3110
 7330SOL     OW33625   3.356   0.026   6.928 -0.2004  0.1717 -0.1933
 7330SOL    HW133626   3.325   0.018   6.837 -0.2946  1.1250 -0.2467
 7330SOL    HW233627   3.282   0.077   6.963  0.5853  1.1336  0.0567
 7331SOL     OW33628   4.478   4.000   8.817 -0.7754  0.3225  0.1550
 7331SOL    HW133629   4.514   3.912   8.827  2.4908  1.5348 -0.7442
 7331SOL    HW233630   4.533   4.028   8.744  2.0179 -0.6254  1.8741
 7332SOL     OW33631   3.338   3.090   1.741  0.3075  0.1845  0.1039
 7332SOL    HW133632   3.380   3.037   1.809 -1.0775  1.7998  2.2410
 7332SOL    HW233633   3.317   3.028   1.671  0.2009 -0.5972  0.8280
 7333SOL     OW33634   3.878   3.512  13.821  0.2568 -0.0621 -0.4266
 7333SOL    HW133635   3.855   3.604  13.806 -1.0649 -0.2930  0.2395
 7333SOL    HW233636   3.946   3.503  13.754  0.2938  0.5286 -0.4699
 7334SOL     OW33637   0.386   1.915   9.090  0.1722  0.6729 -0.1907
 7334SOL    HW133638   0.377   2.010   9.094  0.0776  0.6599 -0.0641
 7334SOL    HW233639   0.376   1.896   8.997 -1.2547  0.8846 -0.0877
 7335SOL     OW33640   1.788   0.566   9.243 -0.3104  0.1507  0.1600
 7335SOL    HW133641   1.795   0.483   9.291  0.6302 -0.8122 -1.6662
 7335SOL    HW233642   1.790   0.628   9.316 -0.3800 -0.1083  0.3842
 7336SOL     OW33643   0.522   0.445   4.289 -0.0316 -0.3606  0.3736
 7336SOL    HW133644   0.488   0.425   4.202 -0.2658  0.1720  0.3437
 7336SOL    HW233645   0.460   0.403   4.348  0.8147 -1.9557  0.1360
 7337SOL     OW33646   3.268   1.131   3.894  0.2245 -0.0631 -0.5235
 7337SOL    HW133647   3.270   1.177   3.978  3.0737  0.7552 -1.0323
 7337SOL    HW233648   3.278   1.199   3.827  2.8266  0.2211  0.1591
 7338SOL     OW33649   4.531   4.102  14.651  0.0752 -0.5020  0.1876
 7338SOL    HW133650   4.569   4.141  14.572 -0.5996  2.3457  1.2569
 7338SOL    HW233651   4.598   4.035  14.666  0.4270 -0.2086 -0.0506
 7339SOL     OW33652   1.405   0.906   3.719 -0.4199 -0.2746 -0.6362
 7339SOL    HW133653   1.336   0.905   3.786  1.0415  0.0816  0.9019
 7339SOL    HW233654   1.405   0.811   3.715  2.5946 -0.1564 -2.9750
 7340SOL     OW33655   3.576   3.884   6.117  0.6279  0.0046 -0.1162
 7340SOL    HW133656   3.497   3.938   6.110 -0.7479 -1.9572  0.5374
 7340SOL    HW233657   3.616   3.909   6.033  0.0369 -0.9373 -0.6819
 7341SOL     OW33658   3.450   4.618   6.425  0.2241 -0.0092 -0.1496
 7341SOL    HW133659   3.488   4.631   6.338  2.3456 -1.7442  0.5056
 7341SOL    HW233660   3.523   4.575   6.470  0.4733  0.5679 -0.0136
 7342SOL     OW33661   0.089   4.375   4.713 -0.8018  0.0041  0.0382
 7342SOL    HW133662   0.070   4.339   4.799 -2.0684 -2.7122 -1.3903
 7342SOL    HW233663   0.171   4.340   4.679 -1.3537 -0.0369 -1.2657
 7343SOL     OW33664   2.773   4.407   7.494  0.2383  0.2937  0.1650
 7343SOL    HW133665   2.690   4.405   7.448  0.0100  0.9121  0.5576
 7343SOL    HW233666   2.819   4.451   7.422  1.0738 -0.8856 -0.0273
 7344SOL     OW33667   0.840   0.481   7.468 -0.3443 -0.2066  0.0533
 7344SOL    HW133668   0.800   0.560   7.431  3.6437  2.8490  2.3002
 7344SOL    HW233669   0.765   0.423   7.483  0.0555 -0.6495  0.3237
 7345SOL     OW33670   0.664   3.097   2.035  0.0071  0.3010 -0.1657
 7345SOL    HW133671   0.671   3.160   1.964 -1.3779  2.5597  1.7352
 7345SOL    HW233672   0.604   3.144   2.092 -0.0252  2.4561 -1.9625
 7346SOL     OW33673   3.909   1.614   6.858 -0.1322 -0.2794  0.0400
 7346SOL    HW133674   3.885   1.525   6.834  2.4295 -0.9951  0.1499
 7346SOL    HW233675   3.930   1.605   6.951 -1.5319  0.6556  0.4511
 7347SOL     OW33676   3.507   4.572   4.733  0.8348  0.3292  0.0965
 7347SOL    HW133677   3.595   4.539   4.749  0.7989 -0.7603 -1.9301
 7347SOL    HW233678   3.453   4.499   4.702  1.3630 -0.1953  0.3844
 7348SOL     OW33679   3.483   1.091  12.269 -0.0551  0.0125  0.7643
 7348SOL    HW133680   3.552   1.026  12.280 -0.3772 -0.2212  1.4504
 7348SOL    HW233681   3.409   1.051  12.315 -1.3791 -0.7677 -2.0293
 7349SOL     OW33682   0.278   2.030   7.381  0.2359  0.1498  0.4460
 7349SOL    HW133683   0.216   2.086   7.335 -0.4716 -0.2681  0.8978
 7349SOL    HW233684   0.335   2.097   7.418 -0.7509  0.2378  1.7979
 7350SOL     OW33685   3.447   0.831  10.335  0.4647  0.2246  0.0459
 7350SOL    HW133686   3.379   0.829  10.402  0.1071  0.6950 -0.3041
 7350SOL    HW233687   3.498   0.905  10.370  2.1500 -1.2402  0.6784
 7351SOL     OW33688   0.384   3.767   1.752 -0.1205  0.2167  0.2590
 7351SOL    HW133689   0.371   3.697   1.816 -0.8071 -0.2122 -0.3502
 7351SOL    HW233690   0.462   3.812   1.784 -0.4016  1.8186 -1.2527
 7352SOL     OW33691   4.730   2.340   5.569  0.5352  0.8812  0.2572
 7352SOL    HW133692   4.641   2.361   5.596  0.1232  0.5326 -0.8349
 7352SOL    HW233693   4.723   2.378   5.482  0.0138  0.2201  0.0107
 7353SOL     OW33694   4.702   3.904   4.124  0.8237  0.0442 -0.3713
 7353SOL    HW133695   0.010   3.980   4.091 -2.5055  1.6523 -1.5096
 7353SOL    HW233696   4.728   3.842   4.056  0.2498  2.1901 -2.5200
 7354SOL     OW33697   2.924   4.720   5.768 -0.0791  0.2776 -0.8747
 7354SOL    HW133698   2.851   4.731   5.707 -0.6356 -2.2893 -0.6338
 7354SOL    HW233699   2.981   4.666   5.713 -0.2609 -1.1066  0.3188
 7355SOL     OW33700   3.609   0.222   8.537 -0.3916 -0.0771  0.1890
 7355SOL    HW133701   3.517   0.199   8.522 -0.9989  3.0535 -0.7787
 7355SOL    HW233702   3.635   0.180   8.619  2.9208  1.2874 -0.1777
 7356SOL     OW33703   0.434   2.980  17.358 -0.0679 -0.4072 -0.0645
 7356SOL    HW133704   0.415   2.951  17.269  1.5778 -2.1468  0.1585
 7356SOL    HW233705   0.493   3.053  17.339 -2.5550  1.4140 -0.7925
 7357SOL     OW33706   0.799   3.035   7.689 -0.7913 -0.0123  0.8374
 7357SOL    HW133707   0.816   3.127   7.669 -2.1022  0.3902  1.5658
 7357SOL    HW233708   0.772   2.997   7.605  1.9485 -1.5318  0.6316
 7358SOL     OW33709   0.088   3.730   7.779  0.2973 -0.0541 -1.2232
 7358SOL    HW133710   0.130   3.759   7.698  1.7290  1.1796 -0.0316
 7358SOL    HW233711   0.159   3.721   7.843 -0.9902 -1.8815 -0.0424
 7359SOL     OW33712   1.548   0.286   3.751  0.5873  0.0859  0.0839
 7359SOL    HW133713   1.533   0.198   3.787  1.2854 -1.0406 -2.3327
 7359SOL    HW233714   1.470   0.291   3.696  0.8342  1.5764 -0.1182
 7360SOL     OW33715   4.300   3.810   3.061 -0.4818  0.0950  0.2818
 7360SOL    HW133716   4.284   3.824   3.154 -2.3724  0.2764 -0.0774
 7360SOL    HW233717   4.297   3.893   3.013 -1.0805  0.0347  0.2227
 7361SOL     OW33718   3.900   4.002   7.891  0.1636  0.3017  0.6512
 7361SOL    HW133719   3.975   4.005   7.950  1.2218  0.6451 -0.7295
 7361SOL    HW233720   3.846   3.937   7.936 -0.7874  0.3355 -0.4276
 7362SOL     OW33721   2.407   0.059   2.853  0.1114  0.6592 -0.3969
 7362SOL    HW133722   2.411   0.038   2.947 -3.1796 -2.4427 -0.9270
 7362SOL    HW233723   2.465   0.134   2.858  1.5643 -0.6253  2.1526
 7363SOL     OW33724   4.401   3.890  11.989  0.1050 -0.3005 -0.3133
 7363SOL    HW133725   4.336   3.934  11.934  1.2907  0.6396 -0.9551
 7363SOL    HW233726   4.453   3.970  12.002  1.9626 -1.3428 -1.4066
 7364SOL     OW33727   1.708   4.010   8.094  0.6595  0.3962  0.6098
 7364SOL    HW133728   1.703   4.105   8.106  0.5088  0.6818 -1.8067
 7364SOL    HW233729   1.749   4.001   8.008  1.6162  0.7563  1.0253
 7365SOL     OW33730   1.900   4.302   7.764 -0.3739  0.3780 -0.0107
 7365SOL    HW133731   1.882   4.321   7.672 -0.1313  0.5818 -0.0153
 7365SOL    HW233732   1.983   4.255   7.765 -1.8169 -2.1611  2.1923
 7366SOL     OW33733   4.433   3.942   7.943  0.2061 -0.3450 -0.1017
 7366SOL    HW133734   4.398   4.016   7.894  0.3421 -0.0940  0.1864
 7366SOL    HW233735   4.525   3.941   7.916  0.7277  0.6936  1.6613
 7367SOL     OW33736   1.679   4.289   2.018  0.6083  0.1317 -0.5817
 7367SOL    HW133737   1.738   4.346   1.969 -2.3308  2.3752 -1.4961
 7367SOL    HW233738   1.727   4.273   2.099  1.7768 -2.1258 -1.7125
 7368SOL     OW33739   2.568   1.076   3.465 -0.5128 -0.6938 -0.0320
 7368SOL    HW133740   2.602   1.141   3.404  0.1992  0.8068  1.9285
 7368SOL    HW233741   2.652   1.037   3.488  1.0602  2.2664 -0.7114
 7369SOL     OW33742   2.728   0.243  12.073 -0.4001 -0.3350 -0.6335
 7369SOL    HW133743   2.806   0.286  12.038  0.5221 -2.0226 -0.6924
 7369SOL    HW233744   2.658   0.274  12.017  0.5969  3.4409  0.2476
 7370SOL     OW33745   2.199   0.984  12.310 -0.4193  0.1619 -0.7751
 7370SOL    HW133746   2.183   0.934  12.390  2.1525  0.0389 -0.3496
 7370SOL    HW233747   2.186   0.912  12.248  2.6742  0.9284 -2.3038
 7371SOL     OW33748   0.032   2.622   3.169  0.3929 -0.6440 -0.0420
 7371SOL    HW133749   4.727   2.564   3.107 -3.6699  2.3587  0.1401
 7371SOL    HW233750   0.087   2.551   3.202  0.4219 -1.4608 -1.8418
 7372SOL     OW33751   0.592   3.577   7.790 -0.1543  0.3104 -0.1585
 7372SOL    HW133752   0.596   3.584   7.885  1.0563 -1.0805 -0.1004
 7372SOL    HW233753   0.588   3.481   7.791  3.9886  0.1208  0.4478
 7373SOL     OW33754   2.625   2.826   1.474 -0.0887  0.2557  0.0514
 7373SOL    HW133755   2.573   2.853   1.399  1.3317  0.8325 -0.7317
 7373SOL    HW233756   2.689   2.896   1.464  2.8136 -2.1307  1.7008
 7374SOL     OW33757   1.603   2.747   5.811  0.3442 -0.4549  0.2219
 7374SOL    HW133758   1.517   2.733   5.851 -0.3184  1.7104 -0.4561
 7374SOL    HW233759   1.629   2.654   5.806 -0.4253 -0.5073 -2.5132
 7375SOL     OW33760   4.151   2.000   7.991 -0.2330 -0.1318  0.3192
 7375SOL    HW133761   4.130   1.933   8.056 -0.2369  1.2720  1.7827
 7375SOL    HW233762   4.228   2.034   8.038 -0.6797  1.3234  0.0090
 7376SOL     OW33763   4.735   4.669  10.491  0.6211  0.7961 -0.5420
 7376SOL    HW133764   0.036   4.612  10.556 -1.6336 -0.3506 -0.1613
 7376SOL    HW233765   4.650   4.630  10.474 -0.6375  1.8027  3.5247
 7377SOL     OW33766   0.348   2.731   2.536 -0.2158 -0.3191 -0.1463
 7377SOL    HW133767   0.415   2.700   2.597 -0.0927  0.8160  0.2932
 7377SOL    HW233768   0.339   2.824   2.560 -1.7720 -0.6101  0.3770
 7378SOL     OW33769   1.697   3.276   5.084  0.0055 -0.2748  0.3572
 7378SOL    HW133770   1.676   3.369   5.092 -1.4833 -0.7013  1.3334
 7378SOL    HW233771   1.642   3.245   5.155  0.2161 -2.4394 -0.4379
 7379SOL     OW33772   0.926   1.011   9.133 -0.2692 -0.0731  0.3169
 7379SOL    HW133773   0.853   1.053   9.087  0.0234  0.1472  0.0543
 7379SOL    HW233774   0.891   0.993   9.220 -0.5094  0.6825  0.3784
 7380SOL     OW33775   2.136   1.640   9.528 -0.0602  0.0897 -0.4122
 7380SOL    HW133776   2.205   1.595   9.479  1.4417  0.8252  1.0019
 7380SOL    HW233777   2.165   1.625   9.618  0.3115 -2.4307 -0.9433
 7381SOL     OW33778   1.418   2.853   1.911  0.1080 -0.0635 -0.1437
 7381SOL    HW133779   1.441   2.946   1.908 -1.7671  0.5551  3.7177
 7381SOL    HW233780   1.348   2.847   1.845 -0.3447 -2.1670  0.5516
 7382SOL     OW33781   1.798   1.075   6.589  0.3729 -0.5795 -0.1656
 7382SOL    HW133782   1.883   1.111   6.617 -1.5245  2.3167  1.8414
 7382SOL    HW233783   1.770   1.043   6.675 -0.7281  0.2939 -0.1963
 7383SOL     OW33784   1.749   4.648   3.600  0.3925  0.3578  0.4435
 7383SOL    HW133785   1.730   4.596   3.678  1.2947 -0.6181  0.0048
 7383SOL    HW233786   1.844   4.645   3.608  0.2585 -0.7495  1.6037
 7384SOL     OW33787   0.296   3.582   5.612  0.5811 -0.4721 -0.5949
 7384SOL    HW133788   0.325   3.507   5.664 -0.4033  0.3447  1.1579
 7384SOL    HW233789   0.234   3.557   5.544  0.4686  0.7452 -0.9373
 7385SOL     OW33790   1.434   1.211   3.183  0.4536 -0.5467 -0.2553
 7385SOL    HW133791   1.380   1.139   3.217 -2.4683  2.6877  1.9023
 7385SOL    HW233792   1.378   1.241   3.111  0.9218  0.5957 -0.1433
 7386SOL     OW33793   0.889   4.532  15.304  0.0087  0.0470  0.4620
 7386SOL    HW133794   0.802   4.530  15.264  0.5813  0.3797 -0.8103
 7386SOL    HW233795   0.924   4.608  15.257 -0.4956 -0.4083 -0.6404
 7387SOL     OW33796   4.625   0.862   9.707 -0.3223 -0.4015  0.2985
 7387SOL    HW133797   4.587   0.844   9.793 -0.5874  0.8221  0.4440
 7387SOL    HW233798   4.545   0.847   9.656  1.2751 -1.0818 -2.0094
 7388SOL     OW33799   0.739   2.286   5.648  0.3237  0.4065 -0.0231
 7388SOL    HW133800   0.706   2.272   5.736 -2.2604  1.3215 -0.8436
 7388SOL    HW233801   0.678   2.232   5.597  3.7168 -0.7197 -2.9797
 7389SOL     OW33802   2.437   4.692   0.628 -0.3041  0.2438 -0.0424
 7389SOL    HW133803   2.445   4.719   0.536 -0.0272 -0.0192 -0.0960
 7389SOL    HW233804   2.386   4.612   0.614  0.6532 -0.2630 -0.6167
 7390SOL     OW33805   1.562   4.293   3.178  0.1382  0.8352 -1.1220
 7390SOL    HW133806   1.635   4.286   3.239 -0.8327  0.4586 -0.0017
 7390SOL    HW233807   1.565   4.387   3.161  2.4165  0.7120 -1.4638
 7391SOL     OW33808   1.050   0.798   0.762  0.2865  0.1321 -0.0073
 7391SOL    HW133809   0.985   0.867   0.775  0.7586  0.3366  1.3063
 7391SOL    HW233810   1.121   0.812   0.825 -0.6186  0.1244  1.0169
 7392SOL     OW33811   4.304   0.708   5.500 -0.2449 -0.2241  0.1255
 7392SOL    HW133812   4.375   0.708   5.565  1.4109  0.1054 -1.7003
 7392SOL    HW233813   4.356   0.728   5.422 -0.6139  1.5488  0.3290
 7393SOL     OW33814   3.639   4.655  10.139  0.4210  0.6520 -0.0250
 7393SOL    HW133815   3.699   4.597  10.092  1.4249  0.3441  1.6207
 7393SOL    HW233816   3.696   4.724  10.176  3.0341 -2.4352  1.7321
 7394SOL     OW33817   3.744   4.578   8.580  0.2485 -0.0946 -0.7748
 7394SOL    HW133818   3.772   4.490   8.604 -1.4477 -0.3874  0.0993
 7394SOL    HW233819   3.808   4.583   8.509  0.0758  0.1314 -0.9156
 7395SOL     OW33820   1.290   3.820   7.544  0.1462  0.3189 -0.0146
 7395SOL    HW133821   1.382   3.827   7.518  1.0122 -1.4483  2.5729
 7395SOL    HW233822   1.267   3.729   7.527  1.8621 -0.1174 -0.0154
 7396SOL     OW33823   3.974   3.635   3.239 -0.5911  0.0653 -0.3384
 7396SOL    HW133824   3.964   3.715   3.188 -2.0149  1.1961  1.7420
 7396SOL    HW233825   4.046   3.590   3.195  0.6232  0.5645  1.1347
 7397SOL     OW33826   1.966   1.568  16.469 -0.1241  0.6874  0.0865
 7397SOL    HW133827   2.030   1.553  16.399 -0.6366 -0.9015 -0.0291
 7397SOL    HW233828   1.906   1.496  16.452  1.6828 -0.1003 -3.0398
 7398SOL     OW33829   0.611   2.700   5.786  0.0776  0.4954  0.6192
 7398SOL    HW133830   0.652   2.697   5.873 -0.8706 -0.7581  1.0230
 7398SOL    HW233831   0.536   2.757   5.806 -1.2979 -1.4741  1.0463
 7399SOL     OW33832   2.762   1.661   3.413  0.3249 -0.2769 -0.6943
 7399SOL    HW133833   2.678   1.701   3.433  0.5619  0.0324 -0.3305
 7399SOL    HW233834   2.734   1.576   3.377 -1.3577 -1.1090  2.6212
 7400SOL     OW33835   2.900   2.334  16.380 -0.3483  0.8036 -0.2587
 7400SOL    HW133836   2.900   2.324  16.285 -2.0712  0.5191 -0.2366
 7400SOL    HW233837   2.817   2.381  16.392 -0.7985 -0.4346  1.4673
 7401SOL     OW33838   2.287   1.283   9.760 -0.0610 -0.2583  0.0324
 7401SOL    HW133839   2.251   1.368   9.736 -0.0990 -0.8599 -2.0048
 7401SOL    HW233840   2.335   1.259   9.681 -0.8583 -0.7523 -0.2996
 7402SOL     OW33841   3.049   4.496  13.806  0.7215  0.5020 -0.1152
 7402SOL    HW133842   2.955   4.488  13.791  1.0204  0.0145 -1.6774
 7402SOL    HW233843   3.056   4.538  13.892 -1.5560 -0.5536  0.5739
 7403SOL     OW33844   3.995   0.962   7.816 -0.0164 -0.0536  0.4881
 7403SOL    HW133845   3.938   0.932   7.744 -1.1038 -0.4822  1.5192
 7403SOL    HW233846   3.954   0.906   7.882  0.1964  0.3157  0.9247
 7404SOL     OW33847   1.679   2.699   5.269  0.2399  0.4241 -0.5433
 7404SOL    HW133848   1.654   2.787   5.243 -0.6134 -0.0655 -1.3942
 7404SOL    HW233849   1.773   2.715   5.272  0.0197  1.3763  1.3327
 7405SOL     OW33850   3.564   1.619  11.750 -0.1387 -0.4000 -0.1778
 7405SOL    HW133851   3.526   1.606  11.837  2.0169  0.5257  0.8980
 7405SOL    HW233852   3.653   1.648  11.765  0.1362 -0.7386 -1.1165
 7406SOL     OW33853   2.943   2.036   9.959 -0.1866 -0.0551 -0.2932
 7406SOL    HW133854   2.935   2.003   9.870 -3.7825 -1.9858  0.7742
 7406SOL    HW233855   2.868   1.991   9.997 -0.8445  0.2311 -1.2630
 7407SOL     OW33856   0.550   3.890   5.235  0.1686 -0.4437 -0.3180
 7407SOL    HW133857   0.549   3.969   5.182  0.1340 -0.4294 -0.2958
 7407SOL    HW233858   0.503   3.828   5.180 -1.3387 -0.7728  1.3276
 7408SOL     OW33859   0.564   1.407   3.380 -0.1569  0.6698 -0.0701
 7408SOL    HW133860   0.653   1.420   3.412 -0.0967 -0.6296  0.2567
 7408SOL    HW233861   0.559   1.489   3.330  2.0303  1.5353  1.1046
 7409SOL     OW33862   2.877   2.480  11.965  0.0819 -0.1839 -0.9986
 7409SOL    HW133863   2.943   2.416  11.992  0.3434  0.3023 -0.4929
 7409SOL    HW233864   2.904   2.548  12.027  3.7057 -1.1138 -1.5430
 7410SOL     OW33865   4.638   2.329   0.659 -0.2170  0.6603  0.0584
 7410SOL    HW133866   4.600   2.348   0.573  0.1534  2.5338  0.3149
 7410SOL    HW233867   4.730   2.334   0.636 -0.7961  1.1620 -2.1400
 7411SOL     OW33868   0.204   1.639  11.701  0.3610 -0.4633  0.7602
 7411SOL    HW133869   0.217   1.605  11.613 -0.2816 -0.7674  0.7862
 7411SOL    HW233870   0.123   1.591  11.714 -0.6088  0.9364 -0.1882
 7412SOL     OW33871   3.031   0.232   5.861  0.1461 -0.4103  0.1317
 7412SOL    HW133872   3.112   0.186   5.877 -1.3093 -3.2594 -0.7650
 7412SOL    HW233873   2.975   0.161   5.831 -1.7253  0.2479  2.0493
 7413SOL     OW33874   3.798   0.227  16.165  0.2453 -0.6754  0.3114
 7413SOL    HW133875   3.771   0.136  16.148 -1.9197 -0.1505  0.9360
 7413SOL    HW233876   3.878   0.235  16.113 -1.4180 -0.8298 -2.2992
 7414SOL     OW33877   1.355   3.074   6.163 -0.2190 -0.0852 -0.3347
 7414SOL    HW133878   1.402   3.157   6.172 -0.9656  0.2039  0.9055
 7414SOL    HW233879   1.363   3.034   6.250 -0.4428 -2.1016 -1.2475
 7415SOL     OW33880   1.699   2.085  12.547  0.5191  0.0783  0.1015
 7415SOL    HW133881   1.647   2.102  12.626  1.9433  2.2087  0.5685
 7415SOL    HW233882   1.724   2.167  12.506 -0.3059 -0.0042 -0.5614
 7416SOL     OW33883   3.954   3.485   4.191  0.7524 -0.1719 -0.5555
 7416SOL    HW133884   3.933   3.534   4.111 -0.3145  0.0842 -0.1102
 7416SOL    HW233885   4.012   3.418   4.153  1.6171  1.5460 -2.2866
 7417SOL     OW33886   2.316   0.563   2.454  0.2496  0.1022 -0.4574
 7417SOL    HW133887   2.406   0.591   2.437  0.4902  0.0688  0.7428
 7417SOL    HW233888   2.270   0.645   2.473  1.6085  0.3859  1.5477
 7418SOL     OW33889   1.383   1.601  16.385  0.4687 -0.2121 -0.1139
 7418SOL    HW133890   1.308   1.649  16.350  1.4939  0.7074 -1.0684
 7418SOL    HW233891   1.452   1.652  16.343  0.4448 -0.3559 -0.3253
 7419SOL     OW33892   1.467   4.621  15.290  0.9157  0.3389 -0.1029
 7419SOL    HW133893   1.527   4.633  15.216 -0.0036  1.0789 -0.7244
 7419SOL    HW233894   1.515   4.654  15.367 -0.0077  2.8615 -0.6132
 7420SOL     OW33895   4.188   1.894  13.350 -0.0904 -0.5486  0.0631
 7420SOL    HW133896   4.266   1.922  13.399 -0.4642  1.6093 -0.5467
 7420SOL    HW233897   4.222   1.814  13.311  1.8095 -0.4982  1.6345
 7421SOL     OW33898   2.653   2.309   5.626  0.5428  0.2273  0.3511
 7421SOL    HW133899   2.587   2.269   5.682  0.0141 -0.2992 -0.6530
 7421SOL    HW233900   2.601   2.381   5.591 -1.7411 -0.9295  1.3318
 7422SOL     OW33901   2.246   2.522  10.349  0.1397 -0.3656 -0.4189
 7422SOL    HW133902   2.284   2.503  10.435 -0.4023  0.9028  0.0960
 7422SOL    HW233903   2.184   2.591  10.371  0.3269 -0.9654  1.9559
 7423SOL     OW33904   3.504   4.582   3.146 -0.0133  0.0813 -0.0926
 7423SOL    HW133905   3.530   4.496   3.111 -1.9595  0.3470 -2.2418
 7423SOL    HW233906   3.587   4.627   3.157  0.6438 -0.8743 -1.0584
 7424SOL     OW33907   0.977   4.740   8.678 -0.7663  0.0976  0.7892
 7424SOL    HW133908   0.893   4.695   8.688 -0.3863  0.2494  4.7035
 7424SOL    HW233909   1.004   4.703   8.593  1.1588  0.9307  1.0433
 7425SOL     OW33910   3.689   4.550   7.366 -0.1438 -0.0977  0.4380
 7425SOL    HW133911   3.763   4.490   7.367 -0.1003 -0.0835 -1.0928
 7425SOL    HW233912   3.678   4.539   7.271 -0.5370  1.7891  0.2706
 7426SOL     OW33913   4.705   4.524   7.280 -0.1316 -0.0853  0.0632
 7426SOL    HW133914   4.730   4.485   7.196  0.8227  1.4300 -0.3468
 7426SOL    HW233915   0.048   4.530   7.329 -2.7091 -0.1484  4.3947
 7427SOL     OW33916   2.477   0.623   7.418 -0.0130  1.2134  0.8393
 7427SOL    HW133917   2.395   0.658   7.383 -0.5363 -1.0618 -0.2303
 7427SOL    HW233918   2.543   0.669   7.366  1.9835 -3.1471 -0.5406
 7428SOL     OW33919   0.931   4.601  14.242 -0.5715  0.2981  0.1425
 7428SOL    HW133920   1.005   4.600  14.303  0.5341  1.2203 -1.2157
 7428SOL    HW233921   0.904   4.509  14.240 -1.0045  0.4157  0.5521
 7429SOL     OW33922   4.128   3.781   6.302 -0.2476  0.0481 -0.3526
 7429SOL    HW133923   4.045   3.783   6.254 -1.7917  1.0241  2.3977
 7429SOL    HW233924   4.132   3.863   6.351 -0.0769  0.1799 -0.5840
 7430SOL     OW33925   0.965   4.018  14.421 -0.5270 -0.2277  0.5356
 7430SOL    HW133926   1.045   3.979  14.385 -1.4846 -0.0122 -1.8588
 7430SOL    HW233927   0.955   3.969  14.502 -0.2768 -0.8888  0.1660
 7431SOL     OW33928   3.203   2.777   5.787  0.1418  0.2402  0.2140
 7431SOL    HW133929   3.286   2.804   5.747 -0.8497 -0.5656 -2.3841
 7431SOL    HW233930   3.236   2.715   5.852  1.5332  0.0022 -0.7146
 7432SOL     OW33931   1.071   2.582   5.606  0.4713  0.7869 -0.3767
 7432SOL    HW133932   1.073   2.677   5.597 -0.8772  0.7306 -1.0992
 7432SOL    HW233933   0.993   2.573   5.660  0.8936 -2.4753 -0.2734
 7433SOL     OW33934   0.863   2.053   5.192  0.0492 -0.6047 -0.0347
 7433SOL    HW133935   0.805   2.023   5.122 -1.1724  0.6525  0.4421
 7433SOL    HW233936   0.819   2.122   5.242 -2.2123 -0.2311 -2.5711
 7434SOL     OW33937   0.648   0.356  10.970  0.1610  0.0995 -0.5871
 7434SOL    HW133938   0.679   0.277  10.926  1.4939 -0.4937  1.4288
 7434SOL    HW233939   0.632   0.319  11.057 -0.6220 -1.6127 -1.4466
 7435SOL     OW33940   4.391   2.173   4.897  0.5769  0.2850 -0.3970
 7435SOL    HW133941   4.441   2.113   4.842 -0.9895 -1.4041 -0.0072
 7435SOL    HW233942   4.306   2.131   4.911  0.0694  1.0868 -1.0732
 7436SOL     OW33943   3.763   3.806   8.022 -0.0420 -0.6307 -0.2828
 7436SOL    HW133944   3.696   3.743   7.995  1.8058 -2.1331 -1.3622
 7436SOL    HW233945   3.739   3.819   8.113 -0.2748  1.3532 -0.6144
 7437SOL     OW33946   3.680   2.535   9.323 -0.5656  0.8510 -0.4557
 7437SOL    HW133947   3.733   2.606   9.359 -1.5408  1.7321 -0.7760
 7437SOL    HW233948   3.693   2.564   9.233 -0.2716  0.0004 -0.6870
 7438SOL     OW33949   3.396   2.191   0.555  0.1180 -0.5927 -0.5180
 7438SOL    HW133950   3.329   2.162   0.617  0.5205 -1.2864 -0.4044
 7438SOL    HW233951   3.341   2.232   0.489  1.9184 -0.4596 -1.9142
 7439SOL     OW33952   1.623   1.598   7.590  0.0804  0.3555 -0.0726
 7439SOL    HW133953   1.539   1.557   7.570  1.1312 -1.0584 -1.6413
 7439SOL    HW233954   1.607   1.643   7.672  3.0714  2.7745 -0.8077
 7440SOL     OW33955   0.124   1.853   7.594  0.1157 -0.2028 -0.3283
 7440SOL    HW133956   0.043   1.827   7.549  0.8429 -1.0656 -1.1442
 7440SOL    HW233957   0.174   1.901   7.528  2.2496  1.4643  2.5209
 7441SOL     OW33958   1.895   1.872   1.004 -0.3725  0.6913 -0.3931
 7441SOL    HW133959   1.951   1.900   1.077  0.7480 -0.9782 -0.6108
 7441SOL    HW233960   1.834   1.811   1.047  1.4613 -1.2656 -0.6017
 7442SOL     OW33961   0.747   1.157  17.676  0.1847  0.2790  0.4917
 7442SOL    HW133962   0.693   1.144  17.754  0.0303  1.5680  0.5943
 7442SOL    HW233963   0.721   1.245  17.649  0.4598 -0.1550 -1.1897
 7443SOL     OW33964   0.234   2.623   2.870 -0.4609  0.3485 -0.5059
 7443SOL    HW133965   0.159   2.568   2.892 -1.6941  2.2638  0.0602
 7443SOL    HW233966   0.269   2.572   2.797  0.1523  1.4180 -0.9595
 7444SOL     OW33967   3.321   0.120   0.449 -0.7597 -0.1323  0.0830
 7444SOL    HW133968   3.269   0.173   0.389 -1.5658 -1.5910 -0.5110
 7444SOL    HW233969   3.297   0.164   0.530  1.6787  0.8804  0.2389
 7445SOL     OW33970   0.993   1.300  17.528 -0.3653 -0.0048  0.4474
 7445SOL    HW133971   0.935   1.282  17.603 -0.8598 -1.7520 -0.3466
 7445SOL    HW233972   1.031   1.216  17.501  1.4387  1.2187 -0.7960
 7446SOL     OW33973   0.323   1.239   9.079  0.0361 -0.2288 -0.4684
 7446SOL    HW133974   0.332   1.315   9.135  1.6235 -1.9478  1.6099
 7446SOL    HW233975   0.416   1.217   9.076  0.1236  0.4010 -2.5455
 7447SOL     OW33976   0.688   3.381   6.075  0.2874  0.6576 -0.2094
 7447SOL    HW133977   0.783   3.378   6.064  0.4105  3.5202 -0.0931
 7447SOL    HW233978   0.680   3.474   6.097 -0.0864  0.8512 -1.1712
 7448SOL     OW33979   3.176   1.254  11.795 -0.0152 -0.4446 -0.4219
 7448SOL    HW133980   3.203   1.337  11.755 -1.2084 -0.9310 -2.2226
 7448SOL    HW233981   3.259   1.240  11.841 -0.1027 -0.1751 -0.1778
 7449SOL     OW33982   2.349   0.439   3.681  0.0667 -0.1487 -0.2250
 7449SOL    HW133983   2.305   0.463   3.600  2.6515 -1.9324 -2.1526
 7449SOL    HW233984   2.303   0.485   3.751  0.0597  0.0293 -0.3459
 7450SOL     OW33985   0.441   1.973   6.960 -0.8055  0.4267 -0.1330
 7450SOL    HW133986   0.480   1.898   6.915  0.7642  1.6674 -0.7987
 7450SOL    HW233987   0.363   1.988   6.907  0.3742 -1.0628 -2.3134
 7451SOL     OW33988   0.554   0.913   5.307  0.8032  0.2191  0.0604
 7451SOL    HW133989   0.480   0.958   5.267  0.0282 -0.7770  0.3679
 7451SOL    HW233990   0.603   0.893   5.227 -1.2377 -0.4323 -1.0222
 7452SOL     OW33991   0.431   2.566  13.143  0.0683  0.2965  0.0255
 7452SOL    HW133992   0.507   2.568  13.085  2.3982  1.1010  3.1566
 7452SOL    HW233993   0.368   2.596  13.077  1.3180  2.0971 -0.3399
 7453SOL     OW33994   0.029   2.083   3.868  0.0096 -0.5042 -0.2849
 7453SOL    HW133995   0.065   2.156   3.918  1.1103 -0.2706 -1.4257
 7453SOL    HW233996   0.105   2.057   3.816 -0.2347  1.3242 -1.5622
 7454SOL     OW33997   4.020   0.466   9.517 -0.1637 -0.4235  0.3533
 7454SOL    HW133998   3.999   0.500   9.604 -2.1576  2.0318 -1.0802
 7454SOL    HW233999   3.934   0.443   9.483 -1.1215  2.3010  0.9210
 7455SOL     OW34000   4.671   1.431   9.050 -0.1855  0.4420 -0.0659
 7455SOL    HW134001   4.602   1.370   9.024  1.4576 -1.4467 -0.0472
 7455SOL    HW234002   4.707   1.401   9.133 -1.2490 -2.7614 -0.7419
 7456SOL     OW34003   4.207   2.555  14.924  0.0087  0.1494 -0.0613
 7456SOL    HW134004   4.208   2.518  14.836 -0.0806  0.8974 -0.3757
 7456SOL    HW234005   4.231   2.484  14.984 -2.2850  0.7669  1.5832
 7457SOL     OW34006   0.670   0.018  17.470  0.3497 -0.4575  0.1976
 7457SOL    HW134007   0.587   4.714  17.451  0.3142 -0.3200  0.0452
 7457SOL    HW234008   0.694   0.043  17.381 -1.6290  1.1360  0.1110
 7458SOL     OW34009   4.000   3.313   5.550  0.3502 -0.8030  0.1256
 7458SOL    HW134010   4.025   3.226   5.520  2.1569 -0.2380 -0.0775
 7458SOL    HW234011   3.905   3.304   5.544  0.3109 -0.3039 -0.0003
 7459SOL     OW34012   1.567   2.096   2.284 -0.0321  0.3387  0.5994
 7459SOL    HW134013   1.485   2.134   2.252 -1.0344  0.7031  3.6062
 7459SOL    HW234014   1.614   2.073   2.205 -0.2452 -1.0315  0.8788
 7460SOL     OW34015   2.475   2.325   7.715 -0.1154  0.2464 -0.0778
 7460SOL    HW134016   2.398   2.277   7.685 -0.3082  0.3877  0.1949
 7460SOL    HW234017   2.518   2.353   7.634 -0.4039 -0.0718 -0.3412
 7461SOL     OW34018   2.597   0.226   3.395  0.1749 -0.0100 -0.1039
 7461SOL    HW134019   2.509   0.239   3.361 -0.5835 -1.2438  1.4277
 7461SOL    HW234020   2.602   0.133   3.418 -0.7108 -0.0140  0.0684
 7462SOL     OW34021   3.554   4.351   4.172  0.3684  0.2530  0.2751
 7462SOL    HW134022   3.555   4.394   4.087  0.6936  2.0483  1.1953
 7462SOL    HW234023   3.578   4.263   4.141 -1.7303 -0.9940  2.1251
 7463SOL     OW34024   1.286   0.002   6.187 -0.5144  0.1960  0.2901
 7463SOL    HW134025   1.222   0.073   6.186 -1.7623 -0.9348 -1.0659
 7463SOL    HW234026   1.282   4.716   6.095  0.8027 -0.2085  0.3438
 7464SOL     OW34027   3.283   4.593   9.246  0.2277  0.1963 -0.6730
 7464SOL    HW134028   3.224   4.521   9.269 -0.2265  0.9923  0.5715
 7464SOL    HW234029   3.231   4.637   9.178  0.8438  1.1073 -0.5480
 7465SOL     OW34030   4.347   1.375   6.489  0.0771 -0.0439  0.2380
 7465SOL    HW134031   4.402   1.437   6.539 -0.4367  1.0482 -0.5535
 7465SOL    HW234032   4.260   1.413   6.505 -0.3855 -1.4263  0.9348
 7466SOL     OW34033   0.625   2.738   4.823  0.2578 -0.6347 -0.7752
 7466SOL    HW134034   0.695   2.751   4.886  0.1284 -0.3779 -0.6812
 7466SOL    HW234035   0.649   2.648   4.801  2.4106 -0.5514  1.2796
 7467SOL     OW34036   4.347   0.670  16.519 -0.1739 -0.5106  0.4424
 7467SOL    HW134037   4.265   0.712  16.544  0.1616  2.7215 -3.9695
 7467SOL    HW234038   4.399   0.691  16.597 -0.7385 -0.5577  0.8332
 7468SOL     OW34039   0.498   0.746  16.509 -0.7466  0.1636  0.7084
 7468SOL    HW134040   0.493   0.661  16.465  1.5594  1.3098 -1.7839
 7468SOL    HW234041   0.488   0.808  16.437 -0.7619 -0.3142  0.2993
 7469SOL     OW34042   0.702   1.767   3.071  0.2450 -0.7330  0.2100
 7469SOL    HW134043   0.754   1.822   3.129  0.0879 -0.8571  0.4692
 7469SOL    HW234044   0.764   1.770   2.999  0.3165  3.0137  0.4052
 7470SOL     OW34045   0.608   1.498   5.838 -0.1507 -0.2750  0.7764
 7470SOL    HW134046   0.563   1.550   5.905  0.8085 -0.5226  1.6098
 7470SOL    HW234047   0.612   1.561   5.766  0.4095 -0.1166  0.9466
 7471SOL     OW34048   2.229   1.146   5.752 -0.4724  0.3883  0.0929
 7471SOL    HW134049   2.294   1.103   5.697 -0.6915 -0.4973  0.5166
 7471SOL    HW234050   2.192   1.078   5.809 -1.5661  0.3689 -0.6299
 7472SOL     OW34051   4.449   4.384   4.439  0.0222 -0.0376  0.1249
 7472SOL    HW134052   4.406   4.400   4.523  0.0604 -0.6077  0.2552
 7472SOL    HW234053   4.521   4.446   4.440 -0.8452  0.9374  2.2347
 7473SOL     OW34054   2.885   2.505   0.346 -0.4637 -0.0897 -0.2751
 7473SOL    HW134055   2.931   2.422   0.333  3.1628  1.8633  0.0993
 7473SOL    HW234056   2.929   2.552   0.417 -1.6671  0.4033  0.1449
 7474SOL     OW34057   1.391   1.024  13.031  0.5458 -0.4213 -0.0039
 7474SOL    HW134058   1.428   0.951  12.980  1.6307  0.7412 -0.8675
 7474SOL    HW234059   1.450   1.097  13.015 -0.6158  0.1407 -1.7463
 7475SOL     OW34060   4.462   1.584  14.144 -0.8064 -0.0877  0.1529
 7475SOL    HW134061   4.444   1.671  14.108 -2.3085  0.7510  2.8999
 7475SOL    HW234062   4.448   1.523  14.072  1.6850  1.9422 -2.0482
 7476SOL     OW34063   4.063   1.545  13.079 -0.2490  0.4696 -0.3063
 7476SOL    HW134064   4.111   1.564  13.159 -0.0126  0.3841 -0.4287
 7476SOL    HW234065   4.094   1.456  13.061  0.8753  0.8877 -0.4102
 7477SOL     OW34066   0.771   4.068   4.796  0.5477 -0.5815 -0.7549
 7477SOL    HW134067   0.719   3.987   4.805  0.5768 -0.1946  2.9967
 7477SOL    HW234068   0.698   4.118   4.760  2.5049  3.1275  0.5050
 7478SOL     OW34069   3.057   0.600   1.469  0.2712 -0.0744  0.8210
 7478SOL    HW134070   3.101   0.517   1.487  2.7692  0.6736 -1.9373
 7478SOL    HW234071   2.981   0.573   1.417 -0.3087 -0.3404  1.8049
 7479SOL     OW34072   2.052   4.690   9.509 -0.2679  0.4257  0.1100
 7479SOL    HW134073   1.958   4.689   9.527 -0.5166  0.0210 -1.2498
 7479SOL    HW234074   2.098   4.645   9.580 -0.6256  0.1737  0.1844
 7480SOL     OW34075   3.773   3.482   2.109 -0.0888  0.0381  0.4296
 7480SOL    HW134076   3.835   3.452   2.175 -1.6692  1.2288  2.4977
 7480SOL    HW234077   3.714   3.535   2.163 -0.8801  0.6774 -1.0586
 7481SOL     OW34078   4.256   2.515   5.098  0.5721  0.3770 -0.0085
 7481SOL    HW134079   4.202   2.560   5.033  2.6692  0.2059 -1.8568
 7481SOL    HW234080   4.336   2.567   5.099  0.9373 -0.1052 -3.6534
 7482SOL     OW34081   2.188   2.041  12.453 -0.3325 -0.0555  0.0670
 7482SOL    HW134082   2.269   2.069  12.496 -0.3471 -0.4939  0.3802
 7482SOL    HW234083   2.133   2.103  12.500  0.1525  0.7003 -0.3632
 7483SOL     OW34084   2.051   4.453  10.351  0.0156  0.1823  0.0559
 7483SOL    HW134085   1.991   4.419  10.285  0.3695 -1.0335  0.3453
 7483SOL    HW234086   2.016   4.424  10.435 -0.6156 -1.8549 -0.9115
 7484SOL     OW34087   4.287   0.756  16.230 -0.0373 -0.3554 -0.0698
 7484SOL    HW134088   4.322   0.734  16.316  0.2784  0.6299  0.0553
 7484SOL    HW234089   4.231   0.830  16.254  1.4001 -0.0001  2.1634
 7485SOL     OW34090   3.769   0.781   3.515  0.3947 -0.8134  0.0639
 7485SOL    HW134091   3.847   0.772   3.570  0.8565 -1.9189 -0.7685
 7485SOL    HW234092   3.782   0.869   3.480  0.9392 -1.3182 -1.0074
 7486SOL     OW34093   0.868   1.955   4.134  0.3670  1.1441 -0.1493
 7486SOL    HW134094   0.933   2.014   4.173 -0.9295  0.8768  2.3903
 7486SOL    HW234095   0.849   1.901   4.211  0.2924 -1.2673 -1.8506
 7487SOL     OW34096   4.132   2.722   3.029  0.1177 -0.3021 -0.2160
 7487SOL    HW134097   4.154   2.648   3.086  0.1063  1.3775  1.9667
 7487SOL    HW234098   4.208   2.779   3.043 -0.7229  0.1482  2.4549
 7488SOL     OW34099   1.534   2.912   3.222  0.3791  0.6791  0.8168
 7488SOL    HW134100   1.470   2.981   3.205 -1.2009 -0.3450  2.5508
 7488SOL    HW234101   1.490   2.829   3.205  1.6881  0.2120 -0.3006
 7489SOL     OW34102   4.617   4.583   4.442  0.2411 -0.1962 -0.8138
 7489SOL    HW134103   4.662   4.624   4.369  2.3883  1.0016  1.2002
 7489SOL    HW234104   4.672   4.609   4.516  0.9256  0.6338 -1.6092
 7490SOL     OW34105   0.565   0.929  12.040  0.2070  1.2992 -0.2111
 7490SOL    HW134106   0.637   0.883  12.081 -1.7161 -2.3956 -0.9619
 7490SOL    HW234107   0.515   0.960  12.116  2.3083 -0.1967  1.7829
 7491SOL     OW34108   2.361   4.034   8.967  0.0975  0.1831 -0.1110
 7491SOL    HW134109   2.348   3.954   9.018  3.1055 -0.5369 -0.4767
 7491SOL    HW234110   2.393   4.001   8.883  1.3575  1.4519 -0.1439
 7492SOL     OW34111   0.095   0.737   2.698 -0.7661 -0.2221 -0.3605
 7492SOL    HW134112   0.032   0.706   2.763 -0.2678 -1.2546 -0.3606
 7492SOL    HW234113   0.179   0.722   2.741 -1.0468 -0.1161  0.2185
 7493SOL     OW34114   3.335   4.073   1.313  0.2527  0.0601  0.0614
 7493SOL    HW134115   3.309   4.106   1.227 -1.3524 -3.1855 -0.7012
 7493SOL    HW234116   3.360   3.983   1.293 -0.4533 -0.0340 -0.4081
 7494SOL     OW34117   4.015   2.415  14.116 -0.3536  0.3082 -0.2198
 7494SOL    HW134118   3.942   2.475  14.131  0.9511  2.1485 -1.1262
 7494SOL    HW234119   3.980   2.328  14.133  0.8506 -0.5855 -2.3463
 7495SOL     OW34120   0.604   2.119   5.907 -0.6713 -0.2378 -0.0215
 7495SOL    HW134121   0.542   2.151   5.841 -0.5757 -2.7763 -1.3255
 7495SOL    HW234122   0.557   2.052   5.956  1.0922 -0.4393  1.4157
 7496SOL     OW34123   3.807   0.691   9.347 -0.5960  0.5530 -0.3051
 7496SOL    HW134124   3.795   0.758   9.279  0.2159  3.7346  2.6729
 7496SOL    HW234125   3.819   0.741   9.428 -0.4073 -0.6985  0.4383
 7497SOL     OW34126   3.896   3.570  15.649 -0.1923 -0.0476  0.0345
 7497SOL    HW134127   3.876   3.535  15.562  0.1956 -2.5846  0.9718
 7497SOL    HW234128   3.917   3.663  15.635  2.5412 -1.0426 -2.3957
 7498SOL     OW34129   0.763   0.133   6.510 -0.8630 -0.4590  0.1628
 7498SOL    HW134130   0.800   0.198   6.569 -0.5655  1.7509 -2.4583
 7498SOL    HW234131   0.771   0.183   6.429 -0.1556 -2.3460 -0.9506
 7499SOL     OW34132   0.261   2.184  14.170  0.2964  0.2527 -0.1201
 7499SOL    HW134133   0.258   2.166  14.076  0.1350  2.2767 -0.5021
 7499SOL    HW234134   0.295   2.097  14.190  0.6444  0.3268 -0.3805
 7500SOL     OW34135   3.274   2.729   7.588 -0.0003  0.1723  0.1575
 7500SOL    HW134136   3.352   2.743   7.534 -0.3861  1.0329 -0.1929
 7500SOL    HW234137   3.213   2.728   7.514 -1.7119 -2.6722  1.6312
 7501SOL     OW34138   3.877   2.672  15.710  0.1619  0.6809 -0.1559
 7501SOL    HW134139   3.880   2.637  15.799 -2.6037  2.5058  0.6459
 7501SOL    HW234140   3.787   2.647  15.688  0.7466 -1.2382 -0.3677
 7502SOL     OW34141   3.480   3.641  11.205  0.3042 -0.0900 -0.1946
 7502SOL    HW134142   3.573   3.618  11.200  0.3923 -0.3049  2.6913
 7502SOL    HW234143   3.448   3.580  11.272 -0.6826  0.2486 -0.3559
 7503SOL     OW34144   2.910   3.102   6.104 -0.4205 -0.2449  0.2964
 7503SOL    HW134145   2.935   3.028   6.049  0.6426 -0.4753  1.0933
 7503SOL    HW234146   2.816   3.087   6.095 -0.9137  4.1172 -1.6435
 7504SOL     OW34147   0.155   4.631  11.119  0.5127 -0.2944 -0.3639
 7504SOL    HW134148   0.116   4.573  11.053 -0.5342 -2.4069  2.1235
 7504SOL    HW234149   0.202   4.564  11.168 -3.3868 -1.8533  1.2734
 7505SOL     OW34150   2.066   2.459   2.355 -0.0603 -0.0036  0.1190
 7505SOL    HW134151   1.971   2.458   2.358 -0.0889 -0.7233 -1.2516
 7505SOL    HW234152   2.095   2.384   2.407  0.4734  0.8328  1.0187
 7506SOL     OW34153   1.154   4.544   0.399 -0.1020 -0.4747 -0.0244
 7506SOL    HW134154   1.201   4.577   0.475 -0.2004  0.1826 -0.2477
 7506SOL    HW234155   1.219   4.483   0.365  0.0890  0.4614 -1.3252
 7507SOL     OW34156   3.752   0.242   0.730 -0.6475  0.6668 -0.7750
 7507SOL    HW134157   3.678   0.185   0.748  1.1392 -1.3571  0.2164
 7507SOL    HW234158   3.753   0.314   0.794 -1.2662 -3.8001  4.2581
 7508SOL     OW34159   2.616   2.875   2.759  0.0973 -0.4364  0.7320
 7508SOL    HW134160   2.559   2.933   2.708 -0.5450  0.1040  2.0537
 7508SOL    HW234161   2.614   2.922   2.842 -3.3238  1.4406 -0.4218
 7509SOL     OW34162   3.837   2.436   5.484  0.4807 -0.2780  0.1129
 7509SOL    HW134163   3.927   2.469   5.489  0.3309  0.3322 -1.1419
 7509SOL    HW234164   3.836   2.364   5.421 -1.4684 -0.4305  0.2970
 7510SOL     OW34165   3.884   3.653   8.499  0.5755  0.3219 -0.2119
 7510SOL    HW134166   3.927   3.578   8.540 -0.4457 -0.3219 -0.3293
 7510SOL    HW234167   3.796   3.618   8.485 -0.0298  0.3490  3.5205
 7511SOL     OW34168   2.537   3.662   3.347  0.0335  0.0691 -0.0429
 7511SOL    HW134169   2.488   3.588   3.312  1.1409  0.3206 -2.1433
 7511SOL    HW234170   2.500   3.681   3.433  1.1717  1.5609  0.1192
 7512SOL     OW34171   1.612   2.462   1.754 -0.4890 -0.3493 -0.0096
 7512SOL    HW134172   1.657   2.547   1.759 -1.3420  0.1305 -0.3601
 7512SOL    HW234173   1.614   2.427   1.842  3.8626 -1.2556 -0.4646
 7513SOL     OW34174   2.166   3.432   8.486 -0.2094  0.5866  0.2789
 7513SOL    HW134175   2.118   3.350   8.481 -0.3344  0.5901  1.5647
 7513SOL    HW234176   2.236   3.405   8.546  0.2919  1.0673 -0.0842
 7514SOL     OW34177   3.095   3.465   1.956  0.5116 -0.4536 -0.2095
 7514SOL    HW134178   3.034   3.418   2.013 -0.1407  0.0796 -0.4657
 7514SOL    HW234179   3.143   3.511   2.025 -1.6324  0.2342  0.8308
 7515SOL     OW34180   1.661   2.369  15.944 -0.2910  0.3921  0.3054
 7515SOL    HW134181   1.578   2.321  15.950  0.9434 -1.5977  1.4014
 7515SOL    HW234182   1.716   2.316  16.002  0.1806 -1.9854 -2.3052
 7516SOL     OW34183   3.406   4.403   7.355  0.0933 -0.9407 -0.7384
 7516SOL    HW134184   3.335   4.343   7.330 -1.1078  1.0413 -2.1639
 7516SOL    HW234185   3.361   4.487   7.346 -0.8246 -1.2932  0.6150
 7517SOL     OW34186   0.511   1.695  11.480  0.4149 -0.2267 -0.1554
 7517SOL    HW134187   0.511   1.727  11.390 -1.2333 -0.9918 -0.4291
 7517SOL    HW234188   0.460   1.617  11.459  2.3954 -1.9113  1.2517
 7518SOL     OW34189   3.136   0.814   4.330  0.0800 -0.5170  0.1213
 7518SOL    HW134190   3.225   0.778   4.331 -0.1409 -1.0094  3.1961
 7518SOL    HW234191   3.102   0.735   4.290 -0.5891 -0.4358  0.5281
 7519SOL     OW34192   4.416   3.520   1.332 -0.6816  0.0931  0.1337
 7519SOL    HW134193   4.510   3.520   1.351 -0.5984  1.5469 -0.2799
 7519SOL    HW234194   4.386   3.444   1.383 -0.4804 -0.3491 -0.4142
 7520SOL     OW34195   0.757   3.738   2.898 -0.1619  0.0086  0.4472
 7520SOL    HW134196   0.689   3.689   2.944 -0.2018 -0.3524  0.0022
 7520SOL    HW234197   0.827   3.674   2.911  0.7644  0.8752 -0.2668
 7521SOL     OW34198   2.276   3.319   0.903  0.0516  1.0645  0.0666
 7521SOL    HW134199   2.333   3.330   0.979 -0.5207 -4.1768  1.2531
 7521SOL    HW234200   2.330   3.371   0.844  0.0449  2.1018  0.9781
 7522SOL     OW34201   4.418   1.281   3.037 -0.1467  0.1169 -0.4222
 7522SOL    HW134202   4.427   1.203   3.092  1.8112  0.3965 -0.3470
 7522SOL    HW234203   4.357   1.249   2.971 -0.0692 -1.0100  0.0400
 7523SOL     OW34204   2.822   0.138   8.850  0.4964  0.1577  0.4307
 7523SOL    HW134205   2.791   0.052   8.880  0.2139  1.2354  3.2990
 7523SOL    HW234206   2.838   0.116   8.758 -1.3629  0.9571 -0.0794
 7524SOL     OW34207   1.947   3.479   5.340  0.0393  0.4674 -0.3162
 7524SOL    HW134208   1.908   3.499   5.425  0.4961 -1.2220  0.2980
 7524SOL    HW234209   1.969   3.386   5.352  1.0447  1.0518  2.4897
 7525SOL     OW34210   2.748   4.110  16.286  0.0637  0.2288 -0.3772
 7525SOL    HW134211   2.788   4.158  16.214 -3.4830 -0.5344 -2.8395
 7525SOL    HW234212   2.696   4.173  16.338  1.6684  1.4264 -0.2229
 7526SOL     OW34213   0.619   4.263   8.223 -0.1601  0.2899  0.4374
 7526SOL    HW134214   0.570   4.203   8.167  1.2115 -0.3825 -0.0707
 7526SOL    HW234215   0.550   4.322   8.250 -0.6004  1.2723 -2.8539
 7527SOL     OW34216   1.413   1.438   6.240 -0.1900 -0.2312  0.0167
 7527SOL    HW134217   1.438   1.368   6.300 -0.9039  0.4816  1.1312
 7527SOL    HW234218   1.333   1.472   6.281 -0.0682 -3.8677  3.2829
 7528SOL     OW34219   0.549   3.224   9.538 -0.1395 -0.2081 -0.8083
 7528SOL    HW134220   0.537   3.159   9.469 -0.4155 -0.2069 -0.7615
 7528SOL    HW234221   0.541   3.169   9.615  4.1605  0.5911  0.1976
 7529SOL     OW34222   1.416   0.436   3.964  0.0043 -0.6182 -0.0872
 7529SOL    HW134223   1.477   0.485   4.020 -0.9007 -1.4615  1.6020
 7529SOL    HW234224   1.488   0.407   3.908 -0.6535  0.6448 -1.5934
 7530SOL     OW34225   1.021   0.517   7.821  0.1870 -0.2772 -0.2595
 7530SOL    HW134226   0.957   0.552   7.883  0.9416  1.1454 -0.2902
 7530SOL    HW234227   1.101   0.554   7.859 -0.1105  0.3685 -0.2629
 7531SOL     OW34228   1.314   3.743   5.838 -0.0252  0.0259 -0.1736
 7531SOL    HW134229   1.395   3.723   5.792 -0.7636 -2.8531 -0.1957
 7531SOL    HW234230   1.269   3.778   5.761  1.0278  0.4238 -0.6020
 7532SOL     OW34231   4.604   2.920   9.696 -0.0644 -0.0162  0.3227
 7532SOL    HW134232   4.530   2.908   9.755  0.4767  0.1916  1.0459
 7532SOL    HW234233   4.675   2.934   9.759 -0.3919  1.3098  0.4065
 7533SOL     OW34234   1.289   2.338  14.279 -0.0239 -0.3772 -0.1146
 7533SOL    HW134235   1.362   2.280  14.255 -0.5852  0.1414 -3.0999
 7533SOL    HW234236   1.215   2.285  14.248  1.1228 -1.1455 -1.5579
 7534SOL     OW34237   1.797   0.429  11.933  0.2442  0.4833  0.0817
 7534SOL    HW134238   1.724   0.369  11.918 -0.4962  1.2141  0.8293
 7534SOL    HW234239   1.762   0.516  11.918 -0.2517  0.1991 -0.4189
 7535SOL     OW34240   1.406   3.709   3.988  0.1103 -0.1340 -0.0152
 7535SOL    HW134241   1.375   3.654   3.916 -1.9049  0.1303  0.6481
 7535SOL    HW234242   1.450   3.644   4.043 -0.0373  0.4689  0.8235
 7536SOL     OW34243   1.589   4.731  15.514 -0.4793  0.7720 -0.9185
 7536SOL    HW134244   1.668   4.704  15.467 -1.0123 -0.3292 -1.1718
 7536SOL    HW234245   1.602   4.680  15.594  0.2024  1.6153 -0.4890
 7537SOL     OW34246   1.313   2.154   6.225  0.6396  0.1995  0.4833
 7537SOL    HW134247   1.220   2.132   6.214  1.2312 -2.4318  0.7780
 7537SOL    HW234248   1.347   2.135   6.138 -0.1434  0.2283  0.1735
 7538SOL     OW34249   4.449   1.267   1.942  0.2096 -0.0054  0.2736
 7538SOL    HW134250   4.482   1.309   2.021 -0.3899 -0.4479  0.7528
 7538SOL    HW234251   4.493   1.328   1.883  0.3576  1.2753  1.7212
 7539SOL     OW34252   2.031   1.733   5.949  0.2751  0.6237 -0.4401
 7539SOL    HW134253   1.971   1.660   5.933  0.7014  0.1958 -0.0673
 7539SOL    HW234254   1.986   1.773   6.023  0.2530 -0.8536  0.3359
 7540SOL     OW34255   4.035   4.204   8.446  0.4545 -0.5210 -0.4107
 7540SOL    HW134256   4.098   4.135   8.424  2.1590  0.4801  1.3617
 7540SOL    HW234257   3.976   4.195   8.371 -0.2759  2.1820 -0.1746
 7541SOL     OW34258   3.567   1.481   7.848 -0.3900  0.5236  0.6034
 7541SOL    HW134259   3.594   1.470   7.757 -0.4807  2.1786  0.3774
 7541SOL    HW234260   3.477   1.506   7.829  0.0890  1.3225 -0.5627
 7542SOL     OW34261   3.327   1.446   8.954  0.4245  0.4906  0.5108
 7542SOL    HW134262   3.326   1.504   8.878  1.0452  0.9869  0.8772
 7542SOL    HW234263   3.235   1.419   8.952  0.5350  0.1450  0.0211
 7543SOL     OW34264   4.040   2.602   9.982  0.2417 -0.5886 -0.2142
 7543SOL    HW134265   4.103   2.554   9.928 -1.2077 -1.1131 -1.4295
 7543SOL    HW234266   4.010   2.537  10.045  1.2103  0.4440  1.3051
 7544SOL     OW34267   4.700   3.000   0.155 -0.0986  0.0548  0.4558
 7544SOL    HW134268   4.661   3.085   0.176  0.8264  0.5594  0.1354
 7544SOL    HW234269   0.054   3.007   0.168 -0.1938  0.3186  0.9878
 7545SOL     OW34270   3.778   1.034   3.433 -0.1543 -0.2328  0.5114
 7545SOL    HW134271   3.827   1.032   3.351 -0.1890  2.0421  0.4394
 7545SOL    HW234272   3.799   1.119   3.471  2.1740 -0.0940 -1.1164
 7546SOL     OW34273   3.618   3.410   7.538 -0.6470  0.3308  0.0738
 7546SOL    HW134274   3.633   3.427   7.631  0.1172  0.8267 -0.1350
 7546SOL    HW234275   3.702   3.375   7.508 -0.7745 -1.8321  2.2368
 7547SOL     OW34276   4.169   3.815   6.748  0.3081  0.0342  0.4538
 7547SOL    HW134277   4.108   3.791   6.818  0.7019 -1.1931  0.3628
 7547SOL    HW234278   4.139   3.760   6.675  1.4813  0.6472 -0.4865
 7548SOL     OW34279   3.237   3.993   6.726 -0.1076 -0.1346 -0.2196
 7548SOL    HW134280   3.318   3.970   6.771  2.4562 -1.9329 -5.7534
 7548SOL    HW234281   3.215   3.919   6.669  3.2932 -2.6103  1.7577
 7549SOL     OW34282   2.838   3.753   4.432 -0.5852 -0.2161  0.4380
 7549SOL    HW134283   2.861   3.783   4.345 -3.1013 -0.9276 -0.4854
 7549SOL    HW234284   2.743   3.743   4.431 -0.4606 -1.4054  0.5574
 7550SOL     OW34285   3.845   1.709   1.667  0.4656  0.0935  0.4398
 7550SOL    HW134286   3.929   1.663   1.671  0.3240 -0.0746  1.7636
 7550SOL    HW234287   3.839   1.731   1.574 -0.5016 -0.6256  0.3337
 7551SOL     OW34288   3.027   0.316   3.150 -0.7946 -0.3920 -0.5638
 7551SOL    HW134289   3.005   0.371   3.075  0.4088  0.5076 -0.2549
 7551SOL    HW234290   2.935   0.300   3.174 -0.7150  1.2248  0.8097
 7552SOL     OW34291   2.703   1.835  16.074 -0.6842  0.1091  0.4835
 7552SOL    HW134292   2.688   1.838  15.980  2.0836 -0.4698  0.0494
 7552SOL    HW234293   2.768   1.904  16.085  1.5640 -2.2410  1.9245
 7553SOL     OW34294   0.032   0.092   5.053  0.6048 -0.2554 -0.5651
 7553SOL    HW134295   0.096   0.090   5.123 -0.2778 -0.8141  0.2318
 7553SOL    HW234296   0.048   0.003   5.021 -1.5529 -0.3269 -1.5088
 7554SOL     OW34297   4.459   1.862  14.137 -0.7480 -0.0137 -0.2586
 7554SOL    HW134298   4.446   1.956  14.136 -1.0833 -0.0535  0.2142
 7554SOL    HW234299   4.442   1.838  14.228 -1.6843  0.2388 -0.3702
 7555SOL     OW34300   0.513   0.145   3.387  0.4257 -0.1067  0.4655
 7555SOL    HW134301   0.601   0.178   3.368 -0.4800  0.2976 -2.9346
 7555SOL    HW234302   0.522   0.058   3.426  2.8478  0.3900  1.0015
 7556SOL     OW34303   1.272   3.289  16.649  0.0540 -0.4782  0.4570
 7556SOL    HW134304   1.274   3.381  16.625  0.9078 -0.5574  0.2255
 7556SOL    HW234305   1.178   3.277  16.638  0.0884  0.3369 -0.7018
 7557SOL     OW34306   3.746   3.635   2.775  0.3702 -0.4713 -0.5688
 7557SOL    HW134307   3.798   3.557   2.753  0.2772 -1.4531  2.6151
 7557SOL    HW234308   3.750   3.616   2.869  1.4357  1.2417 -0.2821
 7558SOL     OW34309   2.733   4.454   6.157 -0.6550 -0.1397  0.8024
 7558SOL    HW134310   2.695   4.378   6.114  0.3302 -2.0978  3.3532
 7558SOL    HW234311   2.772   4.417   6.237  2.4438 -0.6534 -0.9430
 7559SOL     OW34312   2.242   3.489   0.512 -0.6289  0.5046  0.4795
 7559SOL    HW134313   2.226   3.583   0.522  0.2046  0.3959  2.8169
 7559SOL    HW234314   2.154   3.455   0.498 -0.3099 -0.0353 -0.2353
 7560SOL     OW34315   2.422   4.618   6.811 -1.0289  0.3162  0.1652
 7560SOL    HW134316   2.511   4.652   6.807 -1.0936  0.6362  1.5384
 7560SOL    HW234317   2.425   4.596   6.904  0.9093  0.4197  0.1285
 7561SOL     OW34318   4.686   4.709   0.372 -0.6209 -0.6655 -0.0459
 7561SOL    HW134319   4.654   0.052   0.336  1.2946 -0.1486 -0.5104
 7561SOL    HW234320   4.603   4.661   0.380 -1.6833  1.0238 -1.0571
 7562SOL     OW34321   0.929   3.739   2.552  0.1166 -0.0184  0.5431
 7562SOL    HW134322   0.911   3.832   2.562  1.9505  0.6677 -2.6038
 7562SOL    HW234323   0.882   3.724   2.471  1.1051  2.8024 -0.5453
 7563SOL     OW34324   4.190   1.707   6.972 -0.0782 -0.3671  0.0851
 7563SOL    HW134325   4.218   1.736   6.885 -3.0389  0.5271 -0.5634
 7563SOL    HW234326   4.109   1.757   6.979  0.7454  0.8228  1.2199
 7564SOL     OW34327   4.622   0.615  14.477 -0.2528 -0.1039 -0.0321
 7564SOL    HW134328   4.668   0.698  14.468 -0.6676  0.2745  1.3832
 7564SOL    HW234329   4.669   0.571  14.406  1.9477 -0.5253  1.6899
 7565SOL     OW34330   1.644   0.524   2.563 -0.0658  0.4023 -0.2177
 7565SOL    HW134331   1.675   0.502   2.651 -2.3844  0.1498  0.5555
 7565SOL    HW234332   1.607   0.612   2.572 -1.4263 -0.5361  3.0893
 7566SOL     OW34333   1.277   4.014  11.214  0.6064  0.3617  0.5640
 7566SOL    HW134334   1.331   3.939  11.187 -1.4013 -0.7483 -0.3685
 7566SOL    HW234335   1.339   4.054  11.275  2.2612  3.2524 -2.9998
 7567SOL     OW34336   1.187   1.158   7.148  0.4701 -0.0398  0.2752
 7567SOL    HW134337   1.190   1.088   7.083 -1.0103 -0.5355  0.7382
 7567SOL    HW234338   1.278   1.170   7.172  0.7129 -2.4164  0.4786
 7568SOL     OW34339   4.662   1.774  11.443 -0.2155  0.9365  0.0243
 7568SOL    HW134340   4.618   1.852  11.479 -1.1533  0.3469  0.1544
 7568SOL    HW234341   0.006   1.795  11.483 -1.3504  0.1574  2.8922
 7569SOL     OW34342   1.856   2.751   8.516 -1.0090 -0.1014  0.3113
 7569SOL    HW134343   1.807   2.699   8.580 -1.0895 -0.3130  0.0763
 7569SOL    HW234344   1.946   2.734   8.547 -1.1393  0.0020  0.7521
 7570SOL     OW34345   2.780   1.735   2.777  0.2146 -0.0556  0.1312
 7570SOL    HW134346   2.802   1.828   2.785 -0.9397 -0.1244  4.2026
 7570SOL    HW234347   2.748   1.746   2.688  0.2657 -0.0217  0.1169
 7571SOL     OW34348   3.381   4.427   6.051  0.1330 -0.1037 -0.2367
 7571SOL    HW134349   3.309   4.490   6.052 -0.8233 -1.1869  0.3486
 7571SOL    HW234350   3.419   4.450   6.136  1.5490 -1.2971 -0.5510
 7572SOL     OW34351   2.468   4.304   9.012  0.2110 -0.5782  0.0351
 7572SOL    HW134352   2.460   4.215   8.976 -1.1733 -0.5440  0.2694
 7572SOL    HW234353   2.498   4.286   9.100  1.5073 -2.0950 -0.7216
 7573SOL     OW34354   0.298   0.863   9.820  0.3696 -0.0701  0.0801
 7573SOL    HW134355   0.237   0.922   9.862  0.0911  0.2458 -0.7582
 7573SOL    HW234356   0.315   0.891   9.730  1.4998  1.0466  0.6422
 7574SOL     OW34357   3.275   3.393   4.492 -0.1883 -0.0424  0.6042
 7574SOL    HW134358   3.233   3.458   4.549 -1.8181 -2.3814  2.0622
 7574SOL    HW234359   3.250   3.312   4.536  2.6869 -0.5791  1.2550
 7575SOL     OW34360   2.741   4.653   1.422  0.0994 -0.0008 -0.0193
 7575SOL    HW134361   2.686   4.575   1.410  1.9089 -0.9961 -1.9395
 7575SOL    HW234362   2.681   4.725   1.405 -0.0214  0.6915  3.3523
 7576SOL     OW34363   1.781   1.114   7.922 -0.7237 -0.8362  0.6320
 7576SOL    HW134364   1.689   1.129   7.942 -1.3169  0.4747 -2.9927
 7576SOL    HW234365   1.774   1.111   7.826  0.5444 -1.5886  0.5561
 7577SOL     OW34366   2.841   4.420  10.510 -0.6278  0.1880 -0.4738
 7577SOL    HW134367   2.802   4.460  10.433 -3.0515  0.0389  0.6635
 7577SOL    HW234368   2.885   4.493  10.553  0.8761 -0.3436 -1.1402
 7578SOL     OW34369   2.056   3.404  15.915 -0.1091 -0.3505 -0.7134
 7578SOL    HW134370   2.101   3.382  15.833 -0.7640  4.0198 -2.2309
 7578SOL    HW234371   1.980   3.453  15.882 -1.2224 -0.1037  2.2235
 7579SOL     OW34372   3.564   1.184   5.097  0.0665 -0.5276 -0.4226
 7579SOL    HW134373   3.557   1.260   5.154  0.3349 -0.7343 -0.1123
 7579SOL    HW234374   3.635   1.137   5.140 -1.2251 -1.4743  0.6962
 7580SOL     OW34375   2.711   0.140  12.466  1.2295  0.4273  0.2781
 7580SOL    HW134376   2.798   0.162  12.499  2.3418 -2.5247 -0.6712
 7580SOL    HW234377   2.736   0.103  12.381 -0.7854  0.6966 -0.4300
 7581SOL     OW34378   4.481   3.603   3.072 -0.2035  0.1828 -0.0391
 7581SOL    HW134379   4.440   3.556   3.144 -0.6226  0.1763 -0.2843
 7581SOL    HW234380   4.413   3.668   3.054  0.3516  0.6762 -0.3603
 7582SOL     OW34381   4.307   3.864   7.019  0.1785  0.5816  0.4984
 7582SOL    HW134382   4.344   3.943   6.981  0.8250 -1.6551 -3.5409
 7582SOL    HW234383   4.363   3.835   7.091  1.0709  0.7353 -0.1365
 7583SOL     OW34384   1.784   2.975   8.355  0.1452  0.7099 -0.1155
 7583SOL    HW134385   1.691   2.997   8.348 -0.5285 -1.8130  0.5973
 7583SOL    HW234386   1.779   2.890   8.399 -1.0687  0.8692  0.0474
 7584SOL     OW34387   0.506   4.646  13.188  0.0175 -0.0838 -0.3329
 7584SOL    HW134388   0.520   4.565  13.236 -0.1854 -1.9414 -3.4233
 7584SOL    HW234389   0.542   4.629  13.101 -0.7376 -2.1598 -0.2442
 7585SOL     OW34390   0.376   3.629   8.554  0.8863  0.2338  0.0466
 7585SOL    HW134391   0.378   3.718   8.520  0.8257 -0.5515 -2.0390
 7585SOL    HW234392   0.368   3.654   8.646  0.7716 -2.2653  0.7246
 7586SOL     OW34393   2.896   2.682   8.085  0.6808  0.1287  0.0532
 7586SOL    HW134394   2.899   2.587   8.073 -0.9051 -0.2431  2.5872
 7586SOL    HW234395   2.974   2.695   8.138  0.1276  0.1586  0.8582
 7587SOL     OW34396   3.129   0.766   1.659 -0.3981  0.7793 -1.0499
 7587SOL    HW134397   3.220   0.755   1.632 -0.7158 -4.0963  0.0381
 7587SOL    HW234398   3.094   0.723   1.581 -0.6306  1.6610 -1.4365
 7588SOL     OW34399   3.128   1.586   5.445 -0.1784 -0.2691 -0.0578
 7588SOL    HW134400   3.210   1.536   5.445  0.7677  1.2802  0.4114
 7588SOL    HW234401   3.128   1.633   5.361 -0.6878 -2.6427 -1.3946
 7589SOL     OW34402   4.426   1.503   2.676 -0.7309  0.1704 -0.2490
 7589SOL    HW134403   4.469   1.419   2.658 -2.9949 -0.5673 -2.1993
 7589SOL    HW234404   4.346   1.466   2.714  1.3116 -0.8671  3.0422
 7590SOL     OW34405   0.143   4.521  17.522 -0.2680  0.0248  0.8605
 7590SOL    HW134406   0.063   4.574  17.528 -0.6195 -0.1136 -2.1295
 7590SOL    HW234407   0.206   4.575  17.569 -0.0691  0.5949 -0.0411
 7591SOL     OW34408   1.212   4.006   5.693 -0.6941 -0.4568  0.2469
 7591SOL    HW134409   1.286   4.039   5.642 -0.5674 -0.7257  0.2578
 7591SOL    HW234410   1.184   3.930   5.643 -0.2665  0.1209 -0.8564
 7592SOL     OW34411   1.603   1.041  10.785 -0.1575 -0.2178  0.3583
 7592SOL    HW134412   1.604   1.038  10.881 -1.6060 -0.2700  0.3770
 7592SOL    HW234413   1.528   1.100  10.777 -1.3531 -1.8417 -0.5880
 7593SOL     OW34414   1.724   0.959   3.929  0.1375 -0.5592 -0.2028
 7593SOL    HW134415   1.808   0.938   3.889  0.1901 -1.0543  0.1669
 7593SOL    HW234416   1.670   0.988   3.855  0.8625 -1.2319 -0.9954
 7594SOL     OW34417   0.979   4.412   2.742 -0.6421  0.4347 -0.3410
 7594SOL    HW134418   1.047   4.475   2.764 -0.5469  0.6188 -1.1829
 7594SOL    HW234419   0.983   4.364   2.825  2.3386 -0.4635 -0.9972
 7595SOL     OW34420   2.089   3.587   4.470 -0.1245 -0.4575 -0.0702
 7595SOL    HW134421   2.143   3.509   4.458  1.3709  0.1107  2.7918
 7595SOL    HW234422   2.001   3.552   4.457  0.1063 -0.7914 -0.7440
 7596SOL     OW34423   3.029   0.578   7.656  0.4966  0.3212  0.1427
 7596SOL    HW134424   2.985   0.611   7.579 -1.3658  1.7704  1.8345
 7596SOL    HW234425   2.984   0.494   7.663  2.0014 -0.4796  0.4244
 7597SOL     OW34426   0.483   3.167   9.203  0.3454 -0.4277  0.2565
 7597SOL    HW134427   0.434   3.092   9.171 -0.6553  0.1365  0.4740
 7597SOL    HW234428   0.536   3.194   9.128 -0.2069  1.7056  0.6143
 7598SOL     OW34429   2.844   1.611  16.249 -0.6662  0.0567  0.0293
 7598SOL    HW134430   2.815   1.656  16.170  0.5712  0.1226 -0.3788
 7598SOL    HW234431   2.910   1.672  16.284 -1.6674  0.2573  1.5544
 7599SOL     OW34432   1.091   1.986   3.319 -0.4458 -0.6138  0.4726
 7599SOL    HW134433   1.105   2.070   3.276  0.4546 -1.1871 -0.3277
 7599SOL    HW234434   1.145   1.926   3.269 -0.1208  0.3947 -0.3702
 7600SOL     OW34435   1.543   3.891   2.913 -0.3352  0.2916  0.1257
 7600SOL    HW134436   1.601   3.818   2.934 -0.2190  0.2044 -0.5037
 7600SOL    HW234437   1.463   3.845   2.889 -0.6466  0.6293  0.5047
 7601SOL     OW34438   3.362   2.382   2.381 -0.2832 -0.0268 -0.1375
 7601SOL    HW134439   3.317   2.453   2.428 -1.8697 -0.2749 -1.2903
 7601SOL    HW234440   3.422   2.349   2.448 -2.1358  1.3129  2.1825
 7602SOL     OW34441   2.890   3.387  16.243  0.6909 -0.3533  0.5472
 7602SOL    HW134442   2.965   3.352  16.290  1.1048 -0.9686 -0.5862
 7602SOL    HW234443   2.909   3.479  16.224  2.7078 -0.3115  2.7948
 7603SOL     OW34444   3.297   3.818  11.872  0.1084  0.7521 -0.4275
 7603SOL    HW134445   3.361   3.881  11.839  1.3593 -0.7073 -0.7957
 7603SOL    HW234446   3.250   3.873  11.934  0.2439 -0.3095  0.6302
 7604SOL     OW34447   0.836   2.777   4.059 -0.4004 -0.2284 -0.0875
 7604SOL    HW134448   0.887   2.696   4.047  0.2210 -0.1953  2.3199
 7604SOL    HW234449   0.902   2.836   4.023  1.4880 -0.3454  3.2747
 7605SOL     OW34450   0.620   0.590   6.589 -0.2473 -0.3793 -0.3945
 7605SOL    HW134451   0.685   0.553   6.530  0.5378  0.2817  0.0616
 7605SOL    HW234452   0.594   0.513   6.641 -2.3237 -0.6823 -1.8961
 7606SOL     OW34453   3.490   4.043  13.685 -0.0567 -0.2508 -0.1517
 7606SOL    HW134454   3.455   3.955  13.699 -1.6820  0.2914 -0.7284
 7606SOL    HW234455   3.443   4.086  13.757  2.0998  1.1207  0.4295
 7607SOL     OW34456   3.997   2.995   7.359 -0.6178 -0.0121  0.3564
 7607SOL    HW134457   4.017   3.087   7.343  1.9582 -0.8929 -1.5195
 7607SOL    HW234458   4.023   2.992   7.451  2.2821  0.0489 -0.4465
 7608SOL     OW34459   2.376   2.926   3.063 -0.1277 -0.6567 -0.3415
 7608SOL    HW134460   2.440   2.869   3.106  1.8371  2.5711  1.0558
 7608SOL    HW234461   2.294   2.910   3.109  0.0788 -0.0374  0.2500
 7609SOL     OW34462   1.759   2.609   8.719  0.7894  0.0172 -0.5124
 7609SOL    HW134463   1.726   2.556   8.647 -0.1307  1.3537 -1.0684
 7609SOL    HW234464   1.819   2.548   8.762  0.1284  0.9231  1.7231
 7610SOL     OW34465   3.766   3.826   6.801  0.2286 -0.2723  0.0979
 7610SOL    HW134466   3.775   3.763   6.872 -0.8281  0.4942  0.9229
 7610SOL    HW234467   3.745   3.768   6.728  1.8169 -3.5238  2.2363
 7611SOL     OW34468   4.175   2.147   2.448 -0.1994 -0.1129 -0.0046
 7611SOL    HW134469   4.202   2.180   2.533 -0.1218 -1.2590  0.4173
 7611SOL    HW234470   4.090   2.111   2.472 -0.8539 -0.2477 -2.4788
 7612SOL     OW34471   2.117   4.547  12.286  0.1486 -0.4460  0.0186
 7612SOL    HW134472   2.101   4.610  12.356  1.8879 -1.6383  1.4996
 7612SOL    HW234473   2.209   4.551  12.261  0.1019  1.1948  0.1016
 7613SOL     OW34474   2.743   0.368  10.257 -0.3174 -0.4185  0.1053
 7613SOL    HW134475   2.834   0.350  10.234  0.0013  1.1798  0.0924
 7613SOL    HW234476   2.696   0.310  10.197 -0.0970 -0.6804  0.1851
 7614SOL     OW34477   3.906   4.013   6.141 -0.2013  0.5392  0.6185
 7614SOL    HW134478   3.887   3.920   6.133  1.6271  0.1332  1.0756
 7614SOL    HW234479   3.868   4.044   6.058 -0.2437 -0.2910  0.3260
 7615SOL     OW34480   0.022   3.301   2.803  0.3274  0.3958 -0.4153
 7615SOL    HW134481   4.707   3.323   2.878  0.3684  1.9840 -0.8569
 7615SOL    HW234482   4.700   3.294   2.731  0.8621  0.2443 -0.8687
 7616SOL     OW34483   4.288   4.548   6.432  0.1069 -0.3981  0.1821
 7616SOL    HW134484   4.271   4.610   6.504 -1.5653  1.2367 -1.5978
 7616SOL    HW234485   4.311   4.469   6.480 -0.8388 -1.9476 -1.9555
 7617SOL     OW34486   3.897   2.735   9.790  0.3755 -0.4624  0.0040
 7617SOL    HW134487   3.948   2.773   9.718  0.6093 -2.7794 -1.0687
 7617SOL    HW234488   3.954   2.684   9.847  1.1775 -0.7089 -1.0184
 7618SOL     OW34489   0.351   0.345  17.597 -0.2197  0.3872  0.3739
 7618SOL    HW134490   0.395   0.402  17.534  0.9959 -0.6599  0.2553
 7618SOL    HW234491   0.320   0.280  17.533 -0.3592  0.9770 -0.1546
 7619SOL     OW34492   3.907   3.741   6.143 -0.3821 -0.3111  0.8957
 7619SOL    HW134493   3.865   3.662   6.110 -2.2540  0.2814  1.8341
 7619SOL    HW234494   3.985   3.728   6.090 -2.1424 -1.0459 -1.5253
 7620SOL     OW34495   2.196   4.137   7.787  0.1108  0.3775 -0.1377
 7620SOL    HW134496   2.199   4.226   7.751  2.7757 -0.0425 -0.9119
 7620SOL    HW234497   2.170   4.161   7.876 -0.2038 -0.7265  0.0729
 7621SOL     OW34498   2.762   0.416   1.726 -0.1094  0.4431 -0.1563
 7621SOL    HW134499   2.720   0.418   1.640  1.6549 -3.1740 -1.0807
 7621SOL    HW234500   2.695   0.361   1.765  0.0815 -0.6762 -1.4172
 7622SOL     OW34501   1.655   0.594   1.484 -0.4896  0.3239  0.3456
 7622SOL    HW134502   1.739   0.600   1.529 -1.2395  0.9286  1.6676
 7622SOL    HW234503   1.653   0.672   1.430  0.7535  0.3745  0.3781
 7623SOL     OW34504   1.535   3.834   1.709 -0.2626 -0.5495  0.6846
 7623SOL    HW134505   1.448   3.870   1.725 -0.0793 -0.4147  1.3623
 7623SOL    HW234506   1.586   3.907   1.743 -1.8474  1.3564 -1.0513
 7624SOL     OW34507   1.169   0.736  14.965  0.1416 -0.2657 -0.0122
 7624SOL    HW134508   1.164   0.644  14.939 -2.3068 -0.3180  0.6148
 7624SOL    HW234509   1.256   0.766  14.940 -0.1911 -0.0541 -0.9030
 7625SOL     OW34510   1.986   4.081   6.573 -0.7588 -0.1135  0.1270
 7625SOL    HW134511   2.022   3.996   6.600 -0.1198 -0.0119 -0.4097
 7625SOL    HW234512   2.054   4.111   6.513  0.6038  0.1569  1.8089
 7626SOL     OW34513   4.310   3.115   6.578  0.9248 -0.6922  0.3044
 7626SOL    HW134514   4.333   3.208   6.572  0.0229 -0.5532 -1.0165
 7626SOL    HW234515   4.319   3.082   6.489 -0.9543  0.1390 -0.2020
 7627SOL     OW34516   0.485   4.289  15.668 -0.1992  0.0902  0.3305
 7627SOL    HW134517   0.499   4.327  15.581 -0.6133 -2.5771 -0.8792
 7627SOL    HW234518   0.413   4.342  15.703  0.9426  0.7505  1.6820
 7628SOL     OW34519   0.038   4.661  13.534  0.4486 -0.3563 -0.1519
 7628SOL    HW134520   0.078   0.003  13.563  0.4568 -2.1711  4.9800
 7628SOL    HW234521   0.075   4.648  13.447 -0.3505 -0.1454 -0.5204
 7629SOL     OW34522   2.976   1.367   2.525 -0.2881  0.3535 -0.0175
 7629SOL    HW134523   2.899   1.364   2.469  0.4647 -2.0302 -0.9494
 7629SOL    HW234524   2.992   1.460   2.514 -0.0494  0.2121 -0.9310
 7630SOL     OW34525   1.543   1.092   5.080  0.3289  0.6708 -0.0156
 7630SOL    HW134526   1.491   1.090   5.000 -0.1550  1.1956  0.2909
 7630SOL    HW234527   1.463   1.101   5.131 -1.0036 -1.8249 -1.6237
 7631SOL     OW34528   3.424   2.877   0.586  0.3045 -0.0011  0.3233
 7631SOL    HW134529   3.439   2.906   0.496  0.1747  1.0213  0.6346
 7631SOL    HW234530   3.330   2.859   0.574 -0.3190  2.7037  1.1770
 7632SOL     OW34531   1.856   2.233  15.032  0.1825 -0.4611  0.3499
 7632SOL    HW134532   1.900   2.151  15.055  0.6614  0.0426  1.1761
 7632SOL    HW234533   1.798   2.191  14.968  1.8624  0.9795 -2.1076
 7633SOL     OW34534   0.594   4.575  10.782  0.1949 -0.0156  0.2632
 7633SOL    HW134535   0.603   4.494  10.834  1.8532  2.1587  3.4048
 7633SOL    HW234536   0.510   4.609  10.813  0.8175  0.2005  1.7232
 7634SOL     OW34537   2.361   4.640   6.043  0.4232 -0.0349 -0.1517
 7634SOL    HW134538   2.342   4.623   6.135  1.3768 -2.3525 -0.3635
 7634SOL    HW234539   2.359   4.735   6.037  0.7485 -0.1467 -2.2240
 7635SOL     OW34540   1.236   0.063   3.585  0.0856  0.1318  0.2723
 7635SOL    HW134541   1.207   0.051   3.495 -2.0128  0.0234  0.9592
 7635SOL    HW234542   1.159   0.083   3.639  0.4264  0.2301  0.7232
 7636SOL     OW34543   2.093   1.603   5.297 -0.1830  0.1622  0.0453
 7636SOL    HW134544   2.028   1.535   5.280  2.1920 -2.0825 -0.0891
 7636SOL    HW234545   2.076   1.635   5.385  1.2605 -0.3390  0.5002
 7637SOL     OW34546   0.663   2.638   9.378  0.4733  0.5268 -0.1459
 7637SOL    HW134547   0.612   2.672   9.304 -0.4798 -0.8748 -0.1289
 7637SOL    HW234548   0.686   2.718   9.426  0.3195 -0.1832  1.1021
 7638SOL     OW34549   0.504   3.211   5.928  0.3457 -0.7824 -0.1370
 7638SOL    HW134550   0.526   3.164   6.009 -1.2213  0.2929  0.9278
 7638SOL    HW234551   0.562   3.287   5.940 -0.1703 -0.0511 -2.3686
 7639SOL     OW34552   4.402   2.604   5.604 -0.0561 -0.0905 -0.4848
 7639SOL    HW134553   4.473   2.652   5.646 -0.7242  0.6928 -0.2399
 7639SOL    HW234554   4.327   2.653   5.637  2.1353  3.0018 -0.0877
 7640SOL     OW34555   2.448   0.276   9.631  0.6985  0.4582 -0.3247
 7640SOL    HW134556   2.492   0.356   9.603  0.0212  1.0625  0.3257
 7640SOL    HW234557   2.421   0.240   9.547 -1.6094 -1.9497  1.4609
 7641SOL     OW34558   2.752   3.499   8.674 -0.5100 -0.0984  0.9591
 7641SOL    HW134559   2.824   3.479   8.734 -0.4753 -0.4934  0.7862
 7641SOL    HW234560   2.684   3.443   8.709  1.2147 -2.3064  0.7685
 7642SOL     OW34561   0.132   3.900   2.561 -0.1688 -0.5225  0.5445
 7642SOL    HW134562   0.155   3.919   2.651  0.5576  1.1580 -0.0092
 7642SOL    HW234563   0.202   3.946   2.516 -2.2225  0.3174 -1.8116
 7643SOL     OW34564   4.354   0.510   0.366  0.4887 -0.0697 -0.5347
 7643SOL    HW134565   4.267   0.549   0.363 -1.0426 -3.2852  1.8071
 7643SOL    HW234566   4.329   0.417   0.364 -1.8483  0.4768  2.2304
 7644SOL     OW34567   1.750   0.991  15.415 -0.3144 -0.6098 -0.0450
 7644SOL    HW134568   1.732   1.078  15.449 -0.7416 -0.7780  0.1494
 7644SOL    HW234569   1.668   0.944  15.429  0.2743 -1.3315  0.9553
 7645SOL     OW34570   3.333   4.262  14.843 -0.0917  0.6101  0.0063
 7645SOL    HW134571   3.249   4.298  14.871 -0.1228 -0.3164  1.0989
 7645SOL    HW234572   3.300   4.204  14.774  1.4468  0.4354 -0.5790
 7646SOL     OW34573   1.175   2.428   4.446  0.4422 -0.0608 -0.3693
 7646SOL    HW134574   1.203   2.337   4.445  1.2304  0.1679  1.2071
 7646SOL    HW234575   1.139   2.447   4.359  1.0559  2.8385 -0.0035
 7647SOL     OW34576   0.140   4.159   7.938  0.4811  0.7570  0.3958
 7647SOL    HW134577   0.116   4.124   8.024  0.1088  2.1706  0.8541
 7647SOL    HW234578   0.117   4.083   7.884 -2.3328  0.6043  1.7777
 7648SOL     OW34579   1.922   3.818   2.376 -0.0431  0.4171 -0.1693
 7648SOL    HW134580   2.017   3.822   2.373 -0.0290  0.3310  0.2049
 7648SOL    HW234581   1.906   3.867   2.295  2.0941 -1.6797 -1.8242
 7649SOL     OW34582   2.725   0.886  13.007 -0.1009 -0.1939  0.1837
 7649SOL    HW134583   2.810   0.855  12.976 -0.4468  0.0434 -0.9898
 7649SOL    HW234584   2.758   0.950  13.071  0.7129  0.8700 -1.3140
 7650SOL     OW34585   2.040   2.565   3.370  0.1867  0.1577  0.0745
 7650SOL    HW134586   1.974   2.591   3.434 -1.5653  2.8837 -2.8628
 7650SOL    HW234587   1.993   2.490   3.336 -0.6953  0.4268  0.6769
 7651SOL     OW34588   1.706   1.184   4.130  0.4164 -0.4623 -0.8727
 7651SOL    HW134589   1.619   1.160   4.099 -1.0492  1.0845  2.0168
 7651SOL    HW234590   1.754   1.101   4.124 -0.7787 -1.2504  0.3086
 7652SOL     OW34591   2.163   3.019  15.864 -0.6430 -0.0499 -0.0041
 7652SOL    HW134592   2.160   3.079  15.790 -0.7943  2.2842  1.9312
 7652SOL    HW234593   2.222   3.067  15.922 -1.1946  1.4846 -0.7178
 7653SOL     OW34594   0.749   0.147   1.189  0.0443 -0.0824 -0.4088
 7653SOL    HW134595   0.812   0.093   1.141  0.2734  0.6700 -0.9555
 7653SOL    HW234596   0.809   0.211   1.227  0.9104 -2.9460  3.0839
 7654SOL     OW34597   3.853   3.490  15.913  0.1254 -0.6598  0.4677
 7654SOL    HW134598   3.766   3.521  15.941 -1.4538 -2.7142 -2.1525
 7654SOL    HW234599   3.861   3.523  15.824  2.8024  0.7544  1.2279
 7655SOL     OW34600   2.164   2.734   4.165 -0.2977  0.0515  0.3294
 7655SOL    HW134601   2.194   2.687   4.243 -0.0873  0.3383  0.4192
 7655SOL    HW234602   2.123   2.666   4.111 -1.7319  1.9100 -0.9636
 7656SOL     OW34603   4.224   0.792   3.751 -0.5687  0.4465  0.3785
 7656SOL    HW134604   4.306   0.788   3.700 -0.0171  1.5299  1.1949
 7656SOL    HW234605   4.192   0.881   3.736  1.8712  1.5308  1.6549
 7657SOL     OW34606   2.327   2.406   4.173  0.4498 -0.4777  0.3649
 7657SOL    HW134607   2.244   2.360   4.159  0.3972 -1.2681  3.1577
 7657SOL    HW234608   2.302   2.447   4.256  0.7017 -0.2575  0.3310
 7658SOL     OW34609   3.293   4.023  15.521 -0.4446 -1.0057 -0.1213
 7658SOL    HW134610   3.221   4.048  15.579  0.4247 -2.1103  1.4157
 7658SOL    HW234611   3.253   4.059  15.441 -1.3414  2.1850  1.7785
 7659SOL     OW34612   1.197   0.309   4.027 -0.5549 -0.3327 -0.3656
 7659SOL    HW134613   1.238   0.223   4.039 -1.0172 -0.2375  1.8900
 7659SOL    HW234614   1.272   0.365   4.006  0.3901 -1.5434 -0.1930
 7660SOL     OW34615   1.401   1.098   4.082  0.4090  0.3157  0.5434
 7660SOL    HW134616   1.381   1.058   3.997 -2.0499  2.3424  0.1666
 7660SOL    HW234617   1.460   1.031   4.117  2.6692  1.7707 -0.5042
 7661SOL     OW34618   0.429   3.724   5.092  0.3619  0.5889 -0.0713
 7661SOL    HW134619   0.388   3.647   5.133 -1.3906  2.0394  0.9342
 7661SOL    HW234620   0.385   3.736   5.008 -0.8612  0.6856  0.5739
 7662SOL     OW34621   4.345   2.515   2.536  0.0881 -0.1168 -0.3311
 7662SOL    HW134622   4.357   2.570   2.614  4.1128  0.5155 -1.3995
 7662SOL    HW234623   4.335   2.430   2.580 -0.7923 -0.3495 -0.9668
 7663SOL     OW34624   1.559   0.417   2.184 -0.2510 -0.2534  0.3606
 7663SOL    HW134625   1.546   0.365   2.105 -0.5003  1.5394 -0.7753
 7663SOL    HW234626   1.503   0.493   2.171  0.3369  0.1831  0.3760
 7664SOL     OW34627   4.647   1.405   8.674 -0.1420  0.3243  0.3132
 7664SOL    HW134628   4.569   1.448   8.709  1.9795  2.9414  1.8822
 7664SOL    HW234629   4.612   1.342   8.612  2.6281 -1.4536  0.5494
 7665SOL     OW34630   1.181   4.018   6.606 -0.6091 -0.1282 -0.0004
 7665SOL    HW134631   1.254   3.981   6.655  0.0745 -1.3217 -1.9199
 7665SOL    HW234632   1.197   3.988   6.516  1.7044  1.1844 -0.0268
 7666SOL     OW34633   2.297   2.090  17.086  0.3552  0.4579  0.2315
 7666SOL    HW134634   2.255   2.165  17.044 -0.0615  0.4072  0.5609
 7666SOL    HW234635   2.332   2.047  17.007  1.7680  1.2212  0.4435
 7667SOL     OW34636   3.836   0.768   2.771 -0.7560  0.1706 -0.1507
 7667SOL    HW134637   3.743   0.769   2.752 -1.4319  1.3791  3.2366
 7667SOL    HW234638   3.855   0.851   2.727  2.6487 -1.0683 -1.0124
 7668SOL     OW34639   1.596   2.427   6.653 -0.1856  0.3777  0.6602
 7668SOL    HW134640   1.601   2.522   6.661 -2.1768  0.5411 -0.0726
 7668SOL    HW234641   1.661   2.429   6.583  1.1384  0.0794  1.8697
 7669SOL     OW34642   4.189   4.622  10.806 -0.0222 -0.4204  0.5564
 7669SOL    HW134643   4.278   4.648  10.781 -0.2180 -0.1215  0.1796
 7669SOL    HW234644   4.173   4.541  10.758 -1.1395  1.1785 -1.7833
 7670SOL     OW34645   1.389   4.268   4.182  0.6554 -0.7649  0.3771
 7670SOL    HW134646   1.350   4.181   4.189  0.7970 -1.0157 -2.0491
 7670SOL    HW234647   1.343   4.316   4.250  2.6819 -1.0583  1.9794
 7671SOL     OW34648   1.032   3.408  16.326 -0.0356  0.0072  0.2153
 7671SOL    HW134649   0.970   3.482  16.326  0.8335  0.7300  3.3439
 7671SOL    HW234650   1.020   3.381  16.235  0.7430 -0.2572  0.1887
 7672SOL     OW34651   2.478   1.322   2.281  0.6476 -0.3633 -0.2706
 7672SOL    HW134652   2.557   1.316   2.334  0.2187 -1.9338  0.1777
 7672SOL    HW234653   2.436   1.407   2.298 -0.5366 -1.6748  3.4724
 7673SOL     OW34654   4.655   2.644  16.505 -0.5157  0.3081  0.5679
 7673SOL    HW134655   4.572   2.689  16.520 -2.1983 -2.7126  0.3400
 7673SOL    HW234656   4.641   2.550  16.522  0.7928  0.2852  1.5046
 7674SOL     OW34657   0.115   3.069   7.585  0.2542  0.6748  0.1846
 7674SOL    HW134658   0.120   2.973   7.593  0.5506  0.6432 -0.4121
 7674SOL    HW234659   0.102   3.096   7.676  0.5566  0.0473  0.4163
 7675SOL     OW34660   2.084   0.670   7.579 -0.9170 -0.0714 -0.2834
 7675SOL    HW134661   2.047   0.728   7.646  1.5235  1.6569 -0.4164
 7675SOL    HW234662   2.061   0.725   7.504 -1.9733  1.5502  1.2138
 7676SOL     OW34663   0.982   2.719   9.008 -1.1103  0.9591  0.2454
 7676SOL    HW134664   1.004   2.791   8.949 -0.4279  0.3770 -0.2094
 7676SOL    HW234665   1.068   2.676   9.015 -1.8164 -0.2409  1.6152
 7677SOL     OW34666   1.060   1.067   3.853  0.8892 -0.1129 -0.4416
 7677SOL    HW134667   1.046   1.104   3.940  2.6953  2.1062 -1.0943
 7677SOL    HW234668   1.075   1.143   3.798  0.3765 -0.0281 -0.4555
 7678SOL     OW34669   0.736   4.566   7.760 -0.6929  0.1701  0.0161
 7678SOL    HW134670   0.801   4.496   7.750 -2.3778 -1.4475  0.5875
 7678SOL    HW234671   0.708   4.552   7.850  2.1528 -2.5240  0.4881
 7679SOL     OW34672   4.332   4.567   2.838  0.2550  0.4734 -0.2856
 7679SOL    HW134673   4.241   4.595   2.832  0.1052 -0.1691 -1.1028
 7679SOL    HW234674   4.367   4.585   2.925 -0.9674  1.3195  0.0280
 7680SOL     OW34675   0.625   2.248  17.529  0.2093 -0.2849 -0.3553
 7680SOL    HW134676   0.668   2.309  17.469 -2.1064 -0.0151 -1.7825
 7680SOL    HW234677   0.669   2.165  17.513  0.4783  0.0587 -1.4700
 7681SOL     OW34678   1.295   3.863   3.035  0.2523 -0.1539  0.4194
 7681SOL    HW134679   1.378   3.907   3.052  0.1259  1.2995 -2.8077
 7681SOL    HW234680   1.267   3.924   2.967 -0.2417 -1.2784 -0.3952
 7682SOL     OW34681   1.033   2.234   4.816 -0.3382 -0.4499 -0.4965
 7682SOL    HW134682   1.013   2.243   4.909 -0.4058  1.0771 -0.6485
 7682SOL    HW234683   1.040   2.322   4.780  1.8497 -0.6046 -0.4596
 7683SOL     OW34684   4.738   4.652   1.862 -0.0963  0.5344  0.4444
 7683SOL    HW134685   4.715   4.599   1.938 -2.4589  1.3294  0.2829
 7683SOL    HW234686   4.697   4.605   1.789  1.0885 -1.1343  0.8392
 7684SOL     OW34687   4.372   0.244   6.163 -0.3362  0.0038 -0.5836
 7684SOL    HW134688   4.427   0.169   6.142 -1.1729 -1.3735  2.1132
 7684SOL    HW234689   4.406   0.304   6.098  0.5575 -0.9781 -1.0187
 7685SOL     OW34690   3.327   2.587  15.003  0.2798  0.4510  0.1826
 7685SOL    HW134691   3.254   2.602  14.943 -0.3310 -0.6996  0.6361
 7685SOL    HW234692   3.395   2.573  14.938 -0.7698 -2.4115 -0.3017
 7686SOL     OW34693   3.442   3.103   9.728  0.0425 -0.5858 -1.1949
 7686SOL    HW134694   3.414   3.044   9.798  2.1699  0.1000  0.2392
 7686SOL    HW234695   3.366   3.157   9.708  0.8156  2.2644  3.2936
 7687SOL     OW34696   0.523   3.313   7.715 -0.3405  0.3320  0.3038
 7687SOL    HW134697   0.546   3.233   7.762  0.5210  0.0497 -0.6273
 7687SOL    HW234698   0.427   3.316   7.724 -0.1051 -0.6444  3.1096
 7688SOL     OW34699   2.787   2.262  15.666  0.0488  0.6925  0.0160
 7688SOL    HW134700   2.706   2.312  15.653 -1.6633 -1.9093  0.4612
 7688SOL    HW234701   2.801   2.212  15.585 -0.2178  1.7569 -0.6832
 7689SOL     OW34702   2.602   0.379   5.222  0.3017 -0.3096  0.8507
 7689SOL    HW134703   2.645   0.405   5.141  0.9428  0.0785  1.3206
 7689SOL    HW234704   2.639   0.447   5.278  0.1272 -0.4247  1.1071
 7690SOL     OW34705   1.725   1.830  12.463  0.0119  0.6276  0.4799
 7690SOL    HW134706   1.763   1.859  12.381  0.8354 -0.0970  0.6014
 7690SOL    HW234707   1.697   1.913  12.499 -1.8974  0.4651 -0.6596
 7691SOL     OW34708   1.263   1.496   4.432  0.1334 -0.3346 -0.0848
 7691SOL    HW134709   1.272   1.489   4.527 -1.5188  1.3509  0.1955
 7691SOL    HW234710   1.335   1.559   4.428 -0.0420 -0.3046 -2.6550
 7692SOL     OW34711   0.161   1.311   7.712  0.1365 -0.3562  0.5328
 7692SOL    HW134712   0.235   1.350   7.666  0.2790 -0.2808  0.8273
 7692SOL    HW234713   0.095   1.355   7.658 -1.5298 -1.4261  1.6860
 7693SOL     OW34714   3.110   0.810   9.157 -0.1017 -0.4472 -0.1270
 7693SOL    HW134715   3.155   0.742   9.207 -1.3869 -1.2452 -0.0740
 7693SOL    HW234716   3.176   0.849   9.099 -0.0605  1.0650  0.9358
 7694SOL     OW34717   0.477   3.066   7.354  0.3496 -0.3280 -0.0495
 7694SOL    HW134718   0.428   2.985   7.336  0.1090 -0.3173  0.5562
 7694SOL    HW234719   0.492   3.042   7.446  0.6072 -0.6758 -0.1821
 7695SOL     OW34720   2.727   1.150   4.570 -0.1749  0.0162  0.2945
 7695SOL    HW134721   2.642   1.107   4.580 -0.2065  0.3884  1.5578
 7695SOL    HW234722   2.764   1.110   4.491  1.9152  0.5657  1.0126
 7696SOL     OW34723   0.689   1.184   8.165 -0.1229  0.5275 -0.1279
 7696SOL    HW134724   0.612   1.222   8.124 -0.2546  0.7390  0.3112
 7696SOL    HW234725   0.650   1.173   8.252 -0.7404 -0.1807 -0.4850
 7697SOL     OW34726   2.662   4.527  11.751  0.2341  0.1309  0.0886
 7697SOL    HW134727   2.668   4.610  11.798 -0.8846  0.7536 -0.8768
 7697SOL    HW234728   2.585   4.550  11.699 -1.5226 -0.3417  2.4856
 7698SOL     OW34729   3.604   4.403  12.187 -0.1028 -0.1649 -0.1579
 7698SOL    HW134730   3.645   4.428  12.270 -0.7566  2.3171 -0.5841
 7698SOL    HW234731   3.629   4.482  12.140 -2.5198  1.8226  1.8847
 7699SOL     OW34732   3.038   1.707   6.802  0.1253  0.3451  0.0385
 7699SOL    HW134733   2.943   1.704   6.812 -0.0537  2.1586 -1.2449
 7699SOL    HW234734   3.061   1.781   6.858 -1.5887  0.2802  0.8491
 7700SOL     OW34735   3.866   2.045   8.308  0.7232  0.1683 -0.2266
 7700SOL    HW134736   3.952   2.025   8.346 -0.1504 -1.3115  1.0093
 7700SOL    HW234737   3.840   2.119   8.362  1.9867  1.6780 -1.7133
 7701SOL     OW34738   1.393   1.683   2.613 -0.5776  0.2695 -0.0376
 7701SOL    HW134739   1.350   1.763   2.581  0.6759  1.1278  0.4250
 7701SOL    HW234740   1.470   1.690   2.557 -1.3056  0.5388 -1.0199
 7702SOL     OW34741   3.214   3.936   2.404 -0.4362 -0.0610 -0.1381
 7702SOL    HW134742   3.254   3.944   2.491 -1.2802  0.0191  0.2447
 7702SOL    HW234743   3.142   3.875   2.418 -1.2735  1.1155  0.6885
 7703SOL     OW34744   2.335   2.325   1.804  0.7708 -0.4781 -0.1489
 7703SOL    HW134745   2.401   2.394   1.798  2.1321 -1.8089 -0.6640
 7703SOL    HW234746   2.376   2.277   1.876 -1.2662  0.2495  1.4835
 7704SOL     OW34747   0.755   0.621   7.981 -0.2246  0.5198  0.8008
 7704SOL    HW134748   0.736   0.715   7.983  1.1560  0.8090  1.1942
 7704SOL    HW234749   0.805   0.613   8.063  0.3587  0.2726  0.4185
 7705SOL     OW34750   0.870   2.112   8.525 -0.5097  0.0530 -0.2562
 7705SOL    HW134751   0.788   2.081   8.486  0.0122 -0.8249 -0.6493
 7705SOL    HW234752   0.899   2.181   8.466  1.0883 -0.0934  0.3759
 7706SOL     OW34753   3.339   3.932  10.454 -0.3809 -0.2691  0.3502
 7706SOL    HW134754   3.369   3.967  10.538 -1.4573 -0.3422  0.7628
 7706SOL    HW234755   3.264   3.875  10.468 -1.6625  0.7543 -2.2796
 7707SOL     OW34756   4.365   2.452  10.687 -0.4118 -0.1634 -0.2957
 7707SOL    HW134757   4.383   2.513  10.759 -1.2747 -0.0560 -0.1779
 7707SOL    HW234758   4.440   2.395  10.703 -0.4389 -0.5733 -1.6716
 7708SOL     OW34759   1.371   3.725  16.257 -0.1268  0.1312  0.4636
 7708SOL    HW134760   1.383   3.752  16.348  0.5204  1.6366 -0.0690
 7708SOL    HW234761   1.335   3.637  16.268  1.4805 -0.5679  0.1318
 7709SOL     OW34762   0.437   4.465   8.305  0.4609  0.0967 -0.4297
 7709SOL    HW134763   0.378   4.425   8.369 -0.3004  1.0775 -0.5275
 7709SOL    HW234764   0.375   4.480   8.234 -1.9390  1.2108  1.9244
 7710SOL     OW34765   2.367   1.645   7.902  0.2172 -0.4687 -0.7275
 7710SOL    HW134766   2.317   1.567   7.926 -1.5217  0.5033 -1.2206
 7710SOL    HW234767   2.350   1.639   7.808  2.2885 -1.3673 -1.0478
 7711SOL     OW34768   4.340   1.554  16.832  0.2122  0.6229  0.0064
 7711SOL    HW134769   4.420   1.577  16.880  0.5088 -1.5532  0.5802
 7711SOL    HW234770   4.335   1.459  16.839  0.3812  0.7133  1.3640
 7712SOL     OW34771   2.906   4.599   8.497 -0.2888  0.4799 -0.6426
 7712SOL    HW134772   2.884   4.520   8.547  1.9478  0.0375 -0.3517
 7712SOL    HW234773   2.999   4.586   8.511 -0.4596  1.3139  1.2631
 7713SOL     OW34774   4.569   0.844  11.125  0.0624  0.0780 -0.5501
 7713SOL    HW134775   4.535   0.820  11.212 -1.0959 -0.8835 -1.2601
 7713SOL    HW234776   4.586   0.936  11.143  2.1505 -0.6176  0.9957
 7714SOL     OW34777   3.059   4.277   4.905  0.0273  0.1081  0.6797
 7714SOL    HW134778   3.150   4.307   4.903  0.4562 -1.3343 -1.3330
 7714SOL    HW234779   3.036   4.312   4.819  2.0441 -1.9055 -0.6429
 7715SOL     OW34780   3.135   1.217  10.956 -0.3857 -0.1223 -0.6441
 7715SOL    HW134781   3.043   1.245  10.963  0.0804  1.2560 -0.0129
 7715SOL    HW234782   3.180   1.301  10.951 -1.0562  0.3437  0.9330
 7716SOL     OW34783   0.193   0.590  16.601  0.4488  0.3701  0.1101
 7716SOL    HW134784   0.193   0.565  16.508 -0.6812 -0.5955  0.3551
 7716SOL    HW234785   0.131   0.663  16.602 -0.8056 -0.6913  0.8100
 7717SOL     OW34786   4.231   1.422   9.205  0.1496  0.2597 -0.4917
 7717SOL    HW134787   4.272   1.350   9.253 -0.7264 -0.8022 -1.3331
 7717SOL    HW234788   4.303   1.483   9.222  0.8308 -0.2589 -1.4974
 7718SOL     OW34789   3.517   0.036   3.911  0.2434  0.0162 -0.0555
 7718SOL    HW134790   3.462   0.012   3.985 -0.3969 -0.9156 -0.8264
 7718SOL    HW234791   3.475   0.118   3.885 -1.0092 -0.2090  1.2728
 7719SOL     OW34792   3.305   3.715   6.027 -0.1473 -0.2382  0.3136
 7719SOL    HW134793   3.292   3.809   6.015 -0.2918 -0.1563  1.1424
 7719SOL    HW234794   3.217   3.684   6.003 -0.0968 -0.8680  0.9257
 7720SOL     OW34795   0.581   2.697   1.619  0.0832  0.4523 -0.2664
 7720SOL    HW134796   0.644   2.684   1.690  0.7972 -2.3309 -1.4238
 7720SOL    HW234797   0.575   2.607   1.589  0.8599 -0.3180  1.8679
 7721SOL     OW34798   4.630   3.660  12.864 -0.0614 -0.3372  0.5202
 7721SOL    HW134799   4.707   3.610  12.838  0.3295 -0.6042  2.1980
 7721SOL    HW234800   4.570   3.587  12.878  2.3651 -1.6855  3.6176
 7722SOL     OW34801   1.687   0.103   4.849 -0.3409 -0.4519  0.5679
 7722SOL    HW134802   1.678   0.068   4.760  3.2616  1.4178 -0.5467
 7722SOL    HW234803   1.615   0.057   4.890  0.2780 -2.1168 -0.2041
 7723SOL     OW34804   3.748   0.241  12.543 -0.4393 -0.4253  0.2653
 7723SOL    HW134805   3.721   0.252  12.634  0.2750  0.2873  0.3956
 7723SOL    HW234806   3.676   0.289  12.502 -0.0470  0.3853  0.5215
 7724SOL     OW34807   1.755   0.379   1.158 -0.2168 -0.0969  0.1802
 7724SOL    HW134808   1.669   0.405   1.192 -0.5864  0.3184 -1.0651
 7724SOL    HW234809   1.806   0.436   1.217 -0.4868 -2.7611  2.9898
 7725SOL     OW34810   3.641   2.928  11.132 -0.2842  0.0490  0.4114
 7725SOL    HW134811   3.718   2.980  11.153 -1.2929  0.8469  2.1838
 7725SOL    HW234812   3.678   2.841  11.150 -0.2812 -0.0302  0.0295
 7726SOL     OW34813   3.825   3.064   9.244  0.1292 -0.3904  0.0297
 7726SOL    HW134814   3.881   3.138   9.265  0.6099 -0.2993 -1.5329
 7726SOL    HW234815   3.895   3.011   9.205 -0.1009  0.4092 -1.4509
 7727SOL     OW34816   3.846   4.450   1.330 -0.1858  0.1054 -0.6464
 7727SOL    HW134817   3.894   4.496   1.397  0.6396 -2.2892  0.4202
 7727SOL    HW234818   3.760   4.431   1.368 -0.9759  0.7998 -2.0852
 7728SOL     OW34819   2.235   3.249   6.537 -0.3672 -0.5307 -0.0713
 7728SOL    HW134820   2.202   3.247   6.627 -1.5753  1.9826 -0.4458
 7728SOL    HW234821   2.164   3.291   6.489 -0.9465 -2.2136 -0.6864
 7729SOL     OW34822   2.460   0.749  10.949 -0.3429  0.2799  0.0432
 7729SOL    HW134823   2.408   0.718  10.875 -1.9431  0.8956  0.9034
 7729SOL    HW234824   2.491   0.663  10.975  0.3963  1.2854  2.5232
 7730SOL     OW34825   2.608   3.004   5.146  0.1964  0.4337 -0.2024
 7730SOL    HW134826   2.635   3.093   5.126 -2.2898  0.7453 -2.1860
 7730SOL    HW234827   2.685   2.950   5.127  1.1588  1.5573  0.5040
 7731SOL     OW34828   4.040   1.179   8.232 -0.2535 -0.2545 -0.0930
 7731SOL    HW134829   3.945   1.185   8.245 -0.3842 -2.1627 -0.1604
 7731SOL    HW234830   4.071   1.200   8.320 -0.2138 -1.0916  0.0882
 7732SOL     OW34831   3.589   0.332   1.566  0.1480 -0.6821 -0.1137
 7732SOL    HW134832   3.643   0.284   1.502  0.6935  0.3894 -0.4592
 7732SOL    HW234833   3.606   0.266   1.634  0.4611 -1.0795 -0.5751
 7733SOL     OW34834   3.517   0.422  11.272 -0.3313  0.4435  0.1182
 7733SOL    HW134835   3.594   0.366  11.267 -1.4108 -1.0337  0.0374
 7733SOL    HW234836   3.464   0.380  11.204 -3.1513 -0.7249  3.0660
 7734SOL     OW34837   0.201   1.447   1.914 -0.2099 -0.2109 -1.1228
 7734SOL    HW134838   0.225   1.536   1.940 -3.4194  0.6542 -1.1361
 7734SOL    HW234839   0.212   1.396   1.994 -0.4702  2.5009  0.6327
 7735SOL     OW34840   3.083   2.079   7.649 -0.0117  0.0750  0.2135
 7735SOL    HW134841   3.174   2.106   7.643  0.6514 -1.7239  2.2377
 7735SOL    HW234842   3.087   1.991   7.686  0.3763  0.1637  0.3776
 7736SOL     OW34843   0.573   4.371   4.532 -0.4050 -0.5872 -0.2841
 7736SOL    HW134844   0.660   4.361   4.572 -0.0199  0.6199 -0.8203
 7736SOL    HW234845   0.573   4.444   4.470  2.5252 -0.9654 -0.7287
 7737SOL     OW34846   0.258   0.455  16.363 -0.0478  0.2426  0.2322
 7737SOL    HW134847   0.278   0.476  16.271 -0.0910 -0.9549 -0.0448
 7737SOL    HW234848   0.233   0.363  16.358  3.0182 -0.6686  2.1160
 7738SOL     OW34849   3.122   4.510   7.099  0.2724  0.2791 -0.9690
 7738SOL    HW134850   3.186   4.566   7.144 -0.9117  0.3135  0.6585
 7738SOL    HW234851   3.170   4.482   7.021  3.1028  1.8296  0.2175
 7739SOL     OW34852   4.378   2.873   7.405 -0.0698  0.1018  0.0530
 7739SOL    HW134853   4.348   2.963   7.414  0.2439  0.1336  0.7551
 7739SOL    HW234854   4.444   2.871   7.474 -0.5195  0.9440  0.5000
 7740SOL     OW34855   0.151   4.421   7.906  0.1546  0.0416 -0.1566
 7740SOL    HW134856   0.144   4.332   7.941 -1.6254  0.0703 -0.4326
 7740SOL    HW234857   0.221   4.409   7.842 -0.0290 -2.7069  0.1714
 7741SOL     OW34858   2.389   3.965   8.681 -0.7264 -0.2057  0.2658
 7741SOL    HW134859   2.316   3.904   8.698  0.1232 -1.2449  0.1855
 7741SOL    HW234860   2.448   3.896   8.651 -1.4021 -0.3956 -0.6297
 7742SOL     OW34861   0.390   0.641   7.811  0.0243 -0.3230  0.5880
 7742SOL    HW134862   0.440   0.717   7.781  0.1188  0.0432  1.6760
 7742SOL    HW234863   0.302   0.681   7.812  0.0289 -0.3859  3.3303
 7743SOL     OW34864   3.707   2.402   3.598  0.1179 -0.1064  0.3276
 7743SOL    HW134865   3.649   2.478   3.591 -0.0108 -0.3271 -0.9195
 7743SOL    HW234866   3.688   2.372   3.687  1.8403 -0.5565  0.5494
 7744SOL     OW34867   0.361   4.141  10.961 -0.0364  0.5562  0.3384
 7744SOL    HW134868   0.423   4.167  10.892 -0.8485  0.1177 -0.5590
 7744SOL    HW234869   0.397   4.054  10.980 -1.7596  0.0969  1.5003
 7745SOL     OW34870   4.382   4.454   8.161  0.1020  0.6597 -0.0155
 7745SOL    HW134871   4.462   4.505   8.171  0.6928  0.0515 -1.5668
 7745SOL    HW234872   4.339   4.487   8.082 -0.7436 -0.0680  0.1290
 7746SOL     OW34873   0.289   4.381   1.942  0.4262  0.7032 -0.2072
 7746SOL    HW134874   0.232   4.342   2.008  0.2193  2.9837  0.9624
 7746SOL    HW234875   0.271   4.473   1.959 -1.5926  0.2658  0.0348
 7747SOL     OW34876   3.612   1.287   4.844 -0.9476 -0.5434 -0.1236
 7747SOL    HW134877   3.693   1.237   4.857  0.7378  1.5839 -2.3519
 7747SOL    HW234878   3.553   1.244   4.905 -0.1629 -1.2249  0.1670
 7748SOL     OW34879   1.713   1.228   1.117  0.0970 -0.6227  0.7160
 7748SOL    HW134880   1.665   1.301   1.077 -0.6379 -2.4064 -1.6861
 7748SOL    HW234881   1.655   1.152   1.118 -0.5719 -0.1239  0.2418
 7749SOL     OW34882   1.035   1.182   3.032 -0.0043  0.0158  0.3860
 7749SOL    HW134883   0.962   1.239   3.056 -1.4210 -1.2691 -0.8949
 7749SOL    HW234884   1.047   1.206   2.940 -0.6116 -0.3103  0.2186
 7750SOL     OW34885   3.430   2.656   6.844  0.3139 -0.1329 -0.2710
 7750SOL    HW134886   3.458   2.736   6.889  0.8977 -0.8967  0.7474
 7750SOL    HW234887   3.490   2.670   6.771  0.8154  0.6793  0.3052
 7751SOL     OW34888   4.428   1.501  15.451 -0.0295  0.0773 -0.4228
 7751SOL    HW134889   4.425   1.407  15.435  0.9920  0.2708 -1.7449
 7751SOL    HW234890   4.422   1.530  15.360  0.4370 -0.8459 -0.7489
 7752SOL     OW34891   3.273   0.920   0.463 -0.1403  0.0218 -0.4281
 7752SOL    HW134892   3.181   0.903   0.442 -0.4519  1.1933 -0.0155
 7752SOL    HW234893   3.261   0.965   0.546 -0.0973 -0.4214 -0.1806
 7753SOL     OW34894   3.304   1.298   9.182 -0.2139 -0.2894  0.2817
 7753SOL    HW134895   3.243   1.231   9.150  0.1264 -0.5836  0.2510
 7753SOL    HW234896   3.327   1.339   9.099 -1.9854 -1.0014 -0.5732
 7754SOL     OW34897   1.010   0.856   5.787  0.0392  0.8395 -0.1107
 7754SOL    HW134898   0.991   0.845   5.881  1.6711 -0.5630  0.0651
 7754SOL    HW234899   0.977   0.945   5.778 -0.6549  0.5663 -0.3224
 7755SOL     OW34900   0.588   0.706   5.484  0.5879  0.0615 -0.7755
 7755SOL    HW134901   0.666   0.759   5.499  1.1345 -0.8365 -0.4509
 7755SOL    HW234902   0.544   0.749   5.411  0.6418 -0.3697 -1.0596
 7756SOL     OW34903   1.928   4.356   6.231 -0.0911  0.3711  0.6047
 7756SOL    HW134904   2.012   4.377   6.191  0.2719 -1.3723  0.4331
 7756SOL    HW234905   1.880   4.436   6.209  2.3063  1.1008 -1.9378
 7757SOL     OW34906   3.067   2.912   0.107  0.2083 -0.5075  0.0052
 7757SOL    HW134907   3.020   2.919   0.190  0.0848  2.5774 -0.3221
 7757SOL    HW234908   3.128   2.986   0.113  0.8981 -0.8282 -2.7804
 7758SOL     OW34909   2.171   1.316   4.012  0.6814  0.4158  0.7231
 7758SOL    HW134910   2.232   1.377   4.054  0.3876 -1.3481  3.7549
 7758SOL    HW234911   2.194   1.233   4.054 -1.0194 -0.5181 -0.1708
 7759SOL     OW34912   4.357   0.994  14.983  0.2343  0.1105 -0.2245
 7759SOL    HW134913   4.446   0.976  15.015 -0.9618 -1.7097  2.0993
 7759SOL    HW234914   4.363   0.942  14.903 -3.0022  0.1412 -0.4782
 7760SOL     OW34915   2.151   1.828  15.156 -0.2413  0.1804  0.2095
 7760SOL    HW134916   2.219   1.801  15.218  0.0970  2.6728  0.9531
 7760SOL    HW234917   2.137   1.759  15.092  0.5421  0.9674 -0.8017
 7761SOL     OW34918   0.316   0.194   7.812 -0.1259 -0.2545 -0.8234
 7761SOL    HW134919   0.266   0.270   7.783 -0.6354  0.0194  0.7576
 7761SOL    HW234920   0.375   0.256   7.855  0.2076 -1.1060 -0.0527
 7762SOL     OW34921   0.428   2.997   3.374  0.0986 -0.2859  0.3492
 7762SOL    HW134922   0.343   3.015   3.414  0.1438  0.4159  0.1280
 7762SOL    HW234923   0.398   2.930   3.312 -3.7581  0.8323  1.0118
 7763SOL     OW34924   2.961   2.687  12.382  0.6480 -0.8958 -0.4445
 7763SOL    HW134925   2.949   2.610  12.437 -1.8942 -1.0250 -1.1656
 7763SOL    HW234926   3.004   2.744  12.446  0.1590 -0.0417 -0.8631
 7764SOL     OW34927   3.081   1.983   7.219  0.0007 -0.7838  0.6436
 7764SOL    HW134928   3.131   2.059   7.247 -1.8465  1.0441 -0.9721
 7764SOL    HW234929   2.988   2.005   7.223  0.2711  0.1997  1.5327
 7765SOL     OW34930   3.758   3.891   8.810 -0.1855 -0.0168  0.4183
 7765SOL    HW134931   3.792   3.903   8.722 -1.1188 -4.1242 -0.4625
 7765SOL    HW234932   3.665   3.896   8.788 -0.1410 -1.3112 -0.0653
 7766SOL     OW34933   1.916   2.596  12.265 -0.0629  0.1815 -0.2988
 7766SOL    HW134934   1.964   2.529  12.313 -0.1145  1.4293  1.4745
 7766SOL    HW234935   1.885   2.533  12.199  0.3465  0.0575 -0.3751
 7767SOL     OW34936   3.347   2.894  12.783 -0.3182  0.1380  0.4247
 7767SOL    HW134937   3.434   2.922  12.757 -0.0786 -2.8483 -2.0358
 7767SOL    HW234938   3.311   2.937  12.706  1.1672  2.4562  1.0273
 7768SOL     OW34939   2.243   3.339  15.670 -0.1940 -0.3315  0.2986
 7768SOL    HW134940   2.231   3.253  15.632  1.3053 -0.5083  0.2503
 7768SOL    HW234941   2.243   3.398  15.594  0.4291  0.1465  0.6671
 7769SOL     OW34942   4.098   1.488   6.499 -0.0002 -0.3136  0.3647
 7769SOL    HW134943   4.033   1.555   6.479  0.9832  0.3533 -0.5936
 7769SOL    HW234944   4.042   1.418   6.535 -1.2677  0.1592 -0.6718
 7770SOL     OW34945   2.808   0.088   1.072  0.1828 -0.2724  0.2900
 7770SOL    HW134946   2.852   0.113   1.153  1.5034  1.8449 -1.0674
 7770SOL    HW234947   2.730   0.142   1.084 -0.3242 -0.5579 -1.6839
 7771SOL     OW34948   4.244   2.362  15.123  0.2049 -0.0614  0.4873
 7771SOL    HW134949   4.228   2.398  15.210 -0.2564 -1.0624  0.8151
 7771SOL    HW234950   4.222   2.272  15.145  0.7413 -0.2753  0.1471
 7772SOL     OW34951   0.201   4.224   9.003  0.0358 -0.2074 -0.4902
 7772SOL    HW134952   0.120   4.274   9.006 -0.4589 -1.0053 -0.3693
 7772SOL    HW234953   0.181   4.159   9.070 -2.4612  1.7537  0.6234
 7773SOL     OW34954   3.469   0.459   2.000 -0.2423 -0.3385 -0.1227
 7773SOL    HW134955   3.539   0.444   1.938 -0.8743  0.2525 -0.9755
 7773SOL    HW234956   3.429   0.536   1.959  0.6492 -1.3830 -2.9199
 7774SOL     OW34957   4.079   3.707   5.934 -0.3846 -0.4451 -0.2431
 7774SOL    HW134958   4.094   3.616   5.908 -0.3492  0.2355 -2.6343
 7774SOL    HW234959   4.023   3.744   5.865  0.9252  0.4572 -0.8462
 7775SOL     OW34960   0.378   1.688   0.890  0.0066 -0.4003 -0.1351
 7775SOL    HW134961   0.453   1.662   0.943 -0.6208  2.2898  2.0706
 7775SOL    HW234962   0.365   1.606   0.843  2.2272 -0.5225 -0.5385
 7776SOL     OW34963   1.619   2.939   8.669  0.0864 -0.0214 -0.1515
 7776SOL    HW134964   1.622   2.869   8.604  0.3451  0.3362 -0.5238
 7776SOL    HW234965   1.592   2.889   8.746  0.0730  1.8860  1.0758
 7777SOL     OW34966   0.291   4.571   5.041  0.3253 -0.6417 -0.5414
 7777SOL    HW134967   0.267   4.507   5.108 -2.3917  3.2103  2.2336
 7777SOL    HW234968   0.207   4.581   4.995  0.4096 -0.9206 -0.7556
 7778SOL     OW34969   3.921   2.113  13.160  0.0360  0.0824  0.1215
 7778SOL    HW134970   3.875   2.031  13.144 -0.3448  0.3339 -0.1102
 7778SOL    HW234971   3.851   2.155  13.210 -1.7062 -0.2944 -1.9826
 7779SOL     OW34972   4.297   0.958   8.694 -0.2063 -0.4055  0.1957
 7779SOL    HW134973   4.389   0.934   8.702  0.5468  2.4339  0.0450
 7779SOL    HW234974   4.288   1.053   8.701  1.1914 -0.3005  0.4450
 7780SOL     OW34975   3.213   3.169   4.620 -0.6047 -0.1314 -0.7440
 7780SOL    HW134976   3.234   3.076   4.622  0.5393  0.1104 -1.1799
 7780SOL    HW234977   3.138   3.176   4.679 -1.6633  0.3397 -2.1392
 7781SOL     OW34978   1.667   4.535   6.523 -0.5778 -0.5221  0.2002
 7781SOL    HW134979   1.685   4.617   6.569 -1.1715 -0.2003 -0.1489
 7781SOL    HW234980   1.637   4.571   6.440  0.1795  0.9963  0.5963
 7782SOL     OW34981   3.706   1.786   9.218  0.6690  0.0175 -0.5755
 7782SOL    HW134982   3.738   1.753   9.302 -1.4202  1.2082  0.6994
 7782SOL    HW234983   3.656   1.708   9.194 -0.3919 -0.0320  1.7679
 7783SOL     OW34984   2.576   1.463  13.001  0.1933 -0.0389  0.4750
 7783SOL    HW134985   2.622   1.398  12.947  0.4453  0.4312  0.1144
 7783SOL    HW234986   2.494   1.419  13.021  0.9136 -1.7265 -0.2698
 7784SOL     OW34987   3.446   4.147  17.047  0.2865 -0.5223 -0.4005
 7784SOL    HW134988   3.538   4.151  17.070  0.5057  0.1725 -1.3650
 7784SOL    HW234989   3.422   4.055  17.044 -2.2511  0.1532 -1.4541
 7785SOL     OW34990   3.397   1.370   1.922 -0.1894 -0.3052 -0.3261
 7785SOL    HW134991   3.480   1.337   1.956  0.6193 -2.4734 -4.4353
 7785SOL    HW234992   3.396   1.346   1.830  0.0495  1.1987 -0.7211
 7786SOL     OW34993   0.586   3.137   8.091 -0.6804  0.0882  0.3888
 7786SOL    HW134994   0.532   3.062   8.117 -2.1643  0.9796 -0.0639
 7786SOL    HW234995   0.588   3.117   7.997 -0.5504  0.3046  0.3475
 7787SOL     OW34996   0.917   4.666   3.956  0.1394  0.4378 -0.7308
 7787SOL    HW134997   0.912   0.009   3.910 -1.1660 -0.4554 -2.1800
 7787SOL    HW234998   0.978   4.615   3.903 -0.7235  1.2876 -2.5116
 7788SOL     OW34999   2.640   1.344   2.773 -0.7856 -0.3495 -0.1843
 7788SOL    HW135000   2.621   1.251   2.762 -2.5740  0.1111 -0.9432
 7788SOL    HW235001   2.721   1.350   2.724 -0.2198  1.2212  0.9549
 7789SOL     OW35002   2.441   1.704   4.401 -0.2064  0.0282  0.2537
 7789SOL    HW135003   2.480   1.739   4.320  0.4709 -2.1142 -0.3319
 7789SOL    HW235004   2.372   1.644   4.371 -1.7325  1.8787  0.0279
 7790SOL     OW35005   2.410   3.428   6.700  0.3334  0.2210  0.2168
 7790SOL    HW135006   2.355   3.397   6.628  1.8892  0.7191 -1.1787
 7790SOL    HW235007   2.461   3.350   6.721  1.4941  1.3740  1.6748
 7791SOL     OW35008   1.736   1.241   5.186  0.7451 -0.4574  0.1781
 7791SOL    HW135009   1.814   1.185   5.187  1.3182  0.3665  0.7267
 7791SOL    HW235010   1.673   1.183   5.142  0.1110  0.0335  0.4497
 7792SOL     OW35011   2.723   3.530   7.991  0.1658 -0.0341  0.3448
 7792SOL    HW135012   2.724   3.605   8.051  1.8397  0.8623 -0.8008
 7792SOL    HW235013   2.736   3.455   8.050  1.1094 -0.7733 -0.7995
 7793SOL     OW35014   3.944   1.212   5.871  0.3988 -0.2523  0.0634
 7793SOL    HW135015   3.922   1.220   5.964 -1.4668 -0.8395 -0.3222
 7793SOL    HW235016   3.859   1.236   5.834  1.3864  1.0450 -1.3420
 7794SOL     OW35017   2.856   1.121   3.580  0.1616 -0.2500 -0.3495
 7794SOL    HW135018   2.936   1.110   3.631 -0.7819 -1.1642  0.9352
 7794SOL    HW235019   2.864   1.048   3.519 -1.0045  0.7749 -1.7249
 7795SOL     OW35020   2.076   2.448  10.660  0.2542  0.4761  0.1076
 7795SOL    HW135021   2.010   2.495  10.608  1.2087  0.4653 -1.1016
 7795SOL    HW235022   2.118   2.410  10.583 -0.8174 -2.5621  1.0045
 7796SOL     OW35023   0.370   4.192   1.759  0.0478  0.2414  0.3584
 7796SOL    HW135024   0.359   4.268   1.817  0.6278 -0.8960  1.9392
 7796SOL    HW235025   0.290   4.147   1.785  1.3440 -1.8748  0.6010
 7797SOL     OW35026   3.640   1.489   6.420 -0.3963 -0.2929  0.3978
 7797SOL    HW135027   3.595   1.505   6.503 -0.7688  1.1390 -0.0863
 7797SOL    HW235028   3.586   1.538   6.357  0.8953  1.2184  0.4740
 7798SOL     OW35029   1.595   3.510   3.771  0.3437  0.6141  0.0261
 7798SOL    HW135030   1.645   3.585   3.801  2.0354 -0.4916 -0.0371
 7798SOL    HW235031   1.629   3.456   3.843 -1.3564 -0.3194  0.1412
 7799SOL     OW35032   0.378   2.834  12.276  0.2788 -0.2211 -0.1858
 7799SOL    HW135033   0.299   2.804  12.321 -0.3104 -0.2860 -1.2476
 7799SOL    HW235034   0.377   2.927  12.295 -0.4916 -0.1861 -0.3921
 7800SOL     OW35035   4.463   4.157   4.326  0.3676  0.1584  0.1318
 7800SOL    HW135036   4.450   4.246   4.359  0.0480  1.4233 -3.3173
 7800SOL    HW235037   4.380   4.114   4.346  0.7217 -0.0808  1.0813
 7801SOL     OW35038   3.105   3.508   4.919  0.0947  0.7963  0.4935
 7801SOL    HW135039   3.040   3.509   4.849  0.0473  0.6180  0.5360
 7801SOL    HW235040   3.072   3.446   4.984  1.6866 -0.3968  0.1605
 7802SOL     OW35041   3.833   2.634   0.104 -0.6982  0.2485  0.8151
 7802SOL    HW135042   3.742   2.640   0.076 -1.3349  0.1298  2.8244
 7802SOL    HW235043   3.855   2.542   0.122  0.7602  0.3493 -0.3743
 7803SOL     OW35044   3.031   4.353   0.783  0.1229 -0.9422 -0.1158
 7803SOL    HW135045   3.005   4.381   0.695  1.2721 -1.6578 -0.6736
 7803SOL    HW235046   3.113   4.307   0.768  0.6368 -0.1692  0.3511
 7804SOL     OW35047   1.422   2.314   1.247 -0.8006  0.2951  1.0862
 7804SOL    HW135048   1.330   2.289   1.244 -0.2583 -1.5635 -0.3886
 7804SOL    HW235049   1.417   2.403   1.212 -2.0427 -0.1580  0.1218
 7805SOL     OW35050   1.441   2.644   5.121 -0.8341  0.2468 -0.0481
 7805SOL    HW135051   1.392   2.565   5.102  1.9820 -1.5724  0.1966
 7805SOL    HW235052   1.513   2.617   5.179  0.2770  1.1144 -1.0238
 7806SOL     OW35053   2.109   4.520   3.260 -0.1065 -0.3750 -0.1156
 7806SOL    HW135054   2.058   4.440   3.244  2.1400 -1.7832 -0.2949
 7806SOL    HW235055   2.078   4.576   3.189  2.1598 -0.8172 -1.4667
 7807SOL     OW35056   1.912   3.271  15.395 -0.1144 -0.5346  0.0521
 7807SOL    HW135057   1.878   3.339  15.338  1.0249 -1.6168 -1.9275
 7807SOL    HW235058   1.912   3.315  15.480  0.5200  0.3772 -0.4226
 7808SOL     OW35059   4.166   2.612   8.884 -0.8229  0.4522  0.1085
 7808SOL    HW135060   4.096   2.676   8.867  0.7298  1.9416 -0.7057
 7808SOL    HW235061   4.245   2.665   8.877  0.1379 -1.0909 -0.5849
 7809SOL     OW35062   1.091   2.405  17.323  0.1282  0.2505  0.0586
 7809SOL    HW135063   1.131   2.369  17.402  0.4343 -0.0709 -0.2459
 7809SOL    HW235064   1.115   2.498  17.331  0.4643  0.1370  0.4165
 7810SOL     OW35065   1.794   3.578   9.151 -0.3125 -0.0482 -0.1956
 7810SOL    HW135066   1.826   3.492   9.178 -2.1493 -0.4828  0.6461
 7810SOL    HW235067   1.818   3.632   9.226  0.3559 -0.5770 -0.0212
 7811SOL     OW35068   2.247   0.717   3.368  0.3790 -0.3809  0.1674
 7811SOL    HW135069   2.293   0.716   3.452  1.1866 -0.1646 -0.2662
 7811SOL    HW235070   2.251   0.810   3.347 -1.8785 -0.7218 -1.7248
 7812SOL     OW35071   3.220   2.496   6.416  0.3344 -0.6531 -0.1936
 7812SOL    HW135072   3.204   2.590   6.410  0.3407 -0.6951 -0.8132
 7812SOL    HW235073   3.315   2.502   6.402  0.8893 -1.5576  3.1081
 7813SOL     OW35074   1.215   0.498   5.839 -0.0425 -0.1290 -0.0576
 7813SOL    HW135075   1.188   0.489   5.930 -0.0545  1.1643  0.0675
 7813SOL    HW235076   1.295   0.448   5.851  1.5172  2.0859 -1.2475
 7814SOL     OW35077   3.831   3.092   7.687  0.3686  0.1076 -0.1778
 7814SOL    HW135078   3.825   3.120   7.779  0.3338 -1.1153  0.1907
 7814SOL    HW235079   3.816   3.178   7.647 -0.6810 -0.2234 -0.4639
 7815SOL     OW35080   2.288   3.340   9.070 -0.3379 -0.2769  0.4864
 7815SOL    HW135081   2.357   3.394   9.032 -1.9414 -1.2398 -3.8170
 7815SOL    HW235082   2.215   3.401   9.064 -1.8584 -2.0901  0.4144
 7816SOL     OW35083   2.296   0.244   8.889  0.9000 -0.0657  0.3269
 7816SOL    HW135084   2.349   0.324   8.884 -3.1268  2.6481  1.0832
 7816SOL    HW235085   2.232   0.271   8.955  2.7449  1.6191  1.4214
 7817SOL     OW35086   3.010   4.358   5.287  0.4806 -0.3554 -0.2057
 7817SOL    HW135087   3.005   4.266   5.265  4.6725 -0.7728  0.6321
 7817SOL    HW235088   2.994   4.402   5.204 -1.1012 -0.8736 -0.1729
 7818SOL     OW35089   0.596   4.207   6.637 -0.7335 -0.1707 -0.2983
 7818SOL    HW135090   0.645   4.289   6.642 -1.3303  0.1574  0.1441
 7818SOL    HW235091   0.548   4.205   6.720 -0.2258 -0.6501 -0.0131
 7819SOL     OW35092   0.119   4.417   2.478  0.5594 -0.5747  0.8427
 7819SOL    HW135093   0.165   4.460   2.406 -0.1891 -0.7455  0.2673
 7819SOL    HW235094   0.027   4.431   2.456  0.2716 -1.7235  1.2608
 7820SOL     OW35095   0.517   3.617   9.612  0.4344  0.1552 -0.0712
 7820SOL    HW135096   0.508   3.683   9.681  0.5191 -1.5968  1.6159
 7820SOL    HW235097   0.607   3.590   9.631 -0.2505 -0.9745  1.5176
 7821SOL     OW35098   2.484   3.780   2.189 -0.1019  0.6322 -0.0098
 7821SOL    HW135099   2.474   3.864   2.144  0.5437 -0.4992 -2.2301
 7821SOL    HW235100   2.503   3.810   2.278 -1.6372  2.5360 -0.3197
 7822SOL     OW35101   2.955   2.897  13.731  0.0121  0.2484 -0.1556
 7822SOL    HW135102   2.983   2.933  13.815 -1.6307  0.7220  0.1801
 7822SOL    HW235103   3.018   2.824  13.730  0.2192  0.4045  1.8777
 7823SOL     OW35104   2.974   2.666  12.112  0.1925  0.1708 -0.5521
 7823SOL    HW135105   2.981   2.680  12.207 -0.2611  1.0217 -0.6471
 7823SOL    HW235106   3.064   2.636  12.102 -0.4230 -2.0210  0.5183
 7824SOL     OW35107   2.727   2.315   6.493  0.2668 -0.3560 -0.5666
 7824SOL    HW135108   2.776   2.379   6.441 -1.0429  1.6228  0.6488
 7824SOL    HW235109   2.660   2.374   6.529 -1.5910 -2.4194 -0.6163
 7825SOL     OW35110   1.596   0.581  17.574  0.5623 -0.0075  0.3430
 7825SOL    HW135111   1.680   0.574  17.621  0.7930  3.1928  0.3736
 7825SOL    HW235112   1.552   0.496  17.581  0.2686  0.2189  1.2043
 7826SOL     OW35113   4.466   0.908  12.790 -0.1279 -0.4006  0.1780
 7826SOL    HW135114   4.458   0.958  12.708 -1.1778  1.8676  1.6446
 7826SOL    HW235115   4.394   0.845  12.793 -0.3407 -0.2068 -0.6941
 7827SOL     OW35116   4.034   4.739   1.217 -0.2623  0.2952  0.2891
 7827SOL    HW135117   4.018   4.648   1.191  0.9053  0.0325  0.4548
 7827SOL    HW235118   3.960   0.045   1.177 -0.1909 -3.3203 -4.0972
 7828SOL     OW35119   2.741   2.938  11.014 -0.3575 -0.2202 -0.0301
 7828SOL    HW135120   2.647   2.936  10.995 -0.8016 -2.2081  2.3273
 7828SOL    HW235121   2.744   2.945  11.109  1.2915 -2.9223  0.1244
 7829SOL     OW35122   3.576   3.814  12.003 -0.1405  0.7395 -0.3737
 7829SOL    HW135123   3.661   3.797  11.963 -0.1199  0.9465 -0.4170
 7829SOL    HW235124   3.537   3.860  11.928  1.2314 -1.6298 -2.5457
 7830SOL     OW35125   2.944   1.806   1.252 -0.2029  0.3223  0.3129
 7830SOL    HW135126   2.950   1.819   1.347  1.7246 -0.9305  0.3590
 7830SOL    HW235127   3.034   1.819   1.224 -0.4733  1.4234 -0.0384
 7831SOL     OW35128   0.661   0.146  16.694  0.4990 -0.3589 -0.7430
 7831SOL    HW135129   0.657   0.224  16.749 -0.9742 -1.4096  0.6121
 7831SOL    HW235130   0.714   0.188  16.626 -0.3157 -0.5587 -1.5095
 7832SOL     OW35131   2.988   3.858   3.260 -0.8580  0.1611  0.6928
 7832SOL    HW135132   3.021   3.822   3.178 -0.7447  2.1564 -0.1508
 7832SOL    HW235133   2.894   3.846   3.248 -0.9210  0.7261  0.6075
 7833SOL     OW35134   1.245   1.145  14.050  0.8718 -0.2231 -0.2463
 7833SOL    HW135135   1.205   1.191  14.124  3.0870 -0.4090  1.0922
 7833SOL    HW235136   1.166   1.093  14.035  0.6424  0.1643 -0.3764
 7834SOL     OW35137   0.696   3.940  14.387 -0.0174 -0.0318 -0.5038
 7834SOL    HW135138   0.784   3.976  14.383 -0.3106  0.7169 -0.1963
 7834SOL    HW235139   0.666   3.966  14.475  1.4732  0.2848 -0.1009
 7835SOL     OW35140   3.644   1.835   7.781 -0.1992 -0.8456 -0.6231
 7835SOL    HW135141   3.693   1.830   7.863  3.1694 -0.8019 -2.6293
 7835SOL    HW235142   3.560   1.852   7.823  0.5017 -1.8355  1.2013
 7836SOL     OW35143   0.863   0.065  15.689  0.2909 -0.4010 -0.1557
 7836SOL    HW135144   0.854   0.017  15.772  1.4490  0.7435  0.6258
 7836SOL    HW235145   0.773   0.082  15.663  0.4833  1.9106  0.7713
 7837SOL     OW35146   3.168   3.580  13.122  0.3582  0.0656 -0.0686
 7837SOL    HW135147   3.135   3.497  13.088 -0.8154  1.5138 -2.4953
 7837SOL    HW235148   3.246   3.564  13.174  1.1713  2.2967 -0.6243
 7838SOL     OW35149   2.913   2.210   7.480  0.0528 -0.0274 -0.3427
 7838SOL    HW135150   2.984   2.273   7.468  1.6986 -2.0386 -1.2550
 7838SOL    HW235151   2.964   2.142   7.524 -0.4181 -0.8445 -1.0576
 7839SOL     OW35152   0.039   4.132  12.528  0.3332  0.0685  0.0303
 7839SOL    HW135153   0.126   4.106  12.557  0.4247  1.0851  0.6565
 7839SOL    HW235154   4.723   4.069  12.573 -0.6475  1.1224  0.2814
 7840SOL     OW35155   4.389   3.467   3.302 -0.2010  0.3855 -0.4445
 7840SOL    HW135156   4.328   3.452   3.375 -0.8536 -1.1475 -1.2942
 7840SOL    HW235157   4.455   3.517   3.350  0.4109  0.1062 -0.9976
 7841SOL     OW35158   4.437   3.807   4.670 -0.0948  0.2697  0.6449
 7841SOL    HW135159   4.495   3.757   4.612  1.0452  1.7696  0.4804
 7841SOL    HW235160   4.492   3.801   4.748  0.2763  0.5921  0.4077
 7842SOL     OW35161   2.330   2.169  14.075 -0.1947 -0.1983 -0.4314
 7842SOL    HW135162   2.289   2.250  14.104  3.2051  1.5139 -0.4032
 7842SOL    HW235163   2.372   2.136  14.154  1.2975 -0.3845 -1.2924
 7843SOL     OW35164   2.734   0.081   3.052  0.0810 -0.4239 -0.2006
 7843SOL    HW135165   2.664   0.123   3.001 -0.1594  0.6471  1.0082
 7843SOL    HW235166   2.725   0.134   3.131 -1.6539 -1.3494  0.2434
 7844SOL     OW35167   4.379   4.250  11.958  0.2531  0.0299  0.2656
 7844SOL    HW135168   4.351   4.329  12.005 -0.3845 -0.4545  0.6955
 7844SOL    HW235169   4.468   4.258  11.993 -0.1490  1.7582  0.8947
 7845SOL     OW35170   2.120   3.603   4.997 -0.1876  0.2465 -0.0476
 7845SOL    HW135171   2.093   3.647   4.917 -0.0981  1.0018  0.3404
 7845SOL    HW235172   2.095   3.512   4.979 -1.4113  1.0119 -2.2268
 7846SOL     OW35173   2.504   3.893   3.193  0.5804  0.1254 -0.0886
 7846SOL    HW135174   2.562   3.952   3.242 -1.2749  1.4348  0.5626
 7846SOL    HW235175   2.517   3.813   3.243 -0.1527  0.3216  0.4226
 7847SOL     OW35176   1.112   4.339  10.217  0.0054  0.2399 -0.8321
 7847SOL    HW135177   1.167   4.402  10.170 -0.7998  2.9137  1.8928
 7847SOL    HW235178   1.152   4.328  10.303 -0.4716  0.2672 -0.6102
 7848SOL     OW35179   3.030   0.570   4.287  0.1027 -0.1084  0.5561
 7848SOL    HW135180   3.032   0.511   4.212 -3.4349  1.1399 -0.5508
 7848SOL    HW235181   3.062   0.505   4.350 -1.2100 -1.1768  0.1160
 7849SOL     OW35182   4.230   4.401   7.355  0.3943  0.1066 -0.7555
 7849SOL    HW135183   4.176   4.324   7.339  0.2008 -0.0732  0.8048
 7849SOL    HW235184   4.287   4.411   7.279  1.2492 -0.2141 -0.1472
 7850SOL     OW35185   2.837   1.902   6.755 -0.3302  0.1302  0.9900
 7850SOL    HW135186   2.771   1.886   6.823 -0.5223  1.1992  1.0607
 7850SOL    HW235187   2.820   1.992   6.724 -2.6378 -0.7882 -0.4723
 7851SOL     OW35188   0.568   4.141   3.435  0.1442  0.1700  0.2615
 7851SOL    HW135189   0.550   4.219   3.383 -0.1141 -0.4019 -0.5048
 7851SOL    HW235190   0.507   4.151   3.509 -0.9105 -1.3126 -0.3884
 7852SOL     OW35191   1.086   1.827   8.908  0.1900 -0.1369  0.5197
 7852SOL    HW135192   1.058   1.800   8.996  1.9770  0.7596  1.3609
 7852SOL    HW235193   1.011   1.864   8.862 -1.2972  0.2589  3.2780
 7853SOL     OW35194   3.328   3.264  15.921 -0.0488 -0.2280 -0.2392
 7853SOL    HW135195   3.272   3.330  15.962 -0.7488  0.1914 -1.8968
 7853SOL    HW235196   3.264   3.211  15.874  0.3487 -0.5876 -0.3863
 7854SOL     OW35197   2.826   2.357   3.719  0.4147  0.2717  0.0825
 7854SOL    HW135198   2.818   2.325   3.809 -0.8372  2.2431  0.6623
 7854SOL    HW235199   2.882   2.435   3.718  0.1609  0.4546  0.0259
 7855SOL     OW35200   1.099   2.771  16.111 -0.5388 -0.0423  0.4945
 7855SOL    HW135201   1.151   2.732  16.181 -0.1543  1.3779  1.0084
 7855SOL    HW235202   1.103   2.702  16.045 -0.4685  1.0112 -0.6040
 7856SOL     OW35203   3.257   2.106  12.070 -0.5978  0.2334  0.4885
 7856SOL    HW135204   3.235   2.049  12.144  0.0184  0.9681  1.2374
 7856SOL    HW235205   3.350   2.085  12.069 -0.0545  2.5046  1.9328
 7857SOL     OW35206   4.190   3.547   6.452 -0.3099  0.2448  0.0340
 7857SOL    HW135207   4.122   3.556   6.520 -0.1935  0.6712  0.0920
 7857SOL    HW235208   4.200   3.630   6.405 -2.9263  0.6415  0.1405
 7858SOL     OW35209   0.469   3.536   3.489 -0.4074 -0.0373  0.1969
 7858SOL    HW135210   0.433   3.565   3.573  1.2936 -1.2397  1.3474
 7858SOL    HW235211   0.553   3.497   3.515 -0.3310 -0.5314 -0.8004
 7859SOL     OW35212   2.880   4.155   5.632 -0.2439  0.1420  0.7091
 7859SOL    HW135213   2.901   4.065   5.610 -0.7231 -0.1154  1.3043
 7859SOL    HW235214   2.786   4.156   5.616 -0.4129  0.4855  1.6988
 7860SOL     OW35215   3.618   3.634   2.284  0.3661  0.3339  0.5183
 7860SOL    HW135216   3.544   3.647   2.343 -0.6269  0.0467 -0.6708
 7860SOL    HW235217   3.685   3.636   2.352 -0.1655  1.9259  0.9999
 7861SOL     OW35218   2.852   4.033  11.784  0.1143  0.4188 -0.2605
 7861SOL    HW135219   2.771   3.982  11.779 -0.3570  1.0720  0.8482
 7861SOL    HW235220   2.883   4.029  11.694 -0.5067  0.5151 -0.4771
 7862SOL     OW35221   3.228   0.257   5.178  0.0832  0.8108  0.3435
 7862SOL    HW135222   3.306   0.204   5.191 -1.1523 -1.6520 -2.2990
 7862SOL    HW235223   3.257   0.348   5.189  2.2940  0.2652 -0.9779
 7863SOL     OW35224   4.658   3.028   9.988 -0.5874 -0.3804  0.4860
 7863SOL    HW135225   4.733   2.973  10.012  1.3464  1.9891 -0.2231
 7863SOL    HW235226   4.699   3.110  10.015 -1.9345  0.0248  1.2626
 7864SOL     OW35227   2.918   2.151   5.775  0.5009  0.1068  0.1863
 7864SOL    HW135228   2.860   2.226   5.758  0.0771 -0.6474 -1.6595
 7864SOL    HW235229   2.865   2.072   5.775  1.1679 -0.3353  0.3239
 7865SOL     OW35230   3.526   4.612   0.086 -0.0066  0.4355 -0.5995
 7865SOL    HW135231   3.561   4.526   0.064  0.6606  0.0764  1.7981
 7865SOL    HW235232   3.545   4.668   0.011  3.3689 -0.4998 -0.4525
 7866SOL     OW35233   0.188   0.067   8.147 -0.0022  0.2915 -0.3320
 7866SOL    HW135234   0.152   0.067   8.058  0.1961  1.3938 -0.4171
 7866SOL    HW235235   0.108   0.106   8.182  0.0332 -0.8821  1.0266
 7867SOL     OW35236   0.514   3.633   3.040  0.4940 -0.0831  0.8694
 7867SOL    HW135237   0.561   3.622   3.123  0.0962  3.5624  1.5946
 7867SOL    HW235238   0.471   3.548   3.041 -1.9051  1.1238 -0.5601
 7868SOL     OW35239   2.501   2.426   6.554 -0.2832 -0.2433  0.2423
 7868SOL    HW135240   2.425   2.374   6.583  0.8417 -1.7641  0.4803
 7868SOL    HW235241   2.467   2.515   6.549 -1.3298 -0.6435  0.2202
 7869SOL     OW35242   3.393   1.746   8.509 -0.6182  0.1935 -0.3402
 7869SOL    HW135243   3.315   1.793   8.477  0.9782  1.5965 -2.1945
 7869SOL    HW235244   3.450   1.795   8.450  2.8493 -0.6212  2.3941
 7870SOL     OW35245   4.496   1.105  13.683 -0.8464 -0.0692 -0.1107
 7870SOL    HW135246   4.499   1.010  13.693 -0.6253 -0.1474 -0.9240
 7870SOL    HW235247   4.540   1.146  13.757 -1.4231 -0.7309  0.6021
 7871SOL     OW35248   0.609   3.450   7.475  0.3306  0.5028 -0.5108
 7871SOL    HW135249   0.525   3.492   7.456 -0.9604 -2.3961 -1.1963
 7871SOL    HW235250   0.591   3.394   7.550 -0.3979  2.3154  0.6775
 7872SOL     OW35251   2.142   2.485   7.115 -0.5631  0.6295  0.2510
 7872SOL    HW135252   2.096   2.562   7.082 -0.4274  1.2445  1.4965
 7872SOL    HW235253   2.226   2.529   7.100 -0.7779  1.7652  2.4466
 7873SOL     OW35254   1.735   0.159  14.742 -0.3197  0.2382  0.0830
 7873SOL    HW135255   1.688   0.108  14.676 -3.0559  2.5063  0.2519
 7873SOL    HW235256   1.701   0.134  14.828 -0.0405 -1.4832 -0.3111
 7874SOL     OW35257   3.681   0.165   1.341  0.1231  0.0995  0.4232
 7874SOL    HW135258   3.772   0.167   1.369  0.0548  0.6993  0.6105
 7874SOL    HW235259   3.676   0.089   1.283  0.5466 -1.1918  2.0708
 7875SOL     OW35260   1.751   2.256  16.182 -0.8036  0.0681 -0.7001
 7875SOL    HW135261   1.808   2.217  16.248 -1.6273 -0.2423 -0.1716
 7875SOL    HW235262   1.772   2.348  16.196  2.2764 -0.6362 -0.6607
 7876SOL     OW35263   4.046   1.615   6.013  0.0158 -0.1729 -0.0126
 7876SOL    HW135264   4.076   1.646   6.099  0.2582 -1.5760  0.4072
 7876SOL    HW235265   3.952   1.602   6.024  0.2425 -0.4409  1.6258
 7877SOL     OW35266   1.798   3.620   4.115  0.2453  0.0924 -0.0637
 7877SOL    HW135267   1.892   3.627   4.127 -0.1810  3.7022  1.3966
 7877SOL    HW235268   1.796   3.662   4.029 -1.5031  0.6573  0.2419
 7878SOL     OW35269   2.632   4.339   8.440 -0.0566  0.1763 -0.4037
 7878SOL    HW135270   2.614   4.249   8.413 -3.2950  0.6279  0.2584
 7878SOL    HW235271   2.725   4.342   8.464  0.1038  0.2642 -1.0263
 7879SOL     OW35272   2.855   2.035  10.332 -0.0924  0.1547  0.6187
 7879SOL    HW135273   2.846   2.013  10.425  2.5577  0.0848  0.8479
 7879SOL    HW235274   2.781   1.982  10.302  1.3057 -1.6977  0.4319
 7880SOL     OW35275   4.174   2.472   3.184  0.5592  0.0176  0.8247
 7880SOL    HW135276   4.122   2.524   3.246  0.6069 -1.1794  1.8829
 7880SOL    HW235277   4.250   2.456   3.241 -0.5952 -1.1251  2.0344
 7881SOL     OW35278   4.306   4.003   7.431  0.0050 -0.2657  0.4865
 7881SOL    HW135279   4.265   4.017   7.516  0.3720  2.9850  0.1350
 7881SOL    HW235280   4.234   3.957   7.387  1.2264 -0.4132 -1.3596
 7882SOL     OW35281   1.503   1.726   9.117  0.3088 -0.0746 -0.3481
 7882SOL    HW135282   1.504   1.679   9.200  1.2233  0.9154  0.1990
 7882SOL    HW235283   1.579   1.785   9.122  0.8558 -0.5451 -2.7392
 7883SOL     OW35284   1.640   3.169   2.253  0.3500 -0.1861 -0.0254
 7883SOL    HW135285   1.650   3.251   2.301  0.0768 -0.5921  0.7301
 7883SOL    HW235286   1.546   3.168   2.234  0.5392  1.5188 -1.0686
 7884SOL     OW35287   4.598   3.368   3.006  0.0863 -0.3357  0.3100
 7884SOL    HW135288   4.574   3.460   3.017  1.4401 -0.1259  1.4449
 7884SOL    HW235289   4.517   3.329   3.040  0.2620 -1.0771 -0.1214
 7885SOL     OW35290   1.149   4.655   4.460  0.1304 -0.0085  0.3302
 7885SOL    HW135291   1.151   4.570   4.415  0.2492 -0.8146  1.8445
 7885SOL    HW235292   1.118   4.715   4.393  0.8709  1.1583  1.0436
 7886SOL     OW35293   0.195   0.109   7.344 -0.3273  0.1485 -0.6077
 7886SOL    HW135294   0.229   0.020   7.348  0.3879  0.4134 -0.9428
 7886SOL    HW235295   0.245   0.162   7.407  0.7269 -1.1809 -0.3385
 7887SOL     OW35296   2.119   2.802   2.253  0.0355  0.3690 -0.3889
 7887SOL    HW135297   2.025   2.815   2.236  0.2997  2.6674 -0.0697
 7887SOL    HW235298   2.112   2.801   2.349  0.8218  5.2013 -0.2777
 7888SOL     OW35299   3.258   1.815  11.001  0.0881 -0.0755  0.4861
 7888SOL    HW135300   3.194   1.805  10.930 -1.0871  1.1310  1.3838
 7888SOL    HW235301   3.210   1.779  11.075 -0.0037 -1.0148 -0.0285
 7889SOL     OW35302   4.453   2.174   0.813 -0.3739 -0.1176 -0.3733
 7889SOL    HW135303   4.497   2.091   0.830  3.6755  2.2760  0.6972
 7889SOL    HW235304   4.522   2.233   0.784 -0.8549  1.0168  0.8394
 7890SOL     OW35305   1.184   0.916   4.259  0.3491 -0.1529 -0.0112
 7890SOL    HW135306   1.192   0.821   4.255 -0.5033 -0.2926  1.4216
 7890SOL    HW235307   1.252   0.931   4.193 -0.2386  0.9626 -0.3649
 7891SOL     OW35308   4.159   0.509   5.973  0.3337  0.1719 -0.1573
 7891SOL    HW135309   4.146   0.518   6.067 -1.5394  0.5782 -0.4643
 7891SOL    HW235310   4.253   0.493   5.968  0.9779  4.0132 -0.2557
 7892SOL     OW35311   0.528   1.100   6.776  0.0899 -0.8043  0.1101
 7892SOL    HW135312   0.512   1.061   6.862  1.1447 -1.3819  0.0571
 7892SOL    HW235313   0.547   1.018   6.731  0.1459 -1.1598  0.7748
 7893SOL     OW35314   0.374   3.508   4.690  0.0110  0.0640  0.6109
 7893SOL    HW135315   0.418   3.550   4.616 -2.1034 -0.5090 -0.9814
 7893SOL    HW235316   0.420   3.425   4.686  2.2953  1.2612  1.9915
 7894SOL     OW35317   0.108   4.477   3.817 -0.1515  0.0330  0.2012
 7894SOL    HW135318   0.069   4.564   3.816 -0.5792 -0.1623  0.1370
 7894SOL    HW235319   0.060   4.431   3.886 -2.1413  1.2420 -0.3844
 7895SOL     OW35320   0.144   4.498   7.528 -0.8420 -0.6151  0.2254
 7895SOL    HW135321   0.104   4.508   7.614  0.2352 -2.7878  0.9863
 7895SOL    HW235322   0.210   4.566   7.537 -0.3431 -1.1231  0.4207
 7896SOL     OW35323   3.933   0.132  12.878  0.0381  0.7338  0.0387
 7896SOL    HW135324   3.907   0.151  12.968  0.2036 -1.9111  0.6342
 7896SOL    HW235325   3.855   0.169  12.838  0.0733 -0.8811 -1.5159
 7897SOL     OW35326   2.374   0.011   3.115  0.1167  0.6868 -0.5996
 7897SOL    HW135327   2.398   4.696   3.189 -1.4345 -0.4613 -0.9463
 7897SOL    HW235328   2.344   0.094   3.153  1.7230  0.4746  1.1152
 7898SOL     OW35329   3.587   2.559   1.244  0.4786 -0.5654  0.0069
 7898SOL    HW135330   3.658   2.510   1.202  2.0931  1.3526  0.4883
 7898SOL    HW235331   3.528   2.483   1.243 -0.0793 -0.1222 -0.4496
 7899SOL     OW35332   3.565   1.718  15.856  0.1044  0.4734 -0.0733
 7899SOL    HW135333   3.487   1.756  15.815 -0.1456 -0.7660 -0.7301
 7899SOL    HW235334   3.531   1.704  15.944  0.6987  2.3414  0.4539
 7900SOL     OW35335   4.063   2.979   2.887 -0.6211  0.4227 -0.4001
 7900SOL    HW135336   4.078   2.895   2.930 -0.2420  0.1902 -0.9919
 7900SOL    HW235337   4.134   3.037   2.914 -0.8807 -0.6754  2.7172
 7901SOL     OW35338   2.220   4.397   9.491 -0.4044  0.6171 -0.4385
 7901SOL    HW135339   2.222   4.448   9.572  0.7966  0.3564 -0.3055
 7901SOL    HW235340   2.192   4.308   9.514 -0.9687  0.8203 -0.3357
 7902SOL     OW35341   2.420   4.261  13.728  0.6811 -0.7449  0.3082
 7902SOL    HW135342   2.447   4.210  13.652  1.0226 -1.0378  0.6279
 7902SOL    HW235343   2.395   4.192  13.789 -1.6106  0.5993  0.8907
 7903SOL     OW35344   3.778   0.959   4.657  0.5516  0.3507 -0.1476
 7903SOL    HW135345   3.791   0.881   4.711  1.6886  1.0738  0.6119
 7903SOL    HW235346   3.814   1.028   4.712  0.5202 -0.4214  0.8432
 7904SOL     OW35347   3.765   4.715  16.912  0.1720  0.5324  0.1409
 7904SOL    HW135348   3.754   0.053  16.858 -3.0012  0.2615  0.3880
 7904SOL    HW235349   3.753   4.647  16.846 -0.2395  0.0328  0.7305
 7905SOL     OW35350   3.557   2.168  14.346 -0.3348 -0.0184 -0.1357
 7905SOL    HW135351   3.589   2.207  14.427  1.5177  0.7258 -1.2370
 7905SOL    HW235352   3.560   2.076  14.370 -2.4919  0.4317  1.8693
 7906SOL     OW35353   2.587   3.445   2.763 -0.1209  0.0838 -0.5443
 7906SOL    HW135354   2.523   3.460   2.693 -0.2176  0.2625 -0.4172
 7906SOL    HW235355   2.531   3.416   2.835 -0.8656 -0.4767 -1.3428
 7907SOL     OW35356   2.771   1.080  14.580 -0.1458  0.4334 -0.2028
 7907SOL    HW135357   2.740   0.992  14.562  0.0507  0.2863  0.1713
 7907SOL    HW235358   2.794   1.070  14.672 -4.3409 -2.2317  0.5128
 7908SOL     OW35359   4.242   1.443  17.716 -0.5664  0.0653  0.2833
 7908SOL    HW135360   4.297   1.517  17.690 -0.9299 -1.3119 -4.3870
 7908SOL    HW235361   4.188   1.491   0.022  0.8116  1.3691  0.4728
 7909SOL     OW35362   0.417   2.900   4.305  0.0681  0.4066  0.2273
 7909SOL    HW135363   0.324   2.880   4.293 -0.0103 -0.2826  1.9795
 7909SOL    HW235364   0.456   2.835   4.362 -2.0995 -1.1569 -0.0666
 7910SOL     OW35365   3.963   2.831  16.878 -0.3062  0.1821 -0.3347
 7910SOL    HW135366   3.959   2.817  16.973  3.2720 -0.4171 -0.2634
 7910SOL    HW235367   4.049   2.791  16.868 -0.5836 -0.4650 -0.0873
 7911SOL     OW35368   2.595   0.017  11.873  0.1390  0.1589  0.0134
 7911SOL    HW135369   2.522   0.072  11.844  1.8170  1.9556 -0.7899
 7911SOL    HW235370   2.583   4.740  11.966  1.9364  1.5631  0.5141
 7912SOL     OW35371   3.716   1.410  10.839  0.1785 -0.1965  0.5617
 7912SOL    HW135372   3.680   1.465  10.769 -0.5089 -3.3625 -1.5671
 7912SOL    HW235373   3.807   1.439  10.831  0.1843 -0.5571 -0.7528
 7913SOL     OW35374   0.906   3.065  12.560 -0.3332  0.1118 -0.3643
 7913SOL    HW135375   0.986   3.115  12.575 -1.1232  1.9366 -2.1867
 7913SOL    HW235376   0.863   3.106  12.485  0.1394 -0.4361 -0.9322
 7914SOL     OW35377   4.403   2.716   8.223 -0.5294  0.8080  0.1414
 7914SOL    HW135378   4.434   2.785   8.282 -0.4250 -0.5470  1.6413
 7914SOL    HW235379   4.317   2.702   8.263  1.1274  0.7645  3.6412
 7915SOL     OW35380   0.758   0.123  10.910 -0.1844  0.2890 -0.4794
 7915SOL    HW135381   0.765   0.046  10.967  0.4643  0.9159  0.2964
 7915SOL    HW235382   0.736   0.085  10.825  1.7673  1.3341 -1.4465
 7916SOL     OW35383   4.519   1.855   7.124 -0.1280  0.8252  0.6419
 7916SOL    HW135384   4.459   1.896   7.061  0.8593  1.1319 -0.0988
 7916SOL    HW235385   4.452   1.802   7.167 -0.8930  3.0144  2.1602
 7917SOL     OW35386   4.714   0.870  14.437  0.3386  0.3167 -0.3059
 7917SOL    HW135387   4.705   0.908  14.524 -0.8325 -1.0522  0.1722
 7917SOL    HW235388   4.630   0.907  14.410 -0.7780 -0.6400  1.8756
 7918SOL     OW35389   1.619   1.464   4.337 -0.2474  0.4520  0.2290
 7918SOL    HW135390   1.693   1.406   4.352  0.4557  1.4362  0.6253
 7918SOL    HW235391   1.554   1.409   4.380 -0.4017  0.6668  0.2741
 7919SOL     OW35392   2.428   4.420   5.831 -0.0428 -0.4978  0.1554
 7919SOL    HW135393   2.420   4.327   5.851 -0.6556 -0.6898 -0.9265
 7919SOL    HW235394   2.368   4.458   5.895 -0.6094 -0.6174 -0.2935
 7920SOL     OW35395   1.127   1.919  16.427 -0.1345  0.5888 -0.5382
 7920SOL    HW135396   1.164   1.898  16.513  0.0230  0.1209 -0.7173
 7920SOL    HW235397   1.033   1.919  16.442  0.1890  1.6714  1.5674
 7921SOL     OW35398   4.682   2.382  16.604 -0.0616  0.1108 -0.2146
 7921SOL    HW135399   4.687   2.288  16.621  1.6572  0.4925  1.3549
 7921SOL    HW235400   4.625   2.415  16.674  0.8971  3.8003 -1.1654
 7922SOL     OW35401   1.791   2.523   2.328  0.1227  0.0932  0.3521
 7922SOL    HW135402   1.806   2.552   2.237 -1.0387  0.1140  0.1767
 7922SOL    HW235403   1.697   2.532   2.335 -0.1499 -1.5814 -1.0098
 7923SOL     OW35404   3.266   4.356   8.504 -0.6635  0.1826 -0.0769
 7923SOL    HW135405   3.343   4.383   8.454 -1.9512 -0.8099 -2.5972
 7923SOL    HW235406   3.197   4.398   8.453 -1.0540  0.4053  0.6411
 7924SOL     OW35407   0.739   2.822   4.494 -0.4927 -0.8410 -0.8906
 7924SOL    HW135408   0.815   2.767   4.513 -0.4572 -0.1538  0.9434
 7924SOL    HW235409   0.681   2.797   4.566 -1.1065 -0.3755 -1.2212
 7925SOL     OW35410   0.533   4.468   2.025 -0.5354 -0.4101  0.2058
 7925SOL    HW135411   0.453   4.425   1.995 -0.2864 -1.6925  1.3869
 7925SOL    HW235412   0.542   4.407   2.098  0.9941  0.9460  1.1446
 7926SOL     OW35413   2.007   4.621   3.504 -0.0338 -0.3713 -0.2447
 7926SOL    HW135414   2.036   4.582   3.422  1.3137  2.1104 -0.9363
 7926SOL    HW235415   2.092   4.659   3.526  1.3602 -2.4263 -2.0781
 7927SOL     OW35416   4.561   0.782   5.105 -0.2542 -0.4864  0.3533
 7927SOL    HW135417   4.601   0.869   5.106  1.9809 -1.4935 -1.5816
 7927SOL    HW235418   4.546   0.767   5.011  2.0249 -1.2948  0.1148
 7928SOL     OW35419   4.067   3.570  16.083 -0.9333 -0.4508 -0.3453
 7928SOL    HW135420   3.979   3.576  16.120 -1.6105 -2.2635 -1.6840
 7928SOL    HW235421   4.117   3.547  16.162  0.1679 -1.3000 -1.2859
 7929SOL     OW35422   2.374   4.030   0.715  0.4767 -0.1776 -0.6930
 7929SOL    HW135423   2.431   4.048   0.790 -0.9305  0.9044  0.1090
 7929SOL    HW235424   2.286   4.017   0.752  0.2800  1.3297 -0.6477
 7930SOL     OW35425   1.525   1.211  16.554  0.0319  0.3956  0.6124
 7930SOL    HW135426   1.590   1.160  16.505 -0.8109 -0.0698 -0.0101
 7930SOL    HW235427   1.462   1.141  16.569  0.6621 -0.2943  0.0667
 7931SOL     OW35428   0.381   3.902   8.479  0.7349  0.6548 -0.0509
 7931SOL    HW135429   0.424   3.871   8.399  0.2459  0.5444 -0.2719
 7931SOL    HW235430   0.425   3.983   8.504  1.2026  0.1707  0.6707
 7932SOL     OW35431   0.352   3.418   9.540  0.6518 -0.1985 -0.0372
 7932SOL    HW135432   0.404   3.340   9.518 -0.8073 -0.6179 -1.9376
 7932SOL    HW235433   0.420   3.480   9.568  1.2674 -0.4002 -1.0435
 7933SOL     OW35434   2.915   0.607   4.735  1.1144 -0.0503  0.3833
 7933SOL    HW135435   2.882   0.696   4.733  2.2543  0.3424 -0.7981
 7933SOL    HW235436   2.916   0.589   4.829  0.1775  1.1177  0.6059
 7934SOL     OW35437   3.946   2.484  10.203  0.2178 -0.0242  0.4751
 7934SOL    HW135438   3.977   2.520  10.286  1.1850 -0.2545  0.2118
 7934SOL    HW235439   3.853   2.467  10.219  0.3576  0.2244  1.5949
 7935SOL     OW35440   0.876   2.189   2.889 -0.8222  0.1109 -0.1415
 7935SOL    HW135441   0.832   2.160   2.969 -0.5206 -0.2089 -0.0953
 7935SOL    HW235442   0.862   2.284   2.881  1.3597  0.4604  0.1405
 7936SOL     OW35443   3.141   2.799   8.483 -0.0650  0.4579 -0.4582
 7936SOL    HW135444   3.206   2.814   8.552 -1.1283  0.1299  0.6091
 7936SOL    HW235445   3.091   2.725   8.518 -0.3124  0.9002  0.1102
 7937SOL     OW35446   2.667   3.803   2.650 -0.1622 -0.1445 -0.1021
 7937SOL    HW135447   2.708   3.719   2.669  1.4687  0.6813  0.0178
 7937SOL    HW235448   2.731   3.863   2.688  1.1284 -0.7961 -1.2513
 7938SOL     OW35449   2.506   0.159  15.749 -0.1223 -0.0652 -0.4300
 7938SOL    HW135450   2.438   0.224  15.734  0.7090  1.4026  2.2100
 7938SOL    HW235451   2.488   0.093  15.682  4.0906 -0.9974 -0.6111
 7939SOL     OW35452   2.640   1.691   8.518  0.4201 -0.4212  0.1637
 7939SOL    HW135453   2.571   1.661   8.459  1.0386  2.5013 -2.0762
 7939SOL    HW235454   2.597   1.767   8.556  1.4718  0.5233 -0.5383
 7940SOL     OW35455   0.886   1.157   0.230  0.9410 -0.4182 -0.3494
 7940SOL    HW135456   0.806   1.132   0.184  1.1404  1.1334 -1.5117
 7940SOL    HW235457   0.861   1.240   0.271  2.7889 -1.2163  2.4010
 7941SOL     OW35458   1.627   3.787   4.739 -0.2859  0.2206 -0.6351
 7941SOL    HW135459   1.624   3.709   4.794  0.9942  0.8553  0.3324
 7941SOL    HW235460   1.670   3.772   4.655 -1.7012  1.4264 -1.5640
 7942SOL     OW35461   2.203   0.564   1.569  0.0871  0.3171  0.1426
 7942SOL    HW135462   2.290   0.590   1.598 -1.0213  3.1999  0.8666
 7942SOL    HW235463   2.195   0.609   1.485  1.2996  0.6171  0.1944
 7943SOL     OW35464   0.207   3.342   1.848  0.1972  0.2995  0.5951
 7943SOL    HW135465   0.227   3.265   1.795 -0.2424  2.2001 -2.2830
 7943SOL    HW235466   0.200   3.296   1.932  0.1192  1.4030  1.1956
 7944SOL     OW35467   1.678   2.556   5.547 -0.4204  0.6683  0.4356
 7944SOL    HW135468   1.704   2.530   5.458 -1.2721 -1.1143  0.7063
 7944SOL    HW235469   1.763   2.567   5.589  0.1114  1.9985 -0.9683
 7945SOL     OW35470   3.945   3.776  15.212  0.6268 -0.4801  0.1759
 7945SOL    HW135471   4.021   3.747  15.262  1.2194  0.1400 -0.3785
 7945SOL    HW235472   3.901   3.823  15.283  0.8171  0.9422 -0.6583
 7946SOL     OW35473   1.473   3.062   9.026 -0.0385  0.1354 -0.1166
 7946SOL    HW135474   1.561   3.081   8.994 -1.2369  2.0573 -2.2888
 7946SOL    HW235475   1.429   3.135   8.983  1.7167 -0.3389 -2.7401
 7947SOL     OW35476   1.510   4.690   5.002  0.0872  1.0503  0.0989
 7947SOL    HW135477   1.499   4.596   4.987  0.9173  1.4575 -2.9077
 7947SOL    HW235478   1.444   4.727   4.944 -0.1811  2.6077  1.3858
 7948SOL     OW35479   4.394   2.017   3.581  0.0094 -0.1891 -0.3803
 7948SOL    HW135480   4.403   1.922   3.589 -0.2615 -0.1738  0.0762
 7948SOL    HW235481   4.336   2.035   3.655  0.7276  0.4712  0.0332
 7949SOL     OW35482   0.462   4.656   3.228  0.5858  0.7362 -0.3453
 7949SOL    HW135483   0.434   0.007   3.238 -1.6906  0.0339 -0.2487
 7949SOL    HW235484   0.506   4.648   3.313 -1.4726 -0.8024  0.5726
 7950SOL     OW35485   0.925   3.782  10.482 -0.1013  0.5226  0.4199
 7950SOL    HW135486   0.907   3.732  10.403  0.5249 -0.0746  0.6581
 7950SOL    HW235487   0.950   3.714  10.544 -1.0004  0.3459  0.5950
 7951SOL     OW35488   1.638   3.566   5.956 -0.4334 -0.2304  0.1155
 7951SOL    HW135489   1.690   3.485   5.954  1.4445  1.0464 -2.3633
 7951SOL    HW235490   1.599   3.560   5.869  0.7876  2.7459 -0.6170
 7952SOL     OW35491   0.584   2.669   2.659 -0.7337  0.0662 -0.3134
 7952SOL    HW135492   0.652   2.602   2.664  1.2217  2.2200  2.0185
 7952SOL    HW235493   0.545   2.665   2.747 -2.7802  1.6065 -1.1459
 7953SOL     OW35494   0.738   2.002  17.500 -0.0684 -0.0583  0.3307
 7953SOL    HW135495   0.782   2.028  17.581  1.8985  1.2276 -1.1360
 7953SOL    HW235496   0.776   1.917  17.479  0.3274  0.5655 -1.5604
 7954SOL     OW35497   0.994   3.831   7.922 -0.0894 -0.1735  0.3144
 7954SOL    HW135498   1.081   3.853   7.889 -0.0909 -1.0224 -0.2597
 7954SOL    HW235499   0.962   3.789   7.843 -0.5716  0.4353  0.1866
 7955SOL     OW35500   0.066   0.406  16.761  0.4376 -0.6337  0.5314
 7955SOL    HW135501   0.108   0.397  16.847  0.0225 -0.3713  0.7659
 7955SOL    HW235502   0.134   0.457  16.716  1.0138 -0.9254  1.0732
 7956SOL     OW35503   2.364   1.291   1.798  0.4085 -0.1971  0.4857
 7956SOL    HW135504   2.297   1.352   1.767  0.0568 -0.4501  0.7432
 7956SOL    HW235505   2.333   1.212   1.754 -0.5290 -0.5283  1.7346
 7957SOL     OW35506   0.472   2.148   6.603  0.0558  0.3804  0.8222
 7957SOL    HW135507   0.456   2.202   6.526 -4.4262  0.2217  1.6310
 7957SOL    HW235508   0.443   2.207   6.673 -0.8913  0.3518  0.4549
 7958SOL     OW35509   1.600   0.185  12.325  0.5499 -0.6033  0.0824
 7958SOL    HW135510   1.523   0.237  12.345 -0.2293 -1.8970  0.4535
 7958SOL    HW235511   1.553   0.102  12.327 -0.9084  0.2446  0.7817
 7959SOL     OW35512   3.033   4.351   4.633  0.3739  0.2307 -0.7967
 7959SOL    HW135513   3.086   4.350   4.553 -0.0520 -3.3281 -1.0233
 7959SOL    HW235514   3.015   4.445   4.643  1.9155  0.0542  3.4341
 7960SOL     OW35515   3.718   1.853   2.399 -0.3303  0.2716  0.4626
 7960SOL    HW135516   3.759   1.770   2.425  1.9210  1.3918  0.5446
 7960SOL    HW235517   3.798   1.906   2.395 -1.4058  1.6374 -2.8144
 7961SOL     OW35518   0.795   3.664   0.243  0.2201 -0.3851  0.0227
 7961SOL    HW135519   0.749   3.589   0.281 -0.4762 -0.6860 -1.3949
 7961SOL    HW235520   0.869   3.669   0.304  1.0991  0.3323 -1.1109
 7962SOL     OW35521   4.160   4.176  15.921 -0.0562 -0.0991 -0.5190
 7962SOL    HW135522   4.136   4.084  15.911 -0.6620 -0.0967  0.8988
 7962SOL    HW235523   4.083   4.207  15.970  1.9890  1.2821  1.7981
 7963SOL     OW35524   4.662   2.111   9.152 -0.1590  0.6185  0.0331
 7963SOL    HW135525   4.689   2.023   9.126  2.1040  2.0120 -2.3144
 7963SOL    HW235526   4.589   2.095   9.212  0.2970 -0.9576  0.1549
 7964SOL     OW35527   4.312   1.149   3.461 -0.2779 -0.6471 -0.3326
 7964SOL    HW135528   4.283   1.120   3.374  1.3889 -2.9208 -0.1280
 7964SOL    HW235529   4.404   1.164   3.441 -0.1431 -0.4556  0.4573
 7965SOL     OW35530   3.736   1.581   2.788  0.5017 -0.4419 -0.0691
 7965SOL    HW135531   3.771   1.596   2.875 -0.2148  1.5610 -0.1416
 7965SOL    HW235532   3.669   1.517   2.814 -0.8424  1.1405  0.3406
 7966SOL     OW35533   1.998   1.846  10.052 -0.4018 -0.0382  0.1841
 7966SOL    HW135534   1.914   1.857  10.008 -0.2406 -1.0506 -0.3589
 7966SOL    HW235535   2.016   1.940  10.065  0.0570 -0.3953  2.0798
 7967SOL     OW35536   2.350   1.440   2.904 -0.2014  0.7834 -0.3949
 7967SOL    HW135537   2.307   1.458   2.987  2.4476 -1.4954  1.4645
 7967SOL    HW235538   2.438   1.418   2.933 -0.6694  1.7576  1.7055
 7968SOL     OW35539   2.695   1.076   1.857  0.7117  0.3603 -0.2947
 7968SOL    HW135540   2.639   1.130   1.913 -0.3946 -1.1642  0.0847
 7968SOL    HW235541   2.756   1.143   1.826  0.8841  0.9799  1.3778
 7969SOL     OW35542   0.759   3.695   0.758  0.1104  0.3371 -0.3423
 7969SOL    HW135543   0.731   3.730   0.673 -0.8916  1.5491  0.4875
 7969SOL    HW235544   0.678   3.650   0.782 -0.4751  0.9369 -1.1750
 7970SOL     OW35545   2.534   0.851   9.603  0.3666  0.7070 -0.2036
 7970SOL    HW135546   2.567   0.762   9.604  0.5196  0.7371 -1.7375
 7970SOL    HW235547   2.458   0.848   9.544  0.3509 -1.4261 -0.0681
 7971SOL     OW35548   3.234   0.511   8.487  0.4319  0.5623 -0.3367
 7971SOL    HW135549   3.244   0.478   8.577 -1.2068  0.4265 -0.2119
 7971SOL    HW235550   3.318   0.554   8.468  0.8653 -0.6546 -1.1591
 7972SOL     OW35551   1.047   2.575   7.655  0.6087 -0.3946 -0.1388
 7972SOL    HW135552   1.103   2.551   7.729  1.8224 -1.2899 -1.3371
 7972SOL    HW235553   0.989   2.631   7.706  0.5762  1.5188 -2.2771
 7973SOL     OW35554   1.486   2.984  10.859 -0.3554 -0.5439  0.7007
 7973SOL    HW135555   1.470   3.044  10.932  2.2774 -0.0835  0.8916
 7973SOL    HW235556   1.434   2.905  10.872  0.2595 -0.7649  1.8106
 7974SOL     OW35557   3.774   0.267  10.010 -0.9493 -0.2265 -0.0751
 7974SOL    HW135558   3.782   0.354  10.048 -0.9936  0.4673 -1.6555
 7974SOL    HW235559   3.696   0.276   9.955 -1.2466  0.0148  0.3858
 7975SOL     OW35560   1.783   0.115   1.292  0.1565  0.0365 -0.4434
 7975SOL    HW135561   1.779   0.167   1.373 -2.5238 -0.1687 -0.4554
 7975SOL    HW235562   1.801   0.183   1.228  0.1275  0.7041  0.2461
 7976SOL     OW35563   2.520   0.831   4.886 -0.9585  0.5171  0.5263
 7976SOL    HW135564   2.491   0.889   4.956 -0.9254  2.1690 -0.8234
 7976SOL    HW235565   2.612   0.856   4.881 -0.7235 -0.4265 -0.0428
 7977SOL     OW35566   2.398   1.757   3.258  0.0559  0.5163 -0.2834
 7977SOL    HW135567   2.316   1.801   3.236 -1.1988  0.0685  3.3843
 7977SOL    HW235568   2.455   1.798   3.193 -1.7100  0.8713 -1.6159
 7978SOL     OW35569   4.103   0.594   6.332 -0.1503 -0.3570 -0.0930
 7978SOL    HW135570   4.135   0.589   6.422 -0.5489 -2.3255 -0.0618
 7978SOL    HW235571   4.071   0.685   6.332  1.3109  0.1650 -0.5263
 7979SOL     OW35572   2.508   0.552  17.380  0.1414  0.3700 -0.1727
 7979SOL    HW135573   2.582   0.611  17.389 -0.9491  1.7486 -0.3010
 7979SOL    HW235574   2.439   0.594  17.431 -0.1064 -0.6764  0.3665
 7980SOL     OW35575   2.562   0.795   6.775 -0.2499  0.2936 -0.1335
 7980SOL    HW135576   2.585   0.724   6.716 -0.3968 -0.7252  1.0346
 7980SOL    HW235577   2.469   0.773   6.780 -0.6866  2.1183 -0.0826
 7981SOL     OW35578   1.904   1.418   9.542  0.4918 -0.0971  0.0762
 7981SOL    HW135579   1.910   1.506   9.506 -0.0013  0.0956  0.4744
 7981SOL    HW235580   1.947   1.420   9.628  0.4586 -3.3665  0.1923
 7982SOL     OW35581   3.995   1.111   7.456  0.5017 -0.1629  0.4325
 7982SOL    HW135582   3.982   1.036   7.398 -3.8928  1.7417 -1.1332
 7982SOL    HW235583   3.925   1.088   7.517 -1.1211  1.7967 -0.6555
 7983SOL     OW35584   3.189   1.466  15.568 -0.9792  0.5440  0.0788
 7983SOL    HW135585   3.164   1.504  15.484  3.2826  3.2808  0.0309
 7983SOL    HW235586   3.197   1.373  15.546 -0.1839  0.3864  1.0513
 7984SOL     OW35587   2.866   0.467   0.856  0.6217 -0.1699  0.2388
 7984SOL    HW135588   2.945   0.498   0.900 -1.0546  0.7958  2.5142
 7984SOL    HW235589   2.793   0.491   0.913 -0.8065 -0.4417 -1.4770
 7985SOL     OW35590   3.713   3.610  11.502  0.5382 -0.2414 -0.0739
 7985SOL    HW135591   3.626   3.650  11.507  1.0201  0.6229  1.3404
 7985SOL    HW235592   3.740   3.642  11.416 -0.7525  0.5704 -0.1740
 7986SOL     OW35593   3.225   2.575   5.539  0.3755  0.2957 -0.7812
 7986SOL    HW135594   3.259   2.583   5.628  1.1015 -1.2265 -0.9300
 7986SOL    HW235595   3.249   2.488   5.506 -2.5209 -0.8639  0.0648
 7987SOL     OW35596   2.605   1.087   5.150  0.0088  0.5014 -0.4634
 7987SOL    HW135597   2.521   1.060   5.187  0.1385  0.4984 -0.1747
 7987SOL    HW235598   2.577   1.162   5.096 -1.6052 -0.1124 -0.4764
 7988SOL     OW35599   1.814   3.910   5.284  0.1620  0.1425 -0.0776
 7988SOL    HW135600   1.846   3.989   5.239  1.0447 -0.7329 -0.9768
 7988SOL    HW235601   1.876   3.905   5.356  0.8845 -1.0706 -0.7925
 7989SOL     OW35602   2.118   4.246   2.349 -0.2792 -0.2087  0.2869
 7989SOL    HW135603   2.202   4.202   2.364 -0.8999 -1.1028  1.1792
 7989SOL    HW235604   2.157   4.326   2.314  1.1124 -1.2370 -0.5374
 7990SOL     OW35605   4.250   0.675   1.555 -0.0894  0.2113 -0.5144
 7990SOL    HW135606   4.209   0.666   1.469  2.2942  3.2268 -1.9445
 7990SOL    HW235607   4.336   0.715   1.543  0.5361 -1.3886 -1.2674
 7991SOL     OW35608   1.862   2.153   6.250  0.0090  0.7362 -0.0453
 7991SOL    HW135609   1.871   2.175   6.343  1.5543 -1.5496  0.3412
 7991SOL    HW235610   1.815   2.073   6.273  0.4019  0.5101 -0.0333
 7992SOL     OW35611   3.701   3.035   7.313  0.1808  0.3115 -0.4987
 7992SOL    HW135612   3.681   3.035   7.220  0.1140  1.9243 -0.4720
 7992SOL    HW235613   3.797   3.034   7.314  0.1806 -0.5092 -0.9910
 7993SOL     OW35614   2.729   4.101   8.971  0.3575  0.1629  0.2522
 7993SOL    HW135615   2.822   4.085   8.987  0.4983 -1.3506 -2.1053
 7993SOL    HW235616   2.703   4.134   9.057 -0.9746  0.9468 -0.4496
 7994SOL     OW35617   4.644   1.878   1.999  0.2727 -0.1830 -0.0787
 7994SOL    HW135618   4.609   1.912   1.916 -0.7607  0.3143  0.5579
 7994SOL    HW235619   4.603   1.942   2.058  0.1896  1.4047 -1.8631
 7995SOL     OW35620   0.921   4.527   5.694  0.0551 -0.1200 -0.2008
 7995SOL    HW135621   0.850   4.492   5.640 -0.5911 -0.8076  1.1182
 7995SOL    HW235622   1.005   4.525   5.647 -0.1675  1.8863 -0.7090
 7996SOL     OW35623   0.083   0.155  13.830  0.5606 -0.8761 -0.0353
 7996SOL    HW135624   0.044   0.069  13.846 -3.0536  0.9726  0.9684
 7996SOL    HW235625   0.099   0.154  13.736  1.5828 -1.9933  0.1407
 7997SOL     OW35626   0.671   2.304   0.819  0.6271  0.1882 -0.0898
 7997SOL    HW135627   0.707   2.392   0.824  1.9669 -0.4341  1.0803
 7997SOL    HW235628   0.735   2.247   0.777 -0.0237 -0.0226 -0.7925
 7998SOL     OW35629   3.747   3.307   6.689  0.3408  0.1002  0.3843
 7998SOL    HW135630   3.789   3.243   6.632 -0.5507  0.9177 -1.1928
 7998SOL    HW235631   3.826   3.359   6.705 -1.4524  2.3540  1.9576
 7999SOL     OW35632   2.241   1.708   8.138  0.2665  0.2511 -0.5257
 7999SOL    HW135633   2.292   1.713   8.058 -1.5698 -2.0210 -1.8248
 7999SOL    HW235634   2.189   1.788   8.128  0.9688  0.6106 -1.3371
 8000SOL     OW35635   3.359   1.877   0.429 -0.0476  0.0890 -0.6930
 8000SOL    HW135636   3.377   1.783   0.425  0.6566  0.1215  1.7736
 8000SOL    HW235637   3.340   1.893   0.337 -2.9476  1.5065  0.1581
 8001SOL     OW35638   3.957   3.075   1.514 -0.0947 -0.6400 -0.3438
 8001SOL    HW135639   3.959   3.024   1.432 -2.5857  0.2424 -0.9400
 8001SOL    HW235640   3.866   3.058   1.538 -1.7504  0.1752 -5.9620
 8002SOL     OW35641   1.043   4.291   9.272  0.4278  0.0479 -0.0304
 8002SOL    HW135642   1.035   4.332   9.358  1.9135  1.1852 -0.4368
 8002SOL    HW235643   0.994   4.345   9.209 -3.5365 -2.6156  0.8010
 8003SOL     OW35644   1.269   0.251   7.325  0.0908 -0.2089 -0.2693
 8003SOL    HW135645   1.321   0.178   7.358  1.1629  1.0238  0.7699
 8003SOL    HW235646   1.306   0.318   7.383  0.8452 -1.5852  0.8270
 8004SOL     OW35647   2.978   1.989   7.968  0.3455 -0.5851  0.9039
 8004SOL    HW135648   2.959   1.970   8.060  2.0449  0.5046  1.4857
 8004SOL    HW235649   3.062   2.033   7.980 -0.1085  0.8462 -1.1967
 8005SOL     OW35650   3.175   2.013   0.570 -0.4119 -0.3040 -0.0829
 8005SOL    HW135651   3.233   1.945   0.535 -0.3946 -0.4167  0.1637
 8005SOL    HW235652   3.104   2.009   0.506 -0.2622  1.1944 -0.3225
 8006SOL     OW35653   2.313   4.070   4.190  0.0342 -0.4201 -0.4324
 8006SOL    HW135654   2.224   4.105   4.183  0.7053  1.3977 -0.0487
 8006SOL    HW235655   2.330   4.069   4.284  2.0950 -0.3481 -0.8187
 8007SOL     OW35656   3.485   3.290   5.672 -0.6757 -0.2212  0.4744
 8007SOL    HW135657   3.529   3.206   5.687 -0.3617 -0.3404 -1.1265
 8007SOL    HW235658   3.556   3.340   5.632 -0.3844 -0.1628  1.0491
 8008SOL     OW35659   2.101   3.539   3.253  0.1556 -0.3854 -0.0274
 8008SOL    HW135660   2.151   3.620   3.246  1.3684 -1.0491  0.9379
 8008SOL    HW235661   2.054   3.532   3.169 -1.6256 -1.4652  1.0480
 8009SOL     OW35662   2.137   2.056  15.309  0.4121  0.3357  0.3358
 8009SOL    HW135663   2.147   1.962  15.293 -1.9299 -0.4133  3.3278
 8009SOL    HW235664   2.054   2.049  15.356 -0.8370  1.3870 -1.7284
 8010SOL     OW35665   0.783   2.627   1.813 -0.2533  0.1601  0.3333
 8010SOL    HW135666   0.877   2.640   1.827 -0.5241  2.4672 -0.0456
 8010SOL    HW235667   0.759   2.556   1.872 -0.8117  0.5152  0.5399
 8011SOL     OW35668   4.250   2.114  14.917  0.2268  0.0129 -0.4289
 8011SOL    HW135669   4.218   2.192  14.872 -0.0781  0.8467  1.2015
 8011SOL    HW235670   4.202   2.126  14.999 -0.9845 -1.1070 -0.9799
 8012SOL     OW35671   0.021   1.757   5.807  0.0556  0.4845 -0.2842
 8012SOL    HW135672   0.036   1.669   5.771 -0.2043  0.3556 -0.0843
 8012SOL    HW235673   4.672   1.739   5.837  0.3163 -0.6750 -0.1797
 8013SOL     OW35674   3.235   4.293   5.544  0.6859 -0.1126  0.3090
 8013SOL    HW135675   3.166   4.304   5.478  1.0137  2.2616  0.3350
 8013SOL    HW235676   3.219   4.204   5.575  0.5051 -0.4873 -0.8500
 8014SOL     OW35677   0.770   1.330   5.950 -0.6433 -0.0146  0.1531
 8014SOL    HW135678   0.758   1.272   5.875 -0.1608  0.3889 -0.2404
 8014SOL    HW235679   0.706   1.395   5.921 -0.4326 -1.2569 -3.1468
 8015SOL     OW35680   1.445   0.700  10.780  0.0183  0.2619  0.1117
 8015SOL    HW135681   1.378   0.723  10.715  2.0534 -0.3824 -2.2463
 8015SOL    HW235682   1.432   0.760  10.853 -0.4458  1.6726 -1.1461
 8016SOL     OW35683   3.307   1.637   4.855  0.0292  0.3119 -0.7913
 8016SOL    HW135684   3.313   1.731   4.839  1.2756  0.5192  0.9585
 8016SOL    HW235685   3.338   1.630   4.945  1.0554 -1.6395 -1.2863
 8017SOL     OW35686   4.698   0.559   9.559  0.6034 -0.4590 -0.2453
 8017SOL    HW135687   0.052   0.545   9.569  0.2281 -0.2551  3.5619
 8017SOL    HW235688   4.679   0.587   9.649 -0.6253 -2.5735  0.1481
 8018SOL     OW35689   3.205   4.325   6.527 -0.1882 -0.0473  0.0708
 8018SOL    HW135690   3.288   4.300   6.568 -0.9939  2.2708  3.1116
 8018SOL    HW235691   3.192   4.251   6.468 -1.9664 -0.3196  0.7919
 8019SOL     OW35692   3.912   3.451   8.684  0.4863  0.3308 -0.5917
 8019SOL    HW135693   3.850   3.474   8.753  1.0816  1.6370 -0.4778
 8019SOL    HW235694   3.998   3.462   8.724  0.7334 -0.8070 -0.8126
 8020SOL     OW35695   3.612   3.262   8.920 -0.6195 -0.0570 -0.2917
 8020SOL    HW135696   3.683   3.303   8.969 -0.4246 -0.5638 -0.1495
 8020SOL    HW235697   3.552   3.255   8.995 -1.1303  2.2874 -0.5048
 8021SOL     OW35698   4.321   3.218  14.870  0.4545  0.2976 -0.7330
 8021SOL    HW135699   4.272   3.251  14.945  1.1380 -1.9318  0.6941
 8021SOL    HW235700   4.404   3.265  14.874 -0.4397  1.8994 -0.7269
 8022SOL     OW35701   1.509   2.349  15.687  0.8257  0.1498  0.0071
 8022SOL    HW135702   1.449   2.330  15.759 -0.0756  0.4285 -0.6625
 8022SOL    HW235703   1.565   2.421  15.717  0.5378  0.5038 -0.2934
 8023SOL     OW35704   2.840   1.970  14.876  0.2591  0.7896  0.2736
 8023SOL    HW135705   2.862   2.058  14.906 -0.0112  1.2313 -0.8312
 8023SOL    HW235706   2.825   1.991  14.783  1.4343 -1.7762 -0.5090
 8024SOL     OW35707   2.847   0.553   6.955 -0.1279 -0.0044  0.6057
 8024SOL    HW135708   2.929   0.511   6.930 -1.1804 -1.7609  0.1455
 8024SOL    HW235709   2.791   0.514   6.889 -0.7936  0.9087  0.6435
 8025SOL     OW35710   1.015   1.396   7.279 -0.3561 -0.1277  0.2016
 8025SOL    HW135711   1.045   1.327   7.339  0.8760  0.0842 -0.1626
 8025SOL    HW235712   1.099   1.435   7.256 -0.2653 -1.1721 -1.1900
 8026SOL     OW35713   1.328   0.068   4.833  0.1498  0.4984 -0.0841
 8026SOL    HW135714   1.257   0.124   4.864  1.2643  2.0158 -0.2372
 8026SOL    HW235715   1.313   0.086   4.740 -1.4035  1.1717  0.3061
 8027SOL     OW35716   2.058   2.222  13.205  0.7301  0.2127  0.3968
 8027SOL    HW135717   2.152   2.203  13.214  0.6368 -0.3189  0.2471
 8027SOL    HW235718   2.047   2.312  13.235  1.4428  1.1285 -2.0660
 8028SOL     OW35719   1.490   2.081   5.990  0.2969 -0.1849  0.0908
 8028SOL    HW135720   1.574   2.122   5.969 -0.8877  1.8295 -0.6585
 8028SOL    HW235721   1.517   1.990   6.007  1.9641  0.2909 -0.0529
 8029SOL     OW35722   2.582   2.589   6.150  0.4266 -0.0303 -0.0320
 8029SOL    HW135723   2.603   2.648   6.078  1.6049 -0.8205 -0.3291
 8029SOL    HW235724   2.493   2.618   6.173  0.5123 -0.4618  0.8539
 8030SOL     OW35725   2.282   1.027   1.258  0.0957  0.3640  0.2539
 8030SOL    HW135726   2.342   1.092   1.295  1.0638 -1.6873  2.2426
 8030SOL    HW235727   2.231   1.005   1.336  0.4527  0.1797  0.4359
 8031SOL     OW35728   0.184   2.095   8.749  0.4962  0.4028 -0.1063
 8031SOL    HW135729   0.188   2.014   8.800  0.5353  1.1639  1.1020
 8031SOL    HW235730   0.277   2.116   8.754  1.3621 -3.5277  0.5557
 8032SOL     OW35731   2.346   3.326  11.258 -0.1288  0.8331 -0.3181
 8032SOL    HW135732   2.439   3.333  11.239  0.1808 -2.5382  0.0223
 8032SOL    HW235733   2.347   3.300  11.350 -0.5839 -3.5586 -1.5667
 8033SOL     OW35734   3.250   1.248   4.161  0.0365 -0.1132 -0.5461
 8033SOL    HW135735   3.319   1.194   4.200  0.5775 -0.7737 -2.3949
 8033SOL    HW235736   3.171   1.214   4.202 -0.4272  0.6738 -0.7902
 8034SOL     OW35737   3.970   0.675   3.692 -0.6192  0.0873  0.2968
 8034SOL    HW135738   3.945   0.750   3.746 -1.5900 -1.8564  2.5535
 8034SOL    HW235739   4.065   0.690   3.697 -0.3338 -1.4280 -0.7065
 8035SOL     OW35740   0.905   0.302   5.093  0.1231  0.5278  0.2170
 8035SOL    HW135741   0.978   0.351   5.130 -0.5553 -0.2912  2.7010
 8035SOL    HW235742   0.867   0.268   5.174  1.2673  0.6619  0.8108
 8036SOL     OW35743   0.543   1.230  16.339  0.6197 -0.3295 -0.3212
 8036SOL    HW135744   0.448   1.239  16.349  0.7941  1.5184 -0.3081
 8036SOL    HW235745   0.563   1.323  16.352 -0.2389 -0.4580  1.8218
 8037SOL     OW35746   2.830   3.293  17.471  0.0039 -0.0522 -0.5793
 8037SOL    HW135747   2.855   3.385  17.476  0.2887 -0.2732  1.6905
 8037SOL    HW235748   2.910   3.248  17.498 -1.0001 -2.5643 -1.6983
 8038SOL     OW35749   1.076   2.119   6.545 -0.0856  0.8131  0.3966
 8038SOL    HW135750   1.031   2.203   6.553  0.5264  0.9332  2.7189
 8038SOL    HW235751   1.156   2.135   6.496 -1.0759  0.1228 -1.4341
 8039SOL     OW35752   3.129   1.311   2.012  0.1462  0.0426 -0.1309
 8039SOL    HW135753   3.220   1.335   1.995  0.1309  0.9472  1.0530
 8039SOL    HW235754   3.151   1.267   2.095  2.1322  0.8796 -0.2230
 8040SOL     OW35755   2.036   1.406   2.318  0.2495  0.4623  0.1583
 8040SOL    HW135756   2.063   1.367   2.402  0.5488  0.1085 -0.1017
 8040SOL    HW235757   1.969   1.464   2.353  0.4366  0.7569  0.0247
 8041SOL     OW35758   1.524   2.783   8.928  0.5329  0.4083 -0.3935
 8041SOL    HW135759   1.560   2.699   8.955  0.4479  0.8087  0.9693
 8041SOL    HW235760   1.540   2.846   8.998 -0.4441 -0.0151  0.2072
 8042SOL     OW35761   1.707   1.060  16.402 -0.2519  0.0096  0.0191
 8042SOL    HW135762   1.653   0.981  16.392  0.9498 -0.6415 -1.3918
 8042SOL    HW235763   1.747   1.071  16.316 -0.3700 -0.1474 -0.0563
 8043SOL     OW35764   0.583   3.692  16.947 -0.0096 -0.1879  0.7909
 8043SOL    HW135765   0.597   3.708  17.041 -1.5165 -0.9819  1.1373
 8043SOL    HW235766   0.643   3.622  16.922  0.0089  0.7208 -1.7331
 8044SOL     OW35767   4.592   1.064   3.853  0.4003  0.4333 -0.3517
 8044SOL    HW135768   4.649   1.121   3.905  0.2590  0.0125  0.2624
 8044SOL    HW235769   4.659   1.030   3.794 -0.3953 -0.6711 -0.6166
 8045SOL     OW35770   3.433   3.387   2.166 -0.0958 -0.2515  0.0430
 8045SOL    HW135771   3.396   3.458   2.220 -1.7828 -1.2679  0.2251
 8045SOL    HW235772   3.463   3.424   2.083 -0.2337 -0.7422 -0.2218
 8046SOL     OW35773   0.982   2.829   8.395 -0.3882  0.3750 -0.2317
 8046SOL    HW135774   1.063   2.844   8.443 -0.3620  0.7881 -0.4095
 8046SOL    HW235775   0.987   2.735   8.378  0.2476  0.2777  0.4848
 8047SOL     OW35776   2.407   0.134   4.092 -0.4130  0.0727 -0.1758
 8047SOL    HW135777   2.360   0.170   4.016  1.9885 -0.6628 -2.0360
 8047SOL    HW235778   2.469   0.207   4.103 -0.9105  0.8017 -2.2179
 8048SOL     OW35779   3.221   1.835   1.283  0.0322  0.0197 -0.1592
 8048SOL    HW135780   3.210   1.844   1.377 -2.5389 -1.7851 -0.2783
 8048SOL    HW235781   3.203   1.924   1.253  1.5136  0.7078  1.0111
 8049SOL     OW35782   3.734   4.267   6.704  0.3227  0.3451 -0.6699
 8049SOL    HW135783   3.802   4.200   6.704  1.8411  1.8946 -0.9569
 8049SOL    HW235784   3.732   4.277   6.799  0.0020  0.0216 -0.6382
 8050SOL     OW35785   3.472   1.284   3.741  0.6275  0.1690  0.3327
 8050SOL    HW135786   3.489   1.199   3.701 -0.2777  0.7901 -1.3641
 8050SOL    HW235787   3.548   1.336   3.717  0.0721  0.2381 -1.2919
 8051SOL     OW35788   4.724   3.869   5.139 -0.2138 -0.1837 -0.2486
 8051SOL    HW135789   4.688   3.934   5.200 -2.1329 -2.0488  0.5982
 8051SOL    HW235790   0.000   3.801   5.204  1.1647 -0.3847 -0.7998
 8052SOL     OW35791   1.364   1.096   5.558  0.6656  0.0649  0.1798
 8052SOL    HW135792   1.330   1.032   5.620  0.5194  1.6074  1.6924
 8052SOL    HW235793   1.457   1.088   5.578  0.4280  1.4488  1.8039
 8053SOL     OW35794   4.206   2.616  12.487  0.0390 -0.2992  0.2732
 8053SOL    HW135795   4.205   2.635  12.581  0.2190  0.8700  0.0338
 8053SOL    HW235796   4.158   2.692  12.457  1.4011 -0.4299 -2.2154
 8054SOL     OW35797   1.643   2.009   3.171 -0.2480  0.5796  0.5691
 8054SOL    HW135798   1.694   1.959   3.235  2.6520  0.7347 -1.6232
 8054SOL    HW235799   1.593   2.065   3.231 -0.4535  0.2350  0.7181
 8055SOL     OW35800   1.648   3.558  16.433 -0.5431 -0.5049  0.2533
 8055SOL    HW135801   1.626   3.619  16.362 -2.1963 -1.8624 -0.3986
 8055SOL    HW235802   1.744   3.556  16.429 -0.5048 -0.3941  1.1209
 8056SOL     OW35803   3.436   4.614   1.977 -0.9265  0.1681  0.4871
 8056SOL    HW135804   3.442   4.533   2.028 -2.6913 -0.1849  0.1221
 8056SOL    HW235805   3.367   4.659   2.026 -2.4032 -0.6711 -0.8692
 8057SOL     OW35806   4.617   4.162  17.360  0.4002 -0.2312 -0.3857
 8057SOL    HW135807   4.562   4.232  17.324 -0.6663  0.4100  2.4721
 8057SOL    HW235808   4.673   4.137  17.287  1.6589 -1.6244  1.0674
 8058SOL     OW35809   0.239   3.411   8.407 -0.0788  0.3628 -0.2809
 8058SOL    HW135810   0.287   3.474   8.460 -0.4944 -0.3259  0.9218
 8058SOL    HW235811   0.290   3.419   8.327 -0.4406  0.0849 -0.5392
 8059SOL     OW35812   1.727   0.247   0.069  0.4810  0.1547  0.3024
 8059SOL    HW135813   1.698   0.178   0.010  0.8557  0.9690 -0.8234
 8059SOL    HW235814   1.749   0.318   0.009  2.0265  0.5952  1.3938
 8060SOL     OW35815   1.428   0.859  17.729 -0.2216  0.7987 -1.0520
 8060SOL    HW135816   1.357   0.873   0.033 -0.6782 -0.2419 -1.3393
 8060SOL    HW235817   1.417   0.766  17.712 -1.0924  0.6755  0.2414
 8061SOL     OW35818   2.345   1.577  12.447 -0.0299  0.2987  0.3672
 8061SOL    HW135819   2.347   1.599  12.540 -1.9947 -0.2968  0.5474
 8061SOL    HW235820   2.279   1.633  12.408  2.0727  2.0699 -0.6380
 8062SOL     OW35821   4.462   2.020   1.787 -0.3042  0.2566  0.2721
 8062SOL    HW135822   4.394   2.082   1.816 -1.6135 -0.7076 -0.7823
 8062SOL    HW235823   4.409   1.943   1.769  1.3188 -0.7575 -0.1229
 8063SOL     OW35824   1.958   2.143   9.371 -0.4813  0.6191 -0.1491
 8063SOL    HW135825   2.007   2.220   9.401  0.5369  0.9069 -2.5748
 8063SOL    HW235826   1.957   2.088   9.449 -0.0444 -1.0170 -1.2992
 8064SOL     OW35827   2.809   3.292  14.134 -0.3345  0.3514 -0.1823
 8064SOL    HW135828   2.897   3.259  14.150 -0.3498 -0.2707 -1.4010
 8064SOL    HW235829   2.793   3.319  14.225  2.3887  1.5467 -0.0560
 8065SOL     OW35830   1.697   2.413   6.911 -0.0569 -0.0557  0.3050
 8065SOL    HW135831   1.602   2.419   6.924  0.0509 -0.6866  1.3793
 8065SOL    HW235832   1.701   2.400   6.816 -1.5338  1.4576  0.0289
 8066SOL     OW35833   2.572   3.404   4.277  0.2442 -0.2454 -0.8046
 8066SOL    HW135834   2.499   3.423   4.219 -0.6682 -0.4646  0.2621
 8066SOL    HW235835   2.614   3.489   4.262 -0.8211  0.8276  2.3053
 8067SOL     OW35836   1.980   1.913   7.967  0.4218  0.3672  0.1477
 8067SOL    HW135837   1.894   1.954   7.971  1.3710  2.1717  1.7262
 8067SOL    HW235838   2.022   1.943   8.048  3.7145 -2.2607 -0.5868
 8068SOL     OW35839   3.065   3.083   2.635 -0.0824 -0.0046 -0.1315
 8068SOL    HW135840   2.970   3.091   2.639 -0.1234 -0.1576 -0.8424
 8068SOL    HW235841   3.093   3.169   2.665  0.7660  0.9426 -3.6929
 8069SOL     OW35842   3.114   2.984   9.538 -0.1994 -0.0312 -0.1210
 8069SOL    HW135843   3.049   2.925   9.501 -0.2432  0.7826 -1.3443
 8069SOL    HW235844   3.062   3.053   9.580  1.9684  0.6183  1.4795
 8070SOL     OW35845   3.498   1.014   2.047 -0.1755  0.1454 -0.5294
 8070SOL    HW135846   3.475   1.082   2.111 -1.3777  0.0543 -0.8758
 8070SOL    HW235847   3.593   1.023   2.041 -0.1122  0.6115  1.0210
 8071SOL     OW35848   3.300   2.124   7.316  0.2733 -0.2389 -0.4380
 8071SOL    HW135849   3.371   2.165   7.266 -0.9456  1.5919 -0.6692
 8071SOL    HW235850   3.251   2.203   7.340  0.3609 -0.2165 -0.3334
 8072SOL     OW35851   1.406   1.136   9.223 -0.1677 -0.4122 -0.1435
 8072SOL    HW135852   1.428   1.045   9.204 -1.3067 -0.9666  1.2479
 8072SOL    HW235853   1.418   1.137   9.318 -0.8021 -0.8658 -0.0590
 8073SOL     OW35854   4.469   0.014   2.475 -0.1645 -0.0326 -0.2653
 8073SOL    HW135855   4.525   4.691   2.521  0.3135  0.2698 -0.4373
 8073SOL    HW235856   4.440   0.080   2.537 -0.5484 -0.1241 -0.3442
 8074SOL     OW35857   1.159   2.199   3.151  0.9557  0.7020  0.1816
 8074SOL    HW135858   1.142   2.268   3.087  1.5468  1.6084  1.0100
 8074SOL    HW235859   1.218   2.142   3.102 -0.7256 -0.5417 -0.4026
 8075SOL     OW35860   1.797   2.157  12.176  0.0327 -0.0921 -0.6215
 8075SOL    HW135861   1.887   2.184  12.161 -0.0829  0.4872 -0.2967
 8075SOL    HW235862   1.812   2.069  12.211 -1.1191  0.4700  1.3255
 8076SOL     OW35863   4.313   4.489  15.683 -0.6412  0.1034  0.2241
 8076SOL    HW135864   4.359   4.551  15.627  2.4097 -0.6119  1.9440
 8076SOL    HW235865   4.228   4.487  15.640  0.2568 -0.6377 -1.5353
 8077SOL     OW35866   4.712   1.219   6.433  0.3143  0.4453  0.7170
 8077SOL    HW135867   0.006   1.175   6.355 -0.4548 -1.1095  1.2564
 8077SOL    HW235868   4.679   1.151   6.491  0.9474  0.4940  1.1346
 8078SOL     OW35869   1.702   0.206   8.279  0.2788 -0.0371 -0.2983
 8078SOL    HW135870   1.734   0.238   8.194 -0.2076 -0.4393 -0.6371
 8078SOL    HW235871   1.607   0.211   8.267  0.4326 -0.2765 -1.5850
 8079SOL     OW35872   2.014   3.360   0.493  0.6871  0.2476 -0.0402
 8079SOL    HW135873   2.001   3.299   0.565 -1.0976  1.4977  0.6998
 8079SOL    HW235874   1.949   3.428   0.508  0.9505  0.4933  0.0063
 8080SOL     OW35875   2.355   0.622   3.125 -0.0141 -0.4463 -0.3261
 8080SOL    HW135876   2.294   0.662   3.063  2.0060  1.4848 -1.0630
 8080SOL    HW235877   2.338   0.671   3.206 -1.3996 -0.2788 -0.7305
 8081SOL     OW35878   2.196   3.153   9.235  0.0945  0.8381  0.0011
 8081SOL    HW135879   2.268   3.090   9.226  0.2266  1.2114 -1.4633
 8081SOL    HW235880   2.223   3.229   9.185 -0.1068  1.7891  1.3323
 8082SOL     OW35881   3.228   2.589  12.070 -0.3009  0.3340  0.4521
 8082SOL    HW135882   3.232   2.608  11.976  0.6475  0.2408  0.4747
 8082SOL    HW235883   3.265   2.501  12.073 -2.7243 -0.7372 -1.2723
 8083SOL     OW35884   3.458   0.159   4.337  0.5420  0.7787 -0.3031
 8083SOL    HW135885   3.438   0.117   4.421  0.3193 -0.5953 -1.0308
 8083SOL    HW235886   3.372   0.141   4.297  0.3566 -0.1775  0.5304
 8084SOL     OW35887   4.497   0.489   8.761 -0.0398 -0.0498  0.7133
 8084SOL    HW135888   4.499   0.543   8.682 -4.5442 -0.7487  0.1389
 8084SOL    HW235889   4.562   0.535   8.814  1.0770 -0.1965 -0.4903
 8085SOL     OW35890   2.926   4.564   7.699  0.3397 -0.2463  0.3475
 8085SOL    HW135891   2.856   4.527   7.646  1.4769  0.1412 -1.4068
 8085SOL    HW235892   2.980   4.599   7.628  1.3965  1.9675  2.2374
 8086SOL     OW35893   1.740   0.236   8.011  0.3401 -0.4998  0.4660
 8086SOL    HW135894   1.718   0.145   7.993 -0.3304 -0.2711  0.1083
 8086SOL    HW235895   1.823   0.242   7.964  0.3404 -0.6107  0.4525
 8087SOL     OW35896   1.057   4.055   1.327  0.0580 -0.4967 -0.9519
 8087SOL    HW135897   0.973   4.028   1.290 -0.6540  1.1047 -0.4806
 8087SOL    HW235898   1.045   4.149   1.318  0.8585 -0.0763  2.4142
 8088SOL     OW35899   1.624   0.628   8.288 -0.6107  0.1310 -0.3907
 8088SOL    HW135900   1.599   0.551   8.339  0.9505 -0.8314 -1.1080
 8088SOL    HW235901   1.677   0.672   8.354 -1.8011  1.6200 -0.4266
 8089SOL     OW35902   0.720   1.286   5.476 -0.0606  0.1064 -0.8106
 8089SOL    HW135903   0.803   1.267   5.519 -0.2334  0.6890 -0.2048
 8089SOL    HW235904   0.675   1.204   5.495 -0.9984  0.7642 -0.1707
 8090SOL     OW35905   4.712   1.554  14.251 -0.3400 -0.5835  0.7001
 8090SOL    HW135906   0.006   1.643  14.242 -1.1566 -0.2647  0.7885
 8090SOL    HW235907   4.617   1.569  14.254 -0.5518 -1.4710 -1.3233
 8091SOL     OW35908   2.245   4.243  10.498  0.4849 -0.0374  0.6301
 8091SOL    HW135909   2.227   4.298  10.422  1.3217  0.7085  0.9781
 8091SOL    HW235910   2.228   4.305  10.569  1.0830  1.6169 -0.6847
 8092SOL     OW35911   2.528   2.295   4.540 -0.0859  0.1906 -0.3565
 8092SOL    HW135912   2.513   2.239   4.464 -1.8787 -1.9098  1.5446
 8092SOL    HW235913   2.557   2.235   4.608  3.0918 -0.4179 -2.2662
 8093SOL     OW35914   4.210   0.902   6.310 -0.1069  0.1710  0.1122
 8093SOL    HW135915   4.127   0.934   6.347  0.8478  0.4020  2.0393
 8093SOL    HW235916   4.201   0.899   6.215 -0.7622  2.8269  0.0882
 8094SOL     OW35917   1.034   3.903   1.645  0.1914  0.0501 -0.1096
 8094SOL    HW135918   0.943   3.913   1.617 -0.3067 -0.5568  1.2665
 8094SOL    HW235919   1.074   3.985   1.616 -0.5331  0.2623 -0.5011
 8095SOL     OW35920   0.952   4.573  13.808 -0.3662 -0.1424  0.0812
 8095SOL    HW135921   0.905   4.612  13.882 -0.8623  1.7532 -1.2391
 8095SOL    HW235922   0.892   4.603  13.740  0.7753 -2.2676 -1.8718
 8096SOL     OW35923   2.167   3.061   4.805 -0.1715  0.0334  0.2533
 8096SOL    HW135924   2.254   3.024   4.819  1.0875  2.1337 -2.1595
 8096SOL    HW235925   2.103   2.991   4.822  0.7141 -1.3238 -2.1050
 8097SOL     OW35926   1.793   1.848   3.345 -0.4023 -0.3543 -0.0920
 8097SOL    HW135927   1.767   1.859   3.437 -1.6959 -2.2893 -0.2130
 8097SOL    HW235928   1.784   1.753   3.345  2.5377 -0.6221  3.2543
 8098SOL     OW35929   2.635   1.788   8.851 -0.3559  0.2950 -0.4088
 8098SOL    HW135930   2.599   1.700   8.846  1.8723 -0.4815 -2.8176
 8098SOL    HW235931   2.582   1.833   8.785  0.0471  0.4923 -0.6026
 8099SOL     OW35932   1.932   4.400   5.268  0.2702 -0.3916 -0.5129
 8099SOL    HW135933   2.017   4.442   5.282 -0.9182  0.8293  3.0713
 8099SOL    HW235934   1.880   4.437   5.340  0.0386 -2.1425  0.2307
 8100SOL     OW35935   2.854   2.147   6.663 -0.1504 -0.0206  0.0095
 8100SOL    HW135936   2.826   2.169   6.574  1.9643 -0.9520 -0.8774
 8100SOL    HW235937   2.918   2.216   6.681 -0.4800 -0.0765  1.3777
 8101SOL     OW35938   1.913   0.754  10.069 -0.4057  0.0609  0.3045
 8101SOL    HW135939   1.918   0.749  10.165 -0.0820 -0.1219  0.2788
 8101SOL    HW235940   1.820   0.774  10.062 -0.7156 -1.1688  0.9168
 8102SOL     OW35941   4.079   2.595   2.414  0.1942  0.5293 -0.4993
 8102SOL    HW135942   4.161   2.555   2.443 -0.1066  0.5470  0.3880
 8102SOL    HW235943   4.013   2.525   2.415 -0.0133  0.7344  1.7858
 8103SOL     OW35944   0.100   3.445   4.935  0.0816 -0.2245 -0.1736
 8103SOL    HW135945   0.007   3.467   4.945  0.6289  0.7829  2.5636
 8103SOL    HW235946   0.102   3.351   4.914  0.7520  0.4122 -3.0200
 8104SOL     OW35947   3.242   2.060  15.035 -0.3558 -0.0338  0.1149
 8104SOL    HW135948   3.163   2.112  15.042  0.5567  1.2470  0.8617
 8104SOL    HW235949   3.280   2.118  14.969 -1.9166  4.2696  3.0596
 8105SOL     OW35950   4.178   4.199   4.957 -0.1344 -0.6690 -0.0809
 8105SOL    HW135951   4.229   4.121   4.974 -0.6240 -0.6311  1.5181
 8105SOL    HW235952   4.226   4.260   5.013 -0.3409  0.7001 -1.3808
 8106SOL     OW35953   4.389   3.210  11.235  0.5927  0.4485 -0.1848
 8106SOL    HW135954   4.394   3.121  11.198  0.1198  0.9444 -1.4377
 8106SOL    HW235955   4.484   3.222  11.238  0.8620 -1.4502 -0.7384
 8107SOL     OW35956   0.575   4.540   7.539  0.2160  0.2494 -0.0320
 8107SOL    HW135957   0.627   4.524   7.618 -1.5086  0.4466  1.1629
 8107SOL    HW235958   0.605   4.626   7.510  2.7170 -0.7998 -0.5073
 8108SOL     OW35959   1.063   0.786   9.095  0.2322 -0.0713  0.0414
 8108SOL    HW135960   1.060   0.752   9.185  0.4846 -0.5208 -0.1183
 8108SOL    HW235961   1.006   0.862   9.096  0.3151  0.0029 -1.1377
 8109SOL     OW35962   4.302   3.140   7.466 -0.5072  0.8051  0.1323
 8109SOL    HW135963   4.327   3.226   7.433  0.6493 -0.0427 -1.2012
 8109SOL    HW235964   4.319   3.141   7.560 -2.7064  0.3611  0.5232
 8110SOL     OW35965   1.646   3.768  16.272  0.1552 -0.2544  0.1284
 8110SOL    HW135966   1.556   3.787  16.246  1.1812  1.2966 -2.3212
 8110SOL    HW235967   1.697   3.848  16.284  1.4770 -0.8297 -1.5961
 8111SOL     OW35968   3.515   3.283   9.984 -0.3224 -0.4603 -0.1817
 8111SOL    HW135969   3.544   3.215   9.923 -2.0279 -0.6378 -0.7784
 8111SOL    HW235970   3.599   3.329   9.985 -1.1650  1.1365 -2.4731
 8112SOL     OW35971   0.100   0.046   7.897  0.0285  0.4835 -0.5869
 8112SOL    HW135972   0.179   0.080   7.856  0.9687 -0.8603  0.1107
 8112SOL    HW235973   0.094   4.696   7.866 -0.2255  0.7720 -1.3752
 8113SOL     OW35974   3.846   1.288   5.415 -0.2056  0.2313 -0.0123
 8113SOL    HW135975   3.810   1.225   5.353  1.4823  0.3127 -1.0826
 8113SOL    HW235976   3.782   1.285   5.486 -1.5385 -5.0550 -1.4208
 8114SOL     OW35977   3.251   2.298   9.531  0.7429  0.2269 -0.0284
 8114SOL    HW135978   3.333   2.346   9.515  0.3873  0.7375 -0.2902
 8114SOL    HW235979   3.213   2.334   9.611  1.2320  1.2817 -0.2760
 8115SOL     OW35980   1.569   1.962   4.954 -0.3106  0.8897  0.3036
 8115SOL    HW135981   1.600   1.884   5.001 -1.3016 -0.4651 -1.2959
 8115SOL    HW235982   1.649   2.013   4.944 -0.7183  1.3058 -0.8532
 8116SOL     OW35983   1.141   1.276   6.458  0.7602  0.2432  0.1144
 8116SOL    HW135984   1.153   1.370   6.443  1.7711  0.1738  0.4513
 8116SOL    HW235985   1.066   1.261   6.401 -0.1170  1.5597  0.9385
 8117SOL     OW35986   4.563   2.253   8.043  0.0111  0.2270  0.3366
 8117SOL    HW135987   4.482   2.300   8.061 -0.0718 -0.0998  0.8183
 8117SOL    HW235988   4.559   2.201   7.962  0.1464  0.3458  0.2531
 8118SOL     OW35989   1.879   0.306   9.891  0.0988  0.7312  0.3681
 8118SOL    HW135990   1.871   0.260   9.975 -0.9295 -0.1419 -0.2030
 8118SOL    HW235991   1.814   0.272   9.830 -0.7261  0.8904  1.1394
 8119SOL     OW35992   0.838   1.919   3.242 -0.4073  0.1831  0.0635
 8119SOL    HW135993   0.822   1.883   3.329 -0.0929  1.3533  0.6041
 8119SOL    HW235994   0.931   1.942   3.250 -0.5609  0.4784  0.9646
 8120SOL     OW35995   3.747   0.482   1.281 -0.0410  0.3492 -0.5225
 8120SOL    HW135996   3.697   0.550   1.237  0.1956  0.9805  0.1839
 8120SOL    HW235997   3.797   0.537   1.341 -0.6076 -0.2161  0.4803
 8121SOL     OW35998   0.781   0.766   2.223 -0.4528 -0.0265 -0.3586
 8121SOL    HW135999   0.710   0.729   2.276 -0.6051 -1.6419 -1.6745
 8121SOL    HW236000   0.739   0.774   2.138  1.2887 -0.3140 -1.2418
 8122SOL     OW36001   3.734   0.244   7.765  0.8211 -0.5834  0.1325
 8122SOL    HW136002   3.815   0.209   7.726  0.5029 -1.5423  0.3219
 8122SOL    HW236003   3.696   0.168   7.809 -2.5938  1.2786  0.3738
 8123SOL     OW36004   1.624   3.111   1.785  0.0136  0.1981 -0.1606
 8123SOL    HW136005   1.649   3.084   1.873 -0.6281  0.7089  0.1756
 8123SOL    HW236006   1.649   3.034   1.734  0.5619  1.1908 -1.3803
 8124SOL     OW36007   2.273   1.245  17.392  0.1560  0.3753  0.0321
 8124SOL    HW136008   2.355   1.207  17.424  0.6780  1.4329 -0.0485
 8124SOL    HW236009   2.298   1.337  17.398  4.1526 -0.5521 -2.0200
 8125SOL     OW36010   3.581   1.497   3.263  0.1327  0.1956 -0.0380
 8125SOL    HW136011   3.531   1.453   3.333  0.8533  1.7082  1.4304
 8125SOL    HW236012   3.517   1.494   3.192 -2.5395 -0.6708  2.3630
 8126SOL     OW36013   4.158   4.717   9.647  0.2366 -0.2558 -0.4278
 8126SOL    HW136014   4.112   4.647   9.601  0.6668 -0.8552  0.0551
 8126SOL    HW236015   4.154   0.036   9.572  3.1771  1.5679  0.8155
 8127SOL     OW36016   4.338   4.185  13.403 -0.3551 -0.9005 -0.4963
 8127SOL    HW136017   4.374   4.117  13.345  1.0930  0.3661 -1.1008
 8127SOL    HW236018   4.380   4.165  13.487 -1.2745  0.2779  0.2340
 8128SOL     OW36019   2.331   2.642   6.206  0.3489 -0.2312 -0.9114
 8128SOL    HW136020   2.301   2.732   6.217 -0.0680 -0.6678  1.4993
 8128SOL    HW236021   2.290   2.605   6.127 -0.6995 -0.1817 -0.3867
 8129SOL     OW36022   4.503   0.535  13.814 -0.2689  0.1143  0.0949
 8129SOL    HW136023   4.519   0.482  13.891 -0.5513  0.2863  0.2722
 8129SOL    HW236024   4.426   0.488  13.781  0.1611 -0.2231 -0.4293
 8130SOL     OW36025   0.744   1.162   3.516 -0.8215 -0.0801  0.2091
 8130SOL    HW136026   0.710   1.247   3.488  0.2300  0.5426  0.8054
 8130SOL    HW236027   0.755   1.177   3.610 -0.1078  1.8683 -0.1705
 8131SOL     OW36028   0.598   1.632   7.155 -0.1283 -0.2327 -0.6683
 8131SOL    HW136029   0.669   1.613   7.217 -0.8904 -0.1777  0.2216
 8131SOL    HW236030   0.564   1.714   7.189 -1.9435 -1.0181 -0.5708
 8132SOL     OW36031   3.073   1.935   2.243 -0.0970  0.3099  0.1036
 8132SOL    HW136032   3.122   2.015   2.224 -1.7784  0.8040 -2.1151
 8132SOL    HW236033   3.000   1.941   2.181  1.7486 -2.4337 -2.3442
 8133SOL     OW36034   2.836   1.985   6.022  0.4417  0.1095  0.3235
 8133SOL    HW136035   2.852   2.074   6.051  0.8796  0.8383 -2.1516
 8133SOL    HW236036   2.762   1.992   5.962  2.2045  1.6262 -1.6693
 8134SOL     OW36037   1.316   3.722   0.719  0.2934  0.5235  0.4767
 8134SOL    HW136038   1.373   3.653   0.755 -0.9225 -0.6430  0.1263
 8134SOL    HW236039   1.371   3.768   0.655 -1.4918 -0.2600 -1.5860
 8135SOL     OW36040   4.105   1.362   5.406  0.4591 -0.0989  0.2269
 8135SOL    HW136041   4.015   1.332   5.406  0.4081  0.0749 -0.9004
 8135SOL    HW236042   4.142   1.280   5.374  1.2826  0.0081  0.8794
 8136SOL     OW36043   1.898   0.452   7.460 -0.2009 -0.3986 -0.1512
 8136SOL    HW136044   1.869   0.475   7.372  2.9723  1.2918 -0.7639
 8136SOL    HW236045   1.901   0.539   7.499  1.2463 -0.2352 -0.6051
 8137SOL     OW36046   2.561   3.388   8.797  0.1947 -0.1260  0.1319
 8137SOL    HW136047   2.576   3.320   8.862  0.5291  1.7700  2.0471
 8137SOL    HW236048   2.534   3.463   8.851 -1.3167  0.3109 -1.2404
 8138SOL     OW36049   4.129   3.447   2.187 -0.2511 -0.3945  0.7627
 8138SOL    HW136050   4.134   3.356   2.159 -0.8208  0.4233 -1.9137
 8138SOL    HW236051   4.201   3.481   2.134 -0.1406 -1.8243  0.0093
 8139SOL     OW36052   3.601   1.814   6.779 -0.7744  0.5231  0.5173
 8139SOL    HW136053   3.679   1.819   6.724  0.3258 -1.3622  1.9184
 8139SOL    HW236054   3.571   1.902   6.756 -1.0729  0.7860  1.8847
 8140SOL     OW36055   1.543   4.000  10.989 -0.8033 -0.3925 -0.4405
 8140SOL    HW136056   1.548   4.092  11.015 -1.4025  0.0360 -1.8021
 8140SOL    HW236057   1.542   3.991  10.893 -1.7571  1.7631 -0.6228
 8141SOL     OW36058   1.740   2.597   5.001 -0.2646  0.0557  0.3260
 8141SOL    HW136059   1.737   2.519   4.946 -3.3053  1.1865 -1.1187
 8141SOL    HW236060   1.662   2.587   5.055 -1.2458 -0.1582 -1.1245
 8142SOL     OW36061   4.467   2.238   8.701  0.0913  0.1910  0.3450
 8142SOL    HW136062   4.517   2.158   8.715  2.5779  1.7630  0.3653
 8142SOL    HW236063   4.532   2.307   8.712  0.8651 -0.0088 -3.0096
 8143SOL     OW36064   0.681   2.441   3.682  0.4453 -0.4874  0.1293
 8143SOL    HW136065   0.635   2.511   3.728 -0.4698  0.3428 -2.0544
 8143SOL    HW236066   0.720   2.392   3.754 -2.0882 -3.0159 -0.2133
 8144SOL     OW36067   4.521   3.219   8.948  0.0499 -0.6744  0.1771
 8144SOL    HW136068   4.464   3.147   8.975 -1.2191  0.6944  1.1501
 8144SOL    HW236069   4.600   3.183   8.986  1.4376  1.4438 -0.7072
 8145SOL     OW36070   4.720   1.681   1.071 -0.5274  0.6091 -0.1261
 8145SOL    HW136071   0.023   1.757   1.034  0.1439  0.0141 -0.5592
 8145SOL    HW236072   4.671   1.656   0.993 -2.5681  0.6687  1.1268
 8146SOL     OW36073   1.206   0.118   8.935  0.4807 -0.0773  0.1163
 8146SOL    HW136074   1.189   0.056   8.865 -2.4036  0.7970  0.0278
 8146SOL    HW236075   1.273   0.084   8.995 -1.4855  1.4918  3.2417
 8147SOL     OW36076   2.493   1.505   3.370  0.0749  0.0392 -0.0159
 8147SOL    HW136077   2.446   1.576   3.326 -0.8271  0.4673  1.6615
 8147SOL    HW236078   2.429   1.453   3.417  0.8027 -1.6071 -0.8343
 8148SOL     OW36079   2.454   1.003   3.963 -0.7333  0.7069  0.9912
 8148SOL    HW136080   2.510   0.956   4.025  0.2228  1.8438  1.0085
 8148SOL    HW236081   2.495   0.981   3.880 -1.8972 -1.7990  1.1011
 8149SOL     OW36082   3.881   0.974   3.207 -0.0478  0.6794  0.1848
 8149SOL    HW136083   3.891   1.047   3.145 -3.2483  1.7624  0.9317
 8149SOL    HW236084   3.885   0.896   3.153  0.1633  1.8934 -1.5354
 8150SOL     OW36085   0.873   1.664  15.925 -0.5688  0.5422  0.5521
 8150SOL    HW136086   0.903   1.682  16.014  0.9585 -0.3259  0.2165
 8150SOL    HW236087   0.822   1.584  15.941  1.6691 -1.2596 -1.3299
 8151SOL     OW36088   1.199   4.618   7.474  0.1596 -0.0517 -0.5453
 8151SOL    HW136089   1.246   4.554   7.528  1.1262  0.5797 -0.6416
 8151SOL    HW236090   1.258   4.693   7.470 -0.6750  0.5349 -1.5984
 8152SOL     OW36091   0.000   3.077   6.821  0.8847  0.0776 -0.2060
 8152SOL    HW136092   4.692   3.158   6.810 -1.6239 -1.6603 -1.9091
 8152SOL    HW236093   4.694   3.021   6.758  0.3038  1.5521 -1.0691
 8153SOL     OW36094   3.228   2.840   7.131  0.3256 -0.4622  0.3182
 8153SOL    HW136095   3.315   2.843   7.091 -0.4875  0.5313 -1.3471
 8153SOL    HW236096   3.236   2.878   7.219  3.6469 -1.5989  0.5286
 8154SOL     OW36097   1.118   3.573   7.694  0.4218  0.3949  0.0685
 8154SOL    HW136098   1.025   3.584   7.714  0.7260  3.8156 -0.3534
 8154SOL    HW236099   1.165   3.627   7.757  1.0787 -0.2894  0.1707
 8155SOL     OW36100   1.663   3.358   1.877  0.1547  0.6219 -0.6058
 8155SOL    HW136101   1.633   3.275   1.840 -1.5135  0.6520  0.6812
 8155SOL    HW236102   1.739   3.336   1.931  0.1029 -0.4890 -0.9910
 8156SOL     OW36103   4.412   2.937   4.154  0.0548 -0.3069 -0.6094
 8156SOL    HW136104   4.393   3.023   4.192 -1.5466 -0.7242 -0.4596
 8156SOL    HW236105   4.477   2.895   4.209  0.1505 -1.0384 -1.2809
 8157SOL     OW36106   4.448   1.596   9.162 -0.0696 -0.4573 -0.5942
 8157SOL    HW136107   4.424   1.667   9.102 -2.2770 -1.0162 -0.3537
 8157SOL    HW236108   4.508   1.541   9.111  2.0947  1.2239  0.1323
 8158SOL     OW36109   3.152   3.415  16.281  0.2617  0.0685  0.1387
 8158SOL    HW136110   3.155   3.417  16.185 -2.1519  0.4694  0.0873
 8158SOL    HW236111   3.215   3.343  16.286  0.2624 -0.1079 -2.0146
 8159SOL     OW36112   1.688   3.434  16.811  0.6580 -0.6754 -0.3364
 8159SOL    HW136113   1.621   3.392  16.757 -1.2253  0.4292  1.1587
 8159SOL    HW236114   1.699   3.358  16.868 -2.5875  0.2157  1.5119
 8160SOL     OW36115   0.206   4.645   3.439 -0.3157 -0.5981  0.6774
 8160SOL    HW136116   0.164   4.562   3.462 -2.5440  0.9706  2.3206
 8160SOL    HW236117   0.269   4.620   3.371 -0.8275 -2.7079  0.9620
 8161SOL     OW36118   2.009   2.623   6.235  0.8061  0.2428 -0.1350
 8161SOL    HW136119   2.046   2.646   6.320 -2.2392  2.6436  0.5397
 8161SOL    HW236120   1.955   2.701   6.220  1.6901  1.2637  2.0616
 8162SOL     OW36121   3.147   2.983   6.361 -0.3443 -0.1299 -0.4583
 8162SOL    HW136122   3.145   2.958   6.269  1.5915 -0.4767 -0.3979
 8162SOL    HW236123   3.173   3.075   6.356 -1.4830  0.1925 -0.6171
 8163SOL     OW36124   4.211   1.164  15.376 -0.4756 -0.2611 -0.3384
 8163SOL    HW136125   4.199   1.187  15.284 -3.0285 -0.5714 -0.0561
 8163SOL    HW236126   4.305   1.145  15.377 -0.4515 -0.1210  0.2717
 8164SOL     OW36127   4.218   0.328  17.292  0.0446  0.1286 -0.5824
 8164SOL    HW136128   4.177   0.280  17.365 -0.2048 -0.1469 -0.9068
 8164SOL    HW236129   4.219   0.275  17.212  0.4840 -2.2826  1.0036
 8165SOL     OW36130   3.473   4.688   1.040  0.3441  0.1700 -0.0843
 8165SOL    HW136131   3.417   4.691   1.117  0.0845 -0.0820 -0.2605
 8165SOL    HW236132   3.433   4.617   0.989  3.4601 -0.4695 -1.6472
 8166SOL     OW36133   0.213   0.495  12.245  0.0729  0.1071  0.8048
 8166SOL    HW136134   0.169   0.563  12.297  2.2561  2.4860 -0.4511
 8166SOL    HW236135   0.205   0.540  12.160 -0.5274 -1.1384  0.2086
 8167SOL     OW36136   2.445   4.594   4.049 -0.5291  0.3095 -0.0917
 8167SOL    HW136137   2.444   4.674   4.101  0.0388  0.1140  0.2179
 8167SOL    HW236138   2.451   4.529   4.119 -0.3297 -0.2327 -0.6018
 8168SOL     OW36139   0.612   3.374  17.467  0.1780 -0.0875 -0.3007
 8168SOL    HW136140   0.687   3.322  17.437  0.6398 -0.3100  1.2537
 8168SOL    HW236141   0.562   3.313  17.521 -0.0663  0.1062 -0.3064
 8169SOL     OW36142   1.846   0.999  12.433 -0.6525 -0.0643 -0.4544
 8169SOL    HW136143   1.871   0.909  12.456  0.2967 -0.0671 -1.4891
 8169SOL    HW236144   1.752   0.986  12.428 -0.7536  1.1790 -1.5200
 8170SOL     OW36145   4.609   0.213   2.263 -0.2563 -0.4368 -0.4958
 8170SOL    HW136146   4.584   0.138   2.208  0.7660 -0.4941 -0.8910
 8170SOL    HW236147   4.566   0.284   2.216  0.2525 -1.9616 -3.2860
 8171SOL     OW36148   4.405   4.411   6.034  0.4229 -0.2213  0.1103
 8171SOL    HW136149   4.457   4.409   5.954  0.0941  0.1322 -0.1106
 8171SOL    HW236150   4.403   4.319   6.062 -0.5730 -0.2682 -0.1195
 8172SOL     OW36151   2.524   2.695   1.080 -0.3459  0.0082 -0.7676
 8172SOL    HW136152   2.582   2.670   1.152  0.3374  0.9901 -0.9780
 8172SOL    HW236153   2.467   2.764   1.113 -0.4206 -1.4431  2.1272
 8173SOL     OW36154   4.524   2.758  10.015  0.0086 -0.0683  0.5044
 8173SOL    HW136155   4.519   2.852   9.996  2.9749 -0.1558 -0.6889
 8173SOL    HW236156   4.530   2.765  10.110  1.9029 -3.6646  0.6210
 8174SOL     OW36157   2.080   3.051   2.776 -0.3073  0.0223 -0.1379
 8174SOL    HW136158   2.002   3.100   2.750  0.7647  1.6290 -0.3343
 8174SOL    HW236159   2.067   3.031   2.869 -0.9711  0.6366 -0.1008
 8175SOL     OW36160   0.402   3.045   0.090 -0.3226  0.2723  0.0442
 8175SOL    HW136161   0.320   2.998   0.103 -0.2518 -0.1278 -0.9620
 8175SOL    HW236162   0.450   3.028   0.171 -1.6900 -1.0282  0.5685
 8176SOL     OW36163   2.297   1.657   5.141  0.0170  0.0908  0.0983
 8176SOL    HW136164   2.215   1.632   5.184  0.1009  1.6844  1.1947
 8176SOL    HW236165   2.354   1.685   5.212 -0.1323  0.2742  0.1443
 8177SOL     OW36166   1.325   2.619  16.254 -0.2289  0.0077 -0.0318
 8177SOL    HW136167   1.327   2.539  16.307 -1.9051  0.3841  0.5966
 8177SOL    HW236168   1.380   2.606  16.177 -1.7137 -1.6787 -0.8286
 8178SOL     OW36169   0.138   2.681   4.682 -0.0211 -0.1692  0.6892
 8178SOL    HW136170   0.227   2.647   4.676 -0.1493 -0.7620  2.0791
 8178SOL    HW236171   0.153   2.776   4.690 -1.7017  0.3000 -1.7086
 8179SOL     OW36172   1.279   2.379   9.307  0.5632 -0.6044 -0.0128
 8179SOL    HW136173   1.331   2.442   9.358 -0.6052  0.3737 -0.0343
 8179SOL    HW236174   1.220   2.335   9.368  0.9779 -0.7024  0.3214
 8180SOL     OW36175   4.101   0.333   6.205  0.2930 -0.1986  0.1274
 8180SOL    HW136176   4.126   0.418   6.243  0.3804 -0.7615  1.3349
 8180SOL    HW236177   4.188   0.297   6.190  1.5446  1.5902  3.0202
 8181SOL     OW36178   1.462   2.984   7.530  0.1537 -0.8299  0.4672
 8181SOL    HW136179   1.413   2.987   7.448 -0.6903 -0.1141  1.0023
 8181SOL    HW236180   1.422   2.914   7.582  0.3391 -1.3247 -0.0446
 8182SOL     OW36181   3.947   1.792  11.977  0.1998  0.3063  0.1611
 8182SOL    HW136182   4.010   1.861  11.998 -1.8138  2.0561  0.3927
 8182SOL    HW236183   3.917   1.751  12.058 -1.0225  2.5064  0.8088
 8183SOL     OW36184   1.145   0.816  15.232 -0.2491 -0.4095  0.3351
 8183SOL    HW136185   1.140   0.806  15.137 -0.4779 -3.2272  0.6285
 8183SOL    HW236186   1.074   0.758  15.260 -1.9396  1.5629  0.0741
 8184SOL     OW36187   4.589   2.532  12.746  1.3565 -0.5082 -0.3558
 8184SOL    HW136188   4.544   2.584  12.680  2.2823 -0.6889 -1.1290
 8184SOL    HW236189   4.523   2.477  12.789  1.5682  0.3127  1.0357
 8185SOL     OW36190   0.190   0.297   5.518  0.4889  0.4010  0.0752
 8185SOL    HW136191   0.252   0.355   5.561  1.4271 -0.0277 -0.6998
 8185SOL    HW236192   0.187   0.225   5.580  1.2041 -0.8051 -1.2938
 8186SOL     OW36193   0.706   1.236  11.736  0.2097  0.1556 -0.3740
 8186SOL    HW136194   0.617   1.213  11.709 -0.9386  0.3575  3.1870
 8186SOL    HW236195   0.761   1.201  11.667  0.3345 -0.1013 -0.1439
 8187SOL     OW36196   1.853   1.625   5.700  0.0088 -0.3849 -0.5563
 8187SOL    HW136197   1.948   1.628   5.695  0.0044  1.8643  0.5001
 8187SOL    HW236198   1.825   1.534   5.698  0.3606 -0.4524 -2.6562
 8188SOL     OW36199   0.094   0.752   3.518 -0.4833  0.0347 -0.7874
 8188SOL    HW136200   0.188   0.764   3.531 -0.2264 -0.3709 -2.2731
 8188SOL    HW236201   0.100   0.677   3.458 -1.0146  0.3949 -1.2922
 8189SOL     OW36202   0.222   0.820   4.923 -0.3420 -0.4114 -0.2155
 8189SOL    HW136203   0.302   0.860   4.890 -0.6163 -1.8016 -2.5199
 8189SOL    HW236204   0.254   0.739   4.964  3.8962  0.8522 -1.0995
 8190SOL     OW36205   3.726   1.525   2.307 -0.1734 -0.3312  0.0709
 8190SOL    HW136206   3.719   1.607   2.258 -3.4819 -0.2018  0.7485
 8190SOL    HW236207   3.821   1.513   2.310 -0.1146  0.2851  0.5625
 8191SOL     OW36208   1.588   0.437   7.911 -0.1463  0.1500 -0.4197
 8191SOL    HW136209   1.550   0.351   7.931 -1.6423  1.1578  1.0598
 8191SOL    HW236210   1.676   0.418   7.945  0.4597 -0.2491 -2.2028
 8192SOL     OW36211   0.369   4.208   3.980  0.2839 -0.1979  0.3225
 8192SOL    HW136212   0.356   4.303   3.984 -2.5039 -0.5590 -0.3355
 8192SOL    HW236213   0.450   4.206   3.929 -1.0452 -0.5106 -1.7801
 8193SOL     OW36214   2.627   3.372   7.229  0.1222 -0.0704  0.1790
 8193SOL    HW136215   2.681   3.448   7.252 -0.6633  0.7459 -0.6668
 8193SOL    HW236216   2.629   3.336   7.318 -0.2525  0.9131  0.5820
 8194SOL     OW36217   3.913   3.673  17.682 -0.0829  0.0236  0.2627
 8194SOL    HW136218   3.868   3.589  17.694 -0.4785  0.2465  0.3122
 8194SOL    HW236219   3.842   3.730  17.709 -1.5528 -0.9370 -1.5483
 8195SOL     OW36220   2.493   1.116   0.899  0.3680 -0.5442  0.0664
 8195SOL    HW136221   2.431   1.115   0.972  1.9052  1.9164  1.3956
 8195SOL    HW236222   2.460   1.051   0.837 -1.6954 -0.9724  1.6143
 8196SOL     OW36223   2.159   3.743   0.910 -0.0329 -0.1130 -0.0830
 8196SOL    HW136224   2.079   3.692   0.923  0.3488 -0.9585 -1.0644
 8196SOL    HW236225   2.225   3.694   0.959  3.7599  3.7684 -1.2780
 8197SOL     OW36226   1.901   2.830   4.983 -0.4114  0.5764  0.2891
 8197SOL    HW136227   1.920   2.835   5.077 -1.4365  0.7566  0.4907
 8197SOL    HW236228   1.835   2.761   4.987 -0.6693  0.8096  0.0724
 8198SOL     OW36229   1.841   4.393  10.164 -0.2273  0.3969 -0.2343
 8198SOL    HW136230   1.829   4.299  10.148 -1.4225  0.3199  1.0936
 8198SOL    HW236231   1.785   4.440  10.102 -0.5551  0.2360 -0.0628
 8199SOL     OW36232   4.439   1.223   6.196  0.2958 -0.3537 -0.0567
 8199SOL    HW136233   4.461   1.244   6.287  0.9041 -1.6121  0.0859
 8199SOL    HW236234   4.494   1.285   6.149  0.4125  0.8047  1.6086
 8200SOL     OW36235   3.240   2.305   0.381 -0.4397  0.0888  0.1163
 8200SOL    HW136236   3.158   2.268   0.350 -0.3645  0.5687 -0.6587
 8200SOL    HW236237   3.271   2.335   0.296  1.1979  0.1957  0.7517
 8201SOL     OW36238   2.253   1.465   6.549  0.7781 -0.3543 -0.0002
 8201SOL    HW136239   2.267   1.502   6.462 -1.7060 -1.4899 -0.8775
 8201SOL    HW236240   2.327   1.406   6.566  0.7268 -0.1742  0.8539
 8202SOL     OW36241   0.733   1.044   2.317 -0.0984 -0.1870  0.2083
 8202SOL    HW136242   0.679   0.971   2.288 -1.2777  0.2314  1.3769
 8202SOL    HW236243   0.673   1.084   2.380 -1.2199 -0.8721 -0.4363
 8203SOL     OW36244   1.853   3.048   5.537 -0.1273 -0.8143  0.4149
 8203SOL    HW136245   1.854   3.017   5.628  0.7818  1.6638  1.2345
 8203SOL    HW236246   1.759   3.048   5.520 -0.2131  0.4469  0.9280
 8204SOL     OW36247   0.099   0.046   5.604 -0.2250  0.6658 -0.1597
 8204SOL    HW136248   0.074   0.004   5.687 -1.4223 -0.5820 -1.1621
 8204SOL    HW236249   0.024   0.102   5.585  0.6213  0.9912 -2.5341
 8205SOL     OW36250   0.898   1.391  11.847 -0.0677 -0.8599 -0.2586
 8205SOL    HW136251   0.848   1.472  11.859  2.3796  0.7399 -0.6411
 8205SOL    HW236252   0.832   1.333  11.810  1.1560 -1.5773 -1.3076
 8206SOL     OW36253   2.154   0.934   3.045 -0.0822  0.0155 -0.1316
 8206SOL    HW136254   2.072   0.932   3.094  1.0322  0.6348  1.7407
 8206SOL    HW236255   2.163   1.026   3.021 -1.5703 -0.5647 -2.9107
 8207SOL     OW36256   3.497   1.696   0.959  0.0226  0.8582 -0.4509
 8207SOL    HW136257   3.472   1.745   0.881 -2.2558  0.2611 -0.0963
 8207SOL    HW236258   3.470   1.608   0.932  0.4155  1.1313 -1.7175
 8208SOL     OW36259   4.167   3.621   8.372 -0.4860  0.5188 -0.0150
 8208SOL    HW136260   4.085   3.668   8.389 -1.8854 -2.2914  0.8170
 8208SOL    HW236261   4.206   3.645   8.456  0.2678 -1.7282  0.2575
 8209SOL     OW36262   1.741   4.724   9.406  0.4417 -0.2888 -0.2586
 8209SOL    HW136263   1.680   4.650   9.408  0.2751 -0.1805 -1.3677
 8209SOL    HW236264   1.775   4.719   9.316 -1.4102  0.8901 -1.0271
 8210SOL     OW36265   3.666   2.121   7.993 -0.1931 -0.6594  0.2028
 8210SOL    HW136266   3.731   2.157   7.932  2.2924  0.2865  3.3735
 8210SOL    HW236267   3.608   2.194   8.009 -1.3627 -0.9797 -2.6071
 8211SOL     OW36268   0.860   1.918   8.754  0.3902 -0.2998 -0.2092
 8211SOL    HW136269   0.765   1.914   8.761  0.2642  0.2557 -1.6213
 8211SOL    HW236270   0.876   1.987   8.690  2.6470  0.6341  1.3496
 8212SOL     OW36271   0.170   3.062   7.320 -0.5921  0.0145  0.2592
 8212SOL    HW136272   0.164   3.083   7.414  0.8650  1.2658  0.0758
 8212SOL    HW236273   0.106   3.118   7.275 -1.0147 -0.0655  0.7613
 8213SOL     OW36274   0.340   0.608   8.317 -0.0601  0.1946 -0.3494
 8213SOL    HW136275   0.422   0.558   8.325  0.2206  0.7091 -0.0011
 8213SOL    HW236276   0.375   0.696   8.330  2.4813 -0.6695 -1.3072
 8214SOL     OW36277   1.010   0.637   6.535  0.1239 -0.1324  0.2215
 8214SOL    HW136278   0.979   0.628   6.625  0.2647 -1.6096  0.1253
 8214SOL    HW236279   0.951   0.709   6.510  1.2735  0.2056 -1.4780
 8215SOL     OW36280   0.956   3.418  17.568 -0.1606 -0.1068 -0.3658
 8215SOL    HW136281   0.890   3.359  17.532 -0.1471  0.8253 -1.9121
 8215SOL    HW236282   0.922   3.451  17.651  2.2087  0.3115  0.4382
 8216SOL     OW36283   4.435   0.969   4.309  0.2254 -0.1449  0.1327
 8216SOL    HW136284   4.342   0.956   4.329  0.1897 -0.2847 -0.1233
 8216SOL    HW236285   4.432   0.975   4.214 -2.9127  2.2868  0.3668
 8217SOL     OW36286   4.153   0.623   1.291 -0.5587  0.2139 -0.1625
 8217SOL    HW136287   4.200   0.672   1.224 -0.5040  0.9384  0.3996
 8217SOL    HW236288   4.145   0.535   1.255  0.2547  0.0190  0.1275
 8218SOL     OW36289   4.347   0.341   1.921 -0.1618  0.2154  0.2804
 8218SOL    HW136290   4.401   0.322   1.844 -0.4659 -0.5595  0.2557
 8218SOL    HW236291   4.410   0.378   1.983 -0.3697 -1.5173  1.5132
 8219SOL     OW36292   1.596   4.556   4.257 -0.5165  0.0260  0.2989
 8219SOL    HW136293   1.688   4.552   4.282 -0.7695 -2.1348  0.8110
 8219SOL    HW236294   1.594   4.482   4.197  0.9936  1.4439 -1.5281
 8220SOL     OW36295   0.259   0.981  16.572 -0.3308 -0.3020  0.2100
 8220SOL    HW136296   0.206   0.944  16.501  0.5197  2.6568 -1.9217
 8220SOL    HW236297   0.253   0.920  16.646  1.1688 -0.3607  0.2899
 8221SOL     OW36298   1.241   3.643   2.199  0.1838  0.2307  0.0442
 8221SOL    HW136299   1.302   3.594   2.144 -1.5201 -1.2717 -0.5144
 8221SOL    HW236300   1.194   3.570   2.239  0.5088 -0.4997 -0.9102
 8222SOL     OW36301   3.076   1.321   6.901 -0.3559 -0.6548 -0.0950
 8222SOL    HW136302   3.008   1.300   6.837  0.1249  0.5971 -1.0206
 8222SOL    HW236303   3.132   1.373   6.844 -1.1526 -0.3572 -0.6080
 8223SOL     OW36304   0.863   3.172   0.852  0.5887 -0.2073 -0.1065
 8223SOL    HW136305   0.881   3.093   0.802  1.9731 -0.2169  0.4151
 8223SOL    HW236306   0.922   3.238   0.814 -0.8266  2.2154  1.8845
 8224SOL     OW36307   2.019   2.743   7.087 -0.3493 -0.0640 -0.1822
 8224SOL    HW136308   1.939   2.691   7.084 -0.0307 -0.6002  0.6466
 8224SOL    HW236309   2.025   2.745   7.183  4.9643  1.9794 -0.5624
 8225SOL     OW36310   2.913   3.942   4.634 -0.7609 -0.7722  0.3266
 8225SOL    HW136311   2.894   3.891   4.555 -1.2040 -0.7158  0.3947
 8225SOL    HW236312   2.853   4.015   4.625  0.4843  0.1802 -0.1359
 8226SOL     OW36313   0.051   0.529   5.809  0.2927 -0.3425 -0.1546
 8226SOL    HW136314   0.131   0.523   5.862 -0.2545  0.6400  0.7829
 8226SOL    HW236315   0.002   0.450   5.832  1.6611 -0.7034  1.5825
 8227SOL     OW36316   1.317   1.958  11.217  0.3094  0.5123 -0.2509
 8227SOL    HW136317   1.396   2.011  11.228  1.1185 -1.2459  2.4835
 8227SOL    HW236318   1.273   1.995  11.141  0.6621 -0.9452 -1.1580
 8228SOL     OW36319   2.213   0.334   7.616 -0.3407 -0.5153 -0.0733
 8228SOL    HW136320   2.132   0.288   7.638 -0.3272 -0.6335 -0.2694
 8228SOL    HW236321   2.187   0.420   7.649  0.6362  0.3211 -1.4590
 8229SOL     OW36322   3.115   4.665   9.058  0.2797  0.1951  0.4721
 8229SOL    HW136323   3.146   4.604   8.991 -1.0880 -2.4572  2.2843
 8229SOL    HW236324   3.026   4.636   9.077 -0.5084  0.2781 -3.1380
 8230SOL     OW36325   3.599   4.082  17.750 -0.1948 -0.4816  0.1591
 8230SOL    HW136326   3.629   4.161   0.038 -1.0539 -1.9048  3.1977
 8230SOL    HW236327   3.531   4.127  17.699  0.5091  0.9079  0.4403
 8231SOL     OW36328   2.184   0.038   1.401  0.0660 -0.1574 -0.9449
 8231SOL    HW136329   2.200   0.131   1.417  1.4072 -0.7167  1.0472
 8231SOL    HW236330   2.092   0.041   1.424  1.1925  2.8801  3.2107
 8232SOL     OW36331   0.868   3.336   7.712 -0.5376  0.2639 -0.4036
 8232SOL    HW136332   0.893   3.383   7.632 -0.3900  0.4730 -0.2360
 8232SOL    HW236333   0.826   3.412   7.752  0.2176 -0.7719  2.3380
 8233SOL     OW36334   4.249   0.151   2.145 -0.3870  0.0898 -0.2016
 8233SOL    HW136335   4.303   0.192   2.078 -2.7409  1.4176 -1.3090
 8233SOL    HW236336   4.300   0.070   2.153 -0.5908 -0.3601 -3.6358
 8234SOL     OW36337   4.386   2.054   2.802 -0.2324 -0.3649 -0.1737
 8234SOL    HW136338   4.315   2.004   2.762 -0.1893 -0.7109  0.1829
 8234SOL    HW236339   4.423   1.994   2.867 -0.2741  0.2729  0.4471
 8235SOL     OW36340   3.121   2.035   9.136 -0.0314 -0.5343  0.1794
 8235SOL    HW136341   3.168   2.110   9.172  0.1872 -0.4689 -0.2349
 8235SOL    HW236342   3.077   2.008   9.216  0.7311  0.3442  0.9043
 8236SOL     OW36343   2.322   3.235   4.327 -0.6037 -0.3218 -0.0868
 8236SOL    HW136344   2.364   3.311   4.287 -2.0336  0.9283  0.7786
 8236SOL    HW236345   2.250   3.225   4.264 -0.2770  2.5349 -0.9050
 8237SOL     OW36346   0.067   1.481  10.770 -0.2053  0.6752 -0.0196
 8237SOL    HW136347   0.007   1.518  10.706 -0.9594 -1.7517 -0.7150
 8237SOL    HW236348   0.092   1.399  10.727 -0.5165 -0.6558  2.2861
 8238SOL     OW36349   2.724   3.548   0.491 -0.0621 -0.0881 -0.1030
 8238SOL    HW136350   2.666   3.608   0.539  1.4753 -0.4561  2.2037
 8238SOL    HW236351   2.665   3.475   0.472  1.2213 -0.9622 -0.7641
 8239SOL     OW36352   3.463   3.497  12.195 -0.4125  0.2415 -0.1493
 8239SOL    HW136353   3.490   3.407  12.215 -0.2223  0.9075  2.6061
 8239SOL    HW236354   3.369   3.481  12.189 -0.0001 -2.7293  0.8993
 8240SOL     OW36355   4.468   4.269  15.779 -0.0348  0.8960 -0.2882
 8240SOL    HW136356   4.414   4.212  15.834  0.9084  0.2397 -0.0366
 8240SOL    HW236357   4.422   4.353  15.779 -0.7703  0.4915 -1.0046
 8241SOL     OW36358   1.153   0.424  13.451  0.4339 -0.3525 -0.2629
 8241SOL    HW136359   1.178   0.506  13.409  0.6465 -1.2198 -1.8317
 8241SOL    HW236360   1.061   0.426  13.424  0.3478 -1.1160 -0.0311
 8242SOL     OW36361   2.927   0.648  13.799 -0.2642  0.3328 -0.1673
 8242SOL    HW136362   2.937   0.554  13.810 -0.1882  0.2154 -1.2724
 8242SOL    HW236363   2.889   0.684  13.880 -1.1974 -0.4367 -0.2684
 8243SOL     OW36364   1.837   2.406   6.155  0.1489  0.6986  0.7245
 8243SOL    HW136365   1.846   2.310   6.152 -1.7898  0.5937 -2.0415
 8243SOL    HW236366   1.921   2.430   6.192 -0.3401  2.6342  0.5407
 8244SOL     OW36367   3.343   2.296   8.441  0.1308 -0.3857  0.5722
 8244SOL    HW136368   3.341   2.211   8.485  0.7714 -1.8618 -2.2003
 8244SOL    HW236369   3.429   2.290   8.400 -0.7878 -0.2795 -1.3935
 8245SOL     OW36370   2.451   3.919   5.956 -0.2726 -0.0745  0.2451
 8245SOL    HW136371   2.374   3.862   5.949 -0.8604  0.4734  2.1115
 8245SOL    HW236372   2.510   3.885   5.889 -0.1037  2.8684 -1.0858
 8246SOL     OW36373   0.854   2.362   1.519 -0.1626  0.1265 -0.1184
 8246SOL    HW136374   0.934   2.311   1.529 -0.8998 -1.6996 -3.5592
 8246SOL    HW236375   0.825   2.357   1.610 -0.8199  2.8879 -0.1828
 8247SOL     OW36376   1.966   0.391   6.138  0.1108  0.1002  0.1655
 8247SOL    HW136377   1.975   0.297   6.129 -0.3812 -0.0927  1.6344
 8247SOL    HW236378   2.054   0.427   6.153 -0.2778  1.1341  0.0151
 8248SOL     OW36379   2.958   1.547   2.036 -0.0949 -0.4750 -0.1862
 8248SOL    HW136380   2.863   1.533   2.032 -0.0823 -0.8130  0.8471
 8248SOL    HW236381   2.984   1.476   1.977 -2.7958 -2.3248  0.8619
 8249SOL     OW36382   0.615   3.328   4.639 -0.6356  0.2944  0.0582
 8249SOL    HW136383   0.617   3.329   4.543  3.1612  0.4509  0.1531
 8249SOL    HW236384   0.692   3.384   4.650 -0.9699  0.2390  2.4753
 8250SOL     OW36385   1.891   1.937  14.649  0.4559  0.2544 -0.3175
 8250SOL    HW136386   1.889   1.973  14.560  1.7740  0.4392 -0.2766
 8250SOL    HW236387   1.894   2.020  14.698  2.8425  0.0095 -0.0571
 8251SOL     OW36388   2.913   1.227   1.826  0.5261  0.2121 -0.7480
 8251SOL    HW136389   2.937   1.141   1.793 -0.3328 -1.2140  2.3192
 8251SOL    HW236390   2.981   1.240   1.893  0.8998  1.8343 -1.4355
 8252SOL     OW36391   0.558   2.654   0.110  0.4092 -0.2664  0.1087
 8252SOL    HW136392   0.537   2.570   0.150  1.5449 -0.5269  0.1425
 8252SOL    HW236393   0.506   2.712   0.166  1.2446  0.5558  0.0371
 8253SOL     OW36394   3.472   4.571   8.477 -0.1765 -0.2393  0.0006
 8253SOL    HW136395   3.552   4.569   8.530  0.4325 -1.4973 -0.9490
 8253SOL    HW236396   3.510   4.546   8.393 -0.6631  0.7506 -0.5151
 8254SOL     OW36397   4.037   0.032  13.950  0.3867 -0.4780 -0.4107
 8254SOL    HW136398   4.123   0.004  13.918  0.1441 -3.1992  1.3514
 8254SOL    HW236399   4.009   0.093  13.881 -2.3044 -1.7023 -0.3861
 8255SOL     OW36400   3.122   4.671  15.578  0.7561  0.2743 -0.4561
 8255SOL    HW136401   3.115   4.615  15.500 -4.7773 -1.2684  1.1605
 8255SOL    HW236402   3.212   4.653  15.606  0.7246  0.6656 -0.1032
 8256SOL     OW36403   2.844   0.244   9.649 -0.3123  0.8230  0.2131
 8256SOL    HW136404   2.822   0.328   9.610 -1.0258  1.0194  1.0359
 8256SOL    HW236405   2.888   0.259   9.733 -0.1999  1.0470  0.1144
 8257SOL     OW36406   0.863   1.159  13.160  0.2922  0.4326 -0.2716
 8257SOL    HW136407   0.840   1.159  13.068 -0.7155 -0.7225 -0.0200
 8257SOL    HW236408   0.953   1.127  13.151  0.6183  1.3737 -0.3208
 8258SOL     OW36409   1.421   3.291   4.369  0.3150  0.4179 -0.0118
 8258SOL    HW136410   1.495   3.255   4.419 -1.4589 -1.5996  1.1405
 8258SOL    HW236411   1.449   3.262   4.281 -1.5561 -0.5744 -0.2801
 8259SOL     OW36412   4.069   2.462   8.667  0.6238 -0.5154  0.3318
 8259SOL    HW136413   4.098   2.527   8.730  0.9016 -1.8975  1.6341
 8259SOL    HW236414   3.989   2.418   8.698  1.0410 -1.0117  0.7041
 8260SOL     OW36415   0.159   2.457  10.290  0.2432  0.0336  0.1107
 8260SOL    HW136416   0.151   2.442  10.196  0.9021  1.1695 -0.1366
 8260SOL    HW236417   0.100   2.395  10.333 -1.1862  1.0894 -0.3222
 8261SOL     OW36418   2.949   3.016   8.439 -0.5281 -0.6156 -0.1680
 8261SOL    HW136419   2.959   3.009   8.345 -2.0230  3.2629 -0.6339
 8261SOL    HW236420   2.997   2.939   8.470 -1.1362 -0.5579  0.9312
 8262SOL     OW36421   1.342   1.486   4.016 -0.3770 -0.1666 -0.3107
 8262SOL    HW136422   1.322   1.396   4.041  0.2829  0.5244  2.6383
 8262SOL    HW236423   1.437   1.481   4.005 -0.4998  0.3961 -1.6538
 8263SOL     OW36424   1.053   0.613   8.277  0.0812 -0.0161 -0.5362
 8263SOL    HW136425   0.995   0.644   8.346  1.7716  0.4493  0.6899
 8263SOL    HW236426   1.074   0.690   8.224  1.1226  1.4434  2.0117
 8264SOL     OW36427   2.681   3.775   3.829 -0.1018  1.1054  0.1942
 8264SOL    HW136428   2.762   3.812   3.795  1.4191 -0.1648  2.4669
 8264SOL    HW236429   2.634   3.857   3.845 -1.4126  0.4796 -0.4994
 8265SOL     OW36430   0.930   4.300  10.885 -0.2510  0.3019 -0.2611
 8265SOL    HW136431   0.945   4.394  10.897 -0.0511 -0.0546  2.1446
 8265SOL    HW236432   0.996   4.272  10.949 -0.2954  0.8690  0.0312
 8266SOL     OW36433   1.425   2.913   3.473 -0.0122  0.5017  0.0270
 8266SOL    HW136434   1.465   2.940   3.390  1.5215  0.4804  0.7724
 8266SOL    HW236435   1.388   2.832   3.439  1.0125 -0.5596  1.4928
 8267SOL     OW36436   2.896   3.105   6.397 -0.3214  0.3865 -0.0439
 8267SOL    HW136437   2.920   3.014   6.412  0.0370  0.6763  1.1074
 8267SOL    HW236438   2.902   3.120   6.302  0.5056 -0.3121 -0.1013
 8268SOL     OW36439   3.283   0.431  16.603  0.4315  0.1302  0.3236
 8268SOL    HW136440   3.271   0.388  16.688  0.0634  0.0251  0.2214
 8268SOL    HW236441   3.292   0.523  16.625  2.2001  0.0116  0.0480
 8269SOL     OW36442   1.787   4.097  16.004  0.3118 -0.0317 -0.2625
 8269SOL    HW136443   1.758   4.084  16.094  0.5751  1.3517  0.0169
 8269SOL    HW236444   1.881   4.085  16.014 -0.0552 -1.4803  1.3891
 8270SOL     OW36445   0.661   1.990   3.933 -0.1051  0.2382  0.2871
 8270SOL    HW136446   0.714   1.968   4.010  1.3923  0.9728 -0.5441
 8270SOL    HW236447   0.615   1.910   3.908  1.5187 -1.6945  3.4901
 8271SOL     OW36448   0.499   2.476   5.199  0.1570  0.7380 -0.4937
 8271SOL    HW136449   0.446   2.495   5.121 -2.0095  0.3055  0.8902
 8271SOL    HW236450   0.481   2.383   5.213  0.4725  0.6911 -0.4098
 8272SOL     OW36451   2.853   4.388  11.621 -0.2320  0.3528 -0.1198
 8272SOL    HW136452   2.779   4.444  11.643  0.0597 -1.1656  4.8434
 8272SOL    HW236453   2.850   4.393  11.526 -3.3096 -0.3102 -0.0489
 8273SOL     OW36454   2.388   1.024  11.464  0.1189  0.3807 -0.2857
 8273SOL    HW136455   2.394   0.937  11.425  0.9224  1.8660 -3.4688
 8273SOL    HW236456   2.441   1.023  11.544 -0.1928 -3.1741 -0.1216
 8274SOL     OW36457   1.742   0.749   8.849  0.0556 -0.2137 -0.0971
 8274SOL    HW136458   1.831   0.776   8.872 -0.4308  1.7734 -0.5037
 8274SOL    HW236459   1.730   0.817   8.782 -0.0015 -0.7013 -0.5818
 8275SOL     OW36460   0.310   2.597   8.164  0.0299 -0.4272 -0.0050
 8275SOL    HW136461   0.369   2.538   8.117 -0.4603 -0.6311 -0.3696
 8275SOL    HW236462   0.227   2.549   8.166 -0.1390 -0.1809 -0.9689
 8276SOL     OW36463   2.749   2.877   7.939 -0.9253 -0.4935 -0.6869
 8276SOL    HW136464   2.677   2.861   8.000 -0.2860 -3.6779 -0.7780
 8276SOL    HW236465   2.797   2.795   7.935  1.8007  0.9721  2.2275
 8277SOL     OW36466   2.728   1.915   4.024  0.1581 -0.5348  0.3679
 8277SOL    HW136467   2.794   1.976   4.057 -2.1405  0.5979  2.9533
 8277SOL    HW236468   2.683   1.977   3.966 -0.1381  1.3597  2.6010
 8278SOL     OW36469   1.376   3.152   8.722 -0.4100  0.5264  0.2014
 8278SOL    HW136470   1.451   3.093   8.708 -2.5779 -2.0649 -0.5012
 8278SOL    HW236471   1.392   3.225   8.662  2.8941 -2.1625 -2.1995
 8279SOL     OW36472   1.925   2.706  10.554 -0.1905  0.0319  0.1827
 8279SOL    HW136473   1.979   2.759  10.496  0.6978 -0.2245  0.7728
 8279SOL    HW236474   1.847   2.760  10.538  1.4067  2.3603  0.2311
 8280SOL     OW36475   0.898   1.549   3.238 -0.0002 -0.0423  0.2146
 8280SOL    HW136476   0.956   1.514   3.169  0.2697  0.5732  0.1227
 8280SOL    HW236477   0.857   1.620   3.188 -3.2455 -1.2912  1.1521
 8281SOL     OW36478   1.583   0.909   4.199 -0.1641  0.4723 -0.0574
 8281SOL    HW136479   1.643   0.878   4.132 -0.2928  0.4778 -0.1767
 8281SOL    HW236480   1.549   0.826   4.232 -0.8166  0.1025 -1.6695
 8282SOL     OW36481   0.370   2.407  10.045 -0.3880 -0.6475 -0.1307
 8282SOL    HW136482   0.463   2.390  10.033 -0.9818 -4.7760  1.0127
 8282SOL    HW236483   0.349   2.315  10.061  3.1444 -1.8361 -2.2572
 8283SOL     OW36484   1.211   3.745   2.550  0.4206  0.3361  0.5238
 8283SOL    HW136485   1.207   3.802   2.474 -1.0387 -0.4550  0.0199
 8283SOL    HW236486   1.116   3.733   2.547  0.7027 -1.7097 -0.5657
 8284SOL     OW36487   2.373   0.697  13.427  0.0635 -0.1886 -0.2246
 8284SOL    HW136488   2.383   0.751  13.506 -0.2016 -0.8457  0.2505
 8284SOL    HW236489   2.286   0.661  13.443  0.2057 -0.7570 -0.7568
 8285SOL     OW36490   2.784   1.927   0.392  0.2803  0.4845  0.0322
 8285SOL    HW136491   2.775   1.991   0.322  1.3022  0.4791 -0.1002
 8285SOL    HW236492   2.750   1.970   0.471 -0.3033 -0.1133  0.1065
 8286SOL     OW36493   3.996   2.973   5.773  0.0914 -0.1563 -0.0638
 8286SOL    HW136494   3.913   2.994   5.730  1.3528  0.5635 -2.1738
 8286SOL    HW236495   4.019   2.885   5.743 -0.2660 -0.1011 -0.4992
 8287SOL     OW36496   0.307   2.338   3.911  0.3084  0.0816  0.0293
 8287SOL    HW136497   0.391   2.362   3.871 -0.4481  0.2383 -1.4997
 8287SOL    HW236498   0.329   2.245   3.915 -1.1969 -0.1845  1.8221
 8288SOL     OW36499   2.377   1.381   2.607 -0.2136 -0.1784  0.0311
 8288SOL    HW136500   2.387   1.412   2.696  1.5686  0.1556 -0.2985
 8288SOL    HW236501   2.464   1.411   2.582  0.8792 -0.7527  3.2141
 8289SOL     OW36502   3.919   0.847   5.899  0.8024  0.0072 -0.1159
 8289SOL    HW136503   3.850   0.853   5.833 -0.8554  1.3914  1.7408
 8289SOL    HW236504   3.993   0.897   5.864  0.4779  0.9021  0.4570
 8290SOL     OW36505   0.634   4.337  10.002 -0.0588  0.8681  1.0926
 8290SOL    HW136506   0.656   4.246   9.983 -0.5080  2.0179 -4.7883
 8290SOL    HW236507   0.567   4.314  10.066  0.1295 -1.2080  0.5579
 8291SOL     OW36508   3.399   2.837   9.248  0.7870 -0.4186 -0.1079
 8291SOL    HW136509   3.449   2.815   9.327  0.1483  0.4762  0.5329
 8291SOL    HW236510   3.321   2.882   9.279  1.5981  2.3108 -2.0421
 8292SOL     OW36511   0.128   2.636   4.993  0.3788  0.0455 -0.0984
 8292SOL    HW136512   0.143   2.713   5.048  2.8139 -1.6341  1.6476
 8292SOL    HW236513   0.076   2.676   4.924  0.9892 -2.5963 -2.0619
 8293SOL     OW36514   0.304   0.569   9.336  0.2160  0.2701 -0.0803
 8293SOL    HW136515   0.388   0.587   9.295  0.2526  1.3908  0.4769
 8293SOL    HW236516   0.252   0.592   9.259 -3.1496  1.4501  2.5099
 8294SOL     OW36517   1.275   0.919   5.753 -0.3778 -0.1248  0.1165
 8294SOL    HW136518   1.290   0.956   5.840 -0.6481  0.3379 -0.0294
 8294SOL    HW236519   1.206   0.855   5.768 -0.5040 -0.2736 -1.0827
 8295SOL     OW36520   2.029   1.700   4.769  0.0188  0.6563  0.3312
 8295SOL    HW136521   2.005   1.645   4.844 -1.1407  1.2770  0.4035
 8295SOL    HW236522   2.123   1.711   4.783 -0.6155  1.8235  3.5900
 8296SOL     OW36523   2.764   0.203   0.791 -0.0131  0.5025 -0.7003
 8296SOL    HW136524   2.687   0.242   0.831  1.1675  1.5030  0.6135
 8296SOL    HW236525   2.825   0.277   0.799 -0.6271  0.6302  2.5346
 8297SOL     OW36526   3.117   4.429  13.530  0.2746  0.1487  0.2885
 8297SOL    HW136527   3.110   4.472  13.615  0.5324 -2.6047  1.6997
 8297SOL    HW236528   3.210   4.408  13.520  0.3012  1.5851 -2.4719
 8298SOL     OW36529   1.853   2.767  15.342 -0.0019  0.1227 -0.7061
 8298SOL    HW136530   1.911   2.697  15.373  0.4418  0.7204 -0.1809
 8298SOL    HW236531   1.870   2.761  15.247  1.8482 -1.8967 -0.2638
 8299SOL     OW36532   3.196   0.423  17.089  0.7805  0.0063 -0.0781
 8299SOL    HW136533   3.108   0.432  17.127  2.0050  1.6229  2.3836
 8299SOL    HW236534   3.242   0.369  17.153  1.5504 -0.3624 -0.9471
 8300SOL     OW36535   4.138   0.477  14.144 -0.5651 -0.5592  0.1427
 8300SOL    HW136536   4.121   0.570  14.162 -1.6532 -0.5810 -0.7439
 8300SOL    HW236537   4.108   0.472  14.053 -0.4011 -1.8306  0.1595
 8301SOL     OW36538   0.676   3.477   2.122  0.4726 -0.6836  0.3001
 8301SOL    HW136539   0.723   3.423   2.186 -1.2642 -2.6607 -0.0566
 8301SOL    HW236540   0.744   3.528   2.078 -1.9783  2.4063  0.0669
 8302SOL     OW36541   0.400   1.561  13.589  0.0269  0.2916 -0.4250
 8302SOL    HW136542   0.440   1.475  13.606  0.6212  0.7777  0.6823
 8302SOL    HW236543   0.447   1.614  13.654 -1.5478 -1.1178  1.8693
 8303SOL     OW36544   4.102   0.086   4.136 -0.5593 -0.4877  0.0479
 8303SOL    HW136545   4.016   0.068   4.098 -0.4769 -1.2646  0.2307
 8303SOL    HW236546   4.084   0.057   4.226  0.2297 -0.1533  0.3172
 8304SOL     OW36547   3.035   4.550   5.960 -0.0457 -0.3155  0.2451
 8304SOL    HW136548   3.030   4.557   6.055  1.8706 -0.4956  0.3493
 8304SOL    HW236549   2.975   4.620   5.935  0.4444  0.6525  1.7957
 8305SOL     OW36550   3.618   2.580   6.605 -0.0764  0.0851 -0.5175
 8305SOL    HW136551   3.570   2.537   6.534 -0.3516  0.1141 -0.3506
 8305SOL    HW236552   3.628   2.499   6.656  0.5349 -0.6215 -1.7650
 8306SOL     OW36553   2.405   0.652   6.116 -0.0326  0.3432 -0.3018
 8306SOL    HW136554   2.360   0.696   6.188  2.5577  0.3707  1.3051
 8306SOL    HW236555   2.485   0.645   6.168  1.6038 -1.0324 -3.0139
 8307SOL     OW36556   0.223   0.879  16.301  0.2033  0.5994  0.7003
 8307SOL    HW136557   0.189   0.832  16.225  1.4670 -1.3550  1.3373
 8307SOL    HW236558   0.318   0.880  16.287 -0.2873  2.2289 -2.3842
 8308SOL     OW36559   2.476   4.562  10.387 -0.4913  0.1188 -0.5623
 8308SOL    HW136560   2.551   4.620  10.395  0.5749 -1.3696  0.1972
 8308SOL    HW236561   2.533   4.488  10.367 -0.1006  0.7692 -1.8839
 8309SOL     OW36562   4.177   0.192  10.661 -0.0365 -0.7765 -0.6019
 8309SOL    HW136563   4.232   0.232  10.728 -3.3365  0.0381  1.6087
 8309SOL    HW236564   4.168   0.102  10.694 -0.3024 -1.4923 -2.5818
 8310SOL     OW36565   0.086   0.097   3.613  0.4984 -0.0959 -0.0841
 8310SOL    HW136566   4.734   0.096   3.587  0.6282 -0.2169 -0.5520
 8310SOL    HW236567   0.119   0.014   3.578 -1.2810 -0.9903  0.3819
 8311SOL     OW36568   4.088   2.418   5.758 -0.8703 -0.2337 -0.0899
 8311SOL    HW136569   4.133   2.411   5.674  2.0733 -2.1514  1.6529
 8311SOL    HW236570   4.141   2.348   5.796 -2.6919 -1.7308 -0.2753
 8312SOL     OW36571   1.112   4.414   3.328 -0.4352  0.2619 -0.2275
 8312SOL    HW136572   1.150   4.327   3.336 -3.5095 -1.3236 -2.9107
 8312SOL    HW236573   1.190   4.468   3.338 -0.6378  0.5172 -0.0310
 8313SOL     OW36574   1.952   0.813   0.298 -0.3612  0.5940 -0.1152
 8313SOL    HW136575   1.974   0.790   0.208 -2.0021  2.2692 -0.9547
 8313SOL    HW236576   1.967   0.728   0.340 -0.2036  0.8179  0.2825
 8314SOL     OW36577   0.807   1.754   6.950 -0.1131  0.2341  0.1412
 8314SOL    HW136578   0.753   1.711   7.017 -0.5015 -0.2094 -0.4576
 8314SOL    HW236579   0.834   1.834   6.996  0.0822  1.0786 -1.4590
 8315SOL     OW36580   2.450   1.778   9.312  0.3288  0.4444  0.5301
 8315SOL    HW136581   2.493   1.778   9.398  0.6981  2.2912  0.3534
 8315SOL    HW236582   2.507   1.734   9.250  2.0927 -0.4503  2.8122
 8316SOL     OW36583   1.751   2.554   4.237  0.3235  0.3619 -0.3280
 8316SOL    HW136584   1.688   2.618   4.270 -1.1716 -0.7363 -1.0618
 8316SOL    HW236585   1.768   2.492   4.308 -0.5595  1.0038  0.4314
 8317SOL     OW36586   4.408   1.172   7.290  0.3721 -0.0796 -0.7768
 8317SOL    HW136587   4.462   1.183   7.368  0.5837 -2.8873 -0.5279
 8317SOL    HW236588   4.472   1.180   7.219 -0.1579 -0.0130 -1.2458
 8318SOL     OW36589   1.210   0.655   8.002 -0.7632  0.1507 -0.0068
 8318SOL    HW136590   1.189   0.729   8.059 -1.7668  0.3590 -0.6644
 8318SOL    HW236591   1.303   0.641   8.023 -0.0578  3.3532 -1.0103
 8319SOL     OW36592   1.114   4.128   3.889 -0.5023  0.0793  0.4627
 8319SOL    HW136593   1.025   4.094   3.878 -0.4102  0.2349 -0.7112
 8319SOL    HW236594   1.157   4.049   3.923  4.4392  2.1790 -0.9578
 8320SOL     OW36595   0.311   3.786   5.813 -0.9585  0.1361  0.5643
 8320SOL    HW136596   0.304   3.868   5.763  1.5388  0.4342  0.6865
 8320SOL    HW236597   0.310   3.721   5.743  0.6458  1.4435 -0.6831
 8321SOL     OW36598   2.809   1.030  14.852  0.3693  0.2519 -0.0254
 8321SOL    HW136599   2.825   1.056  14.942  1.9537 -3.5492  0.8058
 8321SOL    HW236600   2.875   0.962  14.834  0.6244  1.1715 -2.5332
 8322SOL     OW36601   1.655   1.776   5.801 -0.1154 -0.1150  0.1087
 8322SOL    HW136602   1.713   1.709   5.766  1.4874  1.2727  0.1111
 8322SOL    HW236603   1.714   1.848   5.822 -0.3963  0.3831 -0.8325
 8323SOL     OW36604   4.456   3.716  12.548 -0.4833 -0.2072 -0.7954
 8323SOL    HW136605   4.550   3.719  12.533 -0.1087  0.8965  1.8686
 8323SOL    HW236606   4.420   3.710  12.459 -1.3569 -2.1783 -0.3051
 8324SOL     OW36607   4.709   1.698   3.359 -0.5185 -0.0622 -0.5525
 8324SOL    HW136608   4.737   1.695   3.267 -1.3427  0.5957 -0.8234
 8324SOL    HW236609   4.627   1.650   3.351 -0.6528 -0.1096  1.2466
 8325SOL     OW36610   0.198   3.587   6.660 -0.0690 -0.5612 -0.1880
 8325SOL    HW136611   0.182   3.645   6.585 -2.7788  1.1027  1.6514
 8325SOL    HW236612   0.277   3.538   6.638  0.8323  0.3420  1.0440
 8326SOL     OW36613   0.729   1.850   6.497  0.5096  1.0046 -0.4899
 8326SOL    HW136614   0.775   1.860   6.414 -0.0312  0.9679 -0.7938
 8326SOL    HW236615   0.787   1.890   6.561  0.8645 -2.3767  1.3317
 8327SOL     OW36616   3.271   3.467   1.026  0.1050 -0.3662  0.1986
 8327SOL    HW136617   3.204   3.404   1.049 -1.9634  1.2607 -1.3400
 8327SOL    HW236618   3.222   3.540   0.989 -0.5874 -0.3445  1.1643
 8328SOL     OW36619   0.787   2.584   6.988 -0.7634 -0.9072  0.4662
 8328SOL    HW136620   0.744   2.503   6.960 -1.7291  0.4496 -2.0760
 8328SOL    HW236621   0.863   2.553   7.036 -0.0305 -0.5223 -0.4290
 8329SOL     OW36622   3.642   3.113   5.323  0.0818  0.3828  0.5267
 8329SOL    HW136623   3.624   3.198   5.283 -1.4194  0.6880  1.8400
 8329SOL    HW236624   3.550   3.096   5.346 -0.7157  2.4087 -1.1199
 8330SOL     OW36625   3.022   0.402   4.061 -0.4898  0.0451 -0.6428
 8330SOL    HW136626   3.083   0.432   3.993 -0.2803 -1.4141 -1.0840
 8330SOL    HW236627   2.992   0.321   4.021  1.9295 -1.5548  0.8166
 8331SOL     OW36628   2.863   3.573   0.243  0.0840  0.5557 -0.3490
 8331SOL    HW136629   2.799   3.569   0.313  1.3120 -0.3659  0.7157
 8331SOL    HW236630   2.824   3.624   0.173 -0.3589 -1.0987 -1.3168
 8332SOL     OW36631   4.537   1.629   7.875  0.1750 -0.4946  0.2251
 8332SOL    HW136632   4.493   1.620   7.790 -2.1353  0.1136  1.3436
 8332SOL    HW236633   4.462   1.640   7.934  1.3446  1.0393  1.4097
 8333SOL     OW36634   0.732   3.492   6.862  0.2379  0.2032  0.8506
 8333SOL    HW136635   0.639   3.483   6.880 -0.0868  0.4267 -0.6924
 8333SOL    HW236636   0.745   3.446   6.780 -1.7873 -1.8526  1.6847
 8334SOL     OW36637   0.747   0.720   8.280  0.1921  0.0163 -0.1374
 8334SOL    HW136638   0.790   0.806   8.276 -1.5655  0.9880  2.0358
 8334SOL    HW236639   0.756   0.703   8.374  0.8407  1.3609  0.0494
 8335SOL     OW36640   0.683   3.980   5.629  0.0709 -0.0030 -0.2545
 8335SOL    HW136641   0.725   3.941   5.706 -0.2633  1.0177  0.4336
 8335SOL    HW236642   0.751   3.966   5.563 -0.8096  0.5982 -1.2811
 8336SOL     OW36643   0.622   1.104   4.915  0.1324  0.0358 -0.1806
 8336SOL    HW136644   0.569   1.139   4.987 -0.3487 -0.6753 -0.1839
 8336SOL    HW236645   0.606   1.010   4.928 -0.6695 -0.0691 -2.0482
 8337SOL     OW36646   0.398   0.590   6.828  0.1973 -0.4838 -0.1121
 8337SOL    HW136647   0.346   0.601   6.908 -1.5622 -3.6946 -0.8351
 8337SOL    HW236648   0.341   0.526   6.786 -1.5565 -1.4303  3.6993
 8338SOL     OW36649   2.339   3.953   3.553 -0.1288  0.3271  0.2665
 8338SOL    HW136650   2.316   4.022   3.490 -0.9616 -0.9782 -0.8384
 8338SOL    HW236651   2.281   3.979   3.624 -0.7817 -1.6197  0.4263
 8339SOL     OW36652   2.035   3.193   8.401 -0.0318  0.0023  0.8950
 8339SOL    HW136653   1.991   3.109   8.412 -0.4249 -0.1361 -1.6648
 8339SOL    HW236654   2.115   3.166   8.356 -0.2191  1.5788 -0.3927
 8340SOL     OW36655   4.541   4.625   9.295 -0.0580 -0.4347  0.0644
 8340SOL    HW136656   4.574   4.643   9.383 -2.9768 -3.8122  1.8659
 8340SOL    HW236657   4.563   4.532   9.290  2.4144  0.0970  1.1746
 8341SOL     OW36658   1.786   3.905   8.657 -0.6545  0.1542  0.2783
 8341SOL    HW136659   1.803   3.914   8.751 -3.1438 -0.4745  0.7808
 8341SOL    HW236660   1.735   3.824   8.655  0.2850 -0.4255 -0.1495
 8342SOL     OW36661   0.633   1.573   2.303  0.1381  0.3128 -0.3014
 8342SOL    HW136662   0.563   1.508   2.310  1.0068 -0.8124 -2.0145
 8342SOL    HW236663   0.586   1.648   2.267 -1.8708 -1.4135 -1.2747
 8343SOL     OW36664   0.101   2.142   7.192  0.0823 -0.2543  0.1392
 8343SOL    HW136665   0.013   2.161   7.224  0.4183 -2.0126  2.1676
 8343SOL    HW236666   0.122   2.213   7.132  2.1304 -2.2585 -1.5527
 8344SOL     OW36667   3.335   4.607   0.627  0.0256  0.2819  0.5056
 8344SOL    HW136668   3.407   4.556   0.591 -0.0639 -0.0602  0.8145
 8344SOL    HW236669   3.369   4.696   0.617  0.5698  0.2196  1.8727
 8345SOL     OW36670   4.562   3.111   6.193  0.0423 -0.4229 -0.1401
 8345SOL    HW136671   4.528   3.190   6.151  0.8567  0.4974  0.9283
 8345SOL    HW236672   4.622   3.081   6.125  0.3070  0.8958 -0.4944
 8346SOL     OW36673   3.883   2.529   9.568  0.1280  0.0157  0.0360
 8346SOL    HW136674   3.854   2.507   9.657 -0.2104  0.2716 -0.0143
 8346SOL    HW236675   3.907   2.621   9.579 -0.1885  0.4169 -2.7746
 8347SOL     OW36676   2.549   0.537   9.936  0.6145 -0.2186 -0.0664
 8347SOL    HW136677   2.586   0.449   9.926  0.5529 -0.5132  2.1449
 8347SOL    HW236678   2.515   0.528  10.026  0.7716 -0.0662  0.0072
 8348SOL     OW36679   3.399   1.623   0.514 -0.0772 -0.3756  0.1834
 8348SOL    HW136680   3.462   1.606   0.584  1.5053  2.0439 -0.6484
 8348SOL    HW236681   3.346   1.543   0.512 -0.9546  0.2088  0.0303
 8349SOL     OW36682   2.545   1.064  11.892  0.6109 -0.0573  0.5331
 8349SOL    HW136683   2.578   1.017  11.816 -1.6619  0.0202 -0.4908
 8349SOL    HW236684   2.451   1.061  11.877  0.6572  2.1611 -0.2661
 8350SOL     OW36685   1.618   2.580   0.385  1.1189  0.6165  0.5657
 8350SOL    HW136686   1.619   2.497   0.433  0.7732 -0.5035 -1.3510
 8350SOL    HW236687   1.668   2.554   0.308  1.6983 -1.0797  1.5259
 8351SOL     OW36688   0.953   3.922   2.141 -0.3544  0.0449 -0.5370
 8351SOL    HW136689   0.966   3.860   2.069 -2.0092  0.8660 -1.5535
 8351SOL    HW236690   0.918   4.001   2.098 -0.1494 -0.0271 -0.8410
 8352SOL     OW36691   0.563   0.273   9.378  0.0912  0.3394 -0.1155
 8352SOL    HW136692   0.523   0.310   9.299 -2.4058 -0.3107  0.8365
 8352SOL    HW236693   0.617   0.206   9.337  2.5526  1.9206  0.5338
 8353SOL     OW36694   2.600   3.675  14.001  0.2286 -0.0478 -0.5055
 8353SOL    HW136695   2.523   3.697  13.948 -0.1363 -1.5013 -0.5841
 8353SOL    HW236696   2.654   3.753  13.991  0.9410 -0.1430  2.5050
 8354SOL     OW36697   0.760   2.320   2.397  0.4994 -0.3077  0.1687
 8354SOL    HW136698   0.746   2.242   2.343  2.1777 -0.2448 -0.3622
 8354SOL    HW236699   0.814   2.277   2.463  0.2184  1.5261  1.6255
 8355SOL     OW36700   1.556   1.463   6.711  0.1758  0.2415 -0.2992
 8355SOL    HW136701   1.612   1.540   6.714  1.1626 -0.4678 -0.6041
 8355SOL    HW236702   1.528   1.462   6.620  0.4824  1.0622 -0.3982
 8356SOL     OW36703   4.089   4.190   5.779 -0.1844  0.0380  0.3214
 8356SOL    HW136704   4.126   4.169   5.693  1.6916  1.0823  0.8723
 8356SOL    HW236705   4.020   4.255   5.768  0.0829  0.3084  0.2705
 8357SOL     OW36706   1.932   3.388   6.632 -0.5694  0.4479  0.2041
 8357SOL    HW136707   1.996   3.445   6.676  1.3055 -0.9616 -0.6957
 8357SOL    HW236708   1.942   3.412   6.540  1.2127 -0.5723  0.1235
 8358SOL     OW36709   4.553   1.315   2.441 -0.1818  0.2597  0.1517
 8358SOL    HW136710   4.596   1.301   2.525  0.8410  0.3538 -0.3601
 8358SOL    HW236711   4.459   1.319   2.458  0.1452  0.5729  1.8983
 8359SOL     OW36712   2.579   3.518  12.599  0.3490 -0.6873 -0.0001
 8359SOL    HW136713   2.546   3.585  12.539  1.1190 -0.8899 -0.6504
 8359SOL    HW236714   2.666   3.507  12.561  1.2540  1.5144  1.4285
 8360SOL     OW36715   1.019   4.373   4.067 -0.1101 -0.6204 -0.2946
 8360SOL    HW136716   1.045   4.290   4.025  0.7610 -0.1276 -0.7325
 8360SOL    HW236717   0.982   4.412   3.987 -1.8414 -0.6756  0.4850
 8361SOL     OW36718   0.253   1.136   4.197  0.4676  0.1176 -0.3255
 8361SOL    HW136719   0.347   1.152   4.208  1.1020 -3.2769 -0.7067
 8361SOL    HW236720   0.227   1.089   4.276  1.1381 -0.3375 -0.3719
 8362SOL     OW36721   1.502   3.018  15.872 -0.0895 -0.1630  0.3801
 8362SOL    HW136722   1.517   2.927  15.898 -0.3443 -0.1940  0.4203
 8362SOL    HW236723   1.407   3.026  15.882 -0.0745 -0.1765  0.5460
 8363SOL     OW36724   1.012   1.689   3.480 -0.2985  0.3570  0.7769
 8363SOL    HW136725   1.099   1.659   3.503  0.1500  1.6738  0.8059
 8363SOL    HW236726   1.008   1.658   3.390  1.7016 -0.1172  0.8499
 8364SOL     OW36727   0.746   3.011   3.719  0.4338 -0.3043 -0.4173
 8364SOL    HW136728   0.831   2.971   3.701  0.4216 -1.5875  2.5161
 8364SOL    HW236729   0.777   3.098   3.743  0.0142 -0.1880 -0.2990
 8365SOL     OW36730   3.371   4.660  12.348  0.1188  0.0208 -0.2104
 8365SOL    HW136731   3.327   4.638  12.266  0.2686 -0.8813 -0.0529
 8365SOL    HW236732   3.462   4.647  12.319  0.0152  0.6664 -0.8105
 8366SOL     OW36733   3.188   2.412   2.640 -0.6478  0.4044 -0.2560
 8366SOL    HW136734   3.238   2.467   2.701  0.6920  0.0061 -0.9792
 8366SOL    HW236735   3.212   2.323   2.666  0.0731  1.0737  1.3451
 8367SOL     OW36736   1.403   0.614   6.213 -0.4044  0.6226 -0.2034
 8367SOL    HW136737   1.356   0.596   6.132 -0.7345  1.2605 -0.1540
 8367SOL    HW236738   1.459   0.687   6.188 -0.4157  0.3150 -1.1210
 8368SOL     OW36739   1.799   2.262   5.884 -0.1280 -0.2599  0.2095
 8368SOL    HW136740   1.826   2.337   5.937 -1.0065 -0.1551  0.5150
 8368SOL    HW236741   1.765   2.310   5.809  0.5726 -1.4966 -0.8912
 8369SOL     OW36742   1.865   2.502   5.737  0.5360 -0.3530  0.3611
 8369SOL    HW136743   1.935   2.443   5.710 -1.0321 -1.1579 -1.9496
 8369SOL    HW236744   1.910   2.586   5.733  1.8026 -1.1125 -1.2238
 8370SOL     OW36745   4.311   3.414   7.960 -0.6136  0.3780 -0.5733
 8370SOL    HW136746   4.236   3.444   8.011 -0.2614 -0.0033  0.1640
 8370SOL    HW236747   4.262   3.365   7.894  0.9631 -2.8656  0.6703
 8371SOL     OW36748   0.223   1.651   2.116  0.3596 -0.0835  0.5074
 8371SOL    HW136749   0.259   1.704   2.186 -2.4016  0.7522  1.2881
 8371SOL    HW236750   0.161   1.604   2.172  0.0354 -2.4766 -1.8078
 8372SOL     OW36751   0.766   0.304   3.424 -0.2831 -0.1554  0.2807
 8372SOL    HW136752   0.744   0.374   3.364 -0.5041 -0.1683  0.3462
 8372SOL    HW236753   0.840   0.339   3.473  0.4967 -1.4898  0.0666
 8373SOL     OW36754   2.295   2.878   1.106 -0.0698 -0.1153 -1.0777
 8373SOL    HW136755   2.244   2.923   1.039  0.5778  1.5802 -0.4099
 8373SOL    HW236756   2.357   2.944   1.136 -0.1516  0.1832 -1.5788
 8374SOL     OW36757   3.701   3.089  10.637 -0.5888 -0.1267 -0.5956
 8374SOL    HW136758   3.751   3.166  10.609 -0.1754  0.3455  1.4584
 8374SOL    HW236759   3.626   3.112  10.583 -0.1033 -0.7165 -1.5246
 8375SOL     OW36760   3.830   3.176  12.663 -0.6779 -0.3244 -0.7452
 8375SOL    HW136761   3.885   3.116  12.713  1.1781  0.1911 -2.1524
 8375SOL    HW236762   3.875   3.256  12.688 -0.8552 -0.0832 -1.2078
 8376SOL     OW36763   2.947   1.802   6.207  0.1861 -0.1907  0.1257
 8376SOL    HW136764   2.909   1.716   6.190 -0.7076  0.1472  0.3624
 8376SOL    HW236765   2.907   1.868   6.150  0.4829  1.2109  1.5274
 8377SOL     OW36766   3.076   2.272   4.735  0.1068 -0.4170 -0.7849
 8377SOL    HW136767   3.019   2.348   4.742  0.8610  0.0089  0.6435
 8377SOL    HW236768   3.136   2.308   4.670  2.2489 -0.9776  0.8914
 8378SOL     OW36769   4.638   2.176   2.710 -0.2186  0.5228  0.1954
 8378SOL    HW136770   4.599   2.215   2.788  0.3406  2.6556 -0.6004
 8378SOL    HW236771   4.578   2.102   2.704 -0.6356  0.8428  0.4912
 8379SOL     OW36772   1.826   3.019   7.357  0.1697  0.2910 -0.4568
 8379SOL    HW136773   1.768   3.075   7.305 -2.3839  0.0112  2.1064
 8379SOL    HW236774   1.766   2.948   7.378  1.3235  0.1922  2.5359
 8380SOL     OW36775   1.305   1.303   2.957 -0.2665 -0.1935 -0.6369
 8380SOL    HW136776   1.221   1.315   2.913 -1.1601  2.0609  1.6814
 8380SOL    HW236777   1.365   1.369   2.921 -0.3782  1.6894  2.6882
 8381SOL     OW36778   0.210   3.837   3.177  0.5037 -1.6001 -0.0960
 8381SOL    HW136779   0.248   3.807   3.094  1.6452  2.8601 -1.1619
 8381SOL    HW236780   0.214   3.751   3.218  1.9675 -1.0852  0.8630
 8382SOL     OW36781   1.786   3.958  12.847  0.3232 -0.5603  0.3686
 8382SOL    HW136782   1.800   4.041  12.892  0.4790  0.0091 -0.7376
 8382SOL    HW236783   1.870   3.913  12.852  0.6475 -0.1179 -1.1595
 8383SOL     OW36784   2.092   3.410  15.021  0.5641 -0.1957 -0.3156
 8383SOL    HW136785   2.168   3.429  15.076  0.3800 -0.6045  0.0790
 8383SOL    HW236786   2.129   3.347  14.960  1.4143  0.4309 -0.4491
 8384SOL     OW36787   2.122   3.534   6.790  0.1150 -0.2939  0.3262
 8384SOL    HW136788   2.109   3.506   6.881 -1.2896 -0.3215  0.1164
 8384SOL    HW236789   2.217   3.538   6.776 -0.2747 -1.1323 -2.5719
 8385SOL     OW36790   0.204   2.473  11.667 -0.5318  0.4531 -0.1583
 8385SOL    HW136791   0.208   2.476  11.763 -1.6321 -0.4196 -0.0744
 8385SOL    HW236792   0.290   2.440  11.644  0.3149  0.8699  2.3961
 8386SOL     OW36793   1.925   4.123  10.928  0.5390  0.3438  0.3461
 8386SOL    HW136794   1.983   4.175  10.983 -2.7951  2.3148  1.9647
 8386SOL    HW236795   1.949   4.036  10.958  2.6310  0.9294  0.3279
 8387SOL     OW36796   2.310   0.691   6.826  0.2722 -0.5292 -0.9856
 8387SOL    HW136797   2.259   0.739   6.760  0.5679  0.5980 -0.3895
 8387SOL    HW236798   2.257   0.611   6.833 -0.6340  0.0909 -0.7470
 8388SOL     OW36799   2.552   3.337   1.422  0.2640  0.1541  0.0574
 8388SOL    HW136800   2.467   3.379   1.421  0.5735  0.7941  0.5900
 8388SOL    HW236801   2.571   3.300   1.336 -2.4611 -1.4852  0.1773
 8389SOL     OW36802   1.930   0.825   3.813  0.4556 -0.0864  0.4253
 8389SOL    HW136803   2.008   0.875   3.789  0.4784  0.5088  1.6850
 8389SOL    HW236804   1.954   0.823   3.906  0.4650 -1.0908  0.4014
 8390SOL     OW36805   0.845   4.708   6.912 -0.2665  0.6646  0.0780
 8390SOL    HW136806   0.873   4.624   6.949 -0.8942  0.5765  0.3574
 8390SOL    HW236807   0.925   0.015   6.889  0.1440 -0.8681 -1.5380
 8391SOL     OW36808   3.615   3.020   6.358  0.1180 -0.1288 -0.4294
 8391SOL    HW136809   3.614   2.963   6.281 -0.7817 -0.3360 -0.2705
 8391SOL    HW236810   3.582   2.964   6.428  0.2875  0.9391  0.5074
 8392SOL     OW36811   0.674   2.051   4.589 -0.2297  0.4828 -0.3601
 8392SOL    HW136812   0.677   2.084   4.679 -4.2738  0.1175 -0.0847
 8392SOL    HW236813   0.750   1.994   4.585  2.0489  3.7419 -3.3923
 8393SOL     OW36814   2.751   2.602   0.692  0.4358  0.2682  0.1256
 8393SOL    HW136815   2.739   2.517   0.734  1.2726  0.0856  0.0074
 8393SOL    HW236816   2.680   2.655   0.729 -0.0483 -0.7745  0.6906
 8394SOL     OW36817   0.914   1.280   5.025 -0.0406 -0.2126 -0.3244
 8394SOL    HW136818   0.857   1.229   5.083  2.7121  1.1501  3.5714
 8394SOL    HW236819   0.896   1.230   4.944 -0.3933 -0.4836 -0.0805
 8395SOL     OW36820   1.546   2.163  12.751 -0.3131  0.2471 -0.3438
 8395SOL    HW136821   1.487   2.236  12.734  1.3268  1.8263  0.7326
 8395SOL    HW236822   1.562   2.163  12.845  0.4864  3.1259 -0.4990
 8396SOL     OW36823   1.338   3.580   6.963 -0.2819 -0.0941  0.0065
 8396SOL    HW136824   1.269   3.616   7.019 -2.5275 -1.4969 -1.8532
 8396SOL    HW236825   1.421   3.613   6.997 -0.5149 -0.2119  0.6935
 8397SOL     OW36826   3.850   1.304  14.018  0.5484  0.2729 -0.2484
 8397SOL    HW136827   3.916   1.307  14.087  1.5735 -0.2040 -1.2154
 8397SOL    HW236828   3.900   1.314  13.937  0.1416  2.4150 -0.2588
 8398SOL     OW36829   4.445   4.012   3.768 -0.7346  0.1805 -0.0128
 8398SOL    HW136830   4.434   3.988   3.860 -4.5870 -0.1030 -0.5320
 8398SOL    HW236831   4.440   4.107   3.768  0.5974  0.2480  2.1969
 8399SOL     OW36832   2.869   3.263   1.054 -0.2021 -0.3168  0.4966
 8399SOL    HW136833   2.874   3.315   0.974 -1.3712 -0.7045  0.1683
 8399SOL    HW236834   2.931   3.319   1.101  1.6747 -2.2728  0.3650
 8400SOL     OW36835   0.007   0.408   4.536  0.0157  0.1723 -0.2453
 8400SOL    HW136836   4.706   0.486   4.499  0.9159  0.4513 -0.6466
 8400SOL    HW236837   4.683   0.337   4.526  0.3399 -0.3849  1.6748
 8401SOL     OW36838   3.838   3.404  15.410  0.5809  0.0059 -0.4561
 8401SOL    HW136839   3.871   3.382  15.323  0.9841  0.5479 -0.4414
 8401SOL    HW236840   3.843   3.319  15.454 -0.0311  2.2634  3.9871
 8402SOL     OW36841   1.721   2.930  16.089 -0.1221  0.0414  0.0929
 8402SOL    HW136842   1.755   2.910  16.002 -0.9902 -0.6356 -0.0921
 8402SOL    HW236843   1.652   2.991  16.064 -0.2427 -0.6666 -1.2943
 8403SOL     OW36844   2.836   1.272   6.214  0.2279 -0.4034  0.0553
 8403SOL    HW136845   2.930   1.251   6.220 -0.1328 -2.3579 -1.2058
 8403SOL    HW236846   2.798   1.245   6.298 -2.6919  1.5314 -0.6730
 8404SOL     OW36847   4.150   1.581   3.881 -0.1245  0.1150  0.0962
 8404SOL    HW136848   4.112   1.650   3.827  1.2294  0.4371 -0.4539
 8404SOL    HW236849   4.238   1.611   3.906 -0.5557  0.9198  0.6328
 8405SOL     OW36850   1.309   3.886   1.879 -0.3162 -0.6285  0.2905
 8405SOL    HW136851   1.270   3.884   1.966  1.1534  0.7371  0.9643
 8405SOL    HW236852   1.295   3.793   1.862 -0.2269 -0.6226  0.1814
 8406SOL     OW36853   0.635   2.821   5.188 -0.4861 -0.0219  0.0874
 8406SOL    HW136854   0.664   2.746   5.241  1.4955  0.9173  0.3394
 8406SOL    HW236855   0.711   2.828   5.130  0.2486  0.0090  1.0575
 8407SOL     OW36856   1.254   4.528   8.386  0.0489  0.2747 -0.3073
 8407SOL    HW136857   1.199   4.455   8.359 -1.1691 -0.0962  3.1933
 8407SOL    HW236858   1.318   4.481   8.440  0.7599  1.9000  0.2780
 8408SOL     OW36859   4.668   3.546   8.355 -0.0983  0.1620 -0.5031
 8408SOL    HW136860   4.699   3.538   8.445 -0.1708  1.8609 -0.3247
 8408SOL    HW236861   4.574   3.529   8.361 -0.1746  0.1008 -1.8186
 8409SOL     OW36862   0.033   2.284   1.624 -0.0098 -0.0725 -0.3908
 8409SOL    HW136863   0.039   2.189   1.640  1.4574  0.1435  0.2879
 8409SOL    HW236864   0.005   2.309   1.712 -0.5902  1.2799 -0.9679
 8410SOL     OW36865   2.452   1.910  16.154  0.5337  0.1796  0.2212
 8410SOL    HW136866   2.547   1.903  16.149  0.5128 -1.0862  1.5274
 8410SOL    HW236867   2.439   1.834  16.212 -2.2292  0.4145 -0.0932
 8411SOL     OW36868   0.870   4.127   7.881 -0.2916 -0.6692 -0.2476
 8411SOL    HW136869   0.801   4.127   7.815 -0.8849 -0.9666  0.3762
 8411SOL    HW236870   0.907   4.040   7.866 -1.7598 -0.9836 -2.0261
 8412SOL     OW36871   1.617   0.277   7.031 -0.6011  0.3636  0.5832
 8412SOL    HW136872   1.675   0.329   7.087 -1.4918 -0.0509  1.8977
 8412SOL    HW236873   1.673   0.207   6.999  1.0665  0.1761  3.8753
 8413SOL     OW36874   1.779   3.204   9.952 -0.0687 -0.1809 -0.3534
 8413SOL    HW136875   1.813   3.123   9.991  1.5067  0.9577  0.6724
 8413SOL    HW236876   1.790   3.185   9.859 -2.5257 -0.8075 -0.5086
 8414SOL     OW36877   1.565   4.576   5.882  0.5674  0.2845 -0.3730
 8414SOL    HW136878   1.476   4.611   5.886  0.1857 -0.4350 -2.3996
 8414SOL    HW236879   1.586   4.595   5.790  3.6588 -0.4592  0.1703
 8415SOL     OW36880   4.221   4.251   9.291  0.4581  0.2718 -0.0188
 8415SOL    HW136881   4.218   4.157   9.273  3.4359  0.2225 -0.1224
 8415SOL    HW236882   4.153   4.294   9.239 -0.8547  1.0114  2.2779
 8416SOL     OW36883   2.398   4.278   6.232  0.1748 -0.0726 -0.2709
 8416SOL    HW136884   2.489   4.255   6.211 -0.3930 -1.8232 -0.8070
 8416SOL    HW236885   2.412   4.329   6.312  3.1534  0.5666 -1.1885
 8417SOL     OW36886   0.137   3.153   4.757 -1.0077  0.2984  0.3419
 8417SOL    HW136887   0.210   3.157   4.694 -0.2027  1.5907  1.3539
 8417SOL    HW236888   0.181   3.111   4.831 -1.2294 -0.5372  0.0034
 8418SOL     OW36889   1.881   0.168  15.090 -0.5965  0.6585  0.4898
 8418SOL    HW136890   1.943   0.227  15.046 -1.9762  1.6257 -0.1393
 8418SOL    HW236891   1.946   0.130  15.149  2.6722  1.1291 -2.8116
 8419SOL     OW36892   3.150   1.668   4.218  0.0265 -0.9921  0.2057
 8419SOL    HW136893   3.109   1.727   4.154  1.8145 -0.3556 -0.3704
 8419SOL    HW236894   3.215   1.627   4.161  0.9525 -0.1159  0.6213
 8420SOL     OW36895   4.047   1.223   6.825  0.7746  0.2967  0.3692
 8420SOL    HW136896   4.064   1.173   6.905  1.3726 -0.5134 -0.2578
 8420SOL    HW236897   4.116   1.289   6.821 -2.0508  3.2440  0.4236
 8421SOL     OW36898   3.489   4.317   2.577  0.4203  0.0769 -0.2901
 8421SOL    HW136899   3.515   4.253   2.511  1.2346 -0.6884  0.7710
 8421SOL    HW236900   3.561   4.380   2.564  1.0376 -0.3156  1.2566
 8422SOL     OW36901   1.003   2.340   5.064 -0.3225 -0.4311  0.3617
 8422SOL    HW136902   1.077   2.400   5.060 -0.7410 -0.0150 -1.3584
 8422SOL    HW236903   1.032   2.273   5.126  2.0136 -1.3127 -1.7072
 8423SOL     OW36904   1.909   1.773   8.463  0.3292  0.4962 -0.0340
 8423SOL    HW136905   1.897   1.712   8.390  0.5594 -0.0769  0.4143
 8423SOL    HW236906   2.001   1.794   8.447  0.1628 -1.4546 -3.6086
 8424SOL     OW36907   2.983   4.130   5.147  0.3109 -0.1374 -0.1324
 8424SOL    HW136908   2.952   4.049   5.106 -0.6611 -1.2197  2.7222
 8424SOL    HW236909   3.015   4.182   5.073 -0.6270 -1.6362 -1.6042
 8425SOL     OW36910   0.058   0.988   9.563 -0.0672 -0.1929 -0.2109
 8425SOL    HW136911   4.732   0.957   9.625 -0.7500  0.7164 -0.4913
 8425SOL    HW236912   0.107   1.048   9.618  1.4094 -0.4165 -1.2847
 8426SOL     OW36913   2.332   2.075   4.067 -0.4081 -0.0965 -0.1819
 8426SOL    HW136914   2.297   2.081   4.156  0.8573 -1.3496  0.4158
 8426SOL    HW236915   2.313   2.155   4.019  1.3980  0.7494  0.5095
 8427SOL     OW36916   2.402   2.980   9.733  0.1353  0.1368 -0.2801
 8427SOL    HW136917   2.447   3.062   9.754  0.5154 -0.7587  2.3937
 8427SOL    HW236918   2.362   3.021   9.657  0.6356 -0.5882 -0.9251
 8428SOL     OW36919   4.413   4.158   1.128 -0.2868  0.4818 -0.1280
 8428SOL    HW136920   4.479   4.113   1.181  0.5108  0.4560 -1.1419
 8428SOL    HW236921   4.462   4.187   1.050  0.5160 -0.3013  0.0872
 8429SOL     OW36922   2.722   1.654   5.986 -1.2537 -0.8008  0.5025
 8429SOL    HW136923   2.715   1.653   5.890  0.9346 -0.5890  0.3445
 8429SOL    HW236924   2.817   1.640   5.992 -0.8351  0.9266 -1.9762
 8430SOL     OW36925   3.999   1.880   3.056 -0.0867  0.4680 -0.2306
 8430SOL    HW136926   4.089   1.849   3.061  0.3821  1.7627 -0.5471
 8430SOL    HW236927   3.994   1.946   3.126  2.1224  0.3613  0.0213
 8431SOL     OW36928   4.542   2.357  12.980  0.0117 -0.3856  0.2688
 8431SOL    HW136929   4.616   2.348  13.040  0.4550 -0.0838 -0.2321
 8431SOL    HW236930   4.503   2.276  13.013 -0.3103  0.0329  0.9132
 8432SOL     OW36931   3.339   3.588   2.868 -0.0399  0.8815 -0.2437
 8432SOL    HW136932   3.368   3.676   2.890  1.0372  0.9860 -2.0944
 8432SOL    HW236933   3.285   3.570   2.945 -0.1497  0.8333 -0.3323
 8433SOL     OW36934   2.291   0.809   8.517 -1.0103  0.2709  0.0052
 8433SOL    HW136935   2.328   0.896   8.536  0.3893 -0.1689 -0.7583
 8433SOL    HW236936   2.307   0.760   8.598  0.0905 -0.0473 -0.4111
 8434SOL     OW36937   3.248   2.863   8.748  0.1258  0.0143 -0.3569
 8434SOL    HW136938   3.322   2.858   8.809  0.1700  1.7259 -0.2792
 8434SOL    HW236939   3.214   2.775   8.764  2.8429 -1.1290 -0.9786
 8435SOL     OW36940   1.799   1.575   3.357 -0.1625  0.2420 -0.0407
 8435SOL    HW136941   1.738   1.520   3.308  0.8779 -0.4983 -0.5111
 8435SOL    HW236942   1.787   1.568   3.452 -0.3326  1.5449  0.0388
 8436SOL     OW36943   3.439   2.052   6.751  0.4530  0.4287  0.0262
 8436SOL    HW136944   3.456   1.995   6.826  3.0723  0.7546 -0.3162
 8436SOL    HW236945   3.460   2.133   6.797  0.8196 -0.5053  1.4939
 8437SOL     OW36946   1.095   0.483   0.892  0.7002 -1.0636 -0.7858
 8437SOL    HW136947   1.148   0.548   0.845 -0.3646 -0.3287 -0.9596
 8437SOL    HW236948   1.017   0.531   0.920  0.4889 -2.1778  0.5188
 8438SOL     OW36949   0.915   2.479   4.321  0.4452  0.1724 -0.0241
 8438SOL    HW136950   0.916   2.569   4.354  0.8976 -0.4393  1.6204
 8438SOL    HW236951   0.899   2.425   4.398  2.7234  0.6351  0.7509
 8439SOL     OW36952   1.777   1.068   2.476  0.0541  0.5177 -0.4955
 8439SOL    HW136953   1.765   1.090   2.569  0.5612  1.4500 -0.6602
 8439SOL    HW236954   1.862   1.026   2.486  0.4075  0.7656 -2.4535
 8440SOL     OW36955   3.170   3.804   3.967  1.1192 -0.2307  0.1609
 8440SOL    HW136956   3.199   3.781   3.878  1.1347  1.0690 -0.1754
 8440SOL    HW236957   3.107   3.875   3.955  1.5773  0.0820 -0.3986
 8441SOL     OW36958   3.979   2.285   4.817  0.5728 -0.3091 -0.0928
 8441SOL    HW136959   3.952   2.196   4.794 -0.7389  0.1888 -0.4867
 8441SOL    HW236960   3.976   2.271   4.912  0.0542 -1.7664 -0.3170
 8442SOL     OW36961   4.381   3.193   4.277  0.1926  0.6597  0.2084
 8442SOL    HW136962   4.428   3.277   4.278 -0.6669  1.1462  0.3787
 8442SOL    HW236963   4.360   3.173   4.368 -1.7790 -0.2602 -0.4497
 8443SOL     OW36964   3.716   1.588   9.817 -0.8083  0.0251  0.5455
 8443SOL    HW136965   3.640   1.565   9.870  0.7808 -1.2032  2.3045
 8443SOL    HW236966   3.688   1.580   9.726 -0.8939 -0.2112  0.5941
 8444SOL     OW36967   4.226   3.897   3.353 -0.2196 -0.5609 -0.1466
 8444SOL    HW136968   4.297   3.951   3.388 -1.1964 -0.1932  1.2732
 8444SOL    HW236969   4.202   3.867   3.441  0.0041  0.0752  0.1361
 8445SOL     OW36970   3.974   4.500   7.307  0.5695  0.3417  0.3545
 8445SOL    HW136971   3.959   4.456   7.223 -1.4448  0.2832  0.7383
 8445SOL    HW236972   4.069   4.492   7.312  0.8491  0.0233 -4.7134
 8446SOL     OW36973   4.264   3.726   2.704 -0.3555 -0.0660  0.2133
 8446SOL    HW136974   4.298   3.729   2.615 -1.4430 -0.9003 -0.2298
 8446SOL    HW236975   4.190   3.788   2.700 -0.2764  0.0246  0.1489
 8447SOL     OW36976   0.224   1.866   8.884 -0.5109 -0.2297  0.5147
 8447SOL    HW136977   0.155   1.882   8.950 -0.4169  0.3744  0.4665
 8447SOL    HW236978   0.218   1.772   8.870  0.7821 -0.3021  0.5166
 8448SOL     OW36979   2.903   4.001  14.341 -0.0484  0.1321  0.2791
 8448SOL    HW136980   2.927   4.005  14.248  0.6967 -0.8610  0.4268
 8448SOL    HW236981   2.810   3.989  14.326  0.0555 -0.1949 -0.1039
 8449SOL     OW36982   2.861   1.060   6.958 -0.3550 -0.2287 -0.2244
 8449SOL    HW136983   2.889   1.148   6.931 -0.3183 -0.5363 -1.1838
 8449SOL    HW236984   2.919   1.009   6.902  0.7217  0.6639  0.0759
 8450SOL     OW36985   2.246   4.284   0.625  0.0074  0.0964  0.0701
 8450SOL    HW136986   2.323   4.290   0.681 -0.7630  0.4033  1.0994
 8450SOL    HW236987   2.256   4.372   0.588 -2.5776  0.6016  0.5692
 8451SOL     OW36988   0.667   2.902   9.024  0.0920 -0.2737 -0.6812
 8451SOL    HW136989   0.747   2.888   8.974 -1.1020 -1.5067 -2.2669
 8451SOL    HW236990   0.689   2.883   9.115  0.0585  2.3893 -0.1154
 8452SOL     OW36991   2.333   4.556   7.337  0.2406 -0.2786 -0.7781
 8452SOL    HW136992   2.254   4.504   7.350  0.0771 -0.1132 -1.1215
 8452SOL    HW236993   2.405   4.493   7.343  0.5035 -0.0693 -1.6526
 8453SOL     OW36994   3.754   3.948   5.207 -0.2946  0.2131  0.1146
 8453SOL    HW136995   3.694   3.922   5.277 -0.3461  0.0878  0.0244
 8453SOL    HW236996   3.817   3.877   5.211  0.2431  0.7713  1.5154
 8454SOL     OW36997   1.034   2.597   3.865 -0.0152 -0.0268  0.1803
 8454SOL    HW136998   1.027   2.510   3.825  1.0146 -0.1950  0.3542
 8454SOL    HW236999   1.085   2.639   3.796 -2.3794  0.4950 -1.2486
 8455SOL     OW37000   4.409   0.393   5.567  0.5790  0.1412 -0.2515
 8455SOL    HW137001   4.322   0.419   5.537  0.5292  0.1844 -0.0642
 8455SOL    HW237002   4.449   0.473   5.600 -1.2443  1.5525 -1.4624
 8456SOL     OW37003   3.772   2.092   7.367 -0.0502  0.8313  0.0691
 8456SOL    HW137004   3.715   2.015   7.373  1.1628 -0.0240  0.8321
 8456SOL    HW237005   3.825   2.067   7.443 -1.2372 -0.0926  0.5903
 8457SOL     OW37006   3.094   2.084   8.683 -0.1199  0.6305 -0.0879
 8457SOL    HW137007   3.058   2.013   8.630 -0.6215  1.0535 -0.3081
 8457SOL    HW237008   3.036   2.087   8.759 -0.4236  0.2651 -0.3014
 8458SOL     OW37009   2.195   1.638  10.027  0.1918  0.4493 -0.4811
 8458SOL    HW137010   2.161   1.582  10.097  1.9285  0.8827  0.7119
 8458SOL    HW237011   2.129   1.708  10.031  0.1128  0.3253  0.4138
 8459SOL     OW37012   3.053   4.483   2.140 -0.1205  0.2929 -0.4054
 8459SOL    HW137013   3.039   4.540   2.064 -0.0610 -0.3906 -0.9270
 8459SOL    HW237014   3.053   4.401   2.090 -1.0125  0.5920 -0.9082
 8460SOL     OW37015   2.072   0.130  15.283 -0.0977 -0.4266  0.1492
 8460SOL    HW137016   2.165   0.149  15.278  0.2091 -1.0084  3.2295
 8460SOL    HW237017   2.080   0.045  15.328  1.5431 -1.1305 -1.4923
 8461SOL     OW37018   1.982   3.538   1.457 -0.2846 -0.5083  0.7031
 8461SOL    HW137019   1.930   3.570   1.384 -2.1522 -0.8673  1.8813
 8461SOL    HW237020   1.914   3.540   1.525 -2.0853 -0.6876 -1.1015
 8462SOL     OW37021   1.935   2.765   6.784  0.3565  0.2095  0.1329
 8462SOL    HW137022   1.914   2.783   6.876 -1.4583  1.6374 -0.5595
 8462SOL    HW237023   1.984   2.683   6.781 -1.1947 -0.6930 -0.6209
 8463SOL     OW37024   0.596   2.098  11.600  0.7436 -0.1582  0.4032
 8463SOL    HW137025   0.673   2.140  11.639 -0.7267  1.6322  1.3878
 8463SOL    HW237026   0.591   2.131  11.511 -0.4055  1.1586  0.9453
 8464SOL     OW37027   0.808   3.958   5.359  0.1290  0.0110  0.4812
 8464SOL    HW137028   0.856   3.953   5.276  1.1633  1.0579  1.0077
 8464SOL    HW237029   0.718   3.931   5.338  0.4635  0.9275 -2.1372
 8465SOL     OW37030   4.257   2.118   8.543  0.0271  0.4033  0.9637
 8465SOL    HW137031   4.322   2.062   8.501 -1.0322 -0.8597  0.9871
 8465SOL    HW237032   4.308   2.168   8.607 -2.7957  3.7210  0.6401
 8466SOL     OW37033   0.962   4.184  13.503  0.4590 -0.4994  0.0692
 8466SOL    HW137034   0.933   4.231  13.581 -1.7250 -0.7798 -0.5746
 8466SOL    HW237035   0.907   4.226  13.437  0.4156 -0.2141  0.2871
 8467SOL     OW37036   1.168   2.130   9.384  0.2795  0.4752  0.0636
 8467SOL    HW137037   1.179   2.066   9.314 -3.3022 -0.5796  0.4910
 8467SOL    HW237038   1.076   2.129   9.410 -0.0786  2.6741 -1.0940
 8468SOL     OW37039   1.491   2.295   8.055  0.1038  0.2610  0.5438
 8468SOL    HW137040   1.466   2.207   8.082 -0.2143  0.5139  1.0909
 8468SOL    HW237041   1.576   2.304   8.098  0.5049  0.3521 -0.2707
 8469SOL     OW37042   2.498   0.080   4.629 -0.4758 -0.0601 -0.0852
 8469SOL    HW137043   2.584   0.060   4.592  0.1072  1.4526  0.4418
 8469SOL    HW237044   2.485   0.164   4.585 -0.8895 -0.5750 -0.9514
 8470SOL     OW37045   0.103   0.634   8.162 -0.2998 -0.4093 -0.3767
 8470SOL    HW137046   0.194   0.648   8.189 -0.2800 -1.9090  0.3843
 8470SOL    HW237047   0.103   0.538   8.162 -1.7770 -0.4099 -0.0945
 8471SOL     OW37048   2.287   3.168   1.346  0.1227 -0.7381 -0.2269
 8471SOL    HW137049   2.200   3.146   1.378  0.3822 -1.7573 -0.2184
 8471SOL    HW237050   2.264   3.201   1.259  0.8880 -1.3725 -0.6760
 8472SOL     OW37051   2.116   3.308   8.845 -0.0320 -0.2655 -0.3701
 8472SOL    HW137052   2.180   3.281   8.780  0.0063 -0.8536 -0.0918
 8472SOL    HW237053   2.063   3.229   8.854 -0.2935 -0.0560 -0.0918
 8473SOL     OW37054   2.577   0.971   9.859 -0.3873 -0.6327  0.0040
 8473SOL    HW137055   2.489   1.008   9.869  0.3639  0.8426  1.2180
 8473SOL    HW237056   2.579   0.944   9.768  1.7280  2.2216 -0.7955
 8474SOL     OW37057   2.201   0.845  12.539  0.0650  0.7992 -0.6027
 8474SOL    HW137058   2.259   0.785  12.586 -0.8755 -1.4883 -2.3735
 8474SOL    HW237059   2.211   0.927  12.587 -0.4431  0.5180 -0.0138
 8475SOL     OW37060   1.370   1.689   5.819 -0.3539  0.3077 -0.1158
 8475SOL    HW137061   1.363   1.641   5.737 -0.7590 -1.1961  0.7774
 8475SOL    HW237062   1.450   1.739   5.805 -0.4805 -0.1934 -2.4926
 8476SOL     OW37063   3.744   2.364   2.986 -0.3887 -0.3905 -0.1111
 8476SOL    HW137064   3.822   2.319   3.015  0.3719  0.4777 -0.7923
 8476SOL    HW237065   3.715   2.426   3.053  1.1851 -0.3110  0.4819
 8477SOL     OW37066   0.840   4.438  17.306 -0.0595  0.1034 -0.8653
 8477SOL    HW137067   0.751   4.456  17.278 -0.6155 -0.0598  0.7951
 8477SOL    HW237068   0.887   4.431  17.223  2.3243 -1.6629  0.6309
 8478SOL     OW37069   2.586   3.075   7.622 -0.4378 -0.1075 -0.4335
 8478SOL    HW137070   2.611   3.092   7.713 -1.3517 -1.5443  0.0837
 8478SOL    HW237071   2.578   3.166   7.593 -0.6961  0.6565  1.9881
 8479SOL     OW37072   1.701   2.425  12.710 -0.6015  0.0742 -0.5728
 8479SOL    HW137073   1.736   2.481  12.640 -0.5925 -0.4969 -1.0231
 8479SOL    HW237074   1.770   2.360  12.710 -0.7747 -0.1214 -2.2404
 8480SOL     OW37075   3.136   1.721  10.337  0.0254  0.0870 -0.3484
 8480SOL    HW137076   3.083   1.721  10.417  0.5242 -4.1850 -0.0311
 8480SOL    HW237077   3.105   1.792  10.281  0.5376  0.5086 -0.1005
 8481SOL     OW37078   2.442   0.279   2.456 -0.4726  0.3419 -0.1945
 8481SOL    HW137079   2.425   0.187   2.474  0.4433 -0.1402 -1.7425
 8481SOL    HW237080   2.413   0.323   2.536  0.3932 -1.1682  0.9433
 8482SOL     OW37081   0.021   2.384   2.309  0.0877 -0.2568  0.4519
 8482SOL    HW137082   4.716   2.438   2.374  0.3086 -0.3539  0.6833
 8482SOL    HW237083   0.115   2.393   2.327  0.0858  0.5275  0.0627
 8483SOL     OW37084   2.897   1.514   1.717 -0.1193 -0.1844  0.4898
 8483SOL    HW137085   2.895   1.418   1.717  0.3702 -0.1929 -0.2000
 8483SOL    HW237086   2.803   1.527   1.723 -0.1005  0.2861 -0.2579
 8484SOL     OW37087   3.301   2.538   9.958 -0.0441  0.0432  0.0877
 8484SOL    HW137088   3.261   2.550   9.872 -0.3541 -0.8565  0.0964
 8484SOL    HW237089   3.225   2.569  10.007 -0.4048  1.2026 -1.1913
 8485SOL     OW37090   2.910   1.448   4.033 -0.1591 -0.0662  0.1029
 8485SOL    HW137091   2.885   1.472   4.123 -1.5124  0.9340 -0.5288
 8485SOL    HW237092   2.889   1.533   3.994 -1.6151  0.5745  2.2724
 8486SOL     OW37093   0.152   2.325  14.670 -0.8588 -0.1318  0.4725
 8486SOL    HW137094   0.241   2.294  14.655 -0.0802  1.8396  0.9632
 8486SOL    HW237095   0.153   2.418  14.646 -1.0390 -0.2850 -0.1235
 8487SOL     OW37096   3.196   3.194   1.155  0.4691  0.1780  0.0222
 8487SOL    HW137097   3.235   3.133   1.093 -2.6865 -1.3581 -0.4630
 8487SOL    HW237098   3.269   3.229   1.205 -0.2994  1.4228  0.2782
 8488SOL     OW37099   1.487   1.660   6.512 -0.5353 -0.8454 -0.7518
 8488SOL    HW137100   1.459   1.729   6.452  0.2960  0.3757  0.2489
 8488SOL    HW237101   1.466   1.703   6.595 -0.4498 -1.7733 -0.2469
 8489SOL     OW37102   4.029   4.375   7.671  0.1586  0.4714  0.5562
 8489SOL    HW137103   3.978   4.450   7.702  1.7188  1.7490 -0.0141
 8489SOL    HW237104   4.073   4.416   7.596 -1.8336 -2.3435 -2.1986
 8490SOL     OW37105   0.796   1.573  10.454  0.4158  0.1437 -0.6485
 8490SOL    HW137106   0.806   1.524  10.372  0.2840 -1.0666  0.0701
 8490SOL    HW237107   0.731   1.523  10.503  1.4007  1.2392  1.7579
 8491SOL     OW37108   3.523   2.929  12.076 -0.0322 -0.5885  0.0275
 8491SOL    HW137109   3.443   2.944  12.125 -0.1208 -0.1650 -0.2430
 8491SOL    HW237110   3.580   2.883  12.138 -1.7419 -2.5714  0.1206
 8492SOL     OW37111   0.791   1.574   2.512  0.3128 -0.6601 -0.0453
 8492SOL    HW137112   0.726   1.557   2.581 -1.0844  0.4855 -1.0800
 8492SOL    HW237113   0.740   1.583   2.432 -0.6269  0.0884  0.6297
 8493SOL     OW37114   0.166   2.703   2.284  0.1558 -0.7332 -0.2296
 8493SOL    HW137115   0.224   2.658   2.345  2.7517 -0.8736 -2.7930
 8493SOL    HW237116   0.218   2.782   2.285 -0.0833 -0.5422 -1.8510
 8494SOL     OW37117   0.688   1.400   6.285 -0.0071  0.2012  0.0615
 8494SOL    HW137118   0.596   1.373   6.282 -0.2020  0.8200  0.6062
 8494SOL    HW237119   0.693   1.461   6.211  1.6056 -2.1739 -1.7929
 8495SOL     OW37120   0.696   2.839   1.319  0.1864 -0.6106 -0.1130
 8495SOL    HW137121   0.745   2.764   1.353  0.1828 -0.6958 -0.2956
 8495SOL    HW237122   0.761   2.887   1.268 -1.2236  0.5422 -0.8006
 8496SOL     OW37123   0.463   1.910   6.138 -0.4324 -0.6011 -0.3958
 8496SOL    HW137124   0.468   1.903   6.233  2.5254 -0.2485 -0.5130
 8496SOL    HW237125   0.382   1.961   6.141  0.6533  1.1497 -0.4985
 8497SOL     OW37126   0.447   2.866   4.660 -0.5380  0.2429  0.3652
 8497SOL    HW137127   0.504   2.835   4.731 -0.8931  2.7666  1.7728
 8497SOL    HW237128   0.438   2.789   4.604  0.3316  2.5357 -2.9296
 8498SOL     OW37129   4.430   0.446   6.378 -0.6780 -0.5483  0.0946
 8498SOL    HW137130   4.416   0.380   6.445 -0.3287 -2.7705 -2.0240
 8498SOL    HW237131   4.442   0.385   6.306 -1.6818 -0.0432 -0.4908
 8499SOL     OW37132   1.113   4.459   5.900 -0.6652 -0.2153  0.3293
 8499SOL    HW137133   1.152   4.375   5.877  0.8644  0.4231  0.5681
 8499SOL    HW237134   1.038   4.463   5.841 -1.2149  4.2437  1.3150
 8500SOL     OW37135   0.035   0.635  15.026 -0.3836  0.0399 -0.0282
 8500SOL    HW137136   4.696   0.625  15.079  2.0378 -0.6886  3.4501
 8500SOL    HW237137   0.001   0.608  14.940 -1.2180  1.6231 -0.1973
 8501SOL     OW37138   0.266   0.368   5.166 -0.2944  0.3741 -0.7714
 8501SOL    HW137139   0.179   0.382   5.202 -0.1695  2.4537 -1.2665
 8501SOL    HW237140   0.284   0.295   5.225 -1.9509  0.5050 -0.1022
 8502SOL     OW37141   4.508   3.805   6.290 -0.2291 -0.1912  0.8623
 8502SOL    HW137142   4.440   3.769   6.233  1.2151 -0.5966 -0.5933
 8502SOL    HW237143   4.590   3.773   6.254 -0.8420 -0.3780 -0.3602
 8503SOL     OW37144   3.980   4.425   2.376  0.1970  1.0438 -0.2364
 8503SOL    HW137145   3.918   4.383   2.316  1.4520  0.1226 -0.8903
 8503SOL    HW237146   3.927   4.431   2.456 -0.2843 -0.9567 -0.3901
 8504SOL     OW37147   1.371   3.376   3.665 -0.5553  0.1083 -0.2013
 8504SOL    HW137148   1.449   3.421   3.697 -1.9745  1.5109  1.3243
 8504SOL    HW237149   1.300   3.392   3.728 -0.8062  0.4323 -0.5674
 8505SOL     OW37150   1.319   4.181  15.544  0.1606  0.5154 -0.0582
 8505SOL    HW137151   1.235   4.226  15.541  0.4969  1.0612 -1.0574
 8505SOL    HW237152   1.369   4.222  15.473  1.2668  1.9170  1.5142
 8506SOL     OW37153   0.739   3.169   2.504  0.0203 -0.6082  0.1333
 8506SOL    HW137154   0.740   3.077   2.478  3.2825 -1.0500  1.7815
 8506SOL    HW237155   0.653   3.184   2.544  1.8366  2.1832  2.9682
 8507SOL     OW37156   1.886   3.970   3.536 -0.2181 -0.0337  0.0820
 8507SOL    HW137157   1.857   4.042   3.592  0.5829  0.1583  0.2538
 8507SOL    HW237158   1.889   3.897   3.598 -2.8798  0.6304  0.9974
 8508SOL     OW37159   4.621   2.545   7.578  0.3720  0.1658 -0.7953
 8508SOL    HW137160   4.570   2.471   7.545  1.0131 -1.1622  1.2213
 8508SOL    HW237161   4.702   2.497   7.596 -0.1804 -0.1156  0.8745
 8509SOL     OW37162   2.470   2.097  15.823 -0.1498 -0.1319  0.2361
 8509SOL    HW137163   2.377   2.080  15.838 -0.4732 -1.3216 -3.1753
 8509SOL    HW237164   2.455   2.185  15.789 -0.0494 -0.9002 -1.8138
 8510SOL     OW37165   4.284   2.031   0.047 -0.2586 -0.3068 -0.0304
 8510SOL    HW137166   4.292   2.007  17.712 -2.3036  0.6431 -0.4708
 8510SOL    HW237167   4.202   1.983   0.058 -0.7700  0.9325  1.4634
 8511SOL     OW37168   3.731   1.297   5.703 -0.3822  0.0606  0.0390
 8511SOL    HW137169   3.691   1.383   5.712 -0.3753  0.0036  0.5987
 8511SOL    HW237170   3.662   1.236   5.728  0.5051 -1.1210 -0.3914
 8512SOL     OW37171   2.816   0.570   8.753  0.0146  0.6044  1.0012
 8512SOL    HW137172   2.725   0.574   8.781  0.3279  1.1365  1.9507
 8512SOL    HW237173   2.795   0.603   8.666  0.4490 -1.2108  0.1990
 8513SOL     OW37174   0.695   3.236   2.902  0.7325  0.5384 -0.4375
 8513SOL    HW137175   0.675   3.226   2.809 -0.1003 -3.0727  0.1316
 8513SOL    HW237176   0.610   3.228   2.945  1.7120  1.0093  1.5887
 8514SOL     OW37177   1.045   4.252   6.529  0.3038 -0.0854 -0.1528
 8514SOL    HW137178   1.117   4.315   6.532  0.7317 -0.4209 -3.2810
 8514SOL    HW237179   1.069   4.205   6.609 -1.1915  0.4453  0.6045
 8515SOL     OW37180   4.692   0.669   2.476  0.1210  0.1399  0.4956
 8515SOL    HW137181   4.707   0.576   2.494  0.5130  0.0877 -0.1118
 8515SOL    HW237182   0.024   0.705   2.529 -2.3482  1.9305  2.6175
 8516SOL     OW37183   3.581   1.403   0.955  0.1364 -0.2651  0.2991
 8516SOL    HW137184   3.530   1.405   1.036  2.7656  1.2995  1.9017
 8516SOL    HW237185   3.672   1.419   0.979  0.5562  0.2342 -1.5927
 8517SOL     OW37186   4.243   4.696  13.802  0.2008 -0.3941  0.2315
 8517SOL    HW137187   4.225   4.632  13.733 -0.8618 -0.3828  0.4977
 8517SOL    HW237188   4.338   4.711  13.802 -0.2205  2.1487  2.0699
 8518SOL     OW37189   4.618   3.288   9.635  0.0231 -0.2466  0.5207
 8518SOL    HW137190   4.704   3.318   9.607  1.1945 -2.6055  1.6013
 8518SOL    HW237191   4.591   3.361   9.691 -3.6160 -0.0663 -1.4647
 8519SOL     OW37192   0.065   2.915   3.761 -0.0518  0.1310 -0.2292
 8519SOL    HW137193   4.719   2.887   3.732 -0.1511  0.6195 -0.3930
 8519SOL    HW237194   0.081   2.847   3.827 -1.3835  0.5960  0.5698
 8520SOL     OW37195   0.316   4.588   6.238 -0.0278 -0.5710  0.3644
 8520SOL    HW137196   0.339   4.504   6.197  1.9065  0.2936 -0.3190
 8520SOL    HW237197   0.395   4.598   6.290  1.0892  0.8494 -1.6052
 8521SOL     OW37198   1.162   3.247   4.441 -1.0455  0.7216 -0.3041
 8521SOL    HW137199   1.143   3.170   4.495  1.1985 -0.9712 -1.9212
 8521SOL    HW237200   1.256   3.238   4.422 -1.1004  2.0469 -1.2699
 8522SOL     OW37201   2.044   4.665   4.078 -0.5517  0.1527 -0.2038
 8522SOL    HW137202   1.987   4.710   4.140 -0.7886 -0.1375 -0.2123
 8522SOL    HW237203   2.092   4.607   4.137 -2.0102  0.0468  0.8789
 8523SOL     OW37204   0.166   1.487   9.715  0.1110 -0.1636 -0.2037
 8523SOL    HW137205   0.130   1.402   9.737  0.9983  0.0447  2.0178
 8523SOL    HW237206   0.118   1.514   9.637  0.1698 -0.0292 -0.1948
 8524SOL     OW37207   0.008   1.959   6.961 -0.5355 -0.3494 -0.4680
 8524SOL    HW137208   0.008   2.049   6.994 -0.3060 -0.7724  0.6877
 8524SOL    HW237209   4.659   1.928   6.975 -1.1999  2.7303  2.1950
 8525SOL     OW37210   3.120   1.791  11.235  0.1973 -0.1842 -0.5950
 8525SOL    HW137211   3.114   1.790  11.330 -0.6780 -2.0841 -0.6666
 8525SOL    HW237212   3.054   1.727  11.209 -2.0441  1.4330  1.1354
 8526SOL     OW37213   3.618   3.994  12.306 -0.2856  0.1030 -0.3203
 8526SOL    HW137214   3.667   3.986  12.388  0.4925  0.0292 -0.8020
 8526SOL    HW237215   3.612   3.900  12.294 -1.0398  0.4373 -2.4639
 8527SOL     OW37216   1.262   2.776   1.674 -0.1473 -0.0362  0.4746
 8527SOL    HW137217   1.248   2.710   1.606 -1.7154  1.7847 -0.9754
 8527SOL    HW237218   1.255   2.857   1.623  2.0391 -0.2893 -0.2338
 8528SOL     OW37219   2.621   1.854   8.180  0.6972  0.5293 -0.0526
 8528SOL    HW137220   2.607   1.948   8.172  2.4933  0.8491  0.5862
 8528SOL    HW237221   2.547   1.842   8.240  0.7901  3.9982  0.7915
 8529SOL     OW37222   2.742   4.674  10.395 -0.1722 -0.6288 -0.0430
 8529SOL    HW137223   2.737   4.733  10.470  0.1737 -0.6178 -0.0261
 8529SOL    HW237224   2.798   4.718  10.331  1.7814  0.4091  2.3612
 8530SOL     OW37225   1.150   0.156  15.864 -0.2551  0.4341  0.0853
 8530SOL    HW137226   1.200   0.077  15.883 -0.8313 -0.2257 -1.1742
 8530SOL    HW237227   1.068   0.116  15.834 -0.0663  2.3218 -2.8939
 8531SOL     OW37228   2.019   0.835  15.433  0.1261 -0.6774 -0.4147
 8531SOL    HW137229   2.007   0.766  15.367 -2.7594 -0.9420  0.3726
 8531SOL    HW237230   1.930   0.866  15.448  0.2525 -1.5782  2.2107
 8532SOL     OW37231   1.350   2.042   3.923 -0.2400  0.4166 -0.0280
 8532SOL    HW137232   1.296   2.011   3.849 -1.4619  1.6063  0.3645
 8532SOL    HW237233   1.287   2.084   3.981 -0.6470  0.4216 -0.4631
 8533SOL     OW37234   3.851   1.563  15.178  0.4355  0.5890 -0.0956
 8533SOL    HW137235   3.784   1.586  15.242  0.7877 -1.1768  0.9256
 8533SOL    HW237236   3.912   1.527  15.243 -2.1120 -0.7850  1.5137
 8534SOL     OW37237   2.303   0.752   0.607  0.3413  0.1996  0.1913
 8534SOL    HW137238   2.335   0.795   0.528  2.5872  0.0717  1.0284
 8534SOL    HW237239   2.300   0.836   0.654 -0.5956  1.4059 -2.0258
 8535SOL     OW37240   1.238   3.799   1.001 -0.3388 -0.3705  0.6418
 8535SOL    HW137241   1.174   3.729   0.989 -0.4630 -0.2576  0.6310
 8535SOL    HW237242   1.252   3.793   1.096  0.6407  0.5392  0.5485
 8536SOL     OW37243   3.806   2.208   0.335 -0.0024 -0.6724  0.0446
 8536SOL    HW137244   3.744   2.147   0.374 -1.4972 -1.2388 -3.2119
 8536SOL    HW237245   3.853   2.250   0.408 -1.1035 -0.3971  0.5915
 8537SOL     OW37246   1.272   3.724   8.628 -0.5589  0.1743  0.0437
 8537SOL    HW137247   1.304   3.652   8.574 -0.7250 -1.2478  1.8444
 8537SOL    HW237248   1.332   3.793   8.601 -2.0423  1.1574 -0.7700
 8538SOL     OW37249   4.186   1.547   4.417 -0.5801 -0.5383 -0.3187
 8538SOL    HW137250   4.138   1.578   4.494 -0.1184 -1.2491  0.2632
 8538SOL    HW237251   4.157   1.618   4.360  1.5083  0.1392 -0.5286
 8539SOL     OW37252   1.779   2.643   8.198 -0.0090 -0.0269  0.5734
 8539SOL    HW137253   1.773   2.706   8.127 -2.1342 -1.0975 -0.1840
 8539SOL    HW237254   1.721   2.683   8.263 -0.8543 -0.6112  0.1794
 8540SOL     OW37255   0.168   3.153  10.059  0.1138  0.4904 -0.1076
 8540SOL    HW137256   0.180   3.060  10.043 -1.6572  0.3279 -0.4492
 8540SOL    HW237257   0.242   3.196  10.016 -0.2616  0.6115 -0.6356
 8541SOL     OW37258   0.972   4.352   3.025 -0.2880  0.1492  0.4780
 8541SOL    HW137259   0.892   4.400   3.004 -2.1251 -3.3678 -0.6280
 8541SOL    HW237260   0.972   4.373   3.119  0.2139 -0.0833  0.5303
 8542SOL     OW37261   2.542   4.734   7.330  0.7475 -0.6710 -0.1961
 8542SOL    HW137262   2.469   4.680   7.360 -0.0578  0.4513 -0.1027
 8542SOL    HW237263   2.496   0.078   7.327  1.0908 -0.5071 -1.0723
 8543SOL     OW37264   1.833   3.508   4.464  0.1382 -0.0467 -0.4187
 8543SOL    HW137265   1.748   3.550   4.469 -0.0663 -0.7100  1.4432
 8543SOL    HW237266   1.829   3.469   4.551  1.9063  1.8530  0.5053
 8544SOL     OW37267   4.279   0.395  13.769 -0.1884  0.3864 -0.2988
 8544SOL    HW137268   4.255   0.364  13.682 -0.7540 -1.0448  0.3648
 8544SOL    HW237269   4.192   0.406  13.807 -0.4871  0.4357 -0.9901
 8545SOL     OW37270   4.424   0.516   2.228  0.8242  0.2867  0.2656
 8545SOL    HW137271   4.385   0.500   2.314  1.9110 -0.7645  0.5537
 8545SOL    HW237272   4.413   0.611   2.225 -0.2629  0.1103 -0.9456
 8546SOL     OW37273   2.234   2.889  14.647  0.5735 -0.5752 -0.0657
 8546SOL    HW137274   2.291   2.935  14.710 -0.0624  0.0343  0.0633
 8546SOL    HW237275   2.205   2.822  14.709  1.5929 -1.6104 -0.6995
 8547SOL     OW37276   2.076   1.087   6.668  0.4736 -0.4880 -0.4559
 8547SOL    HW137277   2.067   1.144   6.592  2.1050 -0.9105 -0.9606
 8547SOL    HW237278   2.104   1.141   6.741 -0.6371  0.3420 -0.6520
 8548SOL     OW37279   3.075   2.744  10.003 -0.5871  0.3334  0.6078
 8548SOL    HW137280   3.086   2.811   9.936 -0.6424  0.4110  0.6781
 8548SOL    HW237281   3.144   2.773  10.063 -0.2560 -0.3348  0.5515
 8549SOL     OW37282   1.417   0.095   7.517 -0.1126 -0.1631 -0.3209
 8549SOL    HW137283   1.497   0.077   7.567 -0.5024 -1.6564 -0.2160
 8549SOL    HW237284   1.408   0.183   7.552 -0.7214  0.6200 -2.4719
 8550SOL     OW37285   2.259   1.920   1.107 -0.2527  0.1136  0.0086
 8550SOL    HW137286   2.335   1.959   1.064  0.3845 -2.3370 -1.1102
 8550SOL    HW237287   2.251   1.835   1.064  0.8541  0.0560 -0.0801
 8551SOL     OW37288   0.325   2.208   5.393 -0.5101 -0.1869  0.2907
 8551SOL    HW137289   0.267   2.158   5.336  0.5587 -1.6292  0.4466
 8551SOL    HW237290   0.298   2.296   5.367  0.8795  0.2700  0.3902
 8552SOL     OW37291   0.404   3.282   8.659  0.3246 -0.2153 -0.2919
 8552SOL    HW137292   0.319   3.287   8.616  0.9445 -0.1131 -1.4997
 8552SOL    HW237293   0.444   3.198   8.635  0.2871 -0.9818  2.2466
 8553SOL     OW37294   0.132   1.916   6.050 -0.4770  0.4519  0.4811
 8553SOL    HW137295   0.198   1.978   6.021 -1.6852  1.2723 -0.5131
 8553SOL    HW237296   0.116   1.855   5.977  2.5974  2.1195 -1.5858
 8554SOL     OW37297   2.184   3.936  17.077 -0.0819 -0.3804 -0.4313
 8554SOL    HW137298   2.201   3.887  17.158  1.2928 -1.6965 -1.5312
 8554SOL    HW237299   2.224   3.885  17.007  0.8491 -1.5646  0.9398
 8555SOL     OW37300   1.770   4.022   5.007  0.3003 -0.1543 -0.0231
 8555SOL    HW137301   1.857   4.051   5.034  0.3159  0.5247 -0.8028
 8555SOL    HW237302   1.792   3.938   4.968 -0.0591  0.5394 -1.7535
 8556SOL     OW37303   0.037   4.692   4.632 -0.2528 -0.4853 -0.1497
 8556SOL    HW137304   0.114   4.736   4.596  0.3868 -1.8138 -0.4087
 8556SOL    HW237305   4.732   0.022   4.679 -1.4620 -1.6743  0.4695
 8557SOL     OW37306   4.449   1.795  10.204  0.0729 -0.3587  0.1515
 8557SOL    HW137307   4.467   1.876  10.156 -1.2500  0.1173  0.4661
 8557SOL    HW237308   4.354   1.801  10.214  0.1216 -0.4499  0.6678
 8558SOL     OW37309   1.402   3.756  11.265  0.6807 -0.5022  0.0818
 8558SOL    HW137310   1.486   3.769  11.219  1.1025  0.5984  1.1618
 8558SOL    HW237311   1.382   3.665  11.246  0.2997 -0.3991  0.0000
 8559SOL     OW37312   4.276   3.863   1.113  0.1365 -0.1385 -0.4747
 8559SOL    HW137313   4.312   3.952   1.110 -2.4067  0.8556 -2.1875
 8559SOL    HW237314   4.187   3.878   1.079  1.1627  4.0332 -1.3945
 8560SOL     OW37315   3.111   4.166   3.088  0.4211  0.0229 -0.0178
 8560SOL    HW137316   3.157   4.125   3.161 -1.5803 -2.0837  0.0553
 8560SOL    HW237317   3.181   4.208   3.039  1.9148  1.7160  3.5479
 8561SOL     OW37318   4.034   0.655   7.620  0.3482  0.2977 -0.0299
 8561SOL    HW137319   4.129   0.661   7.627  0.1581  2.3339  0.8160
 8561SOL    HW237320   4.005   0.629   7.707  3.1379 -3.6449 -0.2933
 8562SOL     OW37321   4.295   1.334   2.482 -0.1874 -0.3172 -0.8051
 8562SOL    HW137322   4.226   1.361   2.542  0.3923  1.9865 -1.1510
 8562SOL    HW237323   4.298   1.240   2.496  0.6388 -0.1862 -0.0967
 8563SOL     OW37324   2.077   2.094   8.445  0.3349 -0.7165 -0.5529
 8563SOL    HW137325   2.032   2.177   8.430  1.5747  0.0828  0.1733
 8563SOL    HW237326   2.068   2.100   8.540  1.2675  3.2209 -0.7261
 8564SOL     OW37327   2.787   0.733   7.672 -0.1533  0.2004 -0.3598
 8564SOL    HW137328   2.823   0.652   7.635 -1.0065 -0.2446 -0.2214
 8564SOL    HW237329   2.837   0.802   7.630 -2.7446  1.9061 -0.6395
 8565SOL     OW37330   3.055   2.408   8.041 -0.5585 -0.1091  0.5429
 8565SOL    HW137331   3.033   2.318   8.065 -1.2238  0.1251  0.7883
 8565SOL    HW237332   3.036   2.407   7.947  1.5076  2.0923  0.0900
 8566SOL     OW37333   0.931   4.392   2.486 -0.3122  0.1404 -0.0764
 8566SOL    HW137334   0.871   4.318   2.473  0.0406 -0.1802  0.1256
 8566SOL    HW237335   0.950   4.389   2.579 -1.0994 -0.1567  0.0773
 8567SOL     OW37336   3.297   2.464   4.895  0.6920  0.3378  0.0628
 8567SOL    HW137337   3.249   2.388   4.861 -0.8887  0.5606  1.8184
 8567SOL    HW237338   3.388   2.433   4.889  0.0030 -1.9759  1.7758
 8568SOL     OW37339   2.680   1.182  12.363  0.0148  0.4811  0.5166
 8568SOL    HW137340   2.709   1.268  12.394 -0.8616  1.7989 -2.2698
 8568SOL    HW237341   2.592   1.202  12.331 -0.2808  0.3540  1.2678
 8569SOL     OW37342   3.848   2.324   8.781 -0.2573  0.1597  0.8445
 8569SOL    HW137343   3.787   2.391   8.810 -0.8352  0.9837 -2.3162
 8569SOL    HW237344   3.794   2.246   8.795 -1.2696  0.6310 -0.4316
 8570SOL     OW37345   2.545   0.656   1.362  0.3032  0.1201  0.2570
 8570SOL    HW137346   2.571   0.692   1.277 -0.2459  0.5722  0.2843
 8570SOL    HW237347   2.477   0.596   1.334  0.2798  1.7643 -3.2369
 8571SOL     OW37348   1.228   1.548   7.235 -0.1927 -0.1010 -0.1808
 8571SOL    HW137349   1.193   1.626   7.279  2.7064  2.7504 -2.9156
 8571SOL    HW237350   1.323   1.559   7.238 -0.2738  0.7105 -0.7586
 8572SOL     OW37351   2.363   0.103  13.597 -0.1406  0.5439  0.3905
 8572SOL    HW137352   2.287   0.117  13.653 -0.8068 -0.0435 -0.3636
 8572SOL    HW237353   2.351   0.171  13.531  0.4778 -1.2202 -1.5261
 8573SOL     OW37354   2.572   4.597   8.342 -0.5724  0.1748  0.0273
 8573SOL    HW137355   2.599   4.519   8.391 -0.0294  0.4353  0.1446
 8573SOL    HW237356   2.488   4.613   8.384  0.9341  1.9977  2.3986
 8574SOL     OW37357   0.498   0.811   8.350 -0.3275 -0.1396 -0.0431
 8574SOL    HW137358   0.538   0.866   8.418 -0.9322  1.1871 -0.7438
 8574SOL    HW237359   0.562   0.786   8.283 -0.2308 -1.4495  0.5448
 8575SOL     OW37360   3.994   3.630   6.631  0.2886 -0.0134 -0.2650
 8575SOL    HW137361   3.905   3.647   6.600  0.9520  1.0859 -1.5311
 8575SOL    HW237362   3.980   3.584   6.714 -0.5194  1.1340  0.2277
 8576SOL     OW37363   1.870   1.560   2.932  0.2518 -0.7413 -0.2634
 8576SOL    HW137364   1.802   1.620   2.964 -0.6085 -1.6071 -0.4845
 8576SOL    HW237365   1.948   1.616   2.935 -0.7459  0.7052 -1.2988
 8577SOL     OW37366   4.128   0.968  16.266 -0.5720 -0.4281 -0.2930
 8577SOL    HW137367   4.131   1.034  16.335  2.2732 -0.2956 -0.5471
 8577SOL    HW237368   4.074   1.010  16.199 -0.9646 -1.6595 -0.7511
 8578SOL     OW37369   4.362   3.079   7.765 -0.0813  0.1667  0.1490
 8578SOL    HW137370   4.306   3.057   7.839  1.0021 -0.3811  0.8001
 8578SOL    HW237371   4.437   3.021   7.782  0.7854  1.2902  0.1477
 8579SOL     OW37372   3.419   0.603  17.196 -0.7765 -0.1314  0.3249
 8579SOL    HW137373   3.477   0.678  17.194 -0.0525 -0.7072 -0.3715
 8579SOL    HW237374   3.390   0.591  17.106 -1.4438 -1.8805  0.7596
 8580SOL     OW37375   3.165   1.764   6.557  0.1389 -0.0460 -0.5141
 8580SOL    HW137376   3.117   1.735   6.634  0.6026  1.8425  0.4897
 8580SOL    HW237377   3.147   1.858   6.566  0.6863  0.1434 -1.4119
 8581SOL     OW37378   3.500   3.047  10.172  0.3636  0.3653  0.2567
 8581SOL    HW137379   3.406   3.039  10.185  0.0595  1.2256 -1.3789
 8581SOL    HW237380   3.508   3.130  10.126  1.0276 -0.3386 -0.9018
 8582SOL     OW37381   2.824   2.532   6.320 -0.1748  0.3036  0.3525
 8582SOL    HW137382   2.750   2.550   6.262 -0.5657  0.3030  0.8539
 8582SOL    HW237383   2.829   2.609   6.377 -1.6203  1.1688 -0.6759
 8583SOL     OW37384   2.860   3.339   7.544 -0.2676  0.6258 -0.3071
 8583SOL    HW137385   2.882   3.421   7.500  1.4637 -0.1478 -0.8930
 8583SOL    HW237386   2.767   3.326   7.525 -0.0435 -3.0348  1.1060
 8584SOL     OW37387   1.385   0.626   2.052  0.0685  0.1046 -0.2934
 8584SOL    HW137388   1.328   0.698   2.078  0.0633  0.6259 -1.7060
 8584SOL    HW237389   1.323   0.553   2.059 -1.3945  1.1242 -2.5448
 8585SOL     OW37390   0.652   4.328  12.480 -0.3227 -0.1235 -0.4485
 8585SOL    HW137391   0.622   4.371  12.560 -0.0437  0.8717 -0.8792
 8585SOL    HW237392   0.676   4.404  12.427  0.6427 -0.0676  0.0722
 8586SOL     OW37393   0.496   3.220   2.658  0.5860  0.2897 -0.7295
 8586SOL    HW137394   0.426   3.227   2.594  0.8491  3.0138 -0.7384
 8586SOL    HW237395   0.512   3.308   2.694 -0.3989  0.1384  0.0797
 8587SOL     OW37396   4.082   4.164   5.296  0.2154  0.2125 -0.0657
 8587SOL    HW137397   4.079   4.071   5.273  0.0008 -0.0110  0.8398
 8587SOL    HW237398   4.070   4.209   5.213  0.9836  0.7728  0.1250
 8588SOL     OW37399   3.886   4.072   8.235  0.1666 -0.5775 -0.0001
 8588SOL    HW137400   3.966   4.029   8.205  0.4319 -1.2211  1.6540
 8588SOL    HW237401   3.812   4.024   8.197  0.1536 -1.1287  0.7322
 8589SOL     OW37402   4.033   0.060   9.200  0.2869 -0.2329 -0.2457
 8589SOL    HW137403   4.018   0.074   9.293  1.2292  3.1893 -0.6131
 8589SOL    HW237404   4.095   4.727   9.196 -1.1253 -1.3625 -1.2435
 8590SOL     OW37405   1.380   3.218  10.670  0.3997 -0.3609  0.2603
 8590SOL    HW137406   1.464   3.205  10.714 -0.3886  0.9880  2.2050
 8590SOL    HW237407   1.405   3.267  10.592  1.7454 -2.5830 -0.7047
 8591SOL     OW37408   1.749   3.507   2.142  0.4385 -0.2820 -0.0050
 8591SOL    HW137409   1.800   3.588   2.138 -0.8838  0.4576 -1.5677
 8591SOL    HW237410   1.818   3.445   2.116 -0.9365 -2.1596  0.8454
 8592SOL     OW37411   1.732   2.765   7.723 -0.1716 -0.6110  0.9632
 8592SOL    HW137412   1.784   2.801   7.795  2.5004 -1.1310 -0.7018
 8592SOL    HW237413   1.789   2.698   7.685 -1.0085 -1.5921  1.4666
 8593SOL     OW37414   4.054   3.380  10.178  0.9197  0.4471  0.1731
 8593SOL    HW137415   4.013   3.348  10.097 -0.4320  0.2101  0.9585
 8593SOL    HW237416   3.997   3.330  10.236 -0.9071  2.0233 -0.2868
 8594SOL     OW37417   2.302   0.191   7.136 -0.5662  0.1055 -0.1662
 8594SOL    HW137418   2.282   0.157   7.223  1.1009  1.2533  0.6729
 8594SOL    HW237419   2.253   0.272   7.152  0.2659  0.5338  0.2121
 8595SOL     OW37420   3.582   2.363   4.846  0.2385 -0.5487 -0.1828
 8595SOL    HW137421   3.570   2.268   4.843  0.6128 -0.5993 -0.0610
 8595SOL    HW237422   3.658   2.380   4.790 -0.6848  1.2362 -0.8875
 8596SOL     OW37423   1.228   4.635   7.122  0.2568 -0.6248  0.4224
 8596SOL    HW137424   1.276   4.718   7.129  4.7909 -3.2056  0.1350
 8596SOL    HW237425   1.303   4.575   7.121 -0.9892 -2.2140  1.8596
 8597SOL     OW37426   3.723   4.480   2.730  0.1603 -0.3393  0.6920
 8597SOL    HW137427   3.766   4.416   2.673 -3.6976 -2.4690  0.1851
 8597SOL    HW237428   3.694   4.430   2.806 -0.4016 -1.5130 -0.3015
 8598SOL     OW37429   0.218   1.161   9.724  0.5361  0.2793  0.2217
 8598SOL    HW137430   0.300   1.212   9.722  0.3155  0.5925 -1.0455
 8598SOL    HW237431   0.200   1.143   9.816 -0.5687 -1.8632 -0.4165
 8599SOL     OW37432   1.213   0.002   3.122 -0.0739 -0.4623 -0.4016
 8599SOL    HW137433   1.276   0.033   3.058  1.2665 -0.9366  0.6771
 8599SOL    HW237434   1.129   4.731   3.077 -0.4780  0.4776  0.1177
 8600SOL     OW37435   4.539   2.784   6.045 -0.3549  0.0589 -0.1760
 8600SOL    HW137436   4.445   2.800   6.050 -0.2601  1.4242 -2.6983
 8600SOL    HW237437   4.552   2.764   6.138 -0.4013 -1.2598 -0.4650
 8601SOL     OW37438   0.565   2.678   0.618  0.5687  0.1872  0.0538
 8601SOL    HW137439   0.590   2.646   0.705  2.1264 -0.0809 -0.4828
 8601SOL    HW237440   0.645   2.719   0.583 -0.4044  2.2600  0.2440
 8602SOL     OW37441   0.633   4.126   3.071 -0.3273 -0.6058  0.4263
 8602SOL    HW137442   0.602   4.151   2.984 -1.9232  0.0475  1.1980
 8602SOL    HW237443   0.616   4.206   3.122  0.8939  0.2971 -0.5610
 8603SOL     OW37444   0.231   4.244   3.717  0.1189  0.2033 -0.1416
 8603SOL    HW137445   0.324   4.240   3.740  0.0804  0.4360  0.0500
 8603SOL    HW237446   0.206   4.327   3.758 -0.4378  0.5174 -1.1066
 8604SOL     OW37447   3.770   4.608   0.820 -0.0120 -0.3272  0.6662
 8604SOL    HW137448   3.779   4.617   0.725  2.7419 -1.9104  0.7787
 8604SOL    HW237449   3.676   4.612   0.833 -0.2502 -1.3175 -0.7451
 8605SOL     OW37450   2.545   0.359  11.893  0.0713  0.0473 -1.0640
 8605SOL    HW137451   2.453   0.368  11.918  0.0093  2.1281 -2.0976
 8605SOL    HW237452   2.532   0.342  11.800  3.0857  0.4823 -1.5506
 8606SOL     OW37453   0.313   4.277  17.212  0.5667  0.4752 -0.1880
 8606SOL    HW137454   0.404   4.266  17.187  1.0644  1.1575  1.3927
 8606SOL    HW237455   0.302   4.228  17.293 -0.8707  0.9598 -0.0800
 8607SOL     OW37456   2.363   3.473   4.994  0.1591 -0.3960  0.1276
 8607SOL    HW137457   2.403   3.501   4.912  2.4073  0.7675  1.5971
 8607SOL    HW237458   2.279   3.518   4.994 -0.9343 -2.4126  1.1993
 8608SOL     OW37459   1.980   4.061   1.066  0.4936 -0.1837  0.2963
 8608SOL    HW137460   1.996   4.152   1.089  0.1727 -0.7409  2.6982
 8608SOL    HW237461   1.885   4.049   1.068  0.7368 -1.4834  3.9155
 8609SOL     OW37462   2.986   0.535  12.339  0.2924 -0.6079  0.2471
 8609SOL    HW137463   2.929   0.608  12.364 -1.0933 -0.8742 -2.2262
 8609SOL    HW237464   3.064   0.578  12.303 -0.3784 -0.6709 -1.2756
 8610SOL     OW37465   2.376   3.450   2.568 -0.0112  0.1745 -0.5913
 8610SOL    HW137466   2.347   3.526   2.517 -0.7764  0.6600  0.5763
 8610SOL    HW237467   2.300   3.392   2.560 -0.7007  1.0013 -0.0460
 8611SOL     OW37468   0.514   3.947   1.500 -0.1146 -0.8858 -0.0854
 8611SOL    HW137469   0.456   3.885   1.457 -0.9397 -0.1301 -0.0732
 8611SOL    HW237470   0.449   4.017   1.502 -0.6705 -1.4261  0.8762
 8612SOL     OW37471   0.069   4.699   6.724 -0.0811 -0.1520 -0.5992
 8612SOL    HW137472   0.146   4.705   6.780 -0.9771 -0.8263  0.7019
 8612SOL    HW237473   0.105   4.687   6.636 -3.0454 -3.1587 -1.4147
 8613SOL     OW37474   0.404   2.642   6.174 -0.0828 -0.7757 -0.1367
 8613SOL    HW137475   0.476   2.681   6.223  0.6843  0.1636 -2.0567
 8613SOL    HW237476   0.440   2.561   6.137 -0.0540 -0.6030 -0.4786
 8614SOL     OW37477   2.407   1.260   8.947  0.7742  0.6827 -0.1614
 8614SOL    HW137478   2.452   1.217   9.020 -1.0080  0.5225  0.8411
 8614SOL    HW237479   2.334   1.299   8.994  1.2814  0.7111  0.6120
 8615SOL     OW37480   2.632   3.142   3.931 -0.3993 -0.1436 -0.8200
 8615SOL    HW137481   2.538   3.147   3.915 -0.4739  0.0353 -0.3281
 8615SOL    HW237482   2.674   3.150   3.846  0.6676  1.0710 -0.1779
 8616SOL     OW37483   1.000   0.974   6.138  0.4630 -0.1038 -0.3597
 8616SOL    HW137484   1.005   1.058   6.185  0.6973  0.3106 -1.1227
 8616SOL    HW237485   0.920   0.995   6.091 -0.8414 -0.2297  1.8284
 8617SOL     OW37486   0.170   0.825   7.816 -0.2028 -0.0452 -0.4227
 8617SOL    HW137487   0.125   0.820   7.901  0.3841  2.4048  0.0113
 8617SOL    HW237488   0.113   0.890   7.775 -0.5138 -1.5166 -2.3364
 8618SOL     OW37489   0.784   3.129   3.996 -0.3136 -0.5348  0.3954
 8618SOL    HW137490   0.791   3.081   4.078  0.3766  1.4023  1.4819
 8618SOL    HW237491   0.695   3.102   3.973  0.2431 -2.0194  0.0190
 8619SOL     OW37492   3.081   1.757   5.706 -0.0488 -0.2626  0.7984
 8619SOL    HW137493   3.100   1.695   5.635 -1.9212  1.5687 -1.3211
 8619SOL    HW237494   3.005   1.797   5.663  1.3681 -0.5619 -1.9652
 8620SOL     OW37495   3.572   2.514   8.091 -0.0578 -0.2688 -0.0095
 8620SOL    HW137496   3.576   2.435   8.145 -0.6431 -1.1912 -1.3221
 8620SOL    HW237497   3.498   2.501   8.031  0.7479  0.1270 -1.0760
 8621SOL     OW37498   4.170   1.241  13.488  0.7318  0.1475  0.1166
 8621SOL    HW137499   4.229   1.180  13.444  0.4574 -0.1182  0.1193
 8621SOL    HW237500   4.198   1.230  13.579  0.2061 -0.7737  0.1619
 8622SOL     OW37501   0.232   1.285   8.479  0.1443 -0.1274 -0.7365
 8622SOL    HW137502   0.293   1.214   8.496 -0.4121 -0.6664 -0.9780
 8622SOL    HW237503   0.175   1.272   8.556  1.6666 -0.1188  0.3874
 8623SOL     OW37504   2.071   1.463   8.261  0.1124  0.7734 -0.1637
 8623SOL    HW137505   2.100   1.554   8.251 -2.2317  1.3773 -1.4141
 8623SOL    HW237506   2.151   1.420   8.231 -0.4586 -0.3329 -0.0814
 8624SOL     OW37507   2.089   4.718   1.931 -0.2114  0.6223  0.1626
 8624SOL    HW137508   2.019   4.707   1.995  0.3353 -1.0829  0.4764
 8624SOL    HW237509   2.044   4.687   1.852 -1.3754 -0.0177  1.0893
 8625SOL     OW37510   4.453   2.650  17.727 -0.4077 -0.3666  0.1937
 8625SOL    HW137511   4.503   2.730  17.712  2.0289 -1.9122  0.0340
 8625SOL    HW237512   4.509   2.578  17.697  0.2371  0.6836 -1.1057
 8626SOL     OW37513   0.738   2.574   2.329 -0.2660 -0.3785 -0.1816
 8626SOL    HW137514   0.744   2.481   2.353 -0.0057 -0.1248  0.7301
 8626SOL    HW237515   0.823   2.605   2.360 -1.2593 -0.1176  2.2749
 8627SOL     OW37516   0.300   0.233   9.737 -0.1721 -0.1655 -0.0743
 8627SOL    HW137517   0.281   0.163   9.799  1.8040 -1.2091 -0.6772
 8627SOL    HW237518   0.219   0.284   9.734  0.0626  0.2268  0.2856
 8628SOL     OW37519   0.408   3.249   3.930  0.2394  0.3247  0.0609
 8628SOL    HW137520   0.447   3.162   3.929  0.1101  0.2763 -0.7046
 8628SOL    HW237521   0.333   3.237   3.988  0.9504  2.4523  1.4421
 8629SOL     OW37522   3.762   4.534   5.990  0.0247  0.3853 -0.0186
 8629SOL    HW137523   3.845   4.507   5.950 -0.3271  0.4174 -0.7579
 8629SOL    HW237524   3.707   4.510   5.916 -0.4655 -0.5029  0.6271
 8630SOL     OW37525   2.807   3.066   2.647 -0.0122 -0.5277  0.0593
 8630SOL    HW137526   2.771   2.978   2.649 -1.8971  0.2206 -0.8505
 8630SOL    HW237527   2.732   3.122   2.629  0.7120  0.7088  0.8804
 8631SOL     OW37528   3.175   2.658   6.737  0.2333 -0.7535  0.0912
 8631SOL    HW137529   3.260   2.649   6.779  0.3967 -0.5836 -0.2015
 8631SOL    HW237530   3.140   2.569   6.742 -0.3365 -0.6149 -1.3476
 8632SOL     OW37531   4.147   0.601   1.790 -0.0314 -0.5816 -0.3922
 8632SOL    HW137532   4.121   0.516   1.753  0.5288 -0.4625 -1.0787
 8632SOL    HW237533   4.204   0.633   1.720 -0.7912  1.2037 -0.1894
 8633SOL     OW37534   4.153   1.599   5.297 -0.5133  0.0648 -0.0597
 8633SOL    HW137535   4.130   1.539   5.368  4.9405 -2.3754 -0.4075
 8633SOL    HW237536   4.131   1.547   5.220 -0.1667 -0.1409 -0.0156
 8634SOL     OW37537   1.569   1.993   4.511 -0.3633 -0.3979 -0.4228
 8634SOL    HW137538   1.475   1.981   4.498 -1.3204  4.3779  1.9286
 8634SOL    HW237539   1.600   1.904   4.528 -0.5807 -0.4017 -0.0440
 8635SOL     OW37540   4.358   0.385   4.512  0.1252 -0.2082 -0.1594
 8635SOL    HW137541   4.397   0.305   4.477 -0.4944  0.1451 -1.6412
 8635SOL    HW237542   4.366   0.370   4.607 -2.7564  1.2054  0.3229
 8636SOL     OW37543   2.632   1.124  10.563  0.0172  0.2542 -0.4148
 8636SOL    HW137544   2.638   1.133  10.658 -1.6441 -0.3840 -0.2670
 8636SOL    HW237545   2.704   1.183  10.537  0.4806 -1.5433 -3.1915
 8637SOL     OW37546   4.250   0.187   6.972  0.2112  0.4247 -0.1813
 8637SOL    HW137547   4.312   0.260   6.961  1.0716 -0.5079 -1.5586
 8637SOL    HW237548   4.309   0.113   6.971  1.2638  1.2589  1.0872
 8638SOL     OW37549   4.702   3.290  11.909 -0.3326  0.1234  0.1970
 8638SOL    HW137550   4.634   3.309  11.845 -1.2554  0.3758  1.2435
 8638SOL    HW237551   4.655   3.271  11.990 -1.0474 -2.2377 -0.7916
 8639SOL     OW37552   4.120   1.931   2.256  0.4047  0.1024 -0.1306
 8639SOL    HW137553   4.135   2.019   2.289  1.9047  0.0563 -0.7166
 8639SOL    HW237554   4.041   1.949   2.204  0.5385  2.6292  0.5403
 8640SOL     OW37555   3.567   2.223   6.916 -0.0711  0.6381  0.8249
 8640SOL    HW137556   3.595   2.174   6.993 -0.1785 -2.4545 -1.1014
 8640SOL    HW237557   3.530   2.301   6.957 -1.7067 -0.1690  0.8955
 8641SOL     OW37558   2.566   2.607   2.421 -0.2787  0.5948 -0.1784
 8641SOL    HW137559   2.505   2.558   2.367  0.9995 -0.5842 -0.5595
 8641SOL    HW237560   2.503   2.673   2.451 -0.1610  0.6794 -0.1156
 8642SOL     OW37561   3.166   4.572   3.057 -0.2674  0.1204 -0.3248
 8642SOL    HW137562   3.178   4.633   3.129 -1.2803  0.1620 -0.1993
 8642SOL    HW237563   3.229   4.502   3.077 -0.6965 -0.3378 -0.5589
 8643SOL     OW37564   1.741   0.389   5.980 -0.0409  0.3812 -0.7974
 8643SOL    HW137565   1.735   0.294   5.990 -2.1886  0.4584 -1.4830
 8643SOL    HW237566   1.826   0.409   6.020 -0.4503  0.3082  0.1137
 8644SOL     OW37567   4.185   4.252   5.537 -0.3484 -0.0139  0.7869
 8644SOL    HW137568   4.160   4.210   5.455  1.3428  0.0130  0.2581
 8644SOL    HW237569   4.173   4.342   5.506  1.2165 -0.1497 -0.2146
 8645SOL     OW37570   4.029   2.822   3.479 -0.1779  0.1460  0.0682
 8645SOL    HW137571   4.029   2.915   3.502  1.5616 -0.4540  2.3728
 8645SOL    HW237572   4.119   2.793   3.486 -0.0011  0.6266 -0.1958
 8646SOL     OW37573   2.780   3.398   6.037 -0.4105  0.0249 -0.0593
 8646SOL    HW137574   2.801   3.483   6.077  1.2557 -2.0167  3.4655
 8646SOL    HW237575   2.746   3.354   6.115 -1.8587 -1.7880 -1.7488
 8647SOL     OW37576   1.554   4.402  17.526 -0.0248  0.6550 -0.2903
 8647SOL    HW137577   1.591   4.482  17.564 -1.8226  1.6556 -0.6405
 8647SOL    HW237578   1.603   4.334  17.572 -0.4609  1.0676  0.7888
 8648SOL     OW37579   0.137   3.132  17.723  0.4475  0.4743  0.4515
 8648SOL    HW137580   0.159   3.204  17.664 -1.7020  0.6236 -0.1706
 8648SOL    HW237581   0.163   3.059  17.667  1.4650  1.3003 -0.1506
 8649SOL     OW37582   2.757   1.937   4.489  0.5441  0.2258  0.1224
 8649SOL    HW137583   2.744   1.842   4.495 -1.1559  0.4486 -0.0555
 8649SOL    HW237584   2.847   1.932   4.457 -0.0336 -3.0296 -0.9548
 8650SOL     OW37585   0.778   4.294  13.334 -0.3021 -0.2508 -1.2160
 8650SOL    HW137586   0.796   4.228  13.267  1.3082 -0.3175 -0.7237
 8650SOL    HW237587   0.742   4.239  13.403  0.3025  2.2281  1.0666
 8651SOL     OW37588   3.761   0.946   6.963 -0.1948 -0.4851  0.3005
 8651SOL    HW137589   3.774   1.040   6.980  0.5987 -0.8967  1.8780
 8651SOL    HW237590   3.802   0.906   7.040  2.7273  0.5467 -0.6902
 8652SOL     OW37591   1.134   4.569   4.928  0.3035  0.1162  0.0515
 8652SOL    HW137592   1.051   4.532   4.957 -0.2828  1.0919 -0.3688
 8652SOL    HW237593   1.138   4.648   4.982 -1.8545  0.2638 -0.0195
 8653SOL     OW37594   4.613   1.332   7.839  0.1500  0.7030 -0.3683
 8653SOL    HW137595   4.588   1.421   7.864  3.2746  1.8330 -1.2140
 8653SOL    HW237596   4.704   1.360   7.830  0.1068  1.1221  0.4543
 8654SOL     OW37597   3.488   3.472   1.900  0.7208 -0.3966 -0.3745
 8654SOL    HW137598   3.417   3.494   1.840  2.4604  2.7405 -1.2652
 8654SOL    HW237599   3.558   3.529   1.869  0.3509  0.5770  0.6068
 8655SOL     OW37600   3.968   2.132   7.845  0.0691 -0.6670  0.5121
 8655SOL    HW137601   3.975   2.075   7.768 -2.1753  1.4498 -1.2674
 8655SOL    HW237602   4.041   2.089   7.889 -0.0148  0.4452  1.7443
 8656SOL     OW37603   2.275   2.780   9.883  0.2046 -0.3482  0.1402
 8656SOL    HW137604   2.331   2.746   9.953 -0.0404 -1.2304 -0.0832
 8656SOL    HW237605   2.306   2.867   9.858 -0.8018 -0.5870 -1.9496
 8657SOL     OW37606   1.565   2.335   8.924  0.3613  0.3087  0.0812
 8657SOL    HW137607   1.483   2.363   8.884  0.7525  0.8904 -0.3056
 8657SOL    HW237608   1.575   2.414   8.977  0.3744  1.3012 -1.4152
 8658SOL     OW37609   1.034   2.437  16.463  0.0426 -0.1901  0.5716
 8658SOL    HW137610   1.018   2.394  16.547  0.8082 -1.3217  0.1284
 8658SOL    HW237611   1.128   2.430  16.447  0.0690 -1.1140  1.1487
 8659SOL     OW37612   0.477   2.613   8.707 -0.0552  0.0604 -0.4984
 8659SOL    HW137613   0.445   2.558   8.635  1.3179  0.5861 -1.5006
 8659SOL    HW237614   0.570   2.621   8.687 -0.3095  0.5500 -1.5366
 8660SOL     OW37615   3.797   0.102   8.328 -0.0708 -0.0590  0.2664
 8660SOL    HW137616   3.762   0.142   8.407  0.5503 -0.3652  0.6988
 8660SOL    HW237617   3.874   0.059   8.366  1.1049  3.6477  2.0408
 8661SOL     OW37618   2.603   0.255   1.863  0.2799 -0.3175  0.2024
 8661SOL    HW137619   2.642   0.202   1.932  0.1028  2.4606  2.4210
 8661SOL    HW237620   2.557   0.184   1.819 -0.0217 -0.1585  0.2621
 8662SOL     OW37621   2.138   3.880   7.673 -0.5663 -0.4440 -0.6961
 8662SOL    HW137622   2.104   3.807   7.723 -0.7008 -0.0582 -0.2261
 8662SOL    HW237623   2.187   3.939   7.731 -1.4490  0.9874 -1.4011
 8663SOL     OW37624   4.368   3.464  16.034  0.0326  0.4124 -0.3163
 8663SOL    HW137625   4.334   3.472  16.123 -0.2173 -0.5148 -0.3202
 8663SOL    HW237626   4.443   3.408  16.056 -0.0763  0.6538  0.6318
 8664SOL     OW37627   0.797   4.527   1.929 -0.5837 -0.4834  0.1058
 8664SOL    HW137628   0.717   4.477   1.915 -2.3125  2.0647  1.0007
 8664SOL    HW237629   0.750   4.607   1.908 -0.6319 -0.8240 -1.1227
 8665SOL     OW37630   3.799   2.917   2.824 -0.3872  0.3882  0.4013
 8665SOL    HW137631   3.894   2.930   2.826 -0.3376 -0.0687  1.1525
 8665SOL    HW237632   3.776   2.984   2.888  0.6274 -0.6143  1.8236
 8666SOL     OW37633   4.377   2.530   6.259  0.1107 -0.5783  0.0664
 8666SOL    HW137634   4.288   2.565   6.259  0.8883  1.3506  0.9455
 8666SOL    HW237635   4.397   2.583   6.336  0.7280 -1.7805  0.7500
 8667SOL     OW37636   2.706   0.058   5.545  0.1257  0.5125 -0.1366
 8667SOL    HW137637   2.652   0.026   5.474  0.1306  0.4085 -0.0942
 8667SOL    HW237638   2.649   0.038   5.619  0.5656  0.2018  0.1192
 8668SOL     OW37639   1.631   3.459  11.336  0.2451 -0.0688  0.6394
 8668SOL    HW137640   1.562   3.479  11.272 -0.9054 -0.1509  1.8546
 8668SOL    HW237641   1.628   3.364  11.334  0.1180 -0.0449 -0.3670
 8669SOL     OW37642   1.741   3.311   5.819 -0.7163 -0.0238  0.2949
 8669SOL    HW137643   1.682   3.238   5.838 -1.0952  0.3096  0.4059
 8669SOL    HW237644   1.827   3.272   5.837  0.5790  2.2316 -1.0737
 8670SOL     OW37645   4.357   2.011   6.919  1.0100  0.3251 -0.2965
 8670SOL    HW137646   4.358   2.089   6.863  0.1045  0.3789 -0.2372
 8670SOL    HW237647   4.300   1.959   6.862 -0.5754  1.0767  0.5993
 8671SOL     OW37648   0.834   2.341  15.822 -0.5272  0.7276 -0.9464
 8671SOL    HW137649   0.840   2.263  15.766  0.2794  0.6500 -0.7565
 8671SOL    HW237650   0.764   2.320  15.884 -0.6642  1.9875 -0.6849
 8672SOL     OW37651   3.665   1.366  16.869  0.9663  0.0584 -0.1400
 8672SOL    HW137652   3.672   1.339  16.778  1.0649  0.6609 -0.3058
 8672SOL    HW237653   3.599   1.434  16.862 -0.1989 -1.2826 -2.2570
 8673SOL     OW37654   3.631   4.044   5.899  0.0774  0.3421  0.0921
 8673SOL    HW137655   3.629   4.007   5.811 -0.2421  2.4053 -0.7716
 8673SOL    HW237656   3.597   4.133   5.893 -0.3178  0.2255  0.6094
 8674SOL     OW37657   0.415   4.354   6.145 -0.2802  0.2703  0.1481
 8674SOL    HW137658   0.481   4.336   6.212  1.6578  0.2940 -1.7513
 8674SOL    HW237659   0.466   4.327   6.068 -2.6821 -1.1198 -0.9576
 8675SOL     OW37660   3.009   0.579  17.585 -0.4014  0.3260 -0.6395
 8675SOL    HW137661   3.027   0.504  17.528  0.3421  0.3131 -0.3863
 8675SOL    HW237662   3.080   0.571  17.649 -0.6079  1.5404 -0.2621
 8676SOL     OW37663   4.175   3.773  17.701 -0.1062  0.1593 -0.1344
 8676SOL    HW137664   4.088   3.733  17.704  0.9620 -2.1116  0.1986
 8676SOL    HW237665   4.163   3.868  17.692  1.3797  0.4465  0.8064
 8677SOL     OW37666   4.170   3.350   4.490 -0.1664  0.2473 -0.0477
 8677SOL    HW137667   4.152   3.289   4.418 -2.6688  1.6509 -0.6027
 8677SOL    HW237668   4.229   3.297   4.545 -1.7164 -0.4007  0.9957
 8678SOL     OW37669   2.665   2.065   0.601 -0.0380 -0.2438 -0.5299
 8678SOL    HW137670   2.669   2.151   0.559  0.2645 -0.6053 -1.2451
 8678SOL    HW237671   2.586   2.061   0.654 -0.0663  1.0274 -0.4652
 8679SOL     OW37672   4.136   3.235  13.838  0.6020 -0.3754  0.0082
 8679SOL    HW137673   4.079   3.262  13.910 -0.4536  1.7575 -1.6074
 8679SOL    HW237674   4.069   3.177  13.801  1.4192 -0.2738 -1.6288
 8680SOL     OW37675   1.153   1.782   7.340 -0.7397 -0.5134 -0.2129
 8680SOL    HW137676   1.068   1.823   7.354  0.8347  2.7958 -0.5547
 8680SOL    HW237677   1.209   1.846   7.384 -2.3044 -0.6561  1.9916
 8681SOL     OW37678   2.178   0.406   9.768  0.1112 -0.0413 -0.0485
 8681SOL    HW137679   2.217   0.489   9.795 -0.0063  0.0490 -0.1527
 8681SOL    HW237680   2.084   0.422   9.762  0.0167 -0.7955 -0.5688
 8682SOL     OW37681   3.117   1.051   6.728 -0.4591 -0.4132 -0.1677
 8682SOL    HW137682   3.122   1.056   6.633  0.9260  1.2921 -0.0220
 8682SOL    HW237683   3.208   1.077   6.743 -0.9257  1.0529  0.1325
 8683SOL     OW37684   2.075   4.457  12.030 -0.5920 -0.4671  0.2078
 8683SOL    HW137685   2.081   4.514  12.106 -0.7010  0.9060 -0.8158
 8683SOL    HW237686   2.061   4.376  12.078 -0.1836  0.0303  1.1619
 8684SOL     OW37687   2.754   4.098   6.896  0.5488  0.3428 -0.1081
 8684SOL    HW137688   2.848   4.096   6.915  0.1038  0.4169  2.1729
 8684SOL    HW237689   2.744   4.171   6.836 -0.3782 -0.2095 -0.6146
 8685SOL     OW37690   2.282   0.134   7.404 -0.2877 -0.1837 -0.4293
 8685SOL    HW137691   2.239   0.192   7.466  0.1360 -1.2581  0.8726
 8685SOL    HW237692   2.255   0.055   7.450  0.4574 -0.9719 -1.3287
 8686SOL     OW37693   0.416   2.476  10.386 -0.0325 -0.2619 -0.0420
 8686SOL    HW137694   0.335   2.477  10.334 -0.7459 -1.0086  1.0425
 8686SOL    HW237695   0.440   2.384  10.401  1.6760 -0.0883 -1.7366
 8687SOL     OW37696   0.019   1.210   3.996  0.2997 -0.0960  0.2211
 8687SOL    HW137697   4.704   1.210   4.073 -0.6271  0.7185 -0.4359
 8687SOL    HW237698   0.105   1.207   4.038  1.1424 -1.1326 -1.5533
 8688SOL     OW37699   0.214   0.110   9.384 -0.5058  0.4716 -0.2365
 8688SOL    HW137700   0.221   0.137   9.476  0.4218  1.7159 -0.6791
 8688SOL    HW237701   0.150   0.170   9.347  0.8534 -0.4046 -3.9557
 8689SOL     OW37702   1.589   2.123   3.466 -0.4044 -0.1494  0.4796
 8689SOL    HW137703   1.562   2.215   3.468 -0.4221 -0.1571  0.6262
 8689SOL    HW237704   1.503   2.083   3.479 -1.0708  0.7968 -0.9566
 8690SOL     OW37705   2.113   1.095   4.439 -0.0641 -0.3150 -0.1026
 8690SOL    HW137706   2.056   1.171   4.449 -0.4662 -0.5581 -0.5519
 8690SOL    HW237707   2.073   1.041   4.371 -0.0948  2.4317 -2.3049
 8691SOL     OW37708   2.531   4.401   5.257  0.2014  0.7628 -0.7335
 8691SOL    HW137709   2.520   4.479   5.203 -1.2787  0.2420 -1.1835
 8691SOL    HW237710   2.557   4.446   5.337  0.7335 -0.3909 -0.2537
 8692SOL     OW37711   0.179   1.041   9.311  0.6815  0.1440 -0.3144
 8692SOL    HW137712   0.273   1.031   9.324  0.3990 -1.9402  0.1541
 8692SOL    HW237713   0.138   1.026   9.396  0.8209 -0.5796 -0.3799
 8693SOL     OW37714   0.194   3.735  11.736 -0.0567 -0.1016  0.2586
 8693SOL    HW137715   0.246   3.771  11.664  1.1487 -3.2705 -0.4700
 8693SOL    HW237716   0.189   3.810  11.795 -0.5981  0.4462 -0.4865
 8694SOL     OW37717   2.242   4.585   3.891  0.5186 -0.2727  0.0484
 8694SOL    HW137718   2.184   4.647   3.935  0.0790 -0.0877 -0.7841
 8694SOL    HW237719   2.322   4.579   3.943  1.0566  2.5012 -0.4289
 8695SOL     OW37720   4.494   0.797   1.506  0.1842  0.5138 -0.0431
 8695SOL    HW137721   4.539   0.854   1.443  0.2378  0.4335 -0.0775
 8695SOL    HW237722   4.472   0.859   1.576 -0.5318 -0.2604  0.4122
 8696SOL     OW37723   0.822   2.304  14.473  0.1783  0.0642 -0.2049
 8696SOL    HW137724   0.774   2.387  14.476 -0.6563 -0.4657  1.1773
 8696SOL    HW237725   0.911   2.330  14.500  0.4020  0.8452 -1.7186
 8697SOL     OW37726   3.049   1.043   3.249 -0.8636  0.4964 -0.1949
 8697SOL    HW137727   3.137   1.026   3.215 -0.4708  0.2009  0.9526
 8697SOL    HW237728   2.993   1.050   3.172 -0.9167  0.2653 -0.1781
 8698SOL     OW37729   2.910   1.394   8.483  0.0424  0.2233  0.0192
 8698SOL    HW137730   2.890   1.400   8.390  1.3517  0.8657 -0.2192
 8698SOL    HW237731   2.946   1.305   8.483 -1.6741 -0.4738 -0.8604
 8699SOL     OW37732   1.886   1.830   7.235  0.0098 -0.2960 -0.1949
 8699SOL    HW137733   1.917   1.906   7.284 -2.6489  0.2016  0.7193
 8699SOL    HW237734   1.957   1.767   7.223 -0.2967 -0.7417  0.4065
 8700SOL     OW37735   4.737   2.400   8.707 -0.4101 -0.5896 -0.3623
 8700SOL    HW137736   0.089   2.383   8.685 -0.1684  0.3226 -0.0541
 8700SOL    HW237737   4.701   2.391   8.619 -0.2528 -2.2424 -0.2545
 8701SOL     OW37738   1.109   3.221   0.020  0.5293 -0.2069  0.3181
 8701SOL    HW137739   1.175   3.290   0.008  0.7086 -0.4033  0.1734
 8701SOL    HW237740   1.039   3.280   0.049 -1.5541 -2.0095 -1.0563
 8702SOL     OW37741   2.068   2.078   2.266  0.2927 -0.0341  0.2549
 8702SOL    HW137742   2.116   2.006   2.225  0.2563 -0.4749  0.9830
 8702SOL    HW237743   2.116   2.071   2.349  1.6025 -1.6837 -0.6416
 8703SOL     OW37744   2.202   3.037   5.132  0.0304  0.0835  0.3802
 8703SOL    HW137745   2.244   3.025   5.046  2.0644  0.0101  1.3748
 8703SOL    HW237746   2.145   3.111   5.111 -0.9331 -0.7322  0.1063
 8704SOL     OW37747   4.420   4.692  10.702  0.4421  0.2639 -0.2165
 8704SOL    HW137748   4.457   4.648  10.627  1.0078  1.0806 -0.4211
 8704SOL    HW237749   4.454   0.042  10.703  0.5409  0.2018  1.9602
 8705SOL     OW37750   3.464   0.643   6.365  0.0439  0.6435 -0.0536
 8705SOL    HW137751   3.443   0.605   6.279 -1.1028  2.7136 -0.6882
 8705SOL    HW237752   3.485   0.567   6.418 -0.3103 -0.2596 -1.2033
 8706SOL     OW37753   0.003   3.398   0.214  0.4531 -0.0379 -0.4342
 8706SOL    HW137754   0.007   3.492   0.196 -0.6490  0.0342 -0.3092
 8706SOL    HW237755   4.649   3.386   0.225  0.5192 -0.9601 -0.8670
 8707SOL     OW37756   2.158   1.693  10.831  0.3498  0.6108  0.1723
 8707SOL    HW137757   2.144   1.773  10.882 -0.0414  0.9110 -0.4013
 8707SOL    HW237758   2.254   1.696  10.831  0.4867 -3.9861  1.1409
 8708SOL     OW37759   2.907   3.938   7.135 -0.0314 -0.3423 -0.2211
 8708SOL    HW137760   2.997   3.966   7.117 -0.0891  0.4010  0.6553
 8708SOL    HW237761   2.915   3.843   7.121 -0.3754 -0.0993 -2.1473
 8709SOL     OW37762   1.662   0.854   7.757  0.3569  0.2584 -0.5834
 8709SOL    HW137763   1.595   0.875   7.822  0.2194  0.5591 -0.8253
 8709SOL    HW237764   1.747   0.876   7.797 -0.0823 -2.6785  1.9750
 8710SOL     OW37765   1.447   0.235   1.995  0.1151 -1.1051 -0.8768
 8710SOL    HW137766   1.351   0.229   1.996  0.1896 -2.0667  0.3701
 8710SOL    HW237767   1.449   0.246   1.900 -1.9734  0.1899 -0.7731
 8711SOL     OW37768   3.875   3.420   7.062  0.1493 -0.4844 -0.6164
 8711SOL    HW137769   3.928   3.391   7.137  0.5365  0.3737 -0.5546
 8711SOL    HW237770   3.797   3.365   7.067  0.6672 -1.2270 -0.8014
 8712SOL     OW37771   0.375   4.526   6.737  0.1814  0.0272  0.4710
 8712SOL    HW137772   0.346   4.529   6.829 -1.9791  1.5658 -0.2580
 8712SOL    HW237773   0.465   4.556   6.751  1.2568 -3.1367  0.3566
 8713SOL     OW37774   3.998   0.056   2.527  0.2578  0.1795 -0.1914
 8713SOL    HW137775   3.904   0.046   2.511 -0.0679  2.4847  0.2408
 8713SOL    HW237776   4.034   0.089   2.445  0.2724  2.6773  0.8320
 8714SOL     OW37777   1.296   3.980   1.445 -0.0480 -0.2196  0.3757
 8714SOL    HW137778   1.213   4.006   1.405  0.5939  0.3006 -0.6142
 8714SOL    HW237779   1.282   4.004   1.537  0.5492  3.5923 -0.5055
 8715SOL     OW37780   3.995   1.035  16.030 -0.0359 -0.1976  0.2344
 8715SOL    HW137781   3.925   1.086  15.990  0.6829  0.3661 -0.3068
 8715SOL    HW237782   4.061   1.055  15.963  0.5895 -0.3901  0.7970
 8716SOL     OW37783   4.594   2.671   3.772 -0.2966 -0.0462 -0.0934
 8716SOL    HW137784   4.629   2.611   3.838 -0.5632 -0.4783 -0.3547
 8716SOL    HW237785   4.546   2.604   3.725  1.2468 -0.9581 -0.3878
 8717SOL     OW37786   2.949   2.478  10.763  0.5176 -0.3752  0.2102
 8717SOL    HW137787   3.038   2.505  10.742  0.7875 -0.5459  1.1575
 8717SOL    HW237788   2.923   2.553  10.816  0.1703 -1.2040  1.2058
 8718SOL     OW37789   2.906   1.440   5.476  0.3152  0.2631  0.4755
 8718SOL    HW137790   2.980   1.500   5.472  0.8710 -0.4987 -0.8417
 8718SOL    HW237791   2.898   1.409   5.566  0.7067  1.1323  0.8030
 8719SOL     OW37792   2.673   4.739   6.529  0.1547  0.1132 -0.0401
 8719SOL    HW137793   2.702   0.041   6.610 -0.3013  1.6164 -0.6661
 8719SOL    HW237794   2.592   4.694   6.556 -0.8919  2.0465  0.0295
 8720SOL     OW37795   1.201   2.357   7.500  0.0684 -0.1706  0.2571
 8720SOL    HW137796   1.220   2.290   7.566  1.1899 -0.7036 -0.6153
 8720SOL    HW237797   1.208   2.437   7.553 -0.7751 -0.1520  0.3434
 8721SOL     OW37798   2.603   0.629   5.708  0.1044 -0.2081 -0.1843
 8721SOL    HW137799   2.591   0.582   5.790 -0.5317 -0.7640 -0.5915
 8721SOL    HW237800   2.514   0.643   5.674  0.7205 -0.4748 -1.9223
 8722SOL     OW37801   0.246   0.461   4.630 -0.5923 -0.1127  0.0593
 8722SOL    HW137802   0.159   0.428   4.612 -0.7048  0.4919 -0.4977
 8722SOL    HW237803   0.244   0.554   4.608  0.8372  0.0234  0.4777
 8723SOL     OW37804   2.398   2.761  11.131  0.4540 -0.6185 -0.1003
 8723SOL    HW137805   2.480   2.756  11.180  0.0138  0.5421  0.7528
 8723SOL    HW237806   2.384   2.667  11.115 -1.0711 -0.4801  0.4088
 8724SOL     OW37807   2.491   2.937   3.330 -0.5513  0.2550 -0.8455
 8724SOL    HW137808   2.410   2.986   3.345  0.0194  1.1891 -0.8578
 8724SOL    HW237809   2.485   2.884   3.410 -1.2951 -1.8342 -2.2830
 8725SOL     OW37810   3.593   3.216  11.807  0.0979 -0.2322 -0.6457
 8725SOL    HW137811   3.672   3.251  11.848 -0.9944 -0.1449  1.3821
 8725SOL    HW237812   3.620   3.231  11.716  0.2690  1.7651 -0.2755
 8726SOL     OW37813   0.802   4.480   7.083 -0.3047  0.5546  0.8964
 8726SOL    HW137814   0.740   4.437   7.142  0.8909 -1.5578  0.6373
 8726SOL    HW237815   0.879   4.423   7.088 -1.5577 -1.2030  0.4334
 8727SOL     OW37816   2.229   3.693  11.604  0.3538  0.6046 -0.4362
 8727SOL    HW137817   2.301   3.740  11.563  1.4579  1.4248  2.4065
 8727SOL    HW237818   2.181   3.676  11.523  2.2190 -3.3440 -0.7396
 8728SOL     OW37819   1.549   3.418   2.841  0.1442  0.0256  0.5473
 8728SOL    HW137820   1.579   3.365   2.767  0.6536  0.5097  0.4072
 8728SOL    HW237821   1.475   3.468   2.808  0.7844  0.3314 -0.4592
 8729SOL     OW37822   3.440   2.617  14.434  0.5190 -0.1032  0.2889
 8729SOL    HW137823   3.430   2.559  14.510  1.5283 -1.2878 -0.4732
 8729SOL    HW237824   3.355   2.612  14.390 -0.1180  1.7378  1.3297
 8730SOL     OW37825   1.633   3.654   3.015 -0.3149  0.5134 -0.4174
 8730SOL    HW137826   1.581   3.601   3.075  0.6739  1.0168  0.8653
 8730SOL    HW237827   1.651   3.593   2.943 -1.3591 -0.2848 -0.0031
 8731SOL     OW37828   1.706   0.373   6.561  0.1492  0.0144 -0.0376
 8731SOL    HW137829   1.620   0.335   6.579  1.2215 -1.7755  1.3462
 8731SOL    HW237830   1.687   0.435   6.490  1.4436  2.4272  1.7409
 8732SOL     OW37831   2.419   4.570  12.330 -0.0674  0.2334 -0.0904
 8732SOL    HW137832   2.453   4.543  12.416 -1.1044 -0.7614 -0.0000
 8732SOL    HW237833   2.448   4.661  12.337 -0.4445  0.3808 -0.4961
 8733SOL     OW37834   0.440   4.073  13.033  0.0003 -0.1402 -0.0854
 8733SOL    HW137835   0.459   4.004  13.097 -1.0200  0.0896  0.4500
 8733SOL    HW237836   0.354   4.102  13.063  0.7917  0.5003  1.5420
 8734SOL     OW37837   2.215   4.539  12.713 -0.3742 -0.3208 -0.3251
 8734SOL    HW137838   2.152   4.593  12.665 -1.4153 -0.3847  0.9412
 8734SOL    HW237839   2.156   4.479  12.759 -0.1555  0.4520  0.9627
 8735SOL     OW37840   3.582   3.494  15.468 -0.2189  0.2756  0.4222
 8735SOL    HW137841   3.594   3.587  15.450  1.4539  0.5678  3.0420
 8735SOL    HW237842   3.672   3.461  15.459 -0.2408  0.1939  0.4974
 8736SOL     OW37843   3.118   2.018   6.544 -0.0497 -0.5245  0.1451
 8736SOL    HW137844   3.105   2.072   6.466 -1.2749  0.5763  1.0981
 8736SOL    HW237845   3.066   2.065   6.609 -0.2171 -0.7323  0.1632
 8737SOL     OW37846   0.821   4.571  11.633 -0.0707 -0.1971 -0.0116
 8737SOL    HW137847   0.859   4.491  11.671  2.1853  0.8465 -0.0739
 8737SOL    HW237848   0.784   4.607  11.714  0.4748 -0.7228  0.4780
 8738SOL     OW37849   4.575   4.443  12.546  0.6836 -0.3164 -0.1435
 8738SOL    HW137850   4.622   4.499  12.608 -0.6982 -0.4555  1.0171
 8738SOL    HW237851   4.497   4.422  12.597  0.4280  3.3588  1.0142
 8739SOL     OW37852   2.921   3.133   0.437  0.4533 -0.0685  0.3905
 8739SOL    HW137853   2.977   3.058   0.415  0.6021  0.9822 -2.7621
 8739SOL    HW237854   2.875   3.142   0.354 -0.3508  2.0997  1.0711
 8740SOL     OW37855   4.482   1.884   0.595 -0.1537 -0.1322  0.6635
 8740SOL    HW137856   4.517   1.959   0.547  0.5489 -0.0706  1.2624
 8740SOL    HW237857   4.471   1.924   0.682  1.5091  0.8888  0.4138
 8741SOL     OW37858   2.501   4.497  12.623  0.1366  0.8335  0.0711
 8741SOL    HW137859   2.408   4.519  12.628 -0.2691 -1.1542  0.9864
 8741SOL    HW237860   2.510   4.427  12.687  0.5534  0.0364 -0.8592
 8742SOL     OW37861   1.763   2.706   3.980  0.2916  0.1703 -0.4269
 8742SOL    HW137862   1.827   2.751   4.034  2.2929 -3.5091  0.2182
 8742SOL    HW237863   1.718   2.650   4.043  2.6739 -0.3035  0.8135
 8743SOL     OW37864   3.239   4.108   3.368  0.0076 -0.4283 -0.2130
 8743SOL    HW137865   3.209   4.197   3.347 -1.0830 -1.3943 -2.7440
 8743SOL    HW237866   3.270   4.122   3.457  1.3341 -0.8949 -0.5894
 8744SOL     OW37867   1.007   4.007   9.240 -0.1338  0.0769 -1.0150
 8744SOL    HW137868   0.944   3.966   9.299 -0.4785  1.0512 -0.7053
 8744SOL    HW237869   0.994   4.101   9.254  0.0499 -0.4083  2.4872
 8745SOL     OW37870   1.932   0.122   4.254 -0.4677 -0.3056  0.6155
 8745SOL    HW137871   1.900   0.212   4.258  1.7616  0.4943  0.2233
 8745SOL    HW237872   1.854   0.068   4.240 -0.4951 -0.1170  0.0396
 8746SOL     OW37873   1.948   4.148  11.318 -0.5425  0.3488  0.0823
 8746SOL    HW137874   2.029   4.096  11.326 -0.1689  0.5260 -2.3612
 8746SOL    HW237875   1.880   4.084  11.337  0.0175 -0.2775 -0.0149
 8747SOL     OW37876   4.683   0.986   8.232 -0.2067 -0.4561  0.1315
 8747SOL    HW137877   4.652   1.062   8.183  1.0360 -1.4559 -2.1840
 8747SOL    HW237878   4.640   0.998   8.317 -3.1754 -0.5183 -1.3756
 8748SOL     OW37879   3.540   0.735   2.926 -0.2184 -0.6984 -0.2279
 8748SOL    HW137880   3.451   0.706   2.943 -1.0169  1.8769  0.0771
 8748SOL    HW237881   3.546   0.813   2.982 -0.4340 -1.8339  1.3921
 8749SOL     OW37882   1.522   3.922  15.550  0.3901 -0.4137  0.0876
 8749SOL    HW137883   1.462   3.862  15.506 -1.7169  3.4029 -2.2084
 8749SOL    HW237884   1.485   3.909  15.638 -0.7109 -0.8537 -0.4372
 8750SOL     OW37885   1.623   0.608   4.019 -0.0449 -0.5067 -0.8226
 8750SOL    HW137886   1.699   0.658   4.050  0.1109 -0.4365 -1.3300
 8750SOL    HW237887   1.620   0.639   3.929 -0.0494  2.6132  0.2187
 8751SOL     OW37888   3.877   3.575  12.673 -0.2724 -0.5156 -0.3323
 8751SOL    HW137889   3.862   3.631  12.748 -0.3494  0.6515 -1.2154
 8751SOL    HW237890   3.949   3.515  12.689  0.9667  0.8660 -0.7200
 8752SOL     OW37891   3.769   2.581   3.996 -0.2634 -0.0183  0.3799
 8752SOL    HW137892   3.748   2.674   3.987  1.3598  0.3175  0.0231
 8752SOL    HW237893   3.817   2.573   3.913 -1.1391  0.5233 -0.1701
 8753SOL     OW37894   3.605   3.281   5.072 -0.2102 -0.0488 -0.2503
 8753SOL    HW137895   3.656   3.251   4.997 -1.0587 -0.3074 -0.7291
 8753SOL    HW237896   3.522   3.287   5.024  0.8774 -1.5076 -2.3127
 8754SOL     OW37897   2.504   3.050   4.680  0.6864 -0.3967  0.7634
 8754SOL    HW137898   2.490   3.144   4.675 -0.1182 -0.6207 -0.9578
 8754SOL    HW237899   2.572   3.032   4.616  0.7638  0.3368  0.6452
 8755SOL     OW37900   2.583   3.094  13.938 -0.3425 -0.0794  0.2528
 8755SOL    HW137901   2.575   3.170  13.995  1.3079 -0.2543  0.7072
 8755SOL    HW237902   2.660   3.044  13.965 -0.4564 -0.8515 -0.8437
 8756SOL     OW37903   0.954   2.985   0.036 -0.4654 -0.0290  0.0522
 8756SOL    HW137904   0.928   3.071   0.005  0.3534  0.2511  0.1403
 8756SOL    HW237905   1.049   2.996   0.028 -0.3368  0.8700  3.0903
 8757SOL     OW37906   2.643   0.292   9.953  0.2435  0.1728 -0.1944
 8757SOL    HW137907   2.727   0.257   9.926 -0.3484 -1.3443 -0.0833
 8757SOL    HW237908   2.580   0.226   9.923  0.1810  0.7855 -1.3838
 8758SOL     OW37909   1.613   1.269   2.654  0.5090  0.4179  0.2455
 8758SOL    HW137910   1.610   1.259   2.559 -2.7503 -0.3716  0.4372
 8758SOL    HW237911   1.668   1.347   2.660  1.2342 -0.1093  0.5160
 8759SOL     OW37912   0.460   4.328   7.887  0.2594 -0.3171  0.8701
 8759SOL    HW137913   0.502   4.388   7.949  0.5299  1.0257 -0.6256
 8759SOL    HW237914   0.407   4.275   7.947 -0.2015 -0.0571  0.6883
 8760SOL     OW37915   1.815   3.949   3.901  0.4611  0.3783  0.5173
 8760SOL    HW137916   1.785   3.958   3.991 -0.1148 -2.8420  0.6464
 8760SOL    HW237917   1.784   4.027   3.855  2.0715  1.1607  0.7433
 8761SOL     OW37918   3.306   3.746   4.640  0.5766  0.2682 -0.0333
 8761SOL    HW137919   3.333   3.715   4.726  2.7480 -1.5862 -1.3465
 8761SOL    HW237920   3.218   3.711   4.626  0.1155  1.0119  1.0319
 8762SOL     OW37921   1.631   2.177   9.366  0.1504 -0.9137 -0.0862
 8762SOL    HW137922   1.655   2.089   9.337 -1.8983 -1.8331  1.0469
 8762SOL    HW237923   1.542   2.163   9.397 -0.3113  0.7264 -0.6652
 8763SOL     OW37924   0.670   0.180   6.964 -0.0121 -0.4871 -0.2701
 8763SOL    HW137925   0.687   0.093   6.927 -1.1523 -1.0062  0.4194
 8763SOL    HW237926   0.758   0.205   6.989 -0.0607 -1.0380  0.4537
 8764SOL     OW37927   4.405   3.137  17.565  0.3590 -0.2070  0.4258
 8764SOL    HW137928   4.471   3.173  17.624 -0.3183  0.2046  0.9232
 8764SOL    HW237929   4.357   3.071  17.615  2.1373 -0.6824  1.5180
 8765SOL     OW37930   1.390   3.450   4.948  0.8687  0.0295  0.1683
 8765SOL    HW137931   1.317   3.507   4.973  0.9210  0.1992 -0.0718
 8765SOL    HW237932   1.427   3.436   5.035 -0.6494 -3.1063  0.3112
 8766SOL     OW37933   2.671   0.997   2.377 -0.1403 -0.0556  0.1138
 8766SOL    HW137934   2.725   1.036   2.308 -0.2515  0.0004  0.0589
 8766SOL    HW237935   2.730   1.004   2.452 -2.1512 -1.1239  1.7890
 8767SOL     OW37936   1.875   1.572   2.029 -0.7180 -0.0450 -0.0972
 8767SOL    HW137937   1.937   1.636   2.064 -0.0524 -1.1186  0.6985
 8767SOL    HW237938   1.794   1.597   2.073 -0.3123 -0.2567  0.7696
 8768SOL     OW37939   2.032   1.425  14.788  0.3631 -0.4430  0.2040
 8768SOL    HW137940   2.094   1.455  14.855  0.5200 -0.5435  0.1028
 8768SOL    HW237941   2.059   1.474  14.711 -0.9788  1.0948  0.6993
 8769SOL     OW37942   3.863   2.812   7.094  0.4867 -0.0079  0.3922
 8769SOL    HW137943   3.921   2.739   7.070  0.4881  0.4966 -1.1193
 8769SOL    HW237944   3.932   2.876   7.114  0.9983 -0.1773 -0.8348
 8770SOL     OW37945   0.102   4.149   3.035 -0.4236  0.0648  0.0148
 8770SOL    HW137946   0.124   4.233   2.995 -0.5797 -0.3469 -0.9328
 8770SOL    HW237947   0.009   4.137   3.015 -0.2286 -0.9914 -0.2318
 8771SOL     OW37948   4.445   3.242   0.325 -0.1702  0.1497  0.4239
 8771SOL    HW137949   4.412   3.313   0.380 -2.3504 -0.3695 -0.1874
 8771SOL    HW237950   4.430   3.170   0.387 -0.7684 -1.3447 -1.4490
 8772SOL     OW37951   4.354   0.826  14.774  0.1353 -0.4745 -0.4548
 8772SOL    HW137952   4.306   0.835  14.692 -0.4999 -2.1314 -0.2642
 8772SOL    HW237953   4.315   0.751  14.818  1.4239 -0.4673  0.6873
 8773SOL     OW37954   2.822   4.281   2.658 -0.2963  0.4884  0.2086
 8773SOL    HW137955   2.823   4.321   2.745 -0.0886  0.8078  0.0576
 8773SOL    HW237956   2.860   4.353   2.608  0.3744 -0.7316 -1.0226
 8774SOL     OW37957   3.629   2.393   8.348 -0.5878 -0.3783 -0.6322
 8774SOL    HW137958   3.720   2.410   8.323  0.0110 -0.1819  1.6475
 8774SOL    HW237959   3.643   2.326   8.415  1.9005 -0.5703 -1.3427
 8775SOL     OW37960   1.746   1.988  10.259  0.2411 -0.1073  0.5140
 8775SOL    HW137961   1.829   1.942  10.275 -0.6673 -1.9136 -0.0226
 8775SOL    HW237962   1.731   1.974  10.165  0.8152 -0.1573  0.4237
 8776SOL     OW37963   2.742   3.681   7.620 -0.2775 -0.4801 -0.0663
 8776SOL    HW137964   2.804   3.631   7.672 -1.6884  0.7858  2.8630
 8776SOL    HW237965   2.797   3.758   7.605 -0.8906 -0.2268 -1.0401
 8777SOL     OW37966   4.646   1.189   7.441 -0.1124 -0.0710  0.8012
 8777SOL    HW137967   4.657   1.282   7.460 -0.1414  0.9053 -3.8276
 8777SOL    HW237968   4.735   1.171   7.410 -0.4558 -0.3041 -0.0650
 8778SOL     OW37969   1.699   0.037   4.096  0.5006 -0.0124  0.1117
 8778SOL    HW137970   1.655   4.708   4.146 -2.6935  3.1515  1.6596
 8778SOL    HW237971   1.710   4.736   4.011 -0.5157 -0.5827  0.2580
 8779SOL     OW37972   1.475   3.372   1.561 -0.2101 -0.0988 -0.2916
 8779SOL    HW137973   1.566   3.384   1.534 -0.1191  1.1100  0.5413
 8779SOL    HW237974   1.424   3.388   1.482  2.0250  3.0782 -1.0654
 8780SOL     OW37975   3.088   1.026   3.712 -0.1568 -0.0785 -0.1485
 8780SOL    HW137976   3.139   0.955   3.673 -0.1021  0.6062 -1.3266
 8780SOL    HW237977   3.147   1.054   3.782 -1.5538  1.0026  0.5852
 8781SOL     OW37978   2.453   3.738   4.844 -0.2403 -0.1751 -0.5409
 8781SOL    HW137979   2.461   3.734   4.749  1.7201  1.5523 -0.4513
 8781SOL    HW237980   2.494   3.823   4.861  2.4409 -1.4432 -0.5693
 8782SOL     OW37981   0.396   2.210   4.972 -0.0425 -0.0769 -0.0236
 8782SOL    HW137982   0.356   2.297   4.970  2.9259  1.3072 -0.1748
 8782SOL    HW237983   0.326   2.149   4.950  0.6855 -0.9360  0.0369
 8783SOL     OW37984   3.361   3.188  11.962  0.2442  0.2718 -0.1559
 8783SOL    HW137985   3.448   3.167  11.929  0.5328  1.2111 -0.0062
 8783SOL    HW237986   3.309   3.120  11.920  1.8461 -0.9284 -0.1675
 8784SOL     OW37987   1.519   3.545  15.797 -0.3994 -0.8143 -0.3621
 8784SOL    HW137988   1.498   3.486  15.870 -1.3326 -1.5857 -1.2520
 8784SOL    HW237989   1.531   3.627  15.844  0.2243 -0.7862 -0.5770
 8785SOL     OW37990   0.885   3.654   3.532 -0.2612 -0.2563  0.6932
 8785SOL    HW137991   0.900   3.589   3.463 -2.2990  1.4288 -1.3549
 8785SOL    HW237992   0.957   3.642   3.593 -0.2426 -0.3529  0.6511
 8786SOL     OW37993   2.163   4.560   6.695  0.1834  0.1324  0.0983
 8786SOL    HW137994   2.132   4.643   6.659  1.3269  0.7353  0.5106
 8786SOL    HW237995   2.232   4.599   6.750  1.9900 -0.1403 -2.0146
 8787SOL     OW37996   0.560   4.698   9.620 -0.2601 -0.0213  0.2004
 8787SOL    HW137997   0.548   0.052   9.637 -0.4296  0.3745 -2.0583
 8787SOL    HW237998   0.522   4.666   9.701  1.3408  0.6416  1.2289
 8788SOL     OW37999   3.309   3.066   3.495  0.5986  0.1111 -0.3358
 8788SOL    HW138000   3.313   3.136   3.561 -3.3543  1.1605 -1.1776
 8788SOL    HW238001   3.392   3.077   3.450  1.0756  2.4530  1.0898
 8789SOL     OW38002   0.921   4.371   5.024 -0.3152  0.2702  0.0231
 8789SOL    HW138003   0.850   4.360   5.087 -0.1288  0.0041  0.1866
 8789SOL    HW238004   0.991   4.313   5.056 -1.7048 -2.0556 -1.1359
 8790SOL     OW38005   2.004   4.326   4.341  0.0628 -0.5306  0.3091
 8790SOL    HW138006   1.926   4.300   4.293  0.8576 -0.4046 -1.0289
 8790SOL    HW238007   2.008   4.251   4.400 -2.2980  0.4654  1.7232
 8791SOL     OW38008   1.776   0.387   8.532  0.1177 -0.0022  0.5556
 8791SOL    HW138009   1.684   0.398   8.509  0.2357  2.5236  1.2664
 8791SOL    HW238010   1.768   0.412   8.624  1.6925 -0.1546  0.7250
 8792SOL     OW38011   3.951   1.999   7.573 -0.7257  0.3795 -0.3826
 8792SOL    HW138012   4.025   2.018   7.516 -0.6903 -1.7864 -1.0832
 8792SOL    HW238013   3.950   1.903   7.574  2.6219  0.4085  4.8511
 8793SOL     OW38014   3.714   2.125   3.561  0.0925  0.4740  0.4351
 8793SOL    HW138015   3.681   2.213   3.547 -2.6116 -0.6342 -0.2922
 8793SOL    HW238016   3.648   2.078   3.508  0.4657 -0.6837  0.9929
 8794SOL     OW38017   2.599   2.129   9.140 -0.2585 -0.2916 -0.4081
 8794SOL    HW138018   2.548   2.159   9.215  0.0514  1.3473 -0.8393
 8794SOL    HW238019   2.651   2.056   9.174  1.2554 -0.5711 -3.3341
 8795SOL     OW38020   1.493   1.261   4.479 -0.2188 -0.6109  0.0032
 8795SOL    HW138021   1.519   1.169   4.475 -0.9288 -0.8395  0.5987
 8795SOL    HW238022   1.479   1.268   4.573 -1.5075 -0.6005 -0.1783
 8796SOL     OW38023   1.610   3.701  11.047  0.3348  0.1102  0.4026
 8796SOL    HW138024   1.662   3.770  11.006  1.3318 -0.6779  0.3392
 8796SOL    HW238025   1.525   3.733  11.019  0.6870 -0.2150 -1.0562
 8797SOL     OW38026   0.451   2.137   8.800 -0.1658  0.0657  0.2608
 8797SOL    HW138027   0.485   2.049   8.814 -0.1325  0.2071  1.0777
 8797SOL    HW238028   0.523   2.181   8.845  0.4505 -0.9901  0.3194
 8798SOL     OW38029   3.768   3.720   7.483  0.6765  0.2281 -0.6791
 8798SOL    HW138030   3.843   3.660   7.484  0.7883  0.3648 -0.7867
 8798SOL    HW238031   3.718   3.691   7.559  1.5650 -0.8991 -0.5148
 8799SOL     OW38032   0.544   3.865   8.192  0.4825 -0.0404  0.0727
 8799SOL    HW138033   0.534   3.941   8.250  2.7500  1.4481 -1.4756
 8799SOL    HW238034   0.512   3.903   8.111  2.0045  1.1402  0.0246
 8800SOL     OW38035   3.316   3.578   5.193 -0.5124 -0.5693  0.3947
 8800SOL    HW138036   3.292   3.668   5.218  1.0892 -0.5975  2.0089
 8800SOL    HW238037   3.235   3.530   5.210 -0.6229 -0.0374  1.3526
 8801SOL     OW38038   1.272   0.809   8.944  0.7170 -0.4881  0.5191
 8801SOL    HW138039   1.195   0.792   8.999 -0.8967 -1.6378 -2.0668
 8801SOL    HW238040   1.264   0.745   8.873 -1.8985  0.0851  0.3025
 8802SOL     OW38041   0.628   4.523  14.265  0.0038  0.0730  0.0320
 8802SOL    HW138042   0.688   4.498  14.194 -1.4329  2.6603 -2.0702
 8802SOL    HW238043   0.631   4.618  14.267  1.9468  0.0002  1.1683
 8803SOL     OW38044   0.717   3.045   1.564  0.5724  0.0216 -0.7343
 8803SOL    HW138045   0.647   3.092   1.609  0.8829  0.3342 -0.5800
 8803SOL    HW238046   0.673   2.993   1.495 -0.1083  0.5126 -0.6762
 8804SOL     OW38047   3.371   0.422   2.528  0.2128 -0.0242 -0.1424
 8804SOL    HW138048   3.348   0.486   2.461  1.8057  2.0305  1.2568
 8804SOL    HW238049   3.285   0.382   2.543  0.3929 -0.5056 -0.3808
 8805SOL     OW38050   0.095   2.661  13.721 -0.5192 -0.2390  0.5216
 8805SOL    HW138051   0.011   2.678  13.679 -1.5555 -0.1864  2.6115
 8805SOL    HW238052   0.120   2.753  13.727 -0.2169 -0.1274 -2.2574
 8806SOL     OW38053   2.079   4.194   9.595  0.4987  0.0753  0.1174
 8806SOL    HW138054   2.060   4.249   9.671 -1.8134 -0.7109  0.1136
 8806SOL    HW238055   2.067   4.107   9.633  2.0041  0.0079  0.4587
 8807SOL     OW38056   3.088   0.461  10.909  0.1548  0.3968  0.4468
 8807SOL    HW138057   3.158   0.526  10.917  0.6405 -0.0995  0.2243
 8807SOL    HW238058   3.138   0.399  10.856  0.4686  1.1021 -0.0733
 8808SOL     OW38059   4.597   4.138  11.248 -0.2954  0.4683  0.4531
 8808SOL    HW138060   4.526   4.074  11.258  0.7878 -0.6294  1.0603
 8808SOL    HW238061   4.676   4.087  11.265 -0.6702  0.1141  1.0930
 8809SOL     OW38062   1.693   3.097   6.332  0.2391  0.0219 -0.2646
 8809SOL    HW138063   1.785   3.105   6.356  0.0377 -0.1663  0.5673
 8809SOL    HW238064   1.665   3.008   6.353  0.5874  0.0982  0.5073
 8810SOL     OW38065   0.214   3.554   5.153 -0.0570  0.6520 -0.1605
 8810SOL    HW138066   0.157   3.535   5.079  0.5447 -0.7940 -0.2416
 8810SOL    HW238067   0.163   3.608   5.214 -0.1355  1.6060 -1.0703
 8811SOL     OW38068   4.646   4.223   9.064 -0.4862 -0.1060 -0.1245
 8811SOL    HW138069   4.577   4.163   9.035  1.3853 -1.5039 -1.6691
 8811SOL    HW238070   4.646   4.289   8.995 -0.7676 -1.2812 -1.2636
 8812SOL     OW38071   3.733   0.458   8.432  0.3353 -0.3706  0.2325
 8812SOL    HW138072   3.722   0.365   8.454 -0.6772 -0.3191 -0.0405
 8812SOL    HW238073   3.819   0.494   8.453 -0.2943  1.7948 -0.9257
 8813SOL     OW38074   4.216   1.304  10.809  0.1474 -0.0538  0.9898
 8813SOL    HW138075   4.134   1.255  10.806  0.4169 -0.4565 -0.1139
 8813SOL    HW238076   4.237   1.274  10.898  2.5295 -0.3083  0.3586
 8814SOL     OW38077   1.802   0.737   8.470 -1.0603 -0.1781 -0.5040
 8814SOL    HW138078   1.891   0.761   8.446 -0.2904 -1.0007  1.5393
 8814SOL    HW238079   1.786   0.806   8.534  0.0930 -1.0496  0.7298
 8815SOL     OW38080   0.575   3.640   1.459  0.5017 -0.5260  0.3931
 8815SOL    HW138081   0.670   3.639   1.464  0.5794  2.3920 -0.3442
 8815SOL    HW238082   0.573   3.600   1.372 -1.9049  1.1084 -0.3154
 8816SOL     OW38083   0.952   4.184   8.534 -0.0306 -0.0466  0.1618
 8816SOL    HW138084   0.880   4.206   8.594  0.5843  1.6253  0.3028
 8816SOL    HW238085   0.980   4.094   8.548 -0.4385 -0.0802  0.7732
 8817SOL     OW38086   3.397   0.028  11.141 -0.4502  0.1918 -0.0045
 8817SOL    HW138087   3.308   4.731  11.149 -0.1225 -0.4322  0.7600
 8817SOL    HW238088   3.439   4.695  11.187  0.3241  0.4851 -0.2634
 8818SOL     OW38089   0.996   1.468   4.272  0.5095  0.2917 -0.4551
 8818SOL    HW138090   1.045   1.490   4.351 -1.3198  1.0730  0.4532
 8818SOL    HW238091   1.055   1.504   4.205 -1.4865  1.9146 -1.3521
 8819SOL     OW38092   3.115   1.170   7.801 -0.3684  0.0860  0.3003
 8819SOL    HW138093   3.107   1.100   7.737  1.3360  0.2484 -0.0817
 8819SOL    HW238094   3.178   1.231   7.762 -0.4244 -0.1199 -0.1043
 8820SOL     OW38095   0.904   3.044   4.506  0.4918  0.0758 -0.2677
 8820SOL    HW138096   0.938   3.052   4.595 -0.9032 -0.1531  0.2801
 8820SOL    HW238097   0.857   2.961   4.505 -2.1586  1.5530  0.6354
 8821SOL     OW38098   1.784   2.686   3.121 -0.4510  0.2153  0.1290
 8821SOL    HW138099   1.861   2.689   3.063 -0.5058  0.1685  0.0538
 8821SOL    HW238100   1.730   2.762   3.102 -0.3140 -0.2548 -2.2176
 8822SOL     OW38101   2.081   3.792  11.383 -0.1908  0.1517  0.0014
 8822SOL    HW138102   2.092   3.744  11.301  0.2799  0.5099 -0.1450
 8822SOL    HW238103   2.152   3.855  11.371  1.8698 -2.5072 -1.8755
 8823SOL     OW38104   3.177   1.063   2.307  1.1423  1.1836 -0.0841
 8823SOL    HW138105   3.191   1.067   2.401  2.6384 -3.5323 -0.0963
 8823SOL    HW238106   3.256   1.097   2.266  0.1836  1.5280 -1.6513
 8824SOL     OW38107   0.284   2.585   0.057 -0.0649 -0.6267 -0.1496
 8824SOL    HW138108   0.212   2.547   0.007 -0.7886  0.7366 -0.1432
 8824SOL    HW238109   0.327   2.648  17.758 -1.2967 -0.2698 -0.6895
 8825SOL     OW38110   1.207   0.265  11.935  0.4008  0.0443  0.5655
 8825SOL    HW138111   1.138   0.200  11.918  2.5029 -1.7427 -1.2366
 8825SOL    HW238112   1.187   0.331  11.868  4.3310  2.4054  1.6979
 8826SOL     OW38113   3.366   4.425   0.195  0.5926 -0.1870  0.0239
 8826SOL    HW138114   3.413   4.503   0.166 -2.0501  0.8662 -1.4312
 8826SOL    HW238115   3.433   4.383   0.248  1.0557 -1.5240 -1.5986
 8827SOL     OW38116   1.701   0.965   7.493 -0.1584 -0.1121 -0.0079
 8827SOL    HW138117   1.618   0.992   7.456  0.1509 -0.3849 -0.8957
 8827SOL    HW238118   1.679   0.919   7.574 -1.8241  2.0925  0.7800
 8828SOL     OW38119   4.229   0.108   3.899  1.0734 -0.6916 -0.1029
 8828SOL    HW138120   4.210   0.197   3.867 -1.1912 -1.1414 -0.0400
 8828SOL    HW238121   4.170   0.099   3.974  1.6690 -1.1671  0.2987
 8829SOL     OW38122   3.432   1.606   6.175 -0.5374  0.3750  0.0003
 8829SOL    HW138123   3.389   1.520   6.185 -1.0940  0.6068 -0.4002
 8829SOL    HW238124   3.366   1.661   6.133 -0.0104  2.9819  2.6056
 8830SOL     OW38125   1.090   4.660  12.917  0.3322 -0.1133 -0.6458
 8830SOL    HW138126   1.007   4.689  12.878 -1.2798 -3.0701  0.5804
 8830SOL    HW238127   1.072   4.692  13.005  1.5821  1.6442 -1.0421
 8831SOL     OW38128   3.223   3.605  10.735  0.1114 -0.5340 -0.2334
 8831SOL    HW138129   3.195   3.602  10.827 -0.2926  0.0432 -0.3360
 8831SOL    HW238130   3.162   3.669  10.697 -1.6478 -2.7057 -1.0691
 8832SOL     OW38131   4.504   4.357  14.774 -0.7745  0.0641 -0.0975
 8832SOL    HW138132   4.462   4.339  14.858 -0.6789 -1.5717 -0.4062
 8832SOL    HW238133   4.486   4.278  14.724  0.1854  1.9773 -3.4961
 8833SOL     OW38134   1.781   2.233   2.428 -0.0003  0.5364 -0.1313
 8833SOL    HW138135   1.817   2.283   2.355 -0.4232  1.8980  0.5862
 8833SOL    HW238136   1.688   2.230   2.405 -0.3249  0.2147  1.2169
 8834SOL     OW38137   1.355   3.904   6.873 -0.5956  0.5995 -0.7946
 8834SOL    HW138138   1.420   3.966   6.839  0.0418  0.0494 -0.5745
 8834SOL    HW238139   1.408   3.825   6.885  0.7115  1.6813  0.4577
 8835SOL     OW38140   1.177   0.813  11.444 -0.4797  0.1563 -0.4306
 8835SOL    HW138141   1.103   0.863  11.411  0.3981  0.5770 -1.7554
 8835SOL    HW238142   1.216   0.881  11.500 -2.5497  0.9576  0.0450
 8836SOL     OW38143   2.370   0.122   0.838  0.4263  0.0932  0.0563
 8836SOL    HW138144   2.407   0.205   0.809  0.9613 -0.0586  0.2880
 8836SOL    HW238145   2.379   0.070   0.758 -1.9206 -0.5180  0.2013
 8837SOL     OW38146   1.939   2.035  14.417  0.7197  0.1590 -0.5751
 8837SOL    HW138147   2.002   2.094  14.460 -1.7142  1.2428  1.5259
 8837SOL    HW238148   1.961   2.047  14.325 -2.4739  3.0870 -0.9300
 8838SOL     OW38149   4.038   1.864   1.857 -0.1404  0.3186  0.1347
 8838SOL    HW138150   3.984   1.873   1.936 -1.2284 -1.4199 -0.4050
 8838SOL    HW238151   3.969   1.835   1.797 -1.7269  1.0229  1.6399
 8839SOL     OW38152   2.183   1.020   4.017  0.2167  0.3469  0.2692
 8839SOL    HW138153   2.160   1.019   3.925  2.3977  0.1755 -0.2805
 8839SOL    HW238154   2.271   0.982   4.015 -0.3884 -0.9482 -0.8633
 8840SOL     OW38155   2.051   2.481  15.056 -0.0081  0.0045 -0.4011
 8840SOL    HW138156   2.135   2.471  15.012 -0.1644 -0.5011 -0.5849
 8840SOL    HW238157   2.016   2.394  15.035  3.0321 -1.8587  2.2437
 8841SOL     OW38158   0.387   2.321  11.425 -0.2131 -0.6658  0.8833
 8841SOL    HW138159   0.385   2.259  11.352  1.5811  1.5310 -1.0353
 8841SOL    HW238160   0.423   2.401  11.386 -0.1500 -1.2072 -0.1509
 8842SOL     OW38161   1.133   4.727   7.902  0.0645 -0.0226  0.3716
 8842SOL    HW138162   1.091   0.049   7.842  0.7835  2.4167  2.4026
 8842SOL    HW238163   1.224   0.008   7.881 -0.3843  3.6374  2.1564
 8843SOL     OW38164   2.439   1.225   9.549 -0.5497  0.1280 -0.0953
 8843SOL    HW138165   2.426   1.307   9.501 -1.0960 -0.4379 -0.8964
 8843SOL    HW238166   2.397   1.162   9.491  0.5581  0.6331 -1.4285
 8844SOL     OW38167   2.126   2.585   9.579  0.0436 -0.7934 -0.0470
 8844SOL    HW138168   2.189   2.657   9.580 -0.7879 -0.0598 -0.7348
 8844SOL    HW238169   2.074   2.615   9.654  0.5455 -2.1186  0.8439
 8845SOL     OW38170   4.620   0.506   3.399 -0.3686  0.8466  0.4492
 8845SOL    HW138171   4.626   0.411   3.397 -1.0167  0.7970  1.0803
 8845SOL    HW238172   4.708   0.522   3.363  0.2355 -0.6216  1.2764
 8846SOL     OW38173   0.592   3.397  10.932 -0.0535  0.5619 -0.2185
 8846SOL    HW138174   0.642   3.457  10.877  4.1447 -3.2744 -0.5228
 8846SOL    HW238175   0.547   3.342  10.868  1.9206 -1.9471  0.5612
 8847SOL     OW38176   2.338   0.240   6.596 -0.2805 -0.6940 -0.4323
 8847SOL    HW138177   2.342   0.258   6.690  1.3006  0.2150 -0.6836
 8847SOL    HW238178   2.250   0.274   6.581 -0.6438 -0.3832  2.3433
 8848SOL     OW38179   1.576   4.223   5.360 -0.5532 -0.4353 -0.8044
 8848SOL    HW138180   1.594   4.186   5.273 -1.0802  0.0460 -1.1148
 8848SOL    HW238181   1.644   4.178   5.410  2.4763  0.9939 -3.6134
 8849SOL     OW38182   3.190   1.428   4.689 -0.0946 -0.3115 -0.1463
 8849SOL    HW138183   3.142   1.468   4.616 -0.8625  0.3040  0.6930
 8849SOL    HW238184   3.235   1.505   4.724 -1.3272  0.2943  0.1006
 8850SOL     OW38185   2.475   4.718   7.653  0.3243  0.4605  0.3527
 8850SOL    HW138186   2.491   4.646   7.714  1.6122 -0.0139 -0.5314
 8850SOL    HW238187   2.554   0.031   7.666 -0.9041  1.6958  2.6904
 8851SOL     OW38188   3.037   1.453   5.120 -0.0938  0.1769 -0.1652
 8851SOL    HW138189   2.955   1.405   5.123  0.8321 -1.4425 -0.8718
 8851SOL    HW238190   3.093   1.390   5.075 -0.7817 -0.0744 -0.6681
 8852SOL     OW38191   0.375   1.891   5.773 -0.4894  0.2840 -0.4972
 8852SOL    HW138192   0.340   1.803   5.784 -0.1025  0.4005  1.6690
 8852SOL    HW238193   0.377   1.908   5.679 -1.5088 -0.0826 -0.5761
 8853SOL     OW38194   2.194   0.821   1.100 -0.2773  0.1571  0.4684
 8853SOL    HW138195   2.212   0.853   1.011 -0.5925  0.3219  0.4670
 8853SOL    HW238196   2.242   0.890   1.147  0.0462 -0.7546  1.4613
 8854SOL     OW38197   4.434   0.644   3.041  0.0279  0.0105 -0.1446
 8854SOL    HW138198   4.446   0.602   3.127  0.8506 -0.9115 -0.7060
 8854SOL    HW238199   4.381   0.577   2.997 -0.9116  0.7839 -0.1999
 8855SOL     OW38200   1.072   2.877   4.268  0.3462 -0.3808  0.0935
 8855SOL    HW138201   1.005   2.933   4.231  0.0533 -0.6242  0.2577
 8855SOL    HW238202   1.093   2.925   4.348 -4.0534 -0.8084  1.4868
 8856SOL     OW38203   4.499   1.880   2.490  0.1191  0.1318  0.0432
 8856SOL    HW138204   4.464   1.849   2.573 -1.0191 -0.9604 -0.8481
 8856SOL    HW238205   4.489   1.802   2.436 -0.0654 -0.2045  0.5655
 8857SOL     OW38206   3.141   3.594   3.113 -0.7733  0.0860  0.1717
 8857SOL    HW138207   3.111   3.551   3.193 -0.0039 -1.1321 -0.1967
 8857SOL    HW238208   3.225   3.625   3.147 -1.1141  0.0080  1.0784
 8858SOL     OW38209   4.632   3.867   8.446  0.7613  0.1040  0.2216
 8858SOL    HW138210   4.564   3.848   8.381 -0.0436  0.6205  0.9301
 8858SOL    HW238211   4.616   3.795   8.507 -0.1926  1.4207  1.5243
 8859SOL     OW38212   2.330   4.484  11.937  0.2472 -0.4066  0.4393
 8859SOL    HW138213   2.335   4.522  11.849  0.4954 -2.8522 -0.5869
 8859SOL    HW238214   2.235   4.483  11.952 -0.3709  0.4014 -3.2597
 8860SOL     OW38215   3.776   0.275   7.249 -0.5135  0.3880  0.3621
 8860SOL    HW138216   3.855   0.327   7.233 -0.8935  0.4636 -1.2210
 8860SOL    HW238217   3.789   0.201   7.191  0.0985 -1.1851  2.4809
 8861SOL     OW38218   0.334   1.689  13.359 -0.5140 -0.3983  0.6797
 8861SOL    HW138219   0.309   1.772  13.399  0.6840  0.9635 -1.4030
 8861SOL    HW238220   0.381   1.636  13.423 -1.0847  2.0040  3.1104
 8862SOL     OW38221   0.076   0.847   7.477 -0.1769  0.0651 -0.0438
 8862SOL    HW138222   0.050   0.898   7.553  0.1442  1.3523 -0.7944
 8862SOL    HW238223   0.146   0.905   7.446 -0.6654  1.6750  1.8354
 8863SOL     OW38224   1.042   2.995  17.190  0.2310  0.1233 -0.4818
 8863SOL    HW138225   1.131   3.002  17.155  0.1001  0.4267 -0.7502
 8863SOL    HW238226   1.058   3.022  17.281  0.8830  0.3905 -0.6790
 8864SOL     OW38227   3.779   2.389   9.791  0.5221  0.2028 -0.1326
 8864SOL    HW138228   3.830   2.311   9.814 -0.7592 -0.2611  1.0735
 8864SOL    HW238229   3.699   2.372   9.840  0.9829 -2.3345 -0.2595
 8865SOL     OW38230   0.357   0.635   6.367 -0.0109  0.0289  0.3727
 8865SOL    HW138231   0.337   0.541   6.370 -0.4748  0.1114 -0.1892
 8865SOL    HW238232   0.449   0.640   6.391  0.3012  1.3480 -1.1391
 8866SOL     OW38233   3.698   0.607   2.212 -0.6079  0.1631 -0.4027
 8866SOL    HW138234   3.653   0.523   2.221  0.6029 -0.0469  3.8301
 8866SOL    HW238235   3.779   0.582   2.255 -1.0958  1.8485  1.4743
 8867SOL     OW38236   1.806   4.622  17.715 -0.1158 -0.0343  0.1952
 8867SOL    HW138237   1.863   4.677   0.010  1.5308  0.0270 -1.6617
 8867SOL    HW238238   1.843   4.536  17.734  0.7460  0.4248  0.5801
 8868SOL     OW38239   4.163   4.164  16.820  0.3860 -0.7580  0.3970
 8868SOL    HW138240   4.181   4.249  16.862  3.1792 -1.1513 -0.0037
 8868SOL    HW238241   4.099   4.131  16.883 -1.8797  1.3287 -0.7898
 8869SOL     OW38242   0.205   2.789   8.447  0.1394  0.5547  0.9516
 8869SOL    HW138243   0.161   2.822   8.370 -0.5730 -0.1982  1.0319
 8869SOL    HW238244   0.283   2.845   8.450 -0.1473  1.1636 -4.1263
 8870SOL     OW38245   2.243   0.755   7.299 -0.3733  0.4148  0.3238
 8870SOL    HW138246   2.194   0.679   7.268  1.1083 -1.1338  1.7777
 8870SOL    HW238247   2.185   0.801   7.360  1.4801  1.4611  1.3177
 8871SOL     OW38248   4.732   3.465   9.248 -0.1724  0.3140  0.0647
 8871SOL    HW138249   0.015   3.455   9.340  0.1071 -0.3365 -0.0736
 8871SOL    HW238250   0.076   3.463   9.201 -0.6352  0.0995 -0.7679
 8872SOL     OW38251   0.025   1.724  17.438  0.4079 -0.8769  0.3020
 8872SOL    HW138252   4.710   1.699  17.364  0.9712  2.5216 -1.2860
 8872SOL    HW238253   4.711   1.685  17.506  2.0304 -1.9941  0.9490
 8873SOL     OW38254   4.132   0.666   0.390  0.3291  0.3048  0.3086
 8873SOL    HW138255   4.076   0.736   0.359  0.6161  0.8784  1.0785
 8873SOL    HW238256   4.147   0.699   0.478  0.5001 -0.1793  0.4639
 8874SOL     OW38257   0.842   1.142   4.772  0.2199  0.0178 -0.1148
 8874SOL    HW138258   0.756   1.134   4.812 -0.2593 -1.5247 -1.4924
 8874SOL    HW238259   0.859   1.049   4.762  0.4695  0.0180  0.2788
 8875SOL     OW38260   2.208   2.047  12.185  0.3056  0.0932 -0.2207
 8875SOL    HW138261   2.290   2.005  12.157  0.4533 -0.5634  1.2328
 8875SOL    HW238262   2.197   2.014  12.274 -0.5529  0.7137 -0.0990
 8876SOL     OW38263   1.382   4.482  16.870 -0.0232  0.4939  0.3546
 8876SOL    HW138264   1.381   4.528  16.953  0.9403  0.8962  0.1332
 8876SOL    HW238265   1.302   4.522  16.836  0.7924  0.2298 -1.9082
 8877SOL     OW38266   1.185   3.764   5.045 -0.2776 -0.3445  0.9016
 8877SOL    HW138267   1.172   3.678   5.084 -1.8203 -0.2014  0.6968
 8877SOL    HW238268   1.151   3.812   5.121  2.9379  1.7092  1.0691
 8878SOL     OW38269   4.460   3.978  17.525  0.4121  0.0957 -0.4394
 8878SOL    HW138270   4.413   4.006  17.604 -0.9502  0.2669 -1.3065
 8878SOL    HW238271   4.488   4.064  17.494  1.4560 -0.0157  0.2097
 8879SOL     OW38272   3.125   1.446  17.134 -0.1695  0.0435 -0.3052
 8879SOL    HW138273   3.074   1.517  17.174 -1.8815 -2.1430  1.3787
 8879SOL    HW238274   3.079   1.373  17.175 -1.7072  0.9836 -0.3597
 8880SOL     OW38275   0.401   2.595   1.336  0.0672  0.3397 -0.2150
 8880SOL    HW138276   0.454   2.535   1.388 -0.1472 -2.3118 -3.0234
 8880SOL    HW238277   0.313   2.574   1.366  1.2218 -0.0760  2.9257
 8881SOL     OW38278   4.224   1.452  12.347 -0.3649  0.0655  0.5555
 8881SOL    HW138279   4.185   1.522  12.294  0.0772  0.7678  1.1587
 8881SOL    HW238280   4.260   1.501  12.420  0.2678  0.6258 -0.1314
 8882SOL     OW38281   2.705   1.210  10.815 -0.2946 -0.4300 -0.7599
 8882SOL    HW138282   2.682   1.127  10.857 -0.6941  0.6653  1.1680
 8882SOL    HW238283   2.764   1.244  10.882 -2.2190 -0.8534  1.1293
 8883SOL     OW38284   1.694   1.818  17.471 -0.1647  0.4772 -0.2054
 8883SOL    HW138285   1.782   1.845  17.500 -0.4466 -1.2371  2.3272
 8883SOL    HW238286   1.650   1.900  17.451  1.0027  0.8865 -1.0854
 8884SOL     OW38287   0.960   2.302   7.925  0.5282  0.5671 -0.2792
 8884SOL    HW138288   1.054   2.320   7.916  0.1624  1.9882 -1.1444
 8884SOL    HW238289   0.957   2.229   7.987  0.2444  0.7382 -0.0947
 8885SOL     OW38290   3.079   0.161   2.220  0.0519 -0.0103 -0.1088
 8885SOL    HW138291   3.057   0.194   2.134 -0.3254 -3.0864 -1.2165
 8885SOL    HW238292   3.053   0.236   2.273 -1.5306  0.0671 -0.9941
 8886SOL     OW38293   3.752   0.436  13.916 -0.2939  0.3277  0.2174
 8886SOL    HW138294   3.677   0.395  13.872  0.1952 -1.1231  0.7177
 8886SOL    HW238295   3.742   0.397  14.003  2.6142 -1.3550 -0.2252
 8887SOL     OW38296   1.373   4.345   5.243  0.1015 -0.0835  0.1999
 8887SOL    HW138297   1.442   4.304   5.296  0.1212 -0.1106  0.1534
 8887SOL    HW238298   1.406   4.336   5.153 -2.8209 -0.6754 -0.8058
 8888SOL     OW38299   4.298   0.300   4.175  0.0732 -0.3228  0.1029
 8888SOL    HW138300   4.241   0.374   4.196  1.3464  1.1787 -1.7177
 8888SOL    HW238301   4.236   0.231   4.150 -0.4190 -0.6455  2.2157
 8889SOL     OW38302   0.556   3.916   3.978 -0.3281 -0.1393  0.0229
 8889SOL    HW138303   0.523   3.919   3.888 -1.4745 -1.1233  0.4077
 8889SOL    HW238304   0.571   4.010   3.988 -1.5726  0.1156 -0.4698
 8890SOL     OW38305   2.164   0.532   9.476 -0.8993 -0.3992 -0.1612
 8890SOL    HW138306   2.083   0.581   9.488 -1.0890 -1.0273  1.1260
 8890SOL    HW238307   2.157   0.463   9.542 -1.3640  0.3678  0.5912
 8891SOL     OW38308   2.678   2.772   5.717 -0.8527  0.3707 -0.1352
 8891SOL    HW138309   2.692   2.837   5.649  3.6965 -0.7514 -0.2432
 8891SOL    HW238310   2.763   2.772   5.761 -0.1359 -2.3581 -1.5154
 8892SOL     OW38311   2.103   2.785  10.361 -0.0942  0.3492  0.0101
 8892SOL    HW138312   2.132   2.876  10.363  1.5865 -0.0640 -4.4531
 8892SOL    HW238313   2.107   2.769  10.266  1.9208 -1.9409  0.4656
 8893SOL     OW38314   4.734   1.618   3.089 -0.2890 -0.0092  0.0727
 8893SOL    HW138315   4.692   1.615   3.003  1.3501 -1.4593 -0.6900
 8893SOL    HW238316   0.072   1.562   3.087  0.0552  0.4815 -0.3095
 8894SOL     OW38317   3.051   4.282  14.378 -0.4221  0.1404 -0.3929
 8894SOL    HW138318   3.049   4.191  14.407 -2.0218 -0.2946 -1.8349
 8894SOL    HW238319   3.050   4.317  14.466 -0.7125 -0.1912 -0.2647
 8895SOL     OW38320   0.312   1.237  13.785  0.6480  0.3563  0.3009
 8895SOL    HW138321   0.324   1.331  13.800  1.5022 -0.0059  1.9072
 8895SOL    HW238322   0.311   1.202  13.874  0.7716 -0.4855 -0.0363
 8896SOL     OW38323   3.234   4.219   1.078  0.1876  0.0531  0.1291
 8896SOL    HW138324   3.172   4.162   1.032  0.2148 -1.2668  1.7572
 8896SOL    HW238325   3.169   4.283   1.107 -0.1765 -1.1350  1.8518
 8897SOL     OW38326   2.687   1.147   8.278  0.4434  0.3342 -0.1479
 8897SOL    HW138327   2.605   1.101   8.261  0.2286  1.0546 -1.0286
 8897SOL    HW238328   2.658   1.183   8.361  3.1239 -1.0346  1.3751
 8898SOL     OW38329   0.193   2.091   2.269  0.3445 -0.0289 -0.1001
 8898SOL    HW138330   0.104   2.080   2.302 -0.6175 -1.2722 -3.1399
 8898SOL    HW238331   0.185   2.102   2.174 -1.4137 -2.5215 -0.2402
 8899SOL     OW38332   4.687   4.663   9.540  0.1293 -0.1494  0.2864
 8899SOL    HW138333   4.639   4.644   9.621 -0.5632  1.8360  0.3278
 8899SOL    HW238334   4.720   0.009   9.562 -2.4484  0.6370  1.0942
 8900SOL     OW38335   3.582   2.987  12.718  0.0744 -0.1024  0.2217
 8900SOL    HW138336   3.612   2.933  12.644 -2.8758  0.8398 -1.6633
 8900SOL    HW238337   3.636   3.065  12.708 -1.1677  0.8779  1.3379
 8901SOL     OW38338   2.529   2.384   3.504  0.2320  0.1625  0.4430
 8901SOL    HW138339   2.548   2.364   3.595 -0.4156 -0.2143  0.4939
 8901SOL    HW238340   2.434   2.399   3.503  0.1260 -0.4760  0.7519
 8902SOL     OW38341   0.618   1.735   9.534 -0.1839 -0.7189  0.3593
 8902SOL    HW138342   0.572   1.793   9.473  1.4622 -1.1860 -1.3324
 8902SOL    HW238343   0.543   1.691   9.573  0.9217 -1.5777  1.5060
 8903SOL     OW38344   2.521   4.005  11.309  0.0918  0.4865 -0.3192
 8903SOL    HW138345   2.519   4.022  11.214 -0.5378 -0.3245 -0.4598
 8903SOL    HW238346   2.594   4.058  11.338 -0.0633  1.6928 -2.1559
 8904SOL     OW38347   3.797   0.287   8.139  0.0900 -0.0798  0.4481
 8904SOL    HW138348   3.887   0.308   8.163  0.4053 -0.5525 -0.3119
 8904SOL    HW238349   3.788   0.220   8.206 -0.6950 -1.9742 -1.5256
 8905SOL     OW38350   4.527   3.206   5.909 -0.1963  0.3965  0.1054
 8905SOL    HW138351   4.437   3.237   5.923 -0.1893 -0.9283  3.0937
 8905SOL    HW238352   4.516   3.128   5.856  2.1571 -0.6471  1.1848
 8906SOL     OW38353   1.667   3.581   6.675 -0.0914  0.2994  0.5479
 8906SOL    HW138354   1.665   3.532   6.757 -2.0460 -1.7809 -0.7518
 8906SOL    HW238355   1.752   3.626   6.678 -0.3672  0.6495  3.1678
 8907SOL     OW38356   3.884   4.316   5.466 -0.6656 -0.6210 -0.2781
 8907SOL    HW138357   3.937   4.239   5.444  1.7980  1.1156 -0.4087
 8907SOL    HW238358   3.827   4.291   5.539  1.1011  0.9312  1.6215
 8908SOL     OW38359   4.507   4.546   7.541  0.0946 -0.4361 -0.4725
 8908SOL    HW138360   4.528   4.463   7.498 -0.2735 -1.0080  0.4411
 8908SOL    HW238361   4.574   4.544   7.610  1.0169 -2.3218 -1.4091
 8909SOL     OW38362   4.444   1.912   9.178 -0.4769 -0.6820 -0.9122
 8909SOL    HW138363   4.354   1.885   9.157 -0.2896 -0.2056 -2.3161
 8909SOL    HW238364   4.434   1.984   9.241  0.5256 -0.6557 -0.7905
 8910SOL     OW38365   2.932   4.644   3.831 -0.4180 -0.2915 -0.0831
 8910SOL    HW138366   3.009   4.593   3.808  1.9006  1.9676  2.6881
 8910SOL    HW238367   2.881   4.638   3.750  2.4937  1.0124 -1.9871
 8911SOL     OW38368   1.330   1.100   5.263 -0.4269 -0.2371 -0.4441
 8911SOL    HW138369   1.347   1.110   5.357  2.0694 -4.6735 -0.4425
 8911SOL    HW238370   1.272   1.174   5.245  1.5960  1.7022  0.8974
 8912SOL     OW38371   0.601   0.500  14.906 -0.3959  0.5441  0.3262
 8912SOL    HW138372   0.638   0.548  14.832  2.2142  1.3708  2.1611
 8912SOL    HW238373   0.684   0.474  14.947 -0.0475  1.5529  0.2743
 8913SOL     OW38374   3.861   1.955   5.699 -0.1518  0.1140  0.1934
 8913SOL    HW138375   3.851   2.031   5.757  1.9288  0.8697 -0.4164
 8913SOL    HW238376   3.927   1.898   5.738  1.3258  0.2567 -2.1511
 8914SOL     OW38377   0.346   4.572   3.706 -0.2961 -0.0517  0.1496
 8914SOL    HW138378   0.391   4.602   3.786 -1.0866  0.7053  0.3151
 8914SOL    HW238379   0.257   4.557   3.737  0.2573  1.3685  2.4622
 8915SOL     OW38380   3.548   4.329   0.487  0.9503  0.2561  0.5367
 8915SOL    HW138381   3.532   4.240   0.518  1.9342  0.3596  1.3511
 8915SOL    HW238382   3.595   4.303   0.408  0.0880  1.8341 -0.5034
 8916SOL     OW38383   3.049   3.566   3.809  0.0405  0.2436  0.1824
 8916SOL    HW138384   3.053   3.602   3.897  2.5937  3.0229 -1.0680
 8916SOL    HW238385   3.108   3.626   3.763 -0.6448  0.5225 -0.3489
 8917SOL     OW38386   4.633   3.204  12.160 -0.4290  0.1447 -0.1044
 8917SOL    HW138387   4.675   3.125  12.194  0.8618  0.1427 -1.7072
 8917SOL    HW238388   4.596   3.226  12.246  1.0334  0.0252  0.5490
 8918SOL     OW38389   2.864   0.450   9.169  0.2814  0.3449 -0.3863
 8918SOL    HW138390   2.886   0.434   9.261 -2.2119 -0.6830  0.0166
 8918SOL    HW238391   2.828   0.369   9.134 -0.3810  0.2289  0.5771
 8919SOL     OW38392   2.775   0.258   6.551  0.0151 -0.2671 -0.3098
 8919SOL    HW138393   2.836   0.252   6.478 -1.1354  0.2467 -1.3055
 8919SOL    HW238394   2.694   0.247   6.501 -1.3817 -1.3270  2.1592
 8920SOL     OW38395   0.502   1.400   3.814 -0.0229 -0.1688 -0.4926
 8920SOL    HW138396   0.435   1.365   3.756 -0.9094  1.3082 -0.3582
 8920SOL    HW238397   0.551   1.320   3.832  0.8672  0.6369  0.6524
 8921SOL     OW38398   1.358   0.653   2.846 -0.1092  0.9233  0.1399
 8921SOL    HW138399   1.314   0.574   2.816  0.2524  0.7111  0.1694
 8921SOL    HW238400   1.417   0.618   2.913  1.0489  1.0247 -0.8198
 8922SOL     OW38401   1.151   0.589  11.616 -0.3075  0.3378 -0.3026
 8922SOL    HW138402   1.175   0.669  11.663 -0.9191 -0.8718  2.0802
 8922SOL    HW238403   1.124   0.622  11.531 -2.8233 -1.3770 -0.1640
 8923SOL     OW38404   0.407   3.491  14.363 -0.0833 -1.1290 -0.5920
 8923SOL    HW138405   0.406   3.450  14.277  0.6266 -1.1358 -0.5998
 8923SOL    HW238406   0.445   3.575  14.334 -1.4211 -0.3860 -0.1781
 8924SOL     OW38407   0.036   1.404   4.860 -0.0369  0.4629  0.4552
 8924SOL    HW138408   4.715   1.430   4.790 -0.8066 -1.2125  0.5265
 8924SOL    HW238409   4.711   1.402   4.930 -0.7802 -0.9565 -0.2768
 8925SOL     OW38410   4.382   3.762   2.462 -0.1543  0.2761  0.1913
 8925SOL    HW138411   4.455   3.819   2.437  0.7723 -1.1914 -0.4588
 8925SOL    HW238412   4.390   3.702   2.388 -1.9770 -0.1858  0.3820
 8926SOL     OW38413   2.213   1.058   2.019 -0.6824  0.0370  0.7331
 8926SOL    HW138414   2.228   1.095   2.107 -0.9969 -3.2103  2.1378
 8926SOL    HW238415   2.302   1.029   2.001 -1.4915 -0.7192 -1.9352
 8927SOL     OW38416   0.821   1.860   4.384  0.5930  0.0281  0.3847
 8927SOL    HW138417   0.752   1.794   4.398  0.2435  0.1021 -1.0133
 8927SOL    HW238418   0.852   1.855   4.475  1.6196 -0.4590  0.0043
 8928SOL     OW38419   3.861   1.137   4.917 -0.1293 -0.3938  0.3148
 8928SOL    HW138420   3.894   1.094   4.995 -0.1809 -1.5715 -0.3073
 8928SOL    HW238421   3.934   1.193   4.891 -1.5332  1.4612  0.4003
 8929SOL     OW38422   4.067   1.250  12.329 -0.5257  0.0954  0.0892
 8929SOL    HW138423   4.119   1.329  12.314  0.2065 -0.2606  0.7512
 8929SOL    HW238424   4.094   1.230  12.419 -1.7396  0.8554  0.6213
 8930SOL     OW38425   2.571   3.314   0.379 -0.9014 -0.3830  0.2278
 8930SOL    HW138426   2.649   3.290   0.328 -2.7365  1.9222 -3.7020
 8930SOL    HW238427   2.520   3.371   0.321  2.1565  2.5428  0.3453
 8931SOL     OW38428   1.795   0.273   9.311 -0.5139 -0.7028  0.5426
 8931SOL    HW138429   1.792   0.188   9.267  1.0996 -0.9127  0.8190
 8931SOL    HW238430   1.870   0.267   9.370  0.0783  1.3609  0.0061
 8932SOL     OW38431   3.063   3.638   1.006 -0.7069  0.0338  0.4785
 8932SOL    HW138432   2.973   3.669   0.999 -1.0024 -1.0567 -0.6000
 8932SOL    HW238433   3.086   3.621   0.915 -3.1872 -1.6144  0.1686
 8933SOL     OW38434   0.309   2.243  11.974  0.0008 -0.6789 -0.7345
 8933SOL    HW138435   0.236   2.198  12.016 -0.7621  0.0524 -1.2864
 8933SOL    HW238436   0.360   2.164  11.958 -0.1734 -0.9367 -0.0033
 8934SOL     OW38437   3.805   1.333   1.186 -0.0320  0.2220 -0.4361
 8934SOL    HW138438   3.834   1.385   1.261 -0.1490  1.0398 -0.9594
 8934SOL    HW238439   3.710   1.339   1.199  0.0651 -1.6832  0.9949
 8935SOL     OW38440   0.590   0.121   8.440 -0.1911 -0.0561 -0.2282
 8935SOL    HW138441   0.514   0.086   8.485  0.4600 -1.2480 -0.0475
 8935SOL    HW238442   0.544   0.182   8.383 -0.4647  0.0868  0.1528
 8936SOL     OW38443   2.220   3.622   7.053 -0.1576  0.6670 -0.1028
 8936SOL    HW138444   2.303   3.638   7.008 -0.9041  0.8266 -1.4301
 8936SOL    HW238445   2.230   3.538   7.097 -1.2541  0.3651 -0.4031
 8937SOL     OW38446   2.778   0.300   4.202  0.0299  0.3780  0.1873
 8937SOL    HW138447   2.735   0.300   4.116  1.4847 -5.3400 -0.5732
 8937SOL    HW238448   2.860   0.337   4.170 -0.3997  2.3072  1.3262
 8938SOL     OW38449   0.865   0.588   6.772 -0.2274  0.1552 -0.5805
 8938SOL    HW138450   0.785   0.641   6.770 -0.8881 -0.8335 -0.7023
 8938SOL    HW238451   0.870   0.554   6.861 -1.6543  0.4346 -0.3883
 8939SOL     OW38452   0.294   2.138  11.594  0.2437  0.6707 -0.0374
 8939SOL    HW138453   0.381   2.104  11.613 -1.6445 -3.0183  2.1854
 8939SOL    HW238454   0.313   2.227  11.565  3.3073  0.6941  2.0726
 8940SOL     OW38455   0.460   1.097   9.388  0.1915 -0.9162  0.3541
 8940SOL    HW138456   0.392   1.162   9.408  2.2285  0.8100  1.7198
 8940SOL    HW238457   0.462   1.055   9.474  0.9379 -0.7191  0.4331
 8941SOL     OW38458   0.118   3.943   8.347 -0.4777 -0.1180 -0.0172
 8941SOL    HW138459   0.188   3.923   8.409 -1.4504  0.8524  1.3787
 8941SOL    HW238460   0.044   3.908   8.396 -1.2632 -1.3403 -2.1096
 8942SOL     OW38461   3.064   0.980   7.165  0.2014  0.2112  0.2232
 8942SOL    HW138462   2.993   1.028   7.123  0.4292  0.9292  0.6648
 8942SOL    HW238463   3.134   1.002   7.103  0.0478 -1.2025 -0.4501
 8943SOL     OW38464   4.257   3.761   2.037  0.4722 -0.4356  0.1549
 8943SOL    HW138465   4.294   3.673   2.030  0.9458 -0.3121  1.0945
 8943SOL    HW238466   4.267   3.792   1.947 -2.0576 -0.1983 -0.0458
 8944SOL     OW38467   4.148   4.422   8.863 -0.3998 -0.1758  0.2495
 8944SOL    HW138468   4.139   4.508   8.822  0.3693 -0.1627  0.1056
 8944SOL    HW238469   4.135   4.443   8.956  0.2423 -0.4485  0.4009
 8945SOL     OW38470   4.575   3.756   1.880  0.4827  0.0070 -0.5069
 8945SOL    HW138471   4.573   3.724   1.790 -2.4315  0.4086 -0.5648
 8945SOL    HW238472   4.573   3.670   1.921  0.9690  0.5251  0.6002
 8946SOL     OW38473   2.137   2.627   7.971  0.4208  0.0846  0.1244
 8946SOL    HW138474   2.210   2.639   7.910  0.5443 -1.1302  0.0335
 8946SOL    HW238475   2.192   2.619   8.049 -1.0359  3.2234  1.4537
 8947SOL     OW38476   0.263   3.403   7.939  0.1975  0.3544  0.5316
 8947SOL    HW138477   0.168   3.389   7.937  0.1597  0.9202 -3.0290
 8947SOL    HW238478   0.289   3.373   7.852 -0.2303 -1.0246  0.8786
 8948SOL     OW38479   2.869   0.530  14.856  0.0699  0.1978 -0.0315
 8948SOL    HW138480   2.817   0.483  14.921 -0.6335  1.0538  0.0144
 8948SOL    HW238481   2.853   0.470  14.783 -3.9230  1.7055 -0.3751
 8949SOL     OW38482   3.236   3.729   3.704  0.0495  0.0067  0.1737
 8949SOL    HW138483   3.210   3.794   3.639 -0.6027  0.8261  1.2365
 8949SOL    HW238484   3.257   3.654   3.649  0.5278  0.1717  0.1306
 8950SOL     OW38485   2.353   0.022   2.468  0.5045  0.0685 -0.2259
 8950SOL    HW138486   2.380   4.693   2.528  0.8573  0.5907  0.2089
 8950SOL    HW238487   2.258   0.013   2.477  0.4976  0.4778  0.0879
 8951SOL     OW38488   0.978   1.392   8.198 -0.6024 -0.1264  0.5217
 8951SOL    HW138489   0.972   1.326   8.129  1.0360 -1.7134  1.8867
 8951SOL    HW238490   0.921   1.461   8.166  1.9725  1.0911 -1.4310
 8952SOL     OW38491   1.992   1.919   9.208  0.1037  0.4466 -0.4425
 8952SOL    HW138492   2.083   1.915   9.181 -0.4265  0.7666 -2.3068
 8952SOL    HW238493   1.987   2.011   9.236  0.0555  0.8119 -1.6322
 8953SOL     OW38494   2.760   1.867  16.407  0.7187  0.4423 -0.4489
 8953SOL    HW138495   2.843   1.853  16.362  0.5304 -1.3418 -0.2365
 8953SOL    HW238496   2.775   1.954  16.444  1.1075 -0.1589  0.8153
 8954SOL     OW38497   3.343   2.512   0.988 -0.5622 -0.2818  0.0372
 8954SOL    HW138498   3.346   2.442   1.052  1.3807 -1.1430 -0.9942
 8954SOL    HW238499   3.385   2.582   1.038  1.7158 -2.0140  0.5301
 8955SOL     OW38500   4.134   3.464   3.093  0.0858 -0.0387 -0.5886
 8955SOL    HW138501   4.065   3.400   3.074 -0.5346  0.7526 -0.9915
 8955SOL    HW238502   4.161   3.491   3.005 -0.8377  0.3118 -0.7628
 8956SOL     OW38503   0.872   0.568  13.211  0.4114 -0.1733 -0.6147
 8956SOL    HW138504   0.846   0.508  13.280 -0.7118 -0.7521 -1.5469
 8956SOL    HW238505   0.834   0.526  13.133  1.0873 -1.8186 -0.0442
 8957SOL     OW38506   1.263   3.168   2.878 -0.2480  0.4871 -0.0293
 8957SOL    HW138507   1.179   3.206   2.850  0.6083  1.3321 -1.4231
 8957SOL    HW238508   1.250   3.185   2.971 -0.5399 -0.5670  0.1234
 8958SOL     OW38509   1.604   2.115   3.894 -0.5413  0.1055  0.3454
 8958SOL    HW138510   1.510   2.098   3.892 -0.3030 -0.9493 -1.3983
 8958SOL    HW238511   1.606   2.202   3.855  1.0025  0.2148  0.6431
 8959SOL     OW38512   0.474   2.409   8.000 -0.5456 -0.6858 -0.1513
 8959SOL    HW138513   0.568   2.421   7.987 -0.7338 -0.8932 -1.7242
 8959SOL    HW238514   0.444   2.441   7.915  0.7250 -0.5842 -0.5647
 8960SOL     OW38515   3.065   0.977   1.838 -0.4178  0.2049  0.1090
 8960SOL    HW138516   3.100   0.907   1.783 -1.2743  1.5298 -2.1497
 8960SOL    HW238517   3.042   0.928   1.917  1.7063 -0.0833  0.5303
 8961SOL     OW38518   0.838   3.677   1.471  0.4309  0.0053 -0.1642
 8961SOL    HW138519   0.889   3.666   1.391 -1.7561 -1.5286 -1.3338
 8961SOL    HW238520   0.914   3.670   1.529  0.2191 -0.9470 -0.0104
 8962SOL     OW38521   4.006   3.667  14.483 -0.1247  0.3679  0.3202
 8962SOL    HW138522   3.964   3.720  14.551 -0.1920  0.3505  0.2921
 8962SOL    HW238523   4.095   3.703  14.486 -0.2424  0.6633  0.2743
 8963SOL     OW38524   0.445   0.055  10.095  1.0275 -0.0170  0.3216
 8963SOL    HW138525   0.419   0.110  10.169 -1.4727 -2.3880  1.1871
 8963SOL    HW238526   0.403   4.713  10.119  1.3863 -0.0075  0.9727
 8964SOL     OW38527   1.689   3.036   7.654  0.2822 -0.0529  0.2157
 8964SOL    HW138528   1.601   3.031   7.617  0.2280 -0.5647  0.4097
 8964SOL    HW238529   1.694   2.941   7.665 -1.2474 -0.0350  1.0125
 8965SOL     OW38530   0.070   0.480   2.131  0.4322 -0.6778  0.8994
 8965SOL    HW138531   0.034   0.461   2.044 -1.6139 -0.9997  1.8197
 8965SOL    HW238532   4.740   0.530   2.173 -0.1143 -1.1719  0.5759
 8966SOL     OW38533   3.680   2.859   3.994  0.0520 -0.2203  0.1775
 8966SOL    HW138534   3.639   2.911   4.062 -0.7965 -0.8342  0.1297
 8966SOL    HW238535   3.760   2.909   3.978 -0.6342  1.2757  1.4413
 8967SOL     OW38536   1.924   4.440   3.945 -0.1000  0.5946 -0.4679
 8967SOL    HW138537   2.009   4.406   3.972 -2.2255 -2.9041  1.8453
 8967SOL    HW238538   1.942   4.527   3.981 -0.7023  0.3408  0.4596
 8968SOL     OW38539   0.889   2.674   8.053 -0.0240 -0.6924 -0.0303
 8968SOL    HW138540   0.920   2.760   8.026  0.1983 -0.6217  0.4543
 8968SOL    HW238541   0.967   2.629   8.086 -0.6440 -0.0788  2.2882
 8969SOL     OW38542   4.481   0.772  11.363  0.0480  0.7402 -0.2993
 8969SOL    HW138543   4.434   0.842  11.408 -0.4624 -0.3217  0.8390
 8969SOL    HW238544   4.557   0.756  11.419  1.9883  0.1250 -3.1205
 8970SOL     OW38545   0.444   0.639   3.023  0.5581  0.3747 -0.5302
 8970SOL    HW138546   0.471   0.721   3.065 -1.2627  0.6106  0.1799
 8970SOL    HW238547   0.427   0.596   3.108  2.2634 -1.6320 -1.2043
 8971SOL     OW38548   0.949   0.305   2.501 -0.0949 -0.5710 -0.3994
 8971SOL    HW138549   0.968   0.384   2.450 -0.9895  0.2121  0.5033
 8971SOL    HW238550   0.901   0.337   2.576  0.8617 -2.0619  0.8632
 8972SOL     OW38551   4.288   0.066   0.579  0.8090 -0.0021  0.4714
 8972SOL    HW138552   4.265   0.147   0.535  0.3255  0.0446  0.8202
 8972SOL    HW238553   4.348   0.103   0.643  0.0377  2.3681 -0.1799
 8973SOL     OW38554   2.463   4.246   4.880  0.0606  0.5769  0.6694
 8973SOL    HW138555   2.470   4.318   4.817  2.2447 -0.7780 -0.6409
 8973SOL    HW238556   2.550   4.209   4.864  0.1717  1.3071 -0.3672
 8974SOL     OW38557   3.278   3.550   1.753 -0.4405  0.2482 -0.1649
 8974SOL    HW138558   3.253   3.638   1.782 -1.1300 -0.3774  1.1417
 8974SOL    HW238559   3.211   3.494   1.792 -1.0463  2.3889  1.8804
 8975SOL     OW38560   0.539   3.132  16.208  0.1011 -0.7106 -0.7558
 8975SOL    HW138561   0.569   3.118  16.298 -1.6034  2.2415  0.2656
 8975SOL    HW238562   0.444   3.138  16.219  0.2930 -1.3014  1.3413
 8976SOL     OW38563   3.635   3.709  12.234  0.0374 -0.2112  0.7350
 8976SOL    HW138564   3.614   3.742  12.147 -0.7299 -1.7059  0.3566
 8976SOL    HW238565   3.576   3.635  12.245 -0.6148  0.0708 -0.8099
 8977SOL     OW38566   2.268   1.001   0.728 -0.0540 -0.4357  0.0096
 8977SOL    HW138567   2.253   1.070   0.793  1.2846  0.0873 -0.2448
 8977SOL    HW238568   2.182   0.998   0.687 -0.7509 -0.7653  1.5018
 8978SOL     OW38569   0.351   1.968   0.844  0.3089 -0.5207  0.2876
 8978SOL    HW138570   0.325   1.879   0.867 -1.0426 -0.0354  0.6305
 8978SOL    HW238571   0.287   2.001   0.781 -1.1553 -0.1158  1.9955
 8979SOL     OW38572   4.330   4.358   2.572  0.0125  0.0745 -0.1366
 8979SOL    HW138573   4.324   4.428   2.507  0.4287 -0.0330 -0.2897
 8979SOL    HW238574   4.321   4.282   2.515 -1.1627 -0.9026  1.3465
 8980SOL     OW38575   1.649   3.690   2.632 -0.7015  0.4141 -0.4653
 8980SOL    HW138576   1.577   3.635   2.664 -0.9901  0.2452 -1.3939
 8980SOL    HW238577   1.637   3.690   2.537 -2.6408  0.5006 -0.2214
 8981SOL     OW38578   1.182   4.001   7.055  0.2714  0.4762 -0.2349
 8981SOL    HW138579   1.203   3.936   6.987  0.0477  0.5067 -0.3336
 8981SOL    HW238580   1.263   4.052   7.049  0.6513 -0.0665  0.2897
 8982SOL     OW38581   4.355   4.424   9.019 -0.2310 -0.5044  0.2470
 8982SOL    HW138582   4.293   4.427   8.947  1.2713  0.2263 -1.0135
 8982SOL    HW238583   4.371   4.330   9.017  1.7139 -0.1493 -0.8739
 8983SOL     OW38584   3.340   4.157   3.636  0.4272 -0.2507 -0.4007
 8983SOL    HW138585   3.426   4.192   3.613 -0.2991  0.1222 -2.5351
 8983SOL    HW238586   3.350   4.154   3.731  1.4859 -2.6084 -0.6104
 8984SOL     OW38587   3.110   1.801   3.518  0.0717  0.8756 -0.1563
 8984SOL    HW138588   3.152   1.830   3.599  0.4661 -1.9526  0.6559
 8984SOL    HW238589   3.044   1.739   3.550  0.3060 -0.6718 -2.6504
 8985SOL     OW38590   2.989   4.032   8.986 -0.5736  0.1511  0.0786
 8985SOL    HW138591   3.027   3.963   9.041 -2.1941  0.4486  1.5609
 8985SOL    HW238592   3.031   4.008   8.903 -0.8544 -1.8415  0.4977
 8986SOL     OW38593   3.342   3.416   7.726  0.1517 -0.3053 -0.2070
 8986SOL    HW138594   3.345   3.417   7.630  0.4801 -0.6834 -0.2023
 8986SOL    HW238595   3.356   3.324   7.749 -0.7076 -0.1919  0.7858
 8987SOL     OW38596   2.637   1.843   3.122  0.0862 -0.0169 -0.0885
 8987SOL    HW138597   2.654   1.881   3.208  2.2312 -0.4322 -0.3309
 8987SOL    HW238598   2.626   1.921   3.069 -0.0851  1.7430  2.5323
 8988SOL     OW38599   3.879   1.440   3.217 -0.3896  0.5455  0.1224
 8988SOL    HW138600   3.787   1.447   3.242 -0.2517 -0.7930  1.0520
 8988SOL    HW238601   3.940   1.402   3.282  1.1661  0.9367 -1.1153
 8989SOL     OW38602   3.089   3.191   6.931 -0.5266  0.3868  0.6260
 8989SOL    HW138603   3.032   3.198   7.008 -0.6276  0.6396  0.5295
 8989SOL    HW238604   3.026   3.153   6.870  0.2853 -0.8362  0.5503
 8990SOL     OW38605   0.103   4.073   3.980  0.1726 -0.5476 -0.3766
 8990SOL    HW138606   0.062   4.159   3.967  1.3516  0.2849  1.2547
 8990SOL    HW238607   0.192   4.104   4.000 -0.5818  0.6938  1.1148
 8991SOL     OW38608   0.414   2.730   0.355 -0.5689 -0.0196 -0.2269
 8991SOL    HW138609   0.471   2.805   0.336 -0.3464 -0.4305 -1.2209
 8991SOL    HW238610   0.419   2.713   0.449 -0.9939 -1.6560 -0.5006
 8992SOL     OW38611   4.192   0.363  10.064 -0.6283 -0.5917 -0.0674
 8992SOL    HW138612   4.280   0.326  10.061  0.3317  1.7139  0.6200
 8992SOL    HW238613   4.204   0.457  10.074 -0.8835 -0.5352 -0.2710
 8993SOL     OW38614   1.342   3.010  14.062 -0.2698  0.0444 -0.4329
 8993SOL    HW138615   1.289   3.038  14.137 -0.6738  2.8671 -1.7728
 8993SOL    HW238616   1.361   2.921  14.090 -1.3049  0.2331  0.9099
 8994SOL     OW38617   4.592   4.646   8.150  0.3380  0.1002 -0.1869
 8994SOL    HW138618   4.576   4.666   8.243 -0.4027  0.7089 -0.4429
 8994SOL    HW238619   4.590   4.733   8.109  3.0135  1.3856  2.3923
 8995SOL     OW38620   4.322   2.432   2.232 -0.0760  0.0612 -0.5319
 8995SOL    HW138621   4.392   2.493   2.205 -1.0823  1.1270 -0.7645
 8995SOL    HW238622   4.374   2.355   2.252 -2.3265 -0.8610  1.6795
 8996SOL     OW38623   3.200   0.533   4.719  0.0859 -0.1618  0.2663
 8996SOL    HW138624   3.113   0.573   4.719  0.2299  0.1481  0.0658
 8996SOL    HW238625   3.174   0.460   4.775  0.0344  0.6025  1.2513
 8997SOL     OW38626   1.110   3.770   6.355 -0.0957 -0.1667  0.2763
 8997SOL    HW138627   1.036   3.830   6.343  0.2599  0.2472  0.1632
 8997SOL    HW238628   1.182   3.832   6.367  0.1697 -0.4262  0.0254
 8998SOL     OW38629   4.553   0.242   9.036  0.1734 -0.4057  0.0493
 8998SOL    HW138630   4.632   0.297   9.036 -0.0196 -0.1330  0.2796
 8998SOL    HW238631   4.480   0.302   9.027 -0.7004 -1.4553  0.1116
 8999SOL     OW38632   1.663   0.492  16.811  0.5930 -0.2731  0.5513
 8999SOL    HW138633   1.726   0.483  16.883  2.0593 -0.6531 -0.7718
 8999SOL    HW238634   1.674   0.585  16.788 -2.4394  0.0409  0.4606
 9000SOL     OW38635   2.277   1.558   5.773 -0.0219  0.3632  0.3241
 9000SOL    HW138636   2.247   1.540   5.862 -0.4197  0.9792  0.3142
 9000SOL    HW238637   2.361   1.512   5.771  1.3604  2.9354 -1.2425
 9001SOL     OW38638   0.797   2.503   4.752  0.0874  0.4054 -0.4068
 9001SOL    HW138639   0.891   2.522   4.750  0.6779 -1.9396  3.7111
 9001SOL    HW238640   0.789   2.477   4.844  0.8801 -0.3519 -0.5520
 9002SOL     OW38641   3.465   2.004   4.568 -0.4986 -0.1582 -0.2370
 9002SOL    HW138642   3.540   1.948   4.587 -0.9368  0.0718  2.2090
 9002SOL    HW238643   3.407   1.986   4.642 -0.0609 -0.9420 -0.0863
 9003SOL     OW38644   1.247   1.796   8.617 -0.3998 -0.1159  0.0527
 9003SOL    HW138645   1.206   1.796   8.703  1.9630 -0.2419  1.1918
 9003SOL    HW238646   1.178   1.835   8.564 -0.2934 -1.5342 -1.1351
 9004SOL     OW38647   3.304   2.022   2.046  0.0289  0.6288 -0.7845
 9004SOL    HW138648   3.278   2.084   2.115  0.9272  0.5559 -0.3843
 9004SOL    HW238649   3.219   2.002   2.007  0.6494  0.4256 -2.0483
 9005SOL     OW38650   1.746   4.139   6.157  0.4177 -0.1688 -0.0316
 9005SOL    HW138651   1.678   4.192   6.116  0.8728 -0.7936 -1.6161
 9005SOL    HW238652   1.814   4.206   6.165 -1.7455  1.9894 -0.0673
 9006SOL     OW38653   1.276   0.360  17.702  0.6737  0.0169  0.1664
 9006SOL    HW138654   1.334   0.330  17.631  1.0978 -0.1424  0.5804
 9006SOL    HW238655   1.218   0.425  17.664 -1.7577 -0.0022  3.8529
 9007SOL     OW38656   3.005   0.826   5.629  0.0137 -0.6573  0.0862
 9007SOL    HW138657   2.958   0.746   5.605 -1.3704 -0.3781  1.9580
 9007SOL    HW238658   3.028   0.805   5.719  0.7136  1.0194  0.2900
 9008SOL     OW38659   0.927   1.522  15.148 -0.2011  0.3159  0.1576
 9008SOL    HW138660   0.861   1.506  15.081  0.6776 -2.7297  0.0062
 9008SOL    HW238661   0.991   1.458  15.117 -1.3612 -1.0975  0.6618
 9009SOL     OW38662   2.333   3.502  15.176  0.1800  0.3008  0.3983
 9009SOL    HW138663   2.297   3.585  15.144  1.4541  0.2548 -1.1557
 9009SOL    HW238664   2.419   3.536  15.199  1.0811 -1.0058 -1.0863
 9010SOL     OW38665   2.164   1.080   1.752  0.1452  0.0071 -0.2614
 9010SOL    HW138666   2.142   1.110   1.840 -2.0857  1.1047 -1.2070
 9010SOL    HW238667   2.184   0.988   1.771 -0.4611 -0.4045 -1.5828
 9011SOL     OW38668   3.837   1.261   3.604  0.1832 -0.8648 -0.1519
 9011SOL    HW138669   3.891   1.233   3.678  1.0099  0.7209 -0.1568
 9011SOL    HW238670   3.769   1.310   3.651  1.9936  2.5447 -1.0577
 9012SOL     OW38671   4.680   1.329   2.700 -0.5089  0.3920  0.0533
 9012SOL    HW138672   0.034   1.327   2.686 -0.3171  1.5087  1.2022
 9012SOL    HW238673   4.667   1.262   2.768 -0.8383  0.7255  0.3198
 9013SOL     OW38674   4.061   0.222   4.517  0.5120 -0.0570 -0.0589
 9013SOL    HW138675   4.005   0.288   4.557 -0.1268 -0.1262 -0.8316
 9013SOL    HW238676   4.119   0.272   4.460 -2.1735  0.1046 -2.6701
 9014SOL     OW38677   1.164   2.788   0.930  1.0910 -0.5664  0.4911
 9014SOL    HW138678   1.222   2.763   0.858  0.2793  1.4755 -0.8625
 9014SOL    HW238679   1.167   2.884   0.925  1.4856 -0.6939 -1.8614
 9015SOL     OW38680   4.313   3.030  12.688 -0.3745 -0.2591  0.3292
 9015SOL    HW138681   4.348   3.082  12.615  0.1770 -1.2611 -0.1220
 9015SOL    HW238682   4.238   3.081  12.719  1.1320  0.6202  2.5369
 9016SOL     OW38683   3.929   4.525   1.963  0.1512 -0.0625 -0.3401
 9016SOL    HW138684   3.901   4.436   1.939  0.1073 -0.0734 -0.2449
 9016SOL    HW238685   3.847   4.572   1.951  0.9637  0.9883 -1.7969
 9017SOL     OW38686   0.359   2.529   4.284  0.4107  0.0075  0.3786
 9017SOL    HW138687   0.399   2.455   4.237  0.2192 -0.2910  0.6898
 9017SOL    HW238688   0.278   2.533   4.232 -0.4635  1.0167  1.8406
 9018SOL     OW38689   0.470   1.943   7.976  0.5097 -0.0370 -0.2964
 9018SOL    HW138690   0.557   1.904   7.981  0.8310  0.7865  0.4431
 9018SOL    HW238691   0.479   2.020   7.921 -0.9330 -1.0006 -1.8950
 9019SOL     OW38692   1.954   4.138   5.194 -0.1273  0.0127  0.0603
 9019SOL    HW138693   1.954   4.226   5.232  0.3109 -0.8013  1.9210
 9019SOL    HW238694   2.049   4.125   5.194 -0.0011  0.9484  0.1388
 9020SOL     OW38695   0.473   3.208  17.636 -0.4844 -0.4790  0.6131
 9020SOL    HW138696   0.389   3.245  17.609 -1.5244 -1.8749  2.0038
 9020SOL    HW238697   0.444   3.155  17.710  1.1684 -0.2843  1.4082
 9021SOL     OW38698   1.449   3.181   6.631 -0.1358 -0.2874 -0.2318
 9021SOL    HW138699   1.359   3.201   6.655  0.6527  0.8476  1.7413
 9021SOL    HW238700   1.483   3.269   6.612 -1.0439 -0.0292 -0.6546
 9022SOL     OW38701   2.102   1.253  13.224 -1.3074 -0.2338  0.5417
 9022SOL    HW138702   2.095   1.337  13.179  0.4105 -1.4954 -2.0647
 9022SOL    HW238703   2.134   1.188  13.161 -1.9052  1.4612 -1.4859
 9023SOL     OW38704   4.622   0.246  11.510  0.3010 -0.0213  0.2953
 9023SOL    HW138705   4.595   0.191  11.584  3.2815 -0.7762  0.8172
 9023SOL    HW238706   4.601   0.198  11.430 -2.9777  0.4641  0.8588
 9024SOL     OW38707   1.423   0.862  11.001  0.9474  0.4274  0.1238
 9024SOL    HW138708   1.481   0.933  11.028  2.1091 -0.3579 -0.3224
 9024SOL    HW238709   1.412   0.812  11.082  1.5454 -0.3262 -0.2631
 9025SOL     OW38710   2.082   1.704   2.991 -0.3097 -0.0270 -0.6453
 9025SOL    HW138711   2.107   1.785   2.946 -0.6634 -0.0836 -0.9394
 9025SOL    HW238712   2.086   1.734   3.082 -1.1787  1.5268 -1.1114
 9026SOL     OW38713   3.370   0.288  11.122  0.0672  0.4056  0.1234
 9026SOL    HW138714   3.423   0.266  11.045  0.1283 -3.2182  1.2165
 9026SOL    HW238715   3.365   0.205  11.169 -0.7091  1.1337  1.3156
 9027SOL     OW38716   2.472   0.006   1.739 -0.5026 -0.6550 -0.6385
 9027SOL    HW138717   2.491   4.652   1.731  0.7269 -0.3203 -1.6685
 9027SOL    HW238718   2.387   0.008   1.783  0.0854 -1.7800  0.5526
 9028SOL     OW38719   1.945   0.689   6.842 -0.2432 -0.2109 -0.0586
 9028SOL    HW138720   2.016   0.696   6.779 -0.0802  0.2142  0.1716
 9028SOL    HW238721   1.955   0.773   6.887 -1.7013  0.1061 -0.2990
 9029SOL     OW38722   1.520   3.342   7.408 -0.2880 -0.4004 -0.4981
 9029SOL    HW138723   1.442   3.347   7.463 -0.1375 -2.1953 -0.0952
 9029SOL    HW238724   1.480   3.343   7.322  1.5496 -1.9105 -1.3770
 9030SOL     OW38725   4.627   2.807   2.308 -0.5101 -0.6929 -0.1246
 9030SOL    HW138726   4.719   2.783   2.316 -0.9937 -2.7744 -0.7320
 9030SOL    HW238727   4.625   2.831   2.215 -1.0654  2.2406  0.6288
 9031SOL     OW38728   3.509   3.031   4.702 -0.0378  0.1742 -0.2660
 9031SOL    HW138729   3.573   3.064   4.639  1.5769  1.1864  1.9034
 9031SOL    HW238730   3.436   3.093   4.704  0.1206  0.3289  1.5112
 9032SOL     OW38731   4.263   2.668   3.502 -0.3422  0.0887  0.7025
 9032SOL    HW138732   4.287   2.582   3.468 -0.2602  0.4779 -0.2188
 9032SOL    HW238733   4.331   2.719   3.457  0.3948 -0.7232  0.8944
 9033SOL     OW38734   2.112   1.614   5.572  0.1728  0.2884  0.0266
 9033SOL    HW138735   2.103   1.521   5.552 -0.8524  0.3813  0.0632
 9033SOL    HW238736   2.178   1.609   5.641  0.5710 -0.6346 -0.4224
 9034SOL     OW38737   4.209   3.499   2.838 -0.5505  0.0504  0.0674
 9034SOL    HW138738   4.239   3.575   2.789  0.8258 -1.5275 -1.5631
 9034SOL    HW238739   4.282   3.437   2.828 -1.5547 -1.2514  0.7369
 9035SOL     OW38740   2.522   2.350  15.641  0.2123 -0.2951 -0.0083
 9035SOL    HW138741   2.455   2.333  15.574  1.9710 -4.7211 -0.6592
 9035SOL    HW238742   2.508   2.445  15.643  3.7842  0.2601 -1.2595
 9036SOL     OW38743   2.743   0.238   7.418  0.0382  0.7229  0.2428
 9036SOL    HW138744   2.725   0.165   7.359  0.9894  1.3884 -0.8597
 9036SOL    HW238745   2.663   0.291   7.420  0.6198  1.6155 -0.0797
 9037SOL     OW38746   3.690   3.618   5.767 -0.3869 -0.3698 -0.3758
 9037SOL    HW138747   3.693   3.539   5.713 -1.4737 -0.1375 -0.7650
 9037SOL    HW238748   3.624   3.666   5.717 -1.5940 -0.3203  1.2486
 9038SOL     OW38749   3.879   0.089   1.698  0.0473 -0.1406 -0.2821
 9038SOL    HW138750   3.795   0.047   1.716  0.5150 -0.3969  1.2954
 9038SOL    HW238751   3.882   0.138   1.780  0.9753  1.8030 -1.4613
 9039SOL     OW38752   2.957   0.169  15.451  0.5225 -0.1399 -0.0422
 9039SOL    HW138753   3.051   0.150  15.451  0.3461 -1.0337  1.8059
 9039SOL    HW238754   2.933   0.133  15.537  0.6596  1.4924  0.6943
 9040SOL     OW38755   2.430   3.572   8.956 -0.2251  0.2891  0.0995
 9040SOL    HW138756   2.477   3.653   8.975  1.1856 -0.8886  1.6251
 9040SOL    HW238757   2.378   3.593   8.879  0.4756  0.7167 -0.2595
 9041SOL     OW38758   3.478   2.623  10.946 -0.3953 -0.0723 -0.2557
 9041SOL    HW138759   3.545   2.558  10.967  1.7762  1.8112 -1.3228
 9041SOL    HW238760   3.407   2.614  11.009 -0.1767  0.7836  0.1195
 9042SOL     OW38761   0.973   3.687   0.956 -0.1996  0.5513  0.1649
 9042SOL    HW138762   0.878   3.689   0.942 -0.5261 -1.2177  1.9889
 9042SOL    HW238763   1.013   3.704   0.871  0.2945  1.5768  0.5962
 9043SOL     OW38764   3.492   1.780  12.951  0.0567  0.3911  0.4050
 9043SOL    HW138765   3.537   1.844  12.896  0.1877  0.4996  0.6387
 9043SOL    HW238766   3.490   1.821  13.038 -1.4082  2.0608 -0.4275
 9044SOL     OW38767   1.249   1.933  15.991 -0.0432 -0.7424 -0.0857
 9044SOL    HW138768   1.289   1.846  15.991 -0.8996 -1.1412 -0.2668
 9044SOL    HW238769   1.256   1.966  15.901 -0.6044  1.5785  0.7188
 9045SOL     OW38770   2.746   4.141   3.860 -0.0580 -0.2671  0.4113
 9045SOL    HW138771   2.698   4.216   3.897  2.2786  1.4988 -0.1022
 9045SOL    HW238772   2.672   4.095   3.820  0.5817 -0.5181 -0.4933
 9046SOL     OW38773   4.414   1.726   4.538  0.1714 -0.0931 -0.3432
 9046SOL    HW138774   4.397   1.813   4.501  0.5271 -0.0280 -0.3488
 9046SOL    HW238775   4.364   1.670   4.478  1.4742 -0.5021 -1.0388
 9047SOL     OW38776   0.659   3.831   3.553 -0.0561  0.1026  0.5721
 9047SOL    HW138777   0.682   3.863   3.466  0.5294 -0.1943  0.6180
 9047SOL    HW238778   0.731   3.767   3.555  0.6064  0.8017 -1.6035
 9048SOL     OW38779   2.596   2.697   3.905  0.0008  0.4306 -0.2116
 9048SOL    HW138780   2.517   2.649   3.880  0.5240 -0.1240 -0.7867
 9048SOL    HW238781   2.663   2.632   3.885 -0.1305  0.1023  0.4245
 9049SOL     OW38782   1.718   2.332   7.848 -0.0866 -0.2941 -0.1088
 9049SOL    HW138783   1.650   2.288   7.899 -0.5974 -0.4091 -0.8836
 9049SOL    HW238784   1.763   2.353   7.930  1.3256 -0.1816 -0.9237
 9050SOL     OW38785   2.390   1.048   3.679 -0.3478 -0.1591  0.2306
 9050SOL    HW138786   2.463   1.097   3.718  0.2281  1.5920 -3.0744
 9050SOL    HW238787   2.423   1.051   3.589 -1.9821 -0.4325 -0.3763
 9051SOL     OW38788   2.627   3.285   3.475  0.9130  0.0869 -0.4667
 9051SOL    HW138789   2.553   3.237   3.513 -0.6251  1.3315 -1.9034
 9051SOL    HW238790   2.667   3.298   3.561  1.8590 -2.2008 -0.5480
 9052SOL     OW38791   2.596   1.377  11.629 -0.0021 -0.1617 -0.1015
 9052SOL    HW138792   2.506   1.366  11.598  0.5711 -0.3163 -1.7453
 9052SOL    HW238793   2.592   1.345  11.718  1.9049  1.5980  0.6295
 9053SOL     OW38794   1.504   1.248  13.756  0.1547  0.0948  0.5812
 9053SOL    HW138795   1.594   1.281  13.762  0.3804 -0.3617 -0.2313
 9053SOL    HW238796   1.491   1.174  13.815 -0.1881 -0.0327  0.3414
 9054SOL     OW38797   3.748   3.020   3.752 -0.3986  0.2429  0.4678
 9054SOL    HW138798   3.812   2.956   3.783  0.5211  0.9967  0.0814
 9054SOL    HW238799   3.755   3.005   3.658  0.4165  1.3490  0.3643
 9055SOL     OW38800   3.828   3.082   5.556  0.1552 -0.0426  0.2041
 9055SOL    HW138801   3.774   3.078   5.477 -2.5732 -0.7518  2.1133
 9055SOL    HW238802   3.770   3.125   5.620  1.3409  1.0247  0.5624
 9056SOL     OW38803   1.646   2.821   7.301  0.6753 -0.5457 -0.2412
 9056SOL    HW138804   1.610   2.733   7.292 -0.3669 -0.3328  1.8958
 9056SOL    HW238805   1.591   2.858   7.231  0.2544  0.0085  0.3864
 9057SOL     OW38806   1.073   1.379   1.790 -0.3309 -0.3515  0.1329
 9057SOL    HW138807   0.989   1.334   1.780 -0.9162  0.4991  1.1916
 9057SOL    HW238808   1.118   1.303   1.826  1.3076 -0.0826 -1.3357
 9058SOL     OW38809   2.161   3.451   8.106  0.1557 -0.3804  0.0601
 9058SOL    HW138810   2.104   3.407   8.169  0.0503 -0.2272  0.0713
 9058SOL    HW238811   2.121   3.422   8.024  0.6596 -0.7009 -0.0694
 9059SOL     OW38812   0.836   3.791   8.343  0.7833  0.0215  0.1886
 9059SOL    HW138813   0.788   3.868   8.374 -0.1482 -1.8060  3.2997
 9059SOL    HW238814   0.888   3.847   8.286  0.6780 -0.3703 -0.2859
 9060SOL     OW38815   3.076   3.474   5.310  0.0117 -0.3830  0.7218
 9060SOL    HW138816   3.015   3.548   5.309  2.2652  1.5164  1.9462
 9060SOL    HW238817   3.063   3.452   5.402 -1.4332  1.1337  0.8923
 9061SOL     OW38818   1.737   3.260  10.404  0.7229 -0.4108 -0.3853
 9061SOL    HW138819   1.728   3.278  10.310  1.4162 -0.1123 -0.3918
 9061SOL    HW238820   1.644   3.269  10.428  0.1681 -0.6573 -2.4011
 9062SOL     OW38821   2.241   2.241   9.710  0.2376  0.0110 -0.4462
 9062SOL    HW138822   2.171   2.271   9.652  1.1254  0.7119 -1.1631
 9062SOL    HW238823   2.260   2.322   9.759  0.3064  0.0933 -0.6082
 9063SOL     OW38824   4.205   0.248   3.532 -0.7619  0.2778 -0.0084
 9063SOL    HW138825   4.179   0.284   3.447 -1.6478 -0.4676 -0.0509
 9063SOL    HW238826   4.116   0.220   3.554 -0.9335  1.8044  1.2873
 9064SOL     OW38827   4.034   1.005  16.982  0.2311  0.1221 -0.1476
 9064SOL    HW138828   4.012   1.071  17.047 -0.5708 -1.7649  1.4761
 9064SOL    HW238829   4.035   0.923  17.032 -2.7352  0.4560  0.4577
 9065SOL     OW38830   4.385   1.722   3.600 -0.0323 -0.2420  0.4486
 9065SOL    HW138831   4.304   1.691   3.561  0.6165  0.3708 -1.4162
 9065SOL    HW238832   4.386   1.685   3.688 -2.9143  0.9584  0.9867
 9066SOL     OW38833   1.206   1.503   2.676  0.3791  0.5148 -0.1126
 9066SOL    HW138834   1.283   1.555   2.654 -0.4396  1.6166 -0.3317
 9066SOL    HW238835   1.141   1.560   2.635 -0.6425  0.9543  2.1002
 9067SOL     OW38836   3.292   2.400   5.924 -0.0874  0.0355  0.4222
 9067SOL    HW138837   3.219   2.391   5.863  1.1691 -1.0337 -0.9452
 9067SOL    HW238838   3.269   2.331   5.987  0.3735 -0.9411 -0.4711
 9068SOL     OW38839   2.185   4.154   4.797 -0.2402  0.0169 -0.4003
 9068SOL    HW138840   2.153   4.214   4.730  1.6174  0.3113 -1.0313
 9068SOL    HW238841   2.270   4.194   4.815 -0.7294  1.2172 -0.8172
 9069SOL     OW38842   4.268   2.698   6.898  0.2620 -0.0014 -0.5599
 9069SOL    HW138843   4.249   2.742   6.816  2.8306  0.4829 -0.9088
 9069SOL    HW238844   4.237   2.615   6.861  0.6368  0.0572 -1.0060
 9070SOL     OW38845   1.803   0.586   3.536  0.2463 -0.2932 -0.5937
 9070SOL    HW138846   1.831   0.520   3.599  0.4907  0.4015  0.0273
 9070SOL    HW238847   1.752   0.528   3.479 -3.1405  0.8078  1.2907
 9071SOL     OW38848   2.588   2.359  17.588 -0.1365  0.1679  0.0231
 9071SOL    HW138849   2.663   2.356  17.648  0.9784 -0.5919 -1.4146
 9071SOL    HW238850   2.629   2.395  17.510 -1.5613  2.9747  0.5728
 9072SOL     OW38851   4.143   2.736   9.353 -0.2668 -0.4216 -0.0485
 9072SOL    HW138852   4.236   2.724   9.372  0.2304  1.1489 -1.4257
 9072SOL    HW238853   4.128   2.663   9.293  0.2719  0.6188 -1.4445
 9073SOL     OW38854   4.028   1.722   3.694 -0.0547  0.0783  0.0159
 9073SOL    HW138855   4.031   1.768   3.610  0.8817  2.4185  1.3502
 9073SOL    HW238856   3.951   1.674   3.665 -0.2398  1.1081 -1.1961
 9074SOL     OW38857   0.139   2.853  10.016 -0.0462 -0.5894 -0.3924
 9074SOL    HW138858   0.148   2.805  10.098  3.2450  1.6782  0.5676
 9074SOL    HW238859   0.135   2.775   9.960  3.7095 -0.3428 -0.9797
 9075SOL     OW38860   4.330   4.189   8.098 -0.0285  0.1493  0.1114
 9075SOL    HW138861   4.404   4.172   8.039 -0.1549 -0.6537  0.1893
 9075SOL    HW238862   4.357   4.272   8.135 -0.3315  0.9206 -1.3807
 9076SOL     OW38863   2.347   0.012  15.565 -0.8013 -0.5938 -0.4362
 9076SOL    HW138864   2.265   0.058  15.582  0.0622  0.4291  0.8477
 9076SOL    HW238865   2.328   4.663  15.596  0.1762 -0.9157 -0.7684
 9077SOL     OW38866   4.180   1.376   2.749 -0.2215 -0.1657 -0.9592
 9077SOL    HW138867   4.146   1.298   2.791 -0.2331 -0.0512 -0.7551
 9077SOL    HW238868   4.140   1.449   2.796  0.0648 -0.1681 -0.7054
 9078SOL     OW38869   3.178   1.527  10.964  0.8247  0.2915  0.0973
 9078SOL    HW138870   3.200   1.484  11.047  0.2140 -1.5001 -0.6755
 9078SOL    HW238871   3.265   1.557  10.938  2.8373 -4.8442  0.7598
 9079SOL     OW38872   3.685   4.023  14.714 -0.5038 -0.1802 -0.5557
 9079SOL    HW138873   3.748   3.999  14.783 -0.0514  2.2671 -0.1107
 9079SOL    HW238874   3.667   3.938  14.674  0.2455  0.1673 -1.6364
 9080SOL     OW38875   0.874   0.255   3.087  0.3443  0.2562 -0.2378
 9080SOL    HW138876   0.963   0.289   3.088  0.7752 -0.8093 -2.1268
 9080SOL    HW238877   0.897   0.165   3.062 -0.0358 -0.4158  1.8182
 9081SOL     OW38878   2.056   4.586  13.036 -0.1876 -1.0807 -0.1300
 9081SOL    HW138879   2.026   4.534  12.961 -1.8700  2.3797 -1.8762
 9081SOL    HW238880   2.043   4.514  13.098  1.8049 -0.2906  1.2159
 9082SOL     OW38881   4.198   2.675   8.399  0.4083  0.0970 -0.2507
 9082SOL    HW138882   4.250   2.693   8.477 -2.9574 -1.8625  2.4268
 9082SOL    HW238883   4.190   2.580   8.403  4.0434 -0.3652 -3.6923
 9083SOL     OW38884   1.064   3.277  12.657 -0.3361  0.1494 -0.2999
 9083SOL    HW138885   1.047   3.304  12.748  1.3049 -0.8611  0.3135
 9083SOL    HW238886   1.151   3.308  12.634 -0.4720 -0.9371 -2.2349
 9084SOL     OW38887   3.343   3.722   7.322 -0.4555 -0.1462  0.3934
 9084SOL    HW138888   3.266   3.733   7.377  0.3615  1.1554  1.2855
 9084SOL    HW238889   3.355   3.628   7.312  0.4178  0.1603 -1.5606
 9085SOL     OW38890   2.953   3.962   7.830 -0.1329 -0.4354  0.4428
 9085SOL    HW138891   2.902   3.937   7.907 -0.5859 -0.2590  0.2012
 9085SOL    HW238892   2.918   4.048   7.809 -0.5952 -0.9584 -0.9347
 9086SOL     OW38893   0.140   1.005  10.481 -0.4031 -0.0184  0.8513
 9086SOL    HW138894   0.220   0.955  10.492  0.8928  2.2405  1.6556
 9086SOL    HW238895   0.081   0.958  10.540 -0.9023 -0.0605  0.3253
 9087SOL     OW38896   0.276   3.436   9.210 -0.0992 -0.5210  0.4306
 9087SOL    HW138897   0.277   3.342   9.223  1.4478 -0.6204 -0.3733
 9087SOL    HW238898   0.352   3.463   9.262  0.2738 -1.5883  0.4282
 9088SOL     OW38899   1.002   2.878   2.529 -0.7786  0.2337  0.1044
 9088SOL    HW138900   1.097   2.887   2.517 -1.1315 -0.1263 -2.8854
 9088SOL    HW238901   0.977   2.942   2.595 -1.7189 -0.1197  0.0881
 9089SOL     OW38902   3.254   1.977   2.472 -0.7464 -0.0353 -0.1201
 9089SOL    HW138903   3.339   1.974   2.427 -0.3196  0.0824  0.6735
 9089SOL    HW238904   3.191   1.941   2.409 -2.1302 -0.0682  1.2967
 9090SOL     OW38905   1.831   0.896   2.221  0.1065 -0.1754  0.2847
 9090SOL    HW138906   1.884   0.887   2.142 -0.2972  0.2363 -0.0347
 9090SOL    HW238907   1.850   0.981   2.263  0.7931 -1.8069  3.2847
 9091SOL     OW38908   3.192   2.277   8.967 -0.3032 -0.2237 -0.4786
 9091SOL    HW138909   3.177   2.185   8.990  2.2033 -0.5799 -0.3611
 9091SOL    HW238910   3.287   2.283   8.962 -0.2686 -0.3915 -0.0114
 9092SOL     OW38911   1.620   0.511   6.337 -0.4225  0.0270 -0.4291
 9092SOL    HW138912   1.603   0.589   6.388  1.7360 -1.0046  1.8580
 9092SOL    HW238913   1.546   0.518   6.275 -0.8594 -0.3193  0.0479
 9093SOL     OW38914   4.712   2.614  13.970  0.3500  0.2773 -0.0637
 9093SOL    HW138915   0.043   2.620  13.906 -0.1543 -3.2580 -0.9813
 9093SOL    HW238916   4.657   2.689  13.947 -0.2731 -0.5870 -1.3874
 9094SOL     OW38917   4.004   4.437   9.171 -0.2715 -0.3059  0.2363
 9094SOL    HW138918   3.951   4.499   9.221 -1.0112 -0.8844  0.1550
 9094SOL    HW238919   3.934   4.384   9.134 -0.0206 -0.7338  0.3677
 9095SOL     OW38920   4.148   2.361  11.186  0.7443 -0.1025 -0.2373
 9095SOL    HW138921   4.122   2.376  11.094  0.0760  0.8095  0.0907
 9095SOL    HW238922   4.241   2.341  11.176  0.5655 -0.4946 -1.0917
 9096SOL     OW38923   4.035   3.820   5.116  0.0614 -0.7241  0.1959
 9096SOL    HW138924   4.028   3.732   5.080  0.7661 -0.8526  0.3760
 9096SOL    HW238925   3.997   3.880   5.052  0.2194 -0.3004  0.4982
 9097SOL     OW38926   2.054   4.674  12.514 -0.5156 -0.6172 -0.2464
 9097SOL    HW138927   1.966   4.641  12.499 -0.8409  0.2488 -0.2519
 9097SOL    HW238928   2.045   0.029  12.507 -0.2228 -0.4299  2.0758
 9098SOL     OW38929   4.072   2.096   3.272  0.6689  0.1997 -0.0544
 9098SOL    HW138930   4.161   2.088   3.304  0.2409 -0.1695  1.0264
 9098SOL    HW238931   4.032   2.122   3.355  1.1393 -0.9577  0.5393
 9099SOL     OW38932   2.201   2.756   5.161  0.3695  0.0218 -0.5917
 9099SOL    HW138933   2.288   2.731   5.193  0.9845  2.5082 -0.3534
 9099SOL    HW238934   2.197   2.851   5.153 -0.6506 -0.2295 -3.0183
 9100SOL     OW38935   0.926   3.953   4.336  0.2266 -0.0781  0.5445
 9100SOL    HW138936   0.903   3.880   4.394  1.1886 -0.7600  0.0723
 9100SOL    HW238937   0.990   3.919   4.274 -0.7176  1.8451 -1.4607
 9101SOL     OW38938   0.026   1.521   9.505  0.0086  0.3572 -0.5923
 9101SOL    HW138939   4.723   1.585   9.449 -0.4786  0.4499 -0.1109
 9101SOL    HW238940   4.733   1.434   9.481 -1.7595 -0.0169  3.1026
 9102SOL     OW38941   1.324   4.641   6.812 -0.1333 -0.2285 -0.0434
 9102SOL    HW138942   1.419   4.651   6.813 -0.2667  1.1075 -0.8515
 9102SOL    HW238943   1.311   4.612   6.902 -0.2452 -3.6927 -1.1888
 9103SOL     OW38944   4.693   1.844   7.966 -0.0243 -0.3212 -0.3943
 9103SOL    HW138945   4.643   1.768   7.937  0.7351 -2.2727  3.3132
 9103SOL    HW238946   4.697   1.828   8.061 -0.3185  0.6504 -0.2194
 9104SOL     OW38947   0.513   2.121  15.682  0.1327 -0.2244  0.8175
 9104SOL    HW138948   0.564   2.170  15.617 -0.1107  0.7018  1.3138
 9104SOL    HW238949   0.476   2.194  15.732 -0.3712  1.2509 -1.6736
 9105SOL     OW38950   0.670   2.907  12.999 -0.0198  0.4433 -0.6469
 9105SOL    HW138951   0.749   2.941  12.957  0.9976  1.2786  1.9485
 9105SOL    HW238952   0.652   2.993  13.038  0.0528  0.7021 -1.1952
 9106SOL     OW38953   4.694   0.742   9.316 -0.0855 -0.1066 -0.0963
 9106SOL    HW138954   4.697   0.747   9.412 -1.1635 -0.0865 -0.0688
 9106SOL    HW238955   4.615   0.689   9.303  1.2380 -2.0357 -0.4024
 9107SOL     OW38956   3.086   3.469   6.769 -0.3029  0.0642  0.5425
 9107SOL    HW138957   3.098   3.386   6.722 -1.2170  1.0502 -1.3989
 9107SOL    HW238958   3.020   3.460   6.838 -1.8694  1.2198 -0.8180
 9108SOL     OW38959   4.160   4.525   5.477 -0.5245 -0.1787 -0.6287
 9108SOL    HW138960   4.081   4.568   5.443 -0.9853  0.1859  0.8562
 9108SOL    HW238961   4.166   4.565   5.564  0.9415  0.2870 -0.9476
 9109SOL     OW38962   0.656   0.800  16.938 -0.3232 -0.1595 -0.2299
 9109SOL    HW138963   0.686   0.730  16.880  0.4344 -2.5083  2.9998
 9109SOL    HW238964   0.729   0.859  16.926  0.5409 -0.5518  2.9568
 9110SOL     OW38965   1.456   4.662   5.632  0.2530 -0.6694  0.4586
 9110SOL    HW138966   1.438   4.569   5.619  0.8773 -0.4824 -1.7209
 9110SOL    HW238967   1.365   4.686   5.647 -0.0852 -0.4412 -1.9578
 9111SOL     OW38968   1.816   2.626   3.532 -0.1860 -0.0888 -0.2913
 9111SOL    HW138969   1.818   2.560   3.602  0.2017 -1.1076 -1.2515
 9111SOL    HW238970   1.758   2.597   3.462 -0.7787  0.7374 -0.1321
 9112SOL     OW38971   3.840   4.130  14.501  0.0717 -0.0286 -0.2427
 9112SOL    HW138972   3.750   4.111  14.530  0.3734 -0.7115  0.2233
 9112SOL    HW238973   3.888   4.053  14.531 -2.5419 -1.4112  0.4086
 9113SOL     OW38974   2.165   1.777   8.539 -0.2697 -0.0918  0.0105
 9113SOL    HW138975   2.200   1.820   8.461 -0.0110  2.2421  1.4146
 9113SOL    HW238976   2.174   1.841   8.610  1.7431  0.0985 -0.4148
 9114SOL     OW38977   0.635   0.889   7.979 -0.0361  0.8440  0.5531
 9114SOL    HW138978   0.606   0.968   8.024 -2.2434 -0.2427  1.0764
 9114SOL    HW238979   0.556   0.870   7.927  0.2294 -1.1877  0.9117
 9115SOL     OW38980   4.434   0.468   6.001  0.1273 -0.3099 -0.2586
 9115SOL    HW138981   4.487   0.503   6.073 -0.7330  0.1284  0.1641
 9115SOL    HW238982   4.467   0.512   5.923 -1.0577 -1.5800 -1.4612
 9116SOL     OW38983   0.889   1.644   6.573  0.9921 -0.5388 -0.2388
 9116SOL    HW138984   0.829   1.717   6.558  1.0779 -0.6356 -1.0410
 9116SOL    HW238985   0.970   1.665   6.527  0.3171 -0.7804 -1.5371
 9117SOL     OW38986   4.098   0.751   2.796 -0.5928  0.2487  0.2278
 9117SOL    HW138987   4.106   0.693   2.721 -3.4887 -0.1237  0.2223
 9117SOL    HW238988   4.003   0.748   2.808 -0.8229  2.1546 -1.1272
 9118SOL     OW38989   3.094   2.783  11.370 -0.3304 -0.3988  0.2354
 9118SOL    HW138990   3.011   2.748  11.401 -0.3152 -0.7361 -0.0959
 9118SOL    HW238991   3.092   2.776  11.274 -2.6264  0.1509  0.2504
 9119SOL     OW38992   1.888   3.734   6.511  0.4064  0.0500  0.1366
 9119SOL    HW138993   1.971   3.775   6.536  0.5032 -0.2307  0.2785
 9119SOL    HW238994   1.884   3.768   6.421  2.7652  0.9143  0.3675
 9120SOL     OW38995   4.296   3.787   3.655  0.1129 -0.4622 -0.1113
 9120SOL    HW138996   4.367   3.724   3.660  1.3307  0.8061 -1.3460
 9120SOL    HW238997   4.342   3.862   3.693  3.7158 -2.2368 -1.0642
 9121SOL     OW38998   4.161   2.623   5.936 -0.1157 -0.6575 -0.1654
 9121SOL    HW138999   4.119   2.538   5.927  1.3246 -1.4038  0.3012
 9121SOL    HW239000   4.147   2.655   5.846 -0.2198 -0.5590 -0.1141
 9122SOL     OW39001   3.879   4.607   6.943  0.3587  0.3214  0.6150
 9122SOL    HW139002   3.952   4.590   7.002 -0.4509 -1.1105  1.2026
 9122SOL    HW239003   3.932   4.619   6.864 -1.3306  2.5411 -0.1814
 9123SOL     OW39004   4.267   3.613  15.127  0.3098  0.0272  0.3116
 9123SOL    HW139005   4.318   3.691  15.106 -1.2643  0.9428 -0.0627
 9123SOL    HW239006   4.235   3.639  15.213 -1.2126  1.2647 -0.6264
 9124SOL     OW39007   1.461   0.018   8.722  0.0971  0.9849  0.3679
 9124SOL    HW139008   1.527   0.053   8.782  0.1953 -1.9360  1.9397
 9124SOL    HW239009   1.412   4.693   8.773  1.0518 -0.5689 -0.6922
 9125SOL     OW39010   0.102   0.809   5.851 -0.5580  0.4804 -0.3502
 9125SOL    HW139011   0.019   0.815   5.898 -1.2351 -2.6812 -1.1584
 9125SOL    HW239012   0.084   0.734   5.794  0.8466 -0.7223  0.7909
 9126SOL     OW39013   2.305   4.371   6.538  0.5116 -0.8242 -0.1537
 9126SOL    HW139014   2.265   4.391   6.623  0.0165  1.2160 -0.8748
 9126SOL    HW239015   2.245   4.424   6.485  1.7396  1.3881  0.7074
 9127SOL     OW39016   3.241   3.634   2.263 -0.2550 -0.0918  0.6228
 9127SOL    HW139017   3.154   3.625   2.302 -0.4480  0.8591  0.4009
 9127SOL    HW239018   3.295   3.650   2.341 -0.1296 -1.9008  0.9167
 9128SOL     OW39019   3.963   0.589   4.502 -0.1606 -0.3617 -0.8239
 9128SOL    HW139020   3.953   0.675   4.543 -2.5213 -0.6414 -0.8497
 9128SOL    HW239021   3.946   0.527   4.573 -0.9613  0.9383  0.1184
 9129SOL     OW39022   3.942   0.611  14.745 -0.4487 -0.0348 -0.2123
 9129SOL    HW139023   3.890   0.604  14.665 -1.3659  0.7782  0.3103
 9129SOL    HW239024   3.967   0.519  14.755 -1.1941 -0.0322  1.7540
 9130SOL     OW39025   1.684   1.008   6.827 -0.6323 -0.0777 -0.3381
 9130SOL    HW139026   1.753   0.974   6.885  1.2400  1.2140 -1.8073
 9130SOL    HW239027   1.656   1.087   6.872 -0.6992 -0.6232  0.5809
 9131SOL     OW39028   0.454   1.224   3.158 -0.2364 -0.4602 -0.3069
 9131SOL    HW139029   0.366   1.211   3.192 -0.1260  0.6010  0.3847
 9131SOL    HW239030   0.491   1.288   3.218  0.1071 -2.3682  1.5315
 9132SOL     OW39031   4.666   4.557   5.915 -0.4861  0.1386 -0.3396
 9132SOL    HW139032   4.705   4.538   6.000 -1.2708 -2.1631 -0.5033
 9132SOL    HW239033   4.656   4.469   5.880 -1.2822  1.2555 -2.9907
 9133SOL     OW39034   2.185   4.338   6.048 -0.1789  0.1267  0.1909
 9133SOL    HW139035   2.277   4.314   6.058 -0.5144 -0.5994  1.4858
 9133SOL    HW239036   2.151   4.250   6.063 -0.4328 -0.1231 -1.7699
 9134SOL     OW39037   3.476   1.147   7.147 -0.1877  0.1788 -0.2559
 9134SOL    HW139038   3.532   1.212   7.190  0.1064 -1.0469  1.1743
 9134SOL    HW239039   3.531   1.071   7.163 -0.4876  0.2066  0.9042
 9135SOL     OW39040   1.060   3.883   4.845  0.5270 -0.3635  0.0999
 9135SOL    HW139041   1.112   3.833   4.908  2.7596  1.0644 -0.6163
 9135SOL    HW239042   0.982   3.828   4.838 -0.0710  0.4586  0.2372
 9136SOL     OW39043   0.426   1.473   2.778  0.3342  0.0911 -0.4884
 9136SOL    HW139044   0.447   1.472   2.871  0.0867  1.4936 -0.4242
 9136SOL    HW239045   0.359   1.406   2.766  0.3688  0.2786 -1.7504
 9137SOL     OW39046   3.401   0.231   3.415 -0.0621 -0.3462  0.1125
 9137SOL    HW139047   3.480   0.208   3.366  1.5770 -0.2527  2.7143
 9137SOL    HW239048   3.389   0.321   3.384 -0.2151  0.0184  1.2113
 9138SOL     OW39049   3.997   4.190   7.305  0.0149 -0.0601 -0.0044
 9138SOL    HW139050   3.919   4.240   7.281 -0.6383 -1.0501  0.0193
 9138SOL    HW239051   3.964   4.126   7.369  2.5323 -0.0200  1.3483
 9139SOL     OW39052   3.648   2.821   8.839 -0.2529 -0.1349  0.1151
 9139SOL    HW139053   3.604   2.829   8.924 -0.8883  1.4600 -0.3462
 9139SOL    HW239054   3.583   2.779   8.783  0.4387  1.3755 -1.8016
 9140SOL     OW39055   4.606   3.304   1.908  0.4320  0.0253  0.4458
 9140SOL    HW139056   4.574   3.242   1.973  1.5088 -1.7965 -0.7537
 9140SOL    HW239057   4.653   3.250   1.844 -0.0210 -1.0147  0.9873
 9141SOL     OW39058   3.370   4.579   3.624 -0.7934  1.3469 -0.0460
 9141SOL    HW139059   3.465   4.591   3.621 -0.6121  0.1593  1.1327
 9141SOL    HW239060   3.344   4.605   3.536 -1.0437  2.4835  0.3673
 9142SOL     OW39061   0.356   1.476   7.636 -0.1542  0.4061 -0.0580
 9142SOL    HW139062   0.452   1.481   7.630 -0.1169  0.2192  0.3927
 9142SOL    HW239063   0.332   1.563   7.670 -4.1990 -0.8339  0.2350
 9143SOL     OW39064   1.544   4.295   3.944 -0.0368  0.5674 -1.2747
 9143SOL    HW139065   1.595   4.214   3.949 -3.0920 -1.2767 -0.3571
 9143SOL    HW239066   1.485   4.282   4.018  1.6771  0.2390  0.0498
 9144SOL     OW39067   4.462   1.277   8.946 -0.0664  0.4835  0.0074
 9144SOL    HW139068   4.429   1.367   8.944 -0.2371  0.3774 -1.6317
 9144SOL    HW239069   4.423   1.220   9.012 -0.3249 -0.0154 -0.5812
 9145SOL     OW39070   0.519   4.011   1.917 -0.3062  0.2050  0.0829
 9145SOL    HW139071   0.463   4.053   1.851 -0.8247 -1.5732 -0.6245
 9145SOL    HW239072   0.603   4.050   1.897 -0.8404  1.7445  0.8925
 9146SOL     OW39073   0.415   0.193   8.245 -0.3789  0.3678  0.1767
 9146SOL    HW139074   0.340   0.143   8.213  0.3369 -1.6780  1.7101
 9146SOL    HW239075   0.489   0.168   8.189 -0.3894 -0.3555  0.4923
 9147SOL     OW39076   0.011   1.796   8.286 -0.0058  0.1228 -0.3884
 9147SOL    HW139077   0.096   1.800   8.242 -0.2124  1.2033 -0.6859
 9147SOL    HW239078   4.738   1.890   8.293 -1.9682 -0.1915  0.1632
 9148SOL     OW39079   1.090   4.220   5.209  0.5118  0.4446  0.0209
 9148SOL    HW139080   1.110   4.183   5.295 -1.1986  1.0529  0.6806
 9148SOL    HW239081   1.158   4.284   5.192  1.0765  0.2952  1.7696
 9149SOL     OW39082   0.511   3.720   8.819 -0.0751  0.4581  0.2259
 9149SOL    HW139083   0.467   3.779   8.881  0.9512  0.0897  1.2922
 9149SOL    HW239084   0.589   3.765   8.787  0.8022 -0.3238  1.2895
 9150SOL     OW39085   0.145   2.847  17.685  0.2763  0.2619  0.5628
 9150SOL    HW139086   0.230   2.818  17.653 -0.1521  0.6189 -0.9187
 9150SOL    HW239087   0.153   2.840   0.022  2.2262  1.5696  0.5039
 9151SOL     OW39088   4.432   0.287   7.393  0.4746 -0.3321  0.1894
 9151SOL    HW139089   4.524   0.261   7.385  0.0011 -1.3090 -1.9618
 9151SOL    HW239090   4.448   0.315   7.483  2.8230 -0.2736 -0.2373
 9152SOL     OW39091   2.241   2.923   6.471  0.1711 -0.2270  0.2005
 9152SOL    HW139092   2.192   2.976   6.534  2.9183  4.8551 -1.8732
 9152SOL    HW239093   2.185   2.850   6.444  0.4920 -0.4303  0.0841
 9153SOL     OW39094   3.666   4.401   1.542 -0.0777 -0.3838 -1.2858
 9153SOL    HW139095   3.647   4.308   1.537 -2.2957 -0.0948  1.5980
 9153SOL    HW239096   3.588   4.441   1.581 -0.9183 -2.8480 -0.4863
 9154SOL     OW39097   0.750   1.691   8.968  0.2655 -0.2811 -0.6346
 9154SOL    HW139098   0.822   1.711   9.028 -0.3567  2.9847 -0.9429
 9154SOL    HW239099   0.775   1.605   8.935 -1.8793 -1.7246  1.5574
 9155SOL     OW39100   0.187   2.194   8.006 -0.3016  0.3512 -0.1289
 9155SOL    HW139101   0.233   2.128   8.058 -1.0849 -1.6191 -1.9426
 9155SOL    HW239102   0.140   2.133   7.950  2.2143  0.5726 -2.4925
 9156SOL     OW39103   3.559   3.018   0.813 -0.2356 -0.5780 -0.1800
 9156SOL    HW139104   3.511   2.973   0.744 -0.4939 -0.8811  0.1949
 9156SOL    HW239105   3.609   3.075   0.755 -0.7697  1.6071  1.5053
 9157SOL     OW39106   1.319   1.632   8.384 -0.0081  0.5797  0.5512
 9157SOL    HW139107   1.303   1.673   8.469 -3.1397 -0.8051  0.6314
 9157SOL    HW239108   1.407   1.600   8.403  0.4870  0.4775 -1.9118
 9158SOL     OW39109   4.023   3.499  13.589  0.1062  0.1992 -0.4860
 9158SOL    HW139110   4.021   3.524  13.496  1.3922 -1.5512 -0.9838
 9158SOL    HW239111   4.094   3.435  13.579 -0.6215 -0.6310 -0.2926
 9159SOL     OW39112   1.437   4.176   9.387  0.0777  1.0441  0.1939
 9159SOL    HW139113   1.414   4.260   9.348  0.2502  1.6701  1.4542
 9159SOL    HW239114   1.355   4.130   9.404 -0.2252  0.2740 -3.4130
 9160SOL     OW39115   0.062   3.665  15.305 -0.0642  0.1402 -0.6079
 9160SOL    HW139116   0.103   3.584  15.336 -0.0524 -0.0531 -1.1260
 9160SOL    HW239117   0.056   3.730  15.376  2.5515 -0.1874 -0.0852
 9161SOL     OW39118   3.891   0.911   4.318  0.5787  0.3359  0.0423
 9161SOL    HW139119   3.818   0.971   4.302  0.5354  0.0327 -0.9028
 9161SOL    HW239120   3.933   0.970   4.381  0.1556  1.6315 -0.8923
 9162SOL     OW39121   1.299   0.168   2.368 -0.2336 -0.2356 -0.5795
 9162SOL    HW139122   1.270   0.177   2.278  0.2179 -1.8012 -0.8809
 9162SOL    HW239123   1.322   0.256   2.397 -0.9414  0.1104 -1.0720
 9163SOL     OW39124   0.619   3.867   4.542  0.1075 -0.1867 -0.1023
 9163SOL    HW139125   0.649   3.956   4.524  0.2853 -0.7290 -2.4835
 9163SOL    HW239126   0.697   3.812   4.532  0.9785  0.9431  0.4935
 9164SOL     OW39127   1.618   4.000   6.810 -0.8073  0.0770 -0.2353
 9164SOL    HW139128   1.684   4.003   6.740  0.4649 -2.3697  0.8341
 9164SOL    HW239129   1.670   4.045   6.877  0.1843 -0.3439 -0.7168
 9165SOL     OW39130   0.738   0.046   1.949  0.2660 -0.1298  0.2311
 9165SOL    HW139131   0.682   0.123   1.948 -2.2612 -1.9941  0.3249
 9165SOL    HW239132   0.720   0.017   2.038 -0.2653 -0.1021  0.1282
 9166SOL     OW39133   0.793   1.422   8.918  0.7339  0.7706 -0.0317
 9166SOL    HW139134   0.884   1.392   8.926  0.1438 -1.2585 -0.9198
 9166SOL    HW239135   0.756   1.381   8.996  0.0889  3.6997  1.2050
 9167SOL     OW39136   1.925   2.925   3.963 -0.1912 -0.2910 -0.1290
 9167SOL    HW139137   1.889   3.014   3.961 -0.7742 -0.5733 -1.7379
 9167SOL    HW239138   1.861   2.876   3.911 -1.2241  0.8577  0.0500
 9168SOL     OW39139   2.527   1.707  16.321  0.2572  0.7101 -0.0546
 9168SOL    HW139140   2.613   1.746  16.311 -0.3036  1.6046 -1.3582
 9168SOL    HW239141   2.542   1.617  16.291 -1.1596  0.9241 -1.3964
 9169SOL     OW39142   1.260   2.842   7.353 -0.1283  0.3447  0.1823
 9169SOL    HW139143   1.218   2.924   7.376  1.8994  1.3741  0.2213
 9169SOL    HW239144   1.189   2.778   7.356  1.2110 -1.2589 -2.2024
 9170SOL     OW39145   2.781   1.160  13.117 -0.3082 -0.5841  0.0387
 9170SOL    HW139146   2.837   1.213  13.060 -2.2101  0.0749 -1.2294
 9170SOL    HW239147   2.794   1.220  13.190 -2.2613  2.1520 -1.8523
 9171SOL     OW39148   0.176   4.145   8.673 -0.4562 -0.4354  0.1430
 9171SOL    HW139149   0.264   4.107   8.674 -0.8609 -1.3562  1.6083
 9171SOL    HW239150   0.169   4.176   8.764 -0.3929  2.2606 -0.7761
 9172SOL     OW39151   2.693   0.669   4.534  0.0455 -0.5567  0.6158
 9172SOL    HW139152   2.718   0.732   4.601  2.0863 -0.6456 -0.0339
 9172SOL    HW239153   2.704   0.593   4.591 -1.6805 -1.2726 -0.0120
 9173SOL     OW39154   3.374   4.667   7.270  0.1926  0.1283 -0.3973
 9173SOL    HW139155   3.379   0.021   7.285  1.0821 -0.2516  1.5795
 9173SOL    HW239156   3.462   4.644   7.241  0.0157  0.4160 -1.1646
 9174SOL     OW39157   0.891   0.615  12.466 -0.2698  0.6933  0.0069
 9174SOL    HW139158   0.816   0.638  12.410  0.4544 -0.0906 -1.2955
 9174SOL    HW239159   0.901   0.522  12.447  0.4074  0.7464  0.0909
 9175SOL     OW39160   0.802   1.868   3.539  0.5697 -0.2359  0.4191
 9175SOL    HW139161   0.874   1.808   3.521  0.7264 -0.5383  2.0447
 9175SOL    HW239162   0.768   1.834   3.621 -0.7444  2.0396  0.8266
 9176SOL     OW39163   3.924   0.168  10.540 -0.1597 -0.3641  0.1645
 9176SOL    HW139164   3.902   0.235  10.605  1.4083 -0.7314  1.0743
 9176SOL    HW239165   4.011   0.144  10.571 -0.1382  1.6936  1.7135
 9177SOL     OW39166   2.237   1.932   8.776  0.6364 -0.1664  0.6413
 9177SOL    HW139167   2.281   1.858   8.820  1.2234 -0.9884 -1.3441
 9177SOL    HW239168   2.211   1.976   8.857  1.0127  3.1050 -1.0202
 9178SOL     OW39169   0.987   0.625  15.328 -0.5385  0.1797 -0.5277
 9178SOL    HW139170   1.053   0.559  15.349  0.8570  0.8503 -2.8264
 9178SOL    HW239171   0.928   0.627  15.403  2.1984  0.2895  1.6142
 9179SOL     OW39172   1.593   2.642   9.365 -0.0184  0.0269  0.6134
 9179SOL    HW139173   1.672   2.695   9.374 -0.2365  0.1310  1.8558
 9179SOL    HW239174   1.627   2.559   9.399  0.7980  0.1025 -0.0172
 9180SOL     OW39175   4.408   0.936   4.030 -0.3857  0.6869  0.9395
 9180SOL    HW139176   4.445   1.001   3.971 -0.5072 -0.8912 -0.8904
 9180SOL    HW239177   4.439   0.856   3.986  0.3210  1.5241 -0.1067
 9181SOL     OW39178   0.964   3.897   5.778  0.3147 -0.4875  0.3249
 9181SOL    HW139179   0.929   3.868   5.862 -2.0001 -1.1019 -0.8512
 9181SOL    HW239180   1.058   3.880   5.787 -0.3696 -3.6343  1.6520
 9182SOL     OW39181   2.341   3.693   5.772 -0.1109  0.0835  0.0391
 9182SOL    HW139182   2.408   3.653   5.827  0.1857  0.7636  0.1755
 9182SOL    HW239183   2.282   3.713   5.845  0.1642 -1.0040  0.5483
 9183SOL     OW39184   2.535   3.751   0.566 -0.1124  0.1765  0.6644
 9183SOL    HW139185   2.515   3.831   0.614  3.3475  1.5420 -0.2231
 9183SOL    HW239186   2.507   3.758   0.475  0.6023 -0.3732  0.4040
 9184SOL     OW39187   2.284   1.885   5.004  0.2492 -0.3691 -0.0906
 9184SOL    HW139188   2.271   1.820   5.074  1.0500 -2.1171 -1.5675
 9184SOL    HW239189   2.269   1.828   4.929 -0.4290  1.3068 -1.2081
 9185SOL     OW39190   1.821   3.753  11.433  0.1979  0.8023  0.5590
 9185SOL    HW139191   1.768   3.795  11.365  0.4808  0.1307 -0.0724
 9185SOL    HW239192   1.906   3.783  11.403  0.0346  0.4126 -0.2658
 9186SOL     OW39193   2.961   1.671  15.509  0.2535 -0.1250  0.3404
 9186SOL    HW139194   2.895   1.731  15.474 -1.0460 -2.3819 -1.1267
 9186SOL    HW239195   2.947   1.681  15.603 -0.0979 -0.3499  0.3100
 9187SOL     OW39196   0.457   2.917   6.522 -0.5965  0.2246 -0.1070
 9187SOL    HW139197   0.504   2.932   6.604  1.1980 -2.1562 -0.6936
 9187SOL    HW239198   0.521   2.877   6.463 -0.7409  0.4276 -0.3998
 9188SOL     OW39199   3.948   3.389   5.164 -0.2827  0.4414  0.0217
 9188SOL    HW139200   3.946   3.401   5.069  0.2913 -0.4152 -0.0891
 9188SOL    HW239201   3.868   3.435   5.192  0.1715  0.3144  1.5430
 9189SOL     OW39202   1.753   4.737   7.375 -0.0629  0.0820  0.0333
 9189SOL    HW139203   1.704   4.708   7.452 -0.0303 -2.0499 -0.7629
 9189SOL    HW239204   1.839   4.739   7.417 -0.4500 -1.1469  0.8905
 9190SOL     OW39205   2.002   2.341   3.687 -0.1708  0.5283  0.5640
 9190SOL    HW139206   1.938   2.384   3.743  0.0270 -0.2813  1.3925
 9190SOL    HW239207   1.950   2.303   3.617  2.0600 -1.0150 -0.2638
 9191SOL     OW39208   4.371   3.167  10.909  0.1721  0.6683  0.0370
 9191SOL    HW139209   4.402   3.181  10.999 -1.0959 -2.1631  0.9288
 9191SOL    HW239210   4.278   3.183  10.927  0.4801  0.5414  1.7590
 9192SOL     OW39211   0.357   0.153   2.006 -0.6399  0.4411 -0.5372
 9192SOL    HW139212   0.301   0.227   2.032  2.0307  2.1754  0.3095
 9192SOL    HW239213   0.439   0.200   1.988 -0.8518 -0.7986 -4.8075
 9193SOL     OW39214   2.024   4.357   9.820  0.0446  0.6004  0.7856
 9193SOL    HW139215   1.961   4.430   9.815 -1.1320 -0.6003 -1.9409
 9193SOL    HW239216   1.994   4.316   9.901 -3.1313  0.0608 -0.6395
 9194SOL     OW39217   2.611   0.446   5.906  0.4725  0.2142  0.2326
 9194SOL    HW139218   2.647   0.370   5.861  1.7832  0.3249  1.1060
 9194SOL    HW239219   2.587   0.406   5.989 -0.1106 -1.6673 -0.8517
 9195SOL     OW39220   3.312   3.495   7.993 -0.0479  0.6662  0.1244
 9195SOL    HW139221   3.307   3.479   7.899  0.1232  0.2434  0.1869
 9195SOL    HW239222   3.223   3.469   8.016  0.5009 -0.2653  1.2288
 9196SOL     OW39223   1.475   1.402  14.920  0.2081  0.2046 -0.3330
 9196SOL    HW139224   1.553   1.433  14.873 -0.3569 -2.2158 -2.9063
 9196SOL    HW239225   1.467   1.461  14.994  1.5191  0.6448 -0.5465
 9197SOL     OW39226   1.915   2.831   3.687  0.5357  0.0828  0.1062
 9197SOL    HW139227   1.891   2.763   3.624  1.5771  0.5531 -0.7986
 9197SOL    HW239228   1.851   2.900   3.670  4.0362  3.0120 -1.4278
 9198SOL     OW39229   3.507   0.905   5.787 -0.8235  0.1714  0.2126
 9198SOL    HW139230   3.595   0.879   5.761 -1.3481 -0.5421 -0.8570
 9198SOL    HW239231   3.491   0.841   5.857 -3.3252  0.8308  0.2510
 9199SOL     OW39232   0.444   0.281   4.863 -0.3473 -0.0934 -0.1487
 9199SOL    HW139233   0.524   0.298   4.912 -0.3348  0.2888 -0.2971
 9199SOL    HW239234   0.417   0.199   4.904  1.4198 -0.2192  0.7327
 9200SOL     OW39235   2.669   3.258  17.711  0.2129  0.1660 -0.1260
 9200SOL    HW139236   2.743   3.286  17.658  2.3510 -2.3244  1.5395
 9200SOL    HW239237   2.648   3.175  17.667  0.0426  0.1571 -0.0290
 9201SOL     OW39238   0.890   2.406   9.090  0.0254 -0.3636 -0.1678
 9201SOL    HW139239   0.891   2.444   9.178 -1.0957 -0.2671 -0.1964
 9201SOL    HW239240   0.888   2.484   9.034  0.0845 -0.8513 -0.8535
 9202SOL     OW39241   3.886   2.901   3.236 -0.1756 -0.1073  0.3020
 9202SOL    HW139242   3.952   2.884   3.302  0.6880 -0.0100 -0.5363
 9202SOL    HW239243   3.860   2.809   3.225 -0.1106  0.2020 -2.5640
 9203SOL     OW39244   4.727   4.154   0.083 -0.2287  0.4613 -0.5629
 9203SOL    HW139245   0.067   4.182   0.127  0.2951  0.2370 -1.3681
 9203SOL    HW239246   4.720   4.217   0.012 -2.2319  2.0079  0.9821
 9204SOL     OW39247   1.253   2.848  14.802 -0.6054 -0.6982  1.1255
 9204SOL    HW139248   1.252   2.800  14.885  0.1959 -1.5062  0.6565
 9204SOL    HW239249   1.315   2.801  14.748  0.5455  1.2096  0.7753
 9205SOL     OW39250   0.547   2.400   1.139 -0.0012  0.2040  0.3375
 9205SOL    HW139251   0.487   2.451   1.194 -1.3506  2.0252 -2.8113
 9205SOL    HW239252   0.525   2.424   1.049  0.4547  2.8921  0.9430
 9206SOL     OW39253   3.651   1.324   2.038 -0.3048  0.1739  0.0137
 9206SOL    HW139254   3.622   1.372   2.116 -0.5806 -0.3048  0.2066
 9206SOL    HW239255   3.726   1.277   2.073 -0.7990 -0.9383 -0.3944
 9207SOL     OW39256   1.334   1.206   8.204  0.2989  0.3332  0.1474
 9207SOL    HW139257   1.429   1.217   8.216  0.1602  1.3632  0.2936
 9207SOL    HW239258   1.313   1.181   8.293  0.3657 -0.2374  0.0050
 9208SOL     OW39259   0.156   1.771   6.654 -0.3289  0.7665 -0.2891
 9208SOL    HW139260   0.183   1.686   6.690 -0.1840  0.5754 -0.8535
 9208SOL    HW239261   0.154   1.746   6.562  1.3161  1.3800 -0.4857
 9209SOL     OW39262   2.488   0.680   2.693 -0.1071 -0.3806  0.3330
 9209SOL    HW139263   2.522   0.733   2.764 -2.2465  0.1247  0.9502
 9209SOL    HW239264   2.558   0.616   2.677 -2.0775 -2.5938  0.5099
 9210SOL     OW39265   2.857   3.590  14.086 -0.1281 -0.4191 -0.2973
 9210SOL    HW139266   2.842   3.507  14.041  1.4816 -1.1078  0.4152
 9210SOL    HW239267   2.773   3.635  14.081 -1.7853 -3.3490  0.7317
 9211SOL     OW39268   0.825   0.635  15.122 -0.0827 -0.0659  0.7783
 9211SOL    HW139269   0.829   0.546  15.088 -0.0691  0.5955 -0.9295
 9211SOL    HW239270   0.881   0.627  15.199  2.4196  0.5389 -0.9668
 9212SOL     OW39271   2.363   0.915   6.504 -0.2561  0.3030  0.0202
 9212SOL    HW139272   2.399   0.931   6.416  1.1401  3.0961  1.1075
 9212SOL    HW239273   2.331   1.003   6.525  0.6514  0.3848  1.0229
 9213SOL     OW39274   3.387   3.009   7.319  0.1268  0.2972  0.4184
 9213SOL    HW139275   3.305   3.058   7.311  0.4243  0.7559  0.1819
 9213SOL    HW239276   3.436   3.084   7.352  0.0187  1.1377 -1.3539
 9214SOL     OW39277   0.078   2.136   5.735  0.4623 -0.2063 -0.1742
 9214SOL    HW139278   0.079   2.091   5.650 -1.9564 -0.5153 -0.0240
 9214SOL    HW239279   0.025   2.212   5.709 -0.2788 -0.1450  1.5713
 9215SOL     OW39280   1.350   3.369   7.200  0.1402 -0.3519  0.2545
 9215SOL    HW139281   1.383   3.303   7.138  1.4334  0.9375 -0.4474
 9215SOL    HW239282   1.294   3.416   7.139 -0.4492 -1.7233 -0.2805
 9216SOL     OW39283   1.302   0.261   7.927 -0.2384 -0.0533 -0.0677
 9216SOL    HW139284   1.258   0.299   8.004 -1.7286 -0.9635 -0.4666
 9216SOL    HW239285   1.237   0.279   7.860 -1.3778  0.3248  1.1324
 9217SOL     OW39286   1.208   4.164   3.416  0.0505 -0.2663  0.3210
 9217SOL    HW139287   1.289   4.113   3.415  0.7368  0.8593 -0.5940
 9217SOL    HW239288   1.150   4.116   3.357  0.2746 -0.2284  0.0732
 9218SOL     OW39289   4.263   1.209  15.125  0.3931 -0.1901 -0.0970
 9218SOL    HW139290   4.306   1.128  15.098  1.8572 -0.2613  2.4603
 9218SOL    HW239291   4.204   1.220  15.050 -0.7201  2.7129  1.2275
 9219SOL     OW39292   1.103   3.228   6.381 -0.4370 -0.5519 -0.4138
 9219SOL    HW139293   1.090   3.323   6.391  2.1579 -0.2841  0.4093
 9219SOL    HW239294   1.056   3.221   6.298 -0.5391  1.3675 -0.5127
 9220SOL     OW39295   2.657   0.113   6.264  0.1890 -0.0463  0.0281
 9220SOL    HW139296   2.664   0.060   6.344  0.9169  0.1825  0.1151
 9220SOL    HW239297   2.743   0.155   6.258  1.5760 -2.9450 -0.5034
 9221SOL     OW39298   2.710   4.672  12.670  0.0765  0.0109  0.3751
 9221SOL    HW139299   2.699   4.738  12.602 -0.1101  1.6933  2.0519
 9221SOL    HW239300   2.636   4.614  12.652  0.3662 -0.1285 -0.4016
 9222SOL     OW39301   3.039   3.835   0.448 -0.1508 -0.1169 -0.0991
 9222SOL    HW139302   3.028   3.867   0.358 -0.6524  2.3757  0.8662
 9222SOL    HW239303   3.044   3.740   0.432  1.8674 -0.3027  1.6483
 9223SOL     OW39304   3.983   3.930   3.220 -0.1036 -0.0587 -0.2598
 9223SOL    HW139305   4.075   3.919   3.244 -0.4346 -1.0376  0.5899
 9223SOL    HW239306   3.949   3.943   3.308  0.5892  1.2635 -0.1926
 9224SOL     OW39307   1.599   4.453   8.262  0.0799  0.6813  0.2513
 9224SOL    HW139308   1.673   4.499   8.301  1.6821 -1.8203  0.1594
 9224SOL    HW239309   1.537   4.460   8.335 -0.0545  0.1535  0.1914
 9225SOL     OW39310   3.908   0.924  12.468  0.1288  0.1513 -0.2126
 9225SOL    HW139311   3.944   0.894  12.385 -3.5573 -0.2559 -1.6534
 9225SOL    HW239312   3.988   0.937  12.520 -0.4827 -0.4959  0.8644
 9226SOL     OW39313   2.394   3.898   8.047 -0.1734  0.1162 -0.2969
 9226SOL    HW139314   2.364   3.827   7.991 -1.8944  0.2408  0.4553
 9226SOL    HW239315   2.310   3.927   8.084  0.9272  1.3147  1.2543
 9227SOL     OW39316   2.615   1.476   2.483 -0.1276 -0.0284 -0.4164
 9227SOL    HW139317   2.685   1.448   2.424  0.9064  1.5386  0.0940
 9227SOL    HW239318   2.630   1.569   2.495 -0.6935  0.0894 -0.5864
 9228SOL     OW39319   4.535   4.269   7.154 -0.0637 -0.3910  0.2896
 9228SOL    HW139320   4.544   4.249   7.247 -0.5084 -1.3318  0.1233
 9228SOL    HW239321   4.616   4.314   7.128  0.3829 -1.1700  0.3515
 9229SOL     OW39322   2.519   1.067   9.164  0.7480 -0.7819 -0.0386
 9229SOL    HW139323   2.534   0.987   9.215 -2.9221 -1.2523  0.2974
 9229SOL    HW239324   2.583   1.051   9.094 -0.0477  1.9614 -1.3823
 9230SOL     OW39325   4.588   0.357   8.063 -0.0885 -0.1944  0.1977
 9230SOL    HW139326   4.681   0.352   8.086  0.1860  1.8254 -0.4473
 9230SOL    HW239327   4.548   0.286   8.114 -0.7555  0.2865  0.3400
 9231SOL     OW39328   4.594   1.162  13.286  0.3499 -0.5744 -0.0563
 9231SOL    HW139329   4.666   1.224  13.275  0.7785 -1.1372 -0.4193
 9231SOL    HW239330   4.596   1.114  13.203  1.7494  2.2625 -1.6561
 9232SOL     OW39331   2.192   2.669  14.808  0.0167  0.0333  0.1353
 9232SOL    HW139332   2.249   2.634  14.739 -4.2874 -1.2543 -2.7555
 9232SOL    HW239333   2.122   2.604  14.810  1.1937 -1.2886 -1.3247
 9233SOL     OW39334   1.628   1.664   9.812 -0.4141  0.2826  0.1587
 9233SOL    HW139335   1.616   1.658   9.718  3.6465  2.5847 -0.4942
 9233SOL    HW239336   1.577   1.591   9.848 -0.8022 -0.7926 -2.5978
 9234SOL     OW39337   3.453   4.277  12.367 -0.3616 -0.2762  0.3513
 9234SOL    HW139338   3.499   4.329  12.301 -2.9977  1.1959 -0.3405
 9234SOL    HW239339   3.406   4.225  12.302 -0.1590  0.7634 -0.6206
 9235SOL     OW39340   3.168   1.148  17.420  0.1055  0.2293 -0.1356
 9235SOL    HW139341   3.205   1.208  17.484 -0.5147  0.3704  0.0953
 9235SOL    HW239342   3.079   1.182  17.409  0.7929  1.8487 -0.6139
 9236SOL     OW39343   0.630   2.576  17.582 -0.3615  0.3034  0.1611
 9236SOL    HW139344   0.717   2.586  17.544 -0.3498  0.4132  0.2181
 9236SOL    HW239345   0.640   2.570  17.677 -0.7499 -2.2102  0.0333
 9237SOL     OW39346   3.665   4.290   0.250 -0.3544 -0.2515  0.4591
 9237SOL    HW139347   3.758   4.270   0.260 -0.5550 -0.7728  1.2433
 9237SOL    HW239348   3.675   4.337   0.167 -3.0303  1.1023  0.9020
 9238SOL     OW39349   2.878   4.132  12.130  0.3462 -0.0722  0.0383
 9238SOL    HW139350   2.854   4.165  12.044  1.1662  0.4525  0.0033
 9238SOL    HW239351   2.916   4.207  12.177 -2.0471  0.7379  0.6747
 9239SOL     OW39352   4.575   3.535   4.986  0.3764  0.3095  0.3175
 9239SOL    HW139353   4.536   3.595   5.049 -1.4784 -0.3817 -0.1469
 9239SOL    HW239354   4.509   3.465   4.984  0.4942  0.2577 -1.7609
 9240SOL     OW39355   0.829   0.681   1.557  0.0616  0.4413  0.2495
 9240SOL    HW139356   0.922   0.660   1.549 -0.2837 -0.8744 -0.3108
 9240SOL    HW239357   0.789   0.630   1.486 -0.4749  1.9384 -0.5279
 9241SOL     OW39358   2.076   4.685   7.265  0.2365  0.4804  0.8185
 9241SOL    HW139359   2.028   4.710   7.344 -0.9317 -1.7713  0.8215
 9241SOL    HW239360   2.158   4.652   7.300  0.8142 -0.7304 -1.6994
 9242SOL     OW39361   3.136   2.824   7.825  0.1951  0.2015  0.3394
 9242SOL    HW139362   3.148   2.815   7.731 -2.6807 -1.0749  0.0842
 9242SOL    HW239363   3.074   2.896   7.811 -1.0492 -1.3166 -1.9914
 9243SOL     OW39364   0.780   3.790   8.865 -0.5473  0.0149 -0.0746
 9243SOL    HW139365   0.869   3.801   8.898 -0.0944 -1.7228 -0.7074
 9243SOL    HW239366   0.797   3.732   8.790 -0.5828  0.0873 -0.1384
 9244SOL     OW39367   0.121   3.978   3.731 -0.1556  0.3067 -0.0627
 9244SOL    HW139368   0.095   4.037   3.802  0.4026  1.7246 -1.0493
 9244SOL    HW239369   0.207   4.013   3.711 -0.4322  1.3339  0.5354
 9245SOL     OW39370   4.184   2.401   8.444  0.3423 -0.7079  0.7936
 9245SOL    HW139371   4.179   2.306   8.454  1.0713 -0.6980  1.2764
 9245SOL    HW239372   4.137   2.428   8.522 -1.3703  1.6891 -1.0639
 9246SOL     OW39373   0.173   2.153   9.283 -0.2509 -0.2764 -0.3407
 9246SOL    HW139374   0.135   2.185   9.201  2.2084  0.9430 -0.9982
 9246SOL    HW239375   0.096   2.157   9.341  0.6576  0.9369  0.7829
 9247SOL     OW39376   3.615   2.659  15.642  0.7720 -0.3237  0.2461
 9247SOL    HW139377   3.616   2.567  15.617 -2.9446  0.3169 -2.0911
 9247SOL    HW239378   3.590   2.700  15.560 -0.6398 -0.1249  0.7756
 9248SOL     OW39379   2.611   0.570   3.210 -0.3810  0.6983  0.5193
 9248SOL    HW139380   2.517   0.584   3.213 -0.2275  1.9299 -0.4834
 9248SOL    HW239381   2.638   0.635   3.276 -1.1810  0.7330  0.8133
 9249SOL     OW39382   3.899   0.453  15.082 -0.4284 -0.0131 -0.5823
 9249SOL    HW139383   3.845   0.512  15.028 -0.6325  0.2663 -0.0690
 9249SOL    HW239384   3.922   0.387  15.017 -2.8271  1.4106 -2.8834
 9250SOL     OW39385   0.742   2.947   0.995  0.7683 -0.4810  0.2240
 9250SOL    HW139386   0.789   3.022   0.959 -0.2758 -1.1308 -2.5584
 9250SOL    HW239387   0.808   2.882   1.018  0.2657 -0.5373  1.4860
 9251SOL     OW39388   2.430   3.164   5.284 -0.2974 -0.5666 -0.2839
 9251SOL    HW139389   2.354   3.130   5.237 -1.1402 -0.1815  0.8015
 9251SOL    HW239390   2.500   3.112   5.245 -0.8351 -0.5739 -1.2343
 9252SOL     OW39391   2.211   3.732  10.456 -0.2818 -0.3716 -0.4805
 9252SOL    HW139392   2.270   3.688  10.517 -3.3599 -2.7293  0.8302
 9252SOL    HW239393   2.207   3.673  10.381 -2.6904 -0.3907 -0.3586
 9253SOL     OW39394   1.679   0.747   1.249  0.0430 -0.0491  0.1193
 9253SOL    HW139395   1.628   0.768   1.171  0.3146  1.1482  0.2664
 9253SOL    HW239396   1.751   0.809   1.239  1.0667 -1.3603 -0.8060
 9254SOL     OW39397   3.851   3.205   4.035 -0.2381  0.2482 -0.7596
 9254SOL    HW139398   3.861   3.200   3.940  1.3909 -2.6780 -0.4080
 9254SOL    HW239399   3.768   3.251   4.048  1.4529  2.7281  1.3287
 9255SOL     OW39400   1.750   1.211   8.733 -0.1918  0.0163  0.1986
 9255SOL    HW139401   1.845   1.202   8.722 -0.0383  1.5881  0.2077
 9255SOL    HW239402   1.725   1.283   8.676  0.9501  0.2450 -0.0237
 9256SOL     OW39403   0.732   4.669   5.931  0.1030  0.7198 -0.0349
 9256SOL    HW139404   0.811   4.625   5.902 -0.8321  0.1703 -1.7466
 9256SOL    HW239405   0.670   4.596   5.926 -0.8290  1.4880  0.2557
 9257SOL     OW39406   3.651   4.469   7.610  0.3705  0.0149  0.1940
 9257SOL    HW139407   3.653   4.512   7.524 -0.0769  0.7554  0.5573
 9257SOL    HW239408   3.626   4.378   7.594 -1.1174  0.5129 -0.3706
 9258SOL     OW39409   1.141   0.474   4.466  0.0370 -0.2796 -0.2885
 9258SOL    HW139410   1.098   0.393   4.441  0.0300  0.1964 -1.8418
 9258SOL    HW239411   1.094   0.493   4.547 -0.9171 -2.6318 -0.3155
 9259SOL     OW39412   1.584   3.292  16.431 -0.1580  0.0737  0.0523
 9259SOL    HW139413   1.606   3.383  16.410  0.1035 -0.0443 -0.1831
 9259SOL    HW239414   1.493   3.281  16.405  0.4102 -1.7946 -1.1395
 9260SOL     OW39415   1.442   0.870   9.172 -0.0499 -0.1458 -0.2688
 9260SOL    HW139416   1.494   0.799   9.132  1.8393  1.1468 -0.1399
 9260SOL    HW239417   1.396   0.906   9.096  0.7603  1.1373 -0.1383
 9261SOL     OW39418   0.053   4.024  10.268 -0.1321  0.3537  0.0583
 9261SOL    HW139419   4.730   4.037  10.197 -0.4061  0.9556  0.4117
 9261SOL    HW239420   0.120   4.083  10.231 -0.9272  0.7121 -0.8314
 9262SOL     OW39421   3.327   3.722  17.591  0.5752 -0.6295  0.0942
 9262SOL    HW139422   3.349   3.684  17.676  1.1533  1.3756  0.8415
 9262SOL    HW239423   3.393   3.687  17.531  1.6040  0.1077  0.8010
 9263SOL     OW39424   0.246   4.631   2.026  0.2800 -0.2677 -1.1663
 9263SOL    HW139425   0.161   4.659   1.993  0.7656  0.1005 -2.0867
 9263SOL    HW239426   0.295   4.710   2.006  2.2153 -1.2415 -0.3301
 9264SOL     OW39427   2.840   3.068   4.158 -0.4129  0.1314  0.6732
 9264SOL    HW139428   2.811   2.990   4.205  0.2780  0.0304  0.9320
 9264SOL    HW239429   2.792   3.069   4.075  2.8507 -1.3845 -1.2371
 9265SOL     OW39430   1.419   3.745  14.225  0.3207  0.0384 -0.6670
 9265SOL    HW139431   1.429   3.826  14.175 -1.4068  0.7174  0.0766
 9265SOL    HW239432   1.420   3.687  14.149  0.9656  0.4113 -0.9429
 9266SOL     OW39433   0.475   1.903   6.427 -0.7126 -0.0073  0.3054
 9266SOL    HW139434   0.460   1.981   6.480 -0.5271 -0.6479  1.3056
 9266SOL    HW239435   0.569   1.888   6.426 -0.7773 -0.2942 -1.5997
 9267SOL     OW39436   0.033   2.206   4.496 -0.2182 -0.2518  0.2334
 9267SOL    HW139437   0.086   2.189   4.574 -1.4209 -0.4008  1.0077
 9267SOL    HW239438   4.695   2.245   4.534  0.5675  0.4835  1.1049
 9268SOL     OW39439   1.474   1.568  11.088  0.2410 -0.1129  0.1006
 9268SOL    HW139440   1.514   1.651  11.062  1.9794 -1.4093 -1.3287
 9268SOL    HW239441   1.500   1.509  11.017  0.6701  0.9256 -0.5949
 9269SOL     OW39442   1.063   2.123   4.237  0.3426 -0.2892  0.6150
 9269SOL    HW139443   1.083   2.119   4.330  1.8600 -1.9237  0.2220
 9269SOL    HW239444   1.132   2.183   4.208 -0.5975  0.1451 -0.7358
 9270SOL     OW39445   1.202   0.052   8.353 -0.3199 -0.4695  0.0214
 9270SOL    HW139446   1.107   0.040   8.344 -0.3081 -1.8604  1.6319
 9270SOL    HW239447   1.238   4.703   8.357 -0.4936 -0.5744 -0.6982
 9271SOL     OW39448   1.704   1.299   5.483  0.0546  0.8666  0.0421
 9271SOL    HW139449   1.691   1.261   5.397  1.8428 -0.1248  0.2098
 9271SOL    HW239450   1.682   1.386   5.451  2.3830  1.0420 -1.0113
 9272SOL     OW39451   0.186   3.595  16.843 -0.0109 -0.7726  0.2046
 9272SOL    HW139452   0.208   3.557  16.759  1.4207 -1.1323  0.7426
 9272SOL    HW239453   0.097   3.630  16.838 -0.1989 -1.3468 -0.4576
 9273SOL     OW39454   2.897   0.248   6.315  0.6823  0.3604  0.1596
 9273SOL    HW139455   2.927   0.336   6.295  2.1089 -0.3688 -0.9320
 9273SOL    HW239456   2.970   0.192   6.287  0.1934 -0.1549 -0.1015
 9274SOL     OW39457   1.546   3.219   6.984  0.6160  0.5571  0.3610
 9274SOL    HW139458   1.604   3.253   6.916 -1.4290  1.1402 -1.0747
 9274SOL    HW239459   1.460   3.237   6.946  0.4472  2.1187  1.4732
 9275SOL     OW39460   0.677   0.337  10.636  0.2661 -0.0769 -0.3846
 9275SOL    HW139461   0.737   0.263  10.645  0.0323 -0.0060  1.7976
 9275SOL    HW239462   0.594   0.305  10.671 -0.0411  0.4467 -0.6286
 9276SOL     OW39463   3.930   2.485   5.102 -0.4745 -0.4866 -0.0366
 9276SOL    HW139464   3.965   2.569   5.131 -1.7580  0.4743 -1.2497
 9276SOL    HW239465   4.007   2.428   5.106 -0.0061  0.1739  0.3874
 9277SOL     OW39466   0.962   1.604   5.478  0.2969  0.1832  0.1409
 9277SOL    HW139467   0.897   1.592   5.408 -0.7238 -1.4872  1.3813
 9277SOL    HW239468   0.990   1.694   5.461 -0.8593  0.3255 -0.9799
 9278SOL     OW39469   2.888   1.645   8.611  0.2823 -0.1698 -0.1941
 9278SOL    HW139470   2.793   1.649   8.617  0.2769 -1.6290  0.8824
 9278SOL    HW239471   2.891   1.587   8.534  0.6653  1.1631 -1.1845
 9279SOL     OW39472   2.989   0.069   7.792 -0.3988  0.3724  0.0018
 9279SOL    HW139473   3.069   0.086   7.841  0.5067 -1.3852 -0.8645
 9279SOL    HW239474   2.978   4.714   7.789 -3.2287  0.7227 -0.5578
 9280SOL     OW39475   1.750   4.356   1.080 -0.3235  0.2820  0.9196
 9280SOL    HW139476   1.708   4.437   1.051 -1.5179 -0.2652  1.1269
 9280SOL    HW239477   1.759   4.318   0.993 -0.6949 -0.6983  1.3166
 9281SOL     OW39478   1.282   3.472   5.480  0.1962 -0.3657 -0.6396
 9281SOL    HW139479   1.251   3.461   5.570  0.5324 -1.5441 -0.6653
 9281SOL    HW239480   1.339   3.549   5.479  1.6550 -1.4546 -1.3631
 9282SOL     OW39481   4.538   0.662  15.211  0.4048 -0.1551  0.9939
 9282SOL    HW139482   4.448   0.650  15.181  0.0135  0.7047  1.8124
 9282SOL    HW239483   4.541   0.578  15.257 -2.0296 -1.2462 -0.8861
 9283SOL     OW39484   0.228   2.928   9.349  0.0373 -0.6499 -0.6688
 9283SOL    HW139485   0.223   2.870   9.273 -0.5347 -0.7609 -0.5470
 9283SOL    HW239486   0.135   2.943   9.364 -0.3954 -3.0007 -1.0025
 9284SOL     OW39487   0.736   2.637  12.708 -0.0431 -1.2297 -0.1717
 9284SOL    HW139488   0.816   2.617  12.660  0.2908  1.0552 -0.5739
 9284SOL    HW239489   0.675   2.605  12.642 -0.4618  1.6145 -1.1827
 9285SOL     OW39490   1.725   1.954   1.571 -0.2157  0.2193  0.3177
 9285SOL    HW139491   1.709   1.998   1.488 -0.7009 -0.0184  0.2850
 9285SOL    HW239492   1.740   2.028   1.630 -1.1111  0.0520  0.7489
 9286SOL     OW39493   2.529   4.097  15.055 -0.2684  0.4279  0.5919
 9286SOL    HW139494   2.565   4.061  14.974 -0.6728 -0.3420  0.7560
 9286SOL    HW239495   2.524   4.015  15.103 -1.4492 -0.4602 -1.0834
 9287SOL     OW39496   0.866   2.129   9.338  0.4411 -0.0512  0.1886
 9287SOL    HW139497   0.840   2.216   9.368  2.4953  1.3915 -2.2022
 9287SOL    HW239498   0.803   2.079   9.390 -0.8501  1.7610  0.3551
 9288SOL     OW39499   0.605   2.150  17.210  0.0488 -0.6212  0.1293
 9288SOL    HW139500   0.658   2.083  17.166  1.0634  0.8250 -0.8602
 9288SOL    HW239501   0.668   2.219  17.229  0.7272 -1.2718  0.2251
 9289SOL     OW39502   2.146   1.173   6.086  0.3974  0.2878  0.0258
 9289SOL    HW139503   2.163   1.083   6.056 -2.0372 -0.2456  0.2442
 9289SOL    HW239504   2.052   1.177   6.070  0.6451 -2.3215 -2.1103
 9290SOL     OW39505   0.944   0.136  16.209  0.0075 -0.4561  0.5586
 9290SOL    HW139506   1.009   0.070  16.182  0.5682  0.4464 -0.2923
 9290SOL    HW239507   0.988   0.179  16.282 -0.5159  1.1371 -0.0727
 9291SOL     OW39508   3.166   3.588   2.610 -0.5984 -0.1458 -0.4906
 9291SOL    HW139509   3.111   3.646   2.663  1.6526  2.5125 -1.0917
 9291SOL    HW239510   3.098   3.557   2.550 -0.7962 -1.2766  0.3228
 9292SOL     OW39511   1.446   1.237   7.115 -0.0133 -0.1158  0.2501
 9292SOL    HW139512   1.482   1.221   7.028 -1.8566 -0.2646 -0.4792
 9292SOL    HW239513   1.383   1.306   7.095 -1.0357 -1.3922 -0.8553
 9293SOL     OW39514   2.456   0.011   8.938 -0.0063 -0.3152  1.0550
 9293SOL    HW139515   2.415   0.094   8.916  0.9723 -0.4332 -1.2761
 9293SOL    HW239516   2.381   4.692   8.936  0.0751 -0.3761 -0.7181
 9294SOL     OW39517   1.431   0.824   5.364 -0.0814 -0.1284 -0.2010
 9294SOL    HW139518   1.401   0.887   5.299  3.8116 -0.7942 -2.6518
 9294SOL    HW239519   1.487   0.890   5.405 -0.7677  0.0415  0.4560
 9295SOL     OW39520   0.102   3.177   9.251 -0.2010 -0.0992 -0.2694
 9295SOL    HW139521   0.179   3.124   9.270  0.0143  0.0719 -0.6523
 9295SOL    HW239522   0.035   3.141   9.309 -1.6888  2.0213 -0.6468
 9296SOL     OW39523   0.987   2.622   2.457 -0.2442  0.5644  0.1011
 9296SOL    HW139524   1.018   2.709   2.483  1.0981 -0.1480  0.9012
 9296SOL    HW239525   1.040   2.579   2.525  1.2356 -0.2649 -1.5696
 9297SOL     OW39526   2.655   3.750   8.610 -0.1575  1.0904 -0.2517
 9297SOL    HW139527   2.689   3.663   8.630  1.0431  1.3907 -1.0155
 9297SOL    HW239528   2.620   3.743   8.521 -0.2301 -0.5823 -0.0938
 9298SOL     OW39529   3.323   2.589   2.795 -0.0851  0.6037 -0.2868
 9298SOL    HW139530   3.272   2.648   2.850 -0.2737 -0.7041  0.9404
 9298SOL    HW239531   3.360   2.534   2.863  0.5726  0.0503 -1.1055
 9299SOL     OW39532   3.098   1.700   1.656 -0.1531 -0.1013  0.0599
 9299SOL    HW139533   3.034   1.637   1.690 -1.4016  1.6472  0.9567
 9299SOL    HW239534   3.177   1.648   1.641 -1.7182 -2.5487  0.4015
 9300SOL     OW39535   3.514   4.016  15.334 -0.0362  0.2223  0.3389
 9300SOL    HW139536   3.442   4.034  15.395 -1.0189  0.5477 -0.9130
 9300SOL    HW239537   3.465   4.028  15.253  0.1074  0.1651  0.2440
 9301SOL     OW39538   3.435   2.432  14.626 -0.1879 -0.1553 -0.2024
 9301SOL    HW139539   3.526   2.405  14.639 -0.6195 -1.5017 -0.0056
 9301SOL    HW239540   3.400   2.397  14.708 -0.7153 -0.4242 -0.5436
 9302SOL     OW39541   4.403   0.851  17.247 -1.0178 -0.7938 -0.3399
 9302SOL    HW139542   4.364   0.881  17.165 -1.4420  1.5182  0.7111
 9302SOL    HW239543   4.351   0.771  17.259  1.4837 -2.1131  1.7318
 9303SOL     OW39544   0.055   3.773   6.803 -0.1869 -0.0515 -0.1910
 9303SOL    HW139545   0.102   3.756   6.885  1.1133 -0.6671 -1.0555
 9303SOL    HW239546   0.105   3.716   6.745 -2.4490 -1.4946 -0.7094
 9304SOL     OW39547   3.877   2.002   4.513  0.0457 -0.2243  0.2964
 9304SOL    HW139548   3.901   2.064   4.443 -1.4204 -1.6030 -1.4448
 9304SOL    HW239549   3.832   1.939   4.457  0.7658 -0.4881  0.0234
 9305SOL     OW39550   0.379   1.656   6.999  0.0775 -0.3039  0.4503
 9305SOL    HW139551   0.433   1.708   6.939 -2.0701 -0.3021 -1.4693
 9305SOL    HW239552   0.446   1.650   7.068  0.0918 -1.9363  0.2958
 9306SOL     OW39553   3.959   3.308   8.186 -0.3520  0.5055 -0.4163
 9306SOL    HW139554   3.866   3.316   8.164 -0.2934  0.5816 -0.6360
 9306SOL    HW239555   3.953   3.316   8.281  0.0964 -0.8463 -0.2831
 9307SOL     OW39556   1.899   4.624   1.720  0.2906 -0.1581 -0.3674
 9307SOL    HW139557   1.857   4.702   1.757 -0.9033 -2.2826  2.8008
 9307SOL    HW239558   1.907   4.669   1.636 -1.1156 -0.5952 -0.7382
 9308SOL     OW39559   4.433   4.512   0.134  0.3763 -0.0693  0.1904
 9308SOL    HW139560   4.422   4.560   0.216 -1.3997 -0.8687  0.4343
 9308SOL    HW239561   4.528   4.505   0.137  0.3885 -0.9149 -1.5884
 9309SOL     OW39562   4.190   2.296   9.445 -0.1882  0.4458  0.1439
 9309SOL    HW139563   4.095   2.302   9.435 -0.3028  0.9399  1.5155
 9309SOL    HW239564   4.207   2.256   9.360  0.2431 -1.0223  0.9130
 9310SOL     OW39565   1.199   1.744   6.509 -0.3143 -0.2786 -0.3995
 9310SOL    HW139566   1.215   1.743   6.603 -0.6968  0.1471 -0.3265
 9310SOL    HW239567   1.247   1.822   6.481 -2.8382  2.2532  2.3526
 9311SOL     OW39568   3.449   4.297  16.775  0.4491 -0.0001  0.3162
 9311SOL    HW139569   3.426   4.344  16.855 -3.3667  0.6477 -1.1625
 9311SOL    HW239570   3.410   4.359  16.713 -0.3529  0.1771  0.9900
 9312SOL     OW39571   3.774   2.621   3.214 -0.6782  0.9339  0.2097
 9312SOL    HW139572   3.720   2.644   3.138  0.8820 -1.0540 -1.5045
 9312SOL    HW239573   3.705   2.621   3.281 -0.8400  1.4659  0.0466
 9313SOL     OW39574   3.662   4.692   2.134 -0.0971 -0.0150 -0.5435
 9313SOL    HW139575   3.583   4.737   2.103  1.1397  2.0303 -0.7165
 9313SOL    HW239576   3.719   0.027   2.148  1.4002 -1.2511  0.0072
 9314SOL     OW39577   4.440   3.396   6.183 -0.2041 -0.0120 -0.5021
 9314SOL    HW139578   4.383   3.384   6.107 -1.9564  1.0209  0.6533
 9314SOL    HW239579   4.391   3.470   6.218 -1.8982 -0.3110 -2.2521
 9315SOL     OW39580   0.404   0.715   6.092  0.0984  0.0929  0.4071
 9315SOL    HW139581   0.402   0.698   6.186 -1.2332  0.2756  0.4061
 9315SOL    HW239582   0.495   0.708   6.062 -0.0128 -0.0091  0.0986
 9316SOL     OW39583   0.891   3.136   9.462 -0.2807 -0.2924 -0.2831
 9316SOL    HW139584   0.945   3.202   9.505 -0.2288 -0.1195 -0.6173
 9316SOL    HW239585   0.948   3.058   9.463  0.6287  0.3604 -1.7100
 9317SOL     OW39586   2.852   0.945   3.931 -0.7483  0.4259  0.2988
 9317SOL    HW139587   2.936   0.906   3.910  0.3616  1.3114  3.0656
 9317SOL    HW239588   2.838   0.910   4.019 -1.4803 -1.5840 -0.6186
 9318SOL     OW39589   3.739   2.059  13.394 -0.2255 -0.7446  0.5586
 9318SOL    HW139590   3.652   2.043  13.357  0.6248  0.9345 -2.1218
 9318SOL    HW239591   3.728   2.036  13.487 -2.2956  0.9654  0.7273
 9319SOL     OW39592   1.311   4.405   9.511 -0.2148  0.4184 -0.2835
 9319SOL    HW139593   1.298   4.368   9.598 -0.3034  0.0412 -0.4583
 9319SOL    HW239594   1.235   4.462   9.498 -0.0302  0.3904 -1.4401
 9320SOL     OW39595   2.561   0.146   1.529  0.4607 -0.2283 -0.1236
 9320SOL    HW139596   2.474   0.184   1.528  1.0178  1.0379 -0.1110
 9320SOL    HW239597   2.537   0.081   1.595  0.8295  0.9926  1.2165
 9321SOL     OW39598   1.620   2.565   3.347 -0.7096  0.0888 -0.2088
 9321SOL    HW139599   1.616   2.481   3.301 -2.5701  1.4613 -2.5738
 9321SOL    HW239600   1.657   2.615   3.274 -0.7035 -1.4604 -1.2742
 9322SOL     OW39601   3.983   4.702   4.711 -0.1591  0.3332 -0.2976
 9322SOL    HW139602   3.968   0.022   4.638  0.5117  0.6428 -0.1843
 9322SOL    HW239603   4.031   0.020   4.771  0.5629 -1.1505  0.5847
 9323SOL     OW39604   3.463   3.034   0.347 -0.6662  0.1760 -0.2759
 9323SOL    HW139605   3.506   3.093   0.409 -0.4005  0.0829 -0.3712
 9323SOL    HW239606   3.532   3.032   0.281  0.5823 -1.6321  1.0700
 9324SOL     OW39607   0.477   2.938   9.462 -0.7800  0.4456 -0.4185
 9324SOL    HW139608   0.392   2.941   9.419 -1.6792 -0.0842  1.3421
 9324SOL    HW239609   0.466   2.862   9.520 -1.4492  0.8184 -0.0621
 9325SOL     OW39610   0.754   1.625   5.082  0.1818 -0.7474  0.5203
 9325SOL    HW139611   0.793   1.566   5.146  2.1205  0.4480  0.4288
 9325SOL    HW239612   0.660   1.605   5.080  0.3059 -1.2779 -0.2864
 9326SOL     OW39613   2.122   1.968   8.196 -0.2391 -0.1602  0.3758
 9326SOL    HW139614   2.084   1.991   8.282 -2.4468  1.2684 -0.9774
 9326SOL    HW239615   2.178   2.043   8.178  1.4448 -0.8676  2.6699
 9327SOL     OW39616   1.193   2.114   8.592  0.0071  0.0852 -0.3664
 9327SOL    HW139617   1.190   2.139   8.685  1.9558 -3.3540  0.6128
 9327SOL    HW239618   1.101   2.121   8.567  0.5926 -1.7469 -2.9954
 9328SOL     OW39619   3.672   1.369  16.097 -0.0997  0.0770 -0.8336
 9328SOL    HW139620   3.602   1.370  16.032 -0.3593 -0.6251 -0.5649
 9328SOL    HW239621   3.731   1.417  16.039  0.0611 -0.5008 -1.1437
 9329SOL     OW39622   1.540   1.561   4.777  0.5629 -0.0604 -0.5231
 9329SOL    HW139623   1.515   1.599   4.861  1.8900 -1.1935  0.3732
 9329SOL    HW239624   1.458   1.518   4.752  0.1232 -0.2695  1.2512
 9330SOL     OW39625   2.947   3.564   7.417  0.0874  0.1068  0.1199
 9330SOL    HW139626   3.010   3.625   7.455  1.1078 -0.5390 -0.5596
 9330SOL    HW239627   2.949   3.604   7.330  0.7489  1.1963  0.6410
 9331SOL     OW39628   4.241   3.020   5.204 -0.4241  0.6667 -0.1620
 9331SOL    HW139629   4.211   2.937   5.241  1.6079 -0.0636 -0.1484
 9331SOL    HW239630   4.195   3.084   5.258 -2.1864  0.8403 -1.8572
 9332SOL     OW39631   4.661   2.460   6.894 -0.7355  0.0945 -0.0081
 9332SOL    HW139632   4.595   2.485   6.958 -1.5414 -3.8188  0.7016
 9332SOL    HW239633   4.673   2.540   6.844 -0.4131  0.3658  0.5019
 9333SOL     OW39634   4.564   0.126  11.739  0.5631 -0.5018  0.1978
 9333SOL    HW139635   4.512   0.174  11.803 -2.4173 -0.8547 -1.9621
 9333SOL    HW239636   4.617   0.067  11.792 -1.5575 -0.4044  2.4139
 9334SOL     OW39637   1.930   1.162   9.534  0.1083 -0.2011  0.2998
 9334SOL    HW139638   1.947   1.154   9.628  1.9544 -1.4669 -0.1417
 9334SOL    HW239639   1.930   1.257   9.522  0.1235 -0.2729 -0.2684
 9335SOL     OW39640   2.629   4.262   3.083  0.1731  0.2075 -0.4616
 9335SOL    HW139641   2.710   4.221   3.052  0.1891 -2.3402  2.9549
 9335SOL    HW239642   2.647   4.355   3.091  1.3624  0.1673 -2.7690
 9336SOL     OW39643   1.435   1.035  11.912  0.7933 -0.4007 -0.2788
 9336SOL    HW139644   1.507   1.027  11.974  1.2597  1.2370 -0.5996
 9336SOL    HW239645   1.428   1.126  11.886  0.4809 -1.0606 -2.5397
 9337SOL     OW39646   4.416   2.554   7.327  0.1820  0.5683 -0.0741
 9337SOL    HW139647   4.360   2.528   7.400  1.9527  0.1746  1.1488
 9337SOL    HW239648   4.485   2.601   7.374  1.8507 -2.0701  0.1460
 9338SOL     OW39649   2.603   2.233  11.651  0.0374 -0.0036 -0.2527
 9338SOL    HW139650   2.600   2.328  11.644 -1.2730 -0.1088 -1.1810
 9338SOL    HW239651   2.652   2.222  11.733  1.1989 -1.6947 -1.1679
 9339SOL     OW39652   2.484   4.435   4.700 -0.0946 -0.4414  0.4585
 9339SOL    HW139653   2.409   4.486   4.670 -1.7003 -2.6046  0.8174
 9339SOL    HW239654   2.530   4.429   4.616 -0.0755 -1.0622  0.5108
 9340SOL     OW39655   2.920   0.943   6.558 -0.1526 -0.9604  0.5520
 9340SOL    HW139656   2.927   0.931   6.653 -0.7214 -1.9503  0.4666
 9340SOL    HW239657   2.830   0.910   6.550  0.4647 -2.3249 -0.5946
 9341SOL     OW39658   2.722   4.145   5.300 -0.2894  0.0748 -0.3410
 9341SOL    HW139659   2.663   4.218   5.286  0.6061  1.1104  1.2943
 9341SOL    HW239660   2.803   4.178   5.260  1.6424 -0.2400  3.2996
 9342SOL     OW39661   2.057   2.292   4.242  0.4047  0.3773 -0.2243
 9342SOL    HW139662   2.070   2.198   4.227  3.7498  0.8405 -0.1822
 9342SOL    HW239663   2.002   2.287   4.320 -0.5237  2.7544 -0.7286
 9343SOL     OW39664   4.447   0.880   6.446  0.9765 -0.0239  0.5002
 9343SOL    HW139665   4.356   0.872   6.418  0.0681  0.6022  3.3530
 9343SOL    HW239666   4.445   0.959   6.499  0.3288  2.5888 -3.3615
 9344SOL     OW39667   0.501   3.235  15.653 -0.2598 -0.6120  0.4634
 9344SOL    HW139668   0.508   3.330  15.657  2.6970 -0.7146 -2.4059
 9344SOL    HW239669   0.583   3.219  15.606 -0.2805 -0.4889  0.3862
 9345SOL     OW39670   3.912   2.781   2.235  0.6131  0.1060  0.1991
 9345SOL    HW139671   3.930   2.759   2.326 -3.3646 -0.6709  0.7608
 9345SOL    HW239672   3.867   2.865   2.237 -0.6958 -0.6005 -0.0557
 9346SOL     OW39673   3.032   1.734   9.844  0.0426 -0.2936 -0.3797
 9346SOL    HW139674   2.963   1.790   9.806  0.5276  1.0455  0.7371
 9346SOL    HW239675   2.979   1.670   9.891  0.6120  0.2017  0.9403
 9347SOL     OW39676   4.167   0.756   9.401  0.1200 -0.1896 -0.1713
 9347SOL    HW139677   4.099   0.822   9.389 -2.1081 -2.4705 -0.1274
 9347SOL    HW239678   4.114   0.689   9.443 -1.0781  0.6511 -0.3506
 9348SOL     OW39679   2.463   0.927   1.939 -0.4066  0.1119 -0.1124
 9348SOL    HW139680   2.473   0.891   2.027  0.0019  0.7358  0.1013
 9348SOL    HW239681   2.541   0.983   1.933 -0.9868  1.1191  1.7009
 9349SOL     OW39682   3.066   3.198   3.407 -0.4640 -0.2983 -0.5306
 9349SOL    HW139683   3.141   3.143   3.429 -0.5983 -0.9303 -1.6796
 9349SOL    HW239684   3.075   3.207   3.313  0.1690 -0.1027 -0.4549
 9350SOL     OW39685   1.336   4.554   4.703 -0.5856  0.3345 -0.1774
 9350SOL    HW139686   1.370   4.632   4.746 -0.7121 -0.5350  1.5063
 9350SOL    HW239687   1.283   4.588   4.631  0.3334  1.5902 -0.2563
 9351SOL     OW39688   3.514   3.625   4.489  0.5052 -0.2659 -1.1329
 9351SOL    HW139689   3.558   3.701   4.449 -0.8460  0.3599 -1.4126
 9351SOL    HW239690   3.429   3.662   4.513  1.1156  1.3912 -1.5149
 9352SOL     OW39691   0.018   1.362   6.918  0.3378 -0.5836  0.4690
 9352SOL    HW139692   0.108   1.336   6.935 -0.0760 -2.8926 -0.7750
 9352SOL    HW239693   0.019   1.456   6.933  2.7249 -1.2676  4.4971
 9353SOL     OW39694   0.204   1.219   4.658  0.1338  0.3564 -0.0921
 9353SOL    HW139695   0.211   1.292   4.597 -1.3832  1.3036  0.8750
 9353SOL    HW239696   0.137   1.254   4.716 -0.3521  1.3104 -1.2183
 9354SOL     OW39697   0.874   4.317  11.765 -0.7511 -0.0778 -0.3883
 9354SOL    HW139698   0.905   4.351  11.849  0.2616 -0.1299 -0.7481
 9354SOL    HW239699   0.779   4.306  11.771 -0.7275 -1.1069 -2.0281
 9355SOL     OW39700   0.865   1.200  12.069  0.3118 -0.1068  0.6343
 9355SOL    HW139701   0.770   1.189  12.064  0.5913 -2.0418 -0.6519
 9355SOL    HW239702   0.875   1.290  12.039  0.3505 -0.0330  0.8683
 9356SOL     OW39703   1.594   0.874   2.337  0.2449 -0.2095  0.0729
 9356SOL    HW139704   1.569   0.953   2.385 -0.0694  0.1451 -0.6667
 9356SOL    HW239705   1.687   0.893   2.324  0.5947 -2.3437 -0.4346
 9357SOL     OW39706   1.458   2.611   1.253 -0.4659  0.5357  0.4857
 9357SOL    HW139707   1.417   2.693   1.225  1.3972  1.0555 -0.6910
 9357SOL    HW239708   1.400   2.588   1.326 -1.1935 -0.9957 -0.5887
 9358SOL     OW39709   2.499   2.724   5.228 -0.4121 -0.3432  0.2520
 9358SOL    HW139710   2.586   2.687   5.213 -0.4012 -0.8481  1.6044
 9358SOL    HW239711   2.510   2.816   5.203  0.1134 -0.2728  0.7486
 9359SOL     OW39712   4.519   0.003   9.991 -0.0196  0.1446 -0.2249
 9359SOL    HW139713   4.587   0.020   9.926 -1.3014  1.8651 -1.1306
 9359SOL    HW239714   4.527   4.650  10.011 -0.4389  0.3494  0.9195
 9360SOL     OW39715   2.668   1.473   5.304 -0.2556  0.2432  0.1704
 9360SOL    HW139716   2.698   1.439   5.219 -0.1492  0.5223  0.0981
 9360SOL    HW239717   2.745   1.491   5.357 -0.9144  1.4714  0.7003
 9361SOL     OW39718   3.366   2.992  15.506  1.0292 -0.0378 -0.1168
 9361SOL    HW139719   3.413   2.920  15.464 -1.1457  0.3012 -3.1502
 9361SOL    HW239720   3.388   2.976  15.597 -1.6110 -1.1771  0.3310
 9362SOL     OW39721   4.256   0.857   6.731 -0.1426 -0.1360 -0.1288
 9362SOL    HW139722   4.301   0.940   6.716 -0.7113  0.1722 -0.1102
 9362SOL    HW239723   4.274   0.844   6.824 -2.8044  1.4718  0.6293
 9363SOL     OW39724   3.590   1.356   4.035 -0.3826 -0.5396 -0.3739
 9363SOL    HW139725   3.579   1.268   4.072  0.0773  0.4311  2.0750
 9363SOL    HW239726   3.595   1.341   3.941 -1.3352 -0.5114 -0.4370
 9364SOL     OW39727   1.531   2.233   8.491  0.1394  0.3497  0.2249
 9364SOL    HW139728   1.620   2.200   8.483 -0.2760 -0.2086 -2.1042
 9364SOL    HW239729   1.480   2.152   8.502  2.5973 -1.0819  1.1146
 9365SOL     OW39730   2.793   1.045   7.894  0.5244  1.0191  0.9201
 9365SOL    HW139731   2.702   1.072   7.881 -0.4122 -1.4320  2.4608
 9365SOL    HW239732   2.824   1.041   7.803  0.1458  1.1726  0.7850
 9366SOL     OW39733   1.528   4.164   8.351  0.7423  0.1102 -0.7868
 9366SOL    HW139734   1.623   4.158   8.346  0.8089  0.6099 -0.1820
 9366SOL    HW239735   1.515   4.256   8.377 -1.0818 -0.5339  0.5989
 9367SOL     OW39736   4.019   2.452   1.399  0.1955  0.4507 -0.0274
 9367SOL    HW139737   4.049   2.418   1.483 -0.4995  0.4070  0.2005
 9367SOL    HW239738   3.948   2.389   1.397 -0.5043  1.2734 -1.5411
 9368SOL     OW39739   1.398   2.055   8.063  0.2737  0.3995 -0.3695
 9368SOL    HW139740   1.385   1.968   8.100 -0.8534 -0.0200 -1.7424
 9368SOL    HW239741   1.436   2.038   7.976 -0.2269 -1.3460 -0.2437
 9369SOL     OW39742   3.877   4.384   8.111  0.1234  0.4614 -0.0348
 9369SOL    HW139743   3.856   4.358   8.021  0.0037 -0.3588  0.2272
 9369SOL    HW239744   3.907   4.297   8.138  3.0901  0.6087 -2.7764
 9370SOL     OW39745   3.600   2.698   3.409 -0.0197  0.7953 -0.2047
 9370SOL    HW139746   3.559   2.645   3.477 -1.1552  0.3887 -1.2040
 9370SOL    HW239747   3.530   2.690   3.344 -0.7238  1.1205  0.5118
 9371SOL     OW39748   0.616   2.641  12.989  0.3273 -0.2776  0.1825
 9371SOL    HW139749   0.666   2.641  12.907  0.1562  1.2108  0.0789
 9371SOL    HW239750   0.611   2.736  13.000  0.9888 -0.1660 -0.4333
 9372SOL     OW39751   2.583   2.293   6.142 -0.3671 -0.1329 -0.4602
 9372SOL    HW139752   2.523   2.269   6.212 -0.7705  0.6589 -0.5306
 9372SOL    HW239753   2.588   2.388   6.154 -0.1008 -0.1638 -0.3270
 9373SOL     OW39754   1.293   0.490  10.230 -0.3428  0.1889  0.1740
 9373SOL    HW139755   1.220   0.531  10.276 -0.2561  0.3717  0.1478
 9373SOL    HW239756   1.373   0.518  10.274  0.1617  1.4553 -1.5371
 9374SOL     OW39757   0.867   0.036  14.024 -0.0187 -0.5364  0.1892
 9374SOL    HW139758   0.772   0.042  14.032 -0.1492 -0.4081 -1.3540
 9374SOL    HW239759   0.887   4.695  14.072  1.5670  1.0619  2.2278
 9375SOL     OW39760   1.725   3.745   0.840 -0.0435 -0.3558 -0.0981
 9375SOL    HW139761   1.726   3.702   0.926  0.0880  0.6023  0.3824
 9375SOL    HW239762   1.653   3.805   0.859 -0.9836 -0.9031 -1.9285
 9376SOL     OW39763   0.204   0.873  13.375  0.3395 -0.1523 -0.4352
 9376SOL    HW139764   0.265   0.945  13.395 -0.9846  0.8206  0.1436
 9376SOL    HW239765   0.253   0.817  13.315 -0.5078  0.2631 -1.5111
 9377SOL     OW39766   2.126   2.432  13.678  0.1801 -0.5993  0.7777
 9377SOL    HW139767   2.211   2.398  13.706  0.1256 -1.3227  0.0655
 9377SOL    HW239768   2.142   2.436  13.583  1.1705 -3.6436  0.8096
 9378SOL     OW39769   0.254   3.665   7.982 -0.2455 -0.3670 -0.0024
 9378SOL    HW139770   0.209   3.677   8.065  1.9364  0.2953  1.1008
 9378SOL    HW239771   0.260   3.569   7.978 -2.2054 -0.5222  0.6271
 9379SOL     OW39772   0.649   2.863   3.460 -0.1960  0.0248  0.5801
 9379SOL    HW139773   0.631   2.880   3.552 -1.8819  0.1652  0.2269
 9379SOL    HW239774   0.576   2.911   3.421  0.0513  0.7529  1.0158
 9380SOL     OW39775   2.766   3.415   3.971 -0.0987  0.2149 -0.2334
 9380SOL    HW139776   2.812   3.405   4.054 -1.7524  1.7819  0.8640
 9380SOL    HW239777   2.723   3.329   3.966 -0.3003  0.3882 -1.4903
 9381SOL     OW39778   0.051   1.961   4.414  0.5920 -0.1472 -0.8685
 9381SOL    HW139779   0.043   2.046   4.456  1.5605 -0.9847  1.0137
 9381SOL    HW239780   0.136   1.970   4.370  0.8327 -0.8164 -0.5413
 9382SOL     OW39781   1.342   2.556  12.872  0.1152  0.3949  0.5032
 9382SOL    HW139782   1.342   2.620  12.801 -1.4278 -0.3786 -0.1978
 9382SOL    HW239783   1.379   2.603  12.947 -0.6178  2.4117 -0.4107
 9383SOL     OW39784   3.353   0.155   5.501  0.3046  0.1288 -0.9565
 9383SOL    HW139785   3.446   0.169   5.514  0.5583 -0.7979 -1.7773
 9383SOL    HW239786   3.316   0.234   5.539  0.7244 -0.6198  1.0175
 9384SOL     OW39787   4.049   2.223   1.987  1.0704 -0.1475 -0.3771
 9384SOL    HW139788   3.962   2.184   1.979  0.4479  0.8525  1.5151
 9384SOL    HW239789   4.045   2.278   2.065 -1.0581 -1.5730  0.5330
 9385SOL     OW39790   3.303   3.941  17.186  0.2849  0.3317 -0.1541
 9385SOL    HW139791   3.221   3.970  17.146  0.5238 -0.0704 -0.9354
 9385SOL    HW239792   3.317   3.856  17.143 -0.6436  0.3172 -0.4204
 9386SOL     OW39793   3.306   0.605   2.981  0.5472  0.0247 -0.5055
 9386SOL    HW139794   3.308   0.519   2.939  0.3050 -0.9677  1.5417
 9386SOL    HW239795   3.233   0.641   2.931  1.2343  1.4416 -0.4999
 9387SOL     OW39796   1.238   1.952  13.067 -1.2195  0.1813 -0.2242
 9387SOL    HW139797   1.258   1.881  13.007 -0.7307  0.8161 -0.8131
 9387SOL    HW239798   1.213   2.032  13.020 -0.6931 -0.0695 -0.9178
 9388SOL     OW39799   0.236   1.143   6.661  0.1725  0.6192 -0.1726
 9388SOL    HW139800   0.148   1.153   6.624 -1.1011  1.6329  3.2017
 9388SOL    HW239801   0.213   1.165   6.751  1.0738  2.2083 -0.3189
 9389SOL     OW39802   0.164   1.689   5.162 -0.1016  0.1493 -0.0454
 9389SOL    HW139803   0.120   1.774   5.162  1.0221  0.7264  0.9196
 9389SOL    HW239804   0.168   1.668   5.068  1.8921  0.7278 -0.0822
 9390SOL     OW39805   2.920   3.020   5.275 -0.1900  0.5766 -0.7050
 9390SOL    HW139806   3.009   2.989   5.258  0.0578  0.4795  0.7371
 9390SOL    HW239807   2.929   3.113   5.255  1.1341  0.3470 -1.1655
 9391SOL     OW39808   3.022   2.969  15.274 -0.3815  0.2953 -0.7315
 9391SOL    HW139809   3.054   2.909  15.207  0.5254 -0.0074 -0.0326
 9391SOL    HW239810   3.103   3.015  15.295  0.6777 -0.1460 -3.9464
 9392SOL     OW39811   2.947   2.855  13.302 -0.1437 -0.0274  0.5645
 9392SOL    HW139812   3.002   2.822  13.373 -1.1068 -0.8495  0.9226
 9392SOL    HW239813   2.891   2.781  13.281 -1.4139  1.5773 -1.6432
 9393SOL     OW39814   4.666   2.644  11.665  0.0090  0.2760 -0.1803
 9393SOL    HW139815   4.697   2.675  11.580 -0.9288 -1.6335 -1.2207
 9393SOL    HW239816   0.005   2.660  11.717  1.6405 -1.4694 -2.1236
 9394SOL     OW39817   0.001   2.762   8.615 -0.3309  0.1902 -0.4024
 9394SOL    HW139818   0.068   2.763   8.546  0.4893 -0.7996  0.3939
 9394SOL    HW239819   4.670   2.708   8.581  2.0073 -1.7392 -2.2236
 9395SOL     OW39820   3.197   4.457  11.519 -0.2566  0.3618  0.0957
 9395SOL    HW139821   3.172   4.375  11.475 -0.2050  0.2583  0.2608
 9395SOL    HW239822   3.169   4.526  11.458 -1.0084  0.3522  0.4263
 9396SOL     OW39823   4.400   2.524  13.980  0.0837  0.4746 -0.0514
 9396SOL    HW139824   4.373   2.582  13.908 -1.8671 -1.9711 -1.2736
 9396SOL    HW239825   4.400   2.592  14.047  1.1923  1.6869 -1.2579
 9397SOL     OW39826   2.487   3.056   5.848  0.3907  0.0473  0.2683
 9397SOL    HW139827   2.560   3.117   5.841 -1.5998  2.2874 -1.3339
 9397SOL    HW239828   2.434   3.077   5.771 -1.7855  2.4243  2.4242
 9398SOL     OW39829   1.652   1.433   4.010 -0.3657  0.3804 -0.8564
 9398SOL    HW139830   1.682   1.351   4.050 -0.4673  0.3815 -0.7776
 9398SOL    HW239831   1.668   1.501   4.076 -0.2981 -0.7942  0.3524
 9399SOL     OW39832   4.112   0.649   6.606 -0.3946 -0.0327 -0.4018
 9399SOL    HW139833   4.024   0.681   6.586 -0.1949  2.0776  2.2062
 9399SOL    HW239834   4.153   0.727   6.643 -1.5678  0.6504 -0.5244
 9400SOL     OW39835   4.104   2.000  12.104  0.9793  0.3569 -0.5968
 9400SOL    HW139836   4.080   2.083  12.063 -0.2526 -0.2676 -1.1141
 9400SOL    HW239837   4.168   2.041  12.163  1.9474 -1.0676 -0.6496
 9401SOL     OW39838   2.923   2.906   3.206 -0.1177  0.0452  0.7622
 9401SOL    HW139839   2.964   2.991   3.193 -0.1858  0.1070  0.9476
 9401SOL    HW239840   2.833   2.921   3.177  0.4917  0.8838 -0.6486
 9402SOL     OW39841   0.552   3.179  12.144 -0.6905 -0.3305  0.8544
 9402SOL    HW139842   0.509   3.141  12.067  0.4005 -0.1999  0.1693
 9402SOL    HW239843   0.517   3.268  12.141 -1.9167 -0.7936  1.5117
 9403SOL     OW39844   1.008   4.595   4.689 -0.2229 -0.0125  0.2209
 9403SOL    HW139845   1.069   4.584   4.762 -0.6276 -3.9112 -0.0327
 9403SOL    HW239846   1.069   4.606   4.616 -0.0860 -2.1700  0.0351
 9404SOL     OW39847   4.505   0.138  13.817 -0.3732  0.2850 -0.4966
 9404SOL    HW139848   4.542   0.170  13.735 -0.8643 -0.7553 -1.1238
 9404SOL    HW239849   4.445   0.213  13.823  2.4029  2.4312 -0.0007
 9405SOL     OW39850   0.134   0.113   5.964  0.0359  0.2266  0.2805
 9405SOL    HW139851   0.180   0.038   5.928 -0.5532 -0.1655  0.3527
 9405SOL    HW239852   0.179   0.107   6.049 -1.1242 -0.6072  0.8340
 9406SOL     OW39853   3.677   0.007   4.259 -0.9750 -0.4941 -0.1347
 9406SOL    HW139854   3.667   4.674   4.321 -1.3040 -0.7077 -0.4417
 9406SOL    HW239855   3.596   0.056   4.279 -1.2601 -1.4368  1.0281
 9407SOL     OW39856   0.923   0.769   1.845  0.3005 -0.3122 -0.5666
 9407SOL    HW139857   0.969   0.739   1.767  0.2052 -1.7162 -0.0843
 9407SOL    HW239858   0.986   0.738   1.910  1.2256  1.7057 -0.5013
 9408SOL     OW39859   0.235   4.575   2.309 -0.2701 -0.0876 -0.1167
 9408SOL    HW139860   0.221   4.571   2.214  0.5841  0.9925 -0.2888
 9408SOL    HW239861   0.209   4.665   2.329 -0.0472  0.2005 -1.0954
 9409SOL     OW39862   3.821   2.785   0.635 -0.4162  0.3633  0.4351
 9409SOL    HW139863   3.864   2.854   0.585  2.6251 -2.2599 -0.5369
 9409SOL    HW239864   3.757   2.753   0.571 -0.9671  1.8927  0.2263
 9410SOL     OW39865   2.749   4.530   4.764  0.1090 -0.0855 -1.1524
 9410SOL    HW139866   2.657   4.506   4.753 -0.0809  0.4699 -0.7816
 9410SOL    HW239867   2.758   4.566   4.852  1.6436 -0.4127 -1.1708
 9411SOL     OW39868   3.037   0.196  10.265 -0.0658 -0.2339  0.3023
 9411SOL    HW139869   2.996   0.127  10.213  0.8925 -1.1333  0.7328
 9411SOL    HW239870   3.102   0.235  10.206 -1.7645 -2.2428 -2.9338
 9412SOL     OW39871   0.918   4.657   6.425  0.6716  0.6160  0.1889
 9412SOL    HW139872   0.931   4.678   6.332 -1.0384  1.3570  0.1204
 9412SOL    HW239873   0.849   4.716   6.456 -1.8661 -0.8001 -2.7396
 9413SOL     OW39874   0.870   3.673   7.725  0.2495 -0.6525  0.0320
 9413SOL    HW139875   0.781   3.638   7.726  0.3056 -0.8384 -3.3382
 9413SOL    HW239876   0.884   3.702   7.635 -2.5093  0.6874  0.0204
 9414SOL     OW39877   3.142   1.695   5.160 -0.0313 -0.3111 -0.5222
 9414SOL    HW139878   3.103   1.607   5.159  2.6774 -1.5226  1.3418
 9414SOL    HW239879   3.232   1.674   5.136 -0.3320 -2.0172 -0.2011
 9415SOL     OW39880   3.142   3.310   2.773 -0.1501  0.2450  0.5277
 9415SOL    HW139881   3.179   3.390   2.736 -1.8149 -0.1215 -1.9923
 9415SOL    HW239882   3.055   3.341   2.799  0.0699  1.7169 -0.5219
 9416SOL     OW39883   0.511   4.253   3.709  0.3631 -0.1530  0.1370
 9416SOL    HW139884   0.490   4.340   3.675 -0.3709 -0.3613  0.0543
 9416SOL    HW239885   0.597   4.264   3.749  0.2771 -0.7787  0.4998
 9417SOL     OW39886   3.417   2.030  16.836 -0.2335  0.0179  0.7640
 9417SOL    HW139887   3.497   1.980  16.849  1.1853  2.0902  0.0710
 9417SOL    HW239888   3.343   1.990  16.881 -0.6612  0.2873  0.3060
 9418SOL     OW39889   2.062   2.188  17.498 -0.3363 -0.1382 -0.0544
 9418SOL    HW139890   2.098   2.136  17.427 -0.8759  1.9212 -1.8257
 9418SOL    HW239891   2.138   2.231  17.539 -1.4769  1.0089  0.8588
 9419SOL     OW39892   1.546   2.860   3.729 -0.5029 -0.0976 -0.2026
 9419SOL    HW139893   1.634   2.897   3.729  0.1286 -1.5603 -1.9158
 9419SOL    HW239894   1.521   2.879   3.638 -0.1360 -0.2896 -0.3465
 9420SOL     OW39895   3.764   1.864  16.391 -0.1805 -0.3881  0.0005
 9420SOL    HW139896   3.771   1.888  16.298 -2.4886 -0.4435 -0.1718
 9420SOL    HW239897   3.733   1.944  16.434  0.2117 -0.3298  0.1743
 9421SOL     OW39898   4.408   3.323   5.016  0.7403 -0.0623 -0.2007
 9421SOL    HW139899   4.443   3.237   5.040  0.5763 -0.7916 -2.5720
 9421SOL    HW239900   4.339   3.331   5.082 -0.4831 -0.4517 -1.4558
 9422SOL     OW39901   3.691   2.294   6.663 -0.2924 -0.2620 -0.4450
 9422SOL    HW139902   3.779   2.297   6.703  0.4052 -2.6699 -1.8095
 9422SOL    HW239903   3.644   2.257   6.738 -1.4497 -0.8941 -1.4942
 9423SOL     OW39904   2.398   2.899   0.656  0.6426 -0.3413 -0.7504
 9423SOL    HW139905   2.435   2.846   0.726 -2.0797  0.8574  1.5873
 9423SOL    HW239906   2.460   2.973   0.653 -1.0124  1.1015  0.8565
 9424SOL     OW39907   4.162   3.292   4.167 -0.0163 -0.5059 -0.0080
 9424SOL    HW139908   4.256   3.277   4.173  0.2871  1.0365 -0.9211
 9424SOL    HW239909   4.139   3.224   4.230  0.7872  1.1528  2.0797
 9425SOL     OW39910   3.418   3.787   6.390  0.1618 -0.5488 -0.4657
 9425SOL    HW139911   3.433   3.832   6.308 -2.1705  0.5520 -0.3001
 9425SOL    HW239912   3.509   3.783   6.420  0.3464  0.4554 -0.9010
 9426SOL     OW39913   1.644   3.649   7.032  0.0553  0.0866  0.2616
 9426SOL    HW139914   1.596   3.691   7.103 -0.2923  1.2890 -0.6863
 9426SOL    HW239915   1.733   3.681   7.045 -0.5951  2.4439 -1.2405
 9427SOL     OW39916   2.883   0.505  16.560 -0.2449  0.1305 -0.4126
 9427SOL    HW139917   2.925   0.438  16.506  1.3020  0.7267  0.0497
 9427SOL    HW239918   2.938   0.582  16.546 -2.9093  1.8154 -1.5528
 9428SOL     OW39919   1.063   0.992   2.047  0.1462  0.6073 -0.1283
 9428SOL    HW139920   1.080   1.074   2.000  0.7860  1.1370  1.0124
 9428SOL    HW239921   0.988   0.949   2.006  1.2095  0.9689 -2.4368
 9429SOL     OW39922   1.832   2.796   2.867 -0.3103  0.2152 -0.3777
 9429SOL    HW139923   1.869   2.810   2.780  1.3387 -1.0016  0.1188
 9429SOL    HW239924   1.849   2.877   2.914  0.0118  0.6378 -1.2329
 9430SOL     OW39925   3.713   2.167  16.514 -0.1088 -0.1244  0.0702
 9430SOL    HW139926   3.686   2.258  16.510  0.0015 -0.0610  0.7720
 9430SOL    HW239927   3.809   2.168  16.515 -0.0660 -2.1093 -1.4579
 9431SOL     OW39928   3.891   1.792   1.384 -0.3925  0.4144  0.0668
 9431SOL    HW139929   3.909   1.791   1.290  3.8129 -0.7936  0.8924
 9431SOL    HW239930   3.963   1.847   1.413 -0.7158 -0.9113  3.3809
 9432SOL     OW39931   3.512   0.129  12.792  0.2641  0.4663  0.0026
 9432SOL    HW139932   3.443   0.121  12.726  1.0234  2.2691 -0.9944
 9432SOL    HW239933   3.458   0.104  12.867 -1.1234  1.2816 -0.7127
 9433SOL     OW39934   2.638   2.344  16.613  0.8026  0.2236 -0.4293
 9433SOL    HW139935   2.659   2.412  16.549  1.1414  0.8104  0.3035
 9433SOL    HW239936   2.569   2.304  16.559  0.3041 -2.8636  2.5040
 9434SOL     OW39937   0.169   2.583   9.928 -0.4776 -0.2900  0.2073
 9434SOL    HW139938   0.146   2.493   9.906 -0.1055  0.0305 -1.4974
 9434SOL    HW239939   0.249   2.559   9.975 -0.0993  0.0986 -0.2352
 9435SOL     OW39940   4.617   2.439   3.626 -0.0770 -0.2941  0.2791
 9435SOL    HW139941   4.646   2.514   3.574 -2.7376  0.2748 -0.3470
 9435SOL    HW239942   4.700   2.396   3.649 -0.7286 -0.3083  2.6617
 9436SOL     OW39943   0.107   2.850   3.389 -0.4388 -0.1251  0.0310
 9436SOL    HW139944   0.045   2.866   3.317 -0.7388  0.2631  0.3786
 9436SOL    HW239945   0.109   2.931   3.439 -0.4815  1.1064 -1.9377
 9437SOL     OW39946   1.546   1.008   2.984  0.2848  0.1800 -0.3164
 9437SOL    HW139947   1.519   1.098   3.001 -0.0001  0.0948 -0.3157
 9437SOL    HW239948   1.524   0.969   3.069  0.3813 -1.4562 -1.0382
 9438SOL     OW39949   2.437   3.548   1.783  0.0746 -0.3767  0.0309
 9438SOL    HW139950   2.442   3.592   1.868  3.1067 -1.1195  0.2620
 9438SOL    HW239951   2.359   3.589   1.746  1.8796  2.2626 -0.8531
 9439SOL     OW39952   3.597   1.381   8.415 -0.2961 -0.3733  0.6586
 9439SOL    HW139953   3.562   1.297   8.445 -3.4077  0.3942 -0.7899
 9439SOL    HW239954   3.677   1.398   8.465 -0.2913 -1.4794  1.0307
 9440SOL     OW39955   1.615   0.864   0.960 -0.3643  0.2220  0.1746
 9440SOL    HW139956   1.597   0.809   0.884  2.5425 -0.9658  0.3247
 9440SOL    HW239957   1.710   0.879   0.958 -0.2623 -0.7000 -1.8371
 9441SOL     OW39958   1.912   3.147   2.280  0.3885 -0.1403 -0.1710
 9441SOL    HW139959   1.817   3.145   2.265  0.4400 -2.0499 -0.3133
 9441SOL    HW239960   1.951   3.097   2.209  0.4530 -0.0076 -0.2270
 9442SOL     OW39961   1.249   3.924   4.030 -0.5508  0.1629 -0.3443
 9442SOL    HW139962   1.303   3.863   3.979 -0.3585 -0.5296  0.6904
 9442SOL    HW239963   1.196   3.867   4.086  0.1207 -0.1960 -0.0691
 9443SOL     OW39964   1.427   0.906   6.810 -0.0150  0.0460  0.2978
 9443SOL    HW139965   1.515   0.942   6.818 -0.0226 -0.2349  1.6476
 9443SOL    HW239966   1.383   0.969   6.753 -0.0731  0.0866  0.3863
 9444SOL     OW39967   3.588   3.176   0.543 -0.5556 -0.3348  0.3781
 9444SOL    HW139968   3.683   3.183   0.534 -0.9347  0.5575 -2.9983
 9444SOL    HW239969   3.564   3.252   0.596 -2.1867  0.2006 -1.0984
 9445SOL     OW39970   2.920   2.715   9.066 -0.2487 -0.2107 -0.2403
 9445SOL    HW139971   2.975   2.650   9.023  0.6746  0.1600  0.3647
 9445SOL    HW239972   2.894   2.767   8.991  1.3878  0.2525 -0.5036
 9446SOL     OW39973   2.055   3.363   2.277  0.0373  0.3142 -0.1674
 9446SOL    HW139974   2.035   3.347   2.369 -0.1198  2.1528  0.1214
 9446SOL    HW239975   2.008   3.285   2.248  0.3699  0.6438 -1.5755
 9447SOL     OW39976   4.368   4.290   2.820 -0.7213 -0.3939 -0.1667
 9447SOL    HW139977   4.381   4.383   2.840 -0.1906 -0.5240  0.1015
 9447SOL    HW239978   4.329   4.314   2.736  0.8893  2.5191 -0.0795
 9448SOL     OW39979   1.327   4.587   3.353  0.4910 -0.2875  0.1046
 9448SOL    HW139980   1.411   4.624   3.379  0.4818  0.5586 -1.0650
 9448SOL    HW239981   1.300   4.648   3.284  1.7138  1.0315  0.7980
 9449SOL     OW39982   1.430   1.182  11.513  0.0326 -0.1422 -0.0958
 9449SOL    HW139983   1.474   1.239  11.577 -1.4444  2.5010 -1.4075
 9449SOL    HW239984   1.484   1.198  11.435 -1.2033  0.3667 -0.8466
 9450SOL     OW39985   1.214   2.157  14.562 -0.3400  0.0565 -0.3963
 9450SOL    HW139986   1.253   2.177  14.477  1.2917 -0.3053  0.2658
 9450SOL    HW239987   1.161   2.236  14.568  1.2948  1.0719  0.5634
 9451SOL     OW39988   3.587   3.203  10.416  0.2780  0.2196 -0.2617
 9451SOL    HW139989   3.576   3.141  10.344 -0.7286 -1.0408  0.9893
 9451SOL    HW239990   3.515   3.266  10.406 -0.8747 -0.9417  0.6809
 9452SOL     OW39991   0.970   3.084   1.679  0.4041  0.3892 -0.1993
 9452SOL    HW139992   1.030   3.086   1.605  2.1228  0.1099  1.2071
 9452SOL    HW239993   0.895   3.054   1.628 -1.3247  2.0570  1.3511
 9453SOL     OW39994   3.062   0.478   7.974  0.1251  0.2227 -0.1773
 9453SOL    HW139995   3.146   0.432   7.977  1.7991  3.4560  3.2979
 9453SOL    HW239996   3.060   0.505   7.883 -2.2713  0.3426 -0.1004
 9454SOL     OW39997   3.479   2.567   3.648 -0.3853  0.4332  0.2272
 9454SOL    HW139998   3.432   2.497   3.694  0.3001 -0.0958  0.1374
 9454SOL    HW239999   3.403   2.624   3.649  0.7291  1.9117 -0.2356
 9455SOL     OW40000   1.051   1.357   5.438 -0.2353  0.7963  0.3109
 9455SOL    HW140001   1.141   1.384   5.457  0.2224  0.6558 -1.6748
 9455SOL    HW240002   1.010   1.444   5.448 -0.5211  0.6299  0.5905
 9456SOL     OW40003   3.597   0.737  14.918 -0.0670 -0.2164 -0.1238
 9456SOL    HW140004   3.606   0.702  15.006 -3.8509 -0.4465  0.1467
 9456SOL    HW240005   3.688   0.736  14.888  0.0027  0.7253  0.0412
 9457SOL     OW40006   0.532   0.929   2.857  0.1275  0.1551 -0.1315
 9457SOL    HW140007   0.465   0.952   2.921  0.8455  1.0983  0.2708
 9457SOL    HW240008   0.479   0.864   2.809 -0.3136 -0.0147  0.5950
 9458SOL     OW40009   2.235   0.322   5.589 -0.6320 -0.3118  0.2989
 9458SOL    HW140010   2.256   0.229   5.574 -3.8154 -1.0608  0.5049
 9458SOL    HW240011   2.284   0.370   5.522 -1.9226 -0.9448 -1.1012
 9459SOL     OW40012   2.912   0.340   7.705 -0.0952  0.3003 -0.0697
 9459SOL    HW140013   2.870   0.311   7.624 -0.1095  1.3854 -0.4541
 9459SOL    HW240014   2.958   0.260   7.732 -1.3343  0.0455  1.2879
 9460SOL     OW40015   3.418   3.468  15.742 -0.3692  0.3952 -0.3269
 9460SOL    HW140016   3.374   3.427  15.817  0.6941 -1.5616 -0.7760
 9460SOL    HW240017   3.397   3.404  15.675 -1.2313  0.1254  0.2018
 9461SOL     OW40018   2.840   1.146   7.349 -0.2476 -0.1273 -0.1117
 9461SOL    HW140019   2.919   1.177   7.306 -0.4237  1.0448  0.3911
 9461SOL    HW240020   2.771   1.207   7.324  0.5869  1.3432  1.1833
 9462SOL     OW40021   1.184   3.325  12.902  0.1691 -0.6501 -0.4510
 9462SOL    HW140022   1.247   3.253  12.901  1.7060  0.6778 -0.9880
 9462SOL    HW240023   1.180   3.348  12.994 -0.8375  0.1260 -0.6868
 9463SOL     OW40024   2.501   4.715   3.660 -0.1969 -0.2249 -0.9274
 9463SOL    HW140025   2.526   0.056   3.706  1.4076 -1.1772 -0.1052
 9463SOL    HW240026   2.569   4.662   3.702 -0.4086 -1.2082 -1.8495
 9464SOL     OW40027   3.020   2.882   0.385  0.3452  0.0659 -0.1426
 9464SOL    HW140028   3.083   2.859   0.454  1.2037  2.4991 -0.1063
 9464SOL    HW240029   2.946   2.829   0.413 -0.2238  1.6490  1.3142
 9465SOL     OW40030   3.123   2.961   6.767 -0.4236 -0.7439  0.6444
 9465SOL    HW140031   3.158   2.872   6.777  2.5565  0.1578 -1.7539
 9465SOL    HW240032   3.205   3.009   6.754 -0.0860 -1.8693 -1.3555
 9466SOL     OW40033   0.787   3.558  16.312  0.1274 -0.7462 -0.1857
 9466SOL    HW140034   0.798   3.617  16.237  0.6364 -1.2366 -0.5040
 9466SOL    HW240035   0.732   3.488  16.276 -2.7343 -0.0149  2.8519
 9467SOL     OW40036   1.310   4.716   9.652  0.4216  0.2628 -0.2419
 9467SOL    HW140037   1.226   4.670   9.651 -0.2773  1.5815 -1.5479
 9467SOL    HW240038   1.365   4.653   9.699 -0.9535  0.1631  1.2382
 9468SOL     OW40039   3.380   0.673   2.666 -0.1539 -0.7785  0.1990
 9468SOL    HW140040   3.319   0.709   2.602 -0.0978 -0.6892  0.1960
 9468SOL    HW240041   3.407   0.597   2.614  1.4628 -0.3194  0.3748
 9469SOL     OW40042   1.368   4.394   1.909 -0.2483  0.0784 -0.0724
 9469SOL    HW140043   1.453   4.359   1.936 -0.2319  0.1362 -0.0483
 9469SOL    HW240044   1.332   4.309   1.886 -2.1651  1.2379 -1.3637
 9470SOL     OW40045   3.381   2.353  12.065 -0.1630 -0.7390 -0.2189
 9470SOL    HW140046   3.313   2.286  12.077  0.4167 -1.5582 -1.5648
 9470SOL    HW240047   3.452   2.300  12.029 -0.1679  0.3570 -1.8442
 9471SOL     OW40048   3.170   3.871  17.418  0.5801 -0.1452  0.0352
 9471SOL    HW140049   3.222   3.908  17.347  0.0774  1.7550  0.6408
 9471SOL    HW240050   3.225   3.809  17.465 -0.0373  1.5593  2.9888
 9472SOL     OW40051   0.038   1.389   3.767  0.0844 -0.2033  0.3654
 9472SOL    HW140052   4.685   1.374   3.753  0.3837 -1.2741 -0.5251
 9472SOL    HW240053   0.050   1.331   3.842  3.2145 -0.4677 -0.3158
 9473SOL     OW40054   3.304   2.404   3.770 -0.1569 -0.6688  0.1078
 9473SOL    HW140055   3.285   2.348   3.845  0.5554 -1.6303 -0.4282
 9473SOL    HW240056   3.294   2.347   3.693  0.5337 -0.0051 -0.4665
 9474SOL     OW40057   1.517   3.423   6.510 -0.2385 -0.4541 -0.5409
 9474SOL    HW140058   1.491   3.491   6.448  1.2854 -0.4842 -1.2194
 9474SOL    HW240059   1.578   3.474   6.563 -0.6523  0.0326 -0.5360
 9475SOL     OW40060   3.657   2.163   2.120  0.2398  0.2020  0.1412
 9475SOL    HW140061   3.651   2.169   2.025 -2.6729 -3.8111  0.0719
 9475SOL    HW240062   3.709   2.239   2.143 -0.9912  1.8796 -2.6447
 9476SOL     OW40063   4.105   0.578   4.790 -0.2526 -0.1750 -0.2316
 9476SOL    HW140064   4.124   0.543   4.877 -2.7693 -0.7073  0.0889
 9476SOL    HW240065   4.062   0.501   4.753  1.0126 -0.1932 -1.6546
 9477SOL     OW40066   3.237   4.682   1.664  0.1041 -0.1007  0.1131
 9477SOL    HW140067   3.280   4.598   1.681  0.4449  0.2398  0.9169
 9477SOL    HW240068   3.198   4.666   1.578 -1.9733  1.2081  0.8100
 9478SOL     OW40069   3.747   0.012   3.778  0.4935  0.2466 -0.8768
 9478SOL    HW140070   3.760   0.105   3.799 -2.2359  0.2008  0.9846
 9478SOL    HW240071   3.663   0.004   3.823  0.9442  1.5174  0.1800
 9479SOL     OW40072   2.218   4.102   6.440  0.5796  0.1853 -0.4659
 9479SOL    HW140073   2.294   4.046   6.454 -0.8280 -1.7252 -0.3622
 9479SOL    HW240074   2.262   4.185   6.456  1.1401 -0.3171  0.6854
 9480SOL     OW40075   2.273   1.056   9.419  0.3926  0.2311  0.1367
 9480SOL    HW140076   2.238   1.093   9.339  2.2483 -1.9548 -1.6954
 9480SOL    HW240077   2.199   1.014   9.463 -1.2168  2.3264 -0.5989
 9481SOL     OW40078   2.883   0.398   0.428  0.3380  0.1687  0.0735
 9481SOL    HW140079   2.888   0.400   0.332 -1.0999  3.0974  0.0703
 9481SOL    HW240080   2.866   0.305   0.443  0.0883  0.1138 -0.5594
 9482SOL     OW40081   2.485   3.818  11.499 -0.3896 -0.1704  0.3012
 9482SOL    HW140082   2.537   3.859  11.568 -2.4787 -1.9977  3.0079
 9482SOL    HW240083   2.471   3.884  11.432 -0.7894  2.2830  2.8172
 9483SOL     OW40084   3.436   1.356   0.272 -0.3390  0.0938 -0.1237
 9483SOL    HW140085   3.455   1.282   0.215  3.9543  1.0616  0.0704
 9483SOL    HW240086   3.504   1.346   0.338  0.2765 -1.2643 -0.9591
 9484SOL     OW40087   3.327   1.921   5.539  0.2349  0.5067 -0.5449
 9484SOL    HW140088   3.361   2.009   5.555 -0.1490  0.5437  0.0658
 9484SOL    HW240089   3.237   1.946   5.557 -0.5994 -1.1814 -2.3901
 9485SOL     OW40090   0.765   2.969   4.242  0.1782 -0.3591 -0.1482
 9485SOL    HW140091   0.755   2.898   4.178 -0.7955  0.2430 -0.6555
 9485SOL    HW240092   0.759   2.920   4.324 -0.7240  1.0797  0.6504
 9486SOL     OW40093   4.712   2.458   7.910 -0.2950 -0.5136 -0.0854
 9486SOL    HW140094   4.699   2.404   7.988  1.9002 -1.8927 -0.6746
 9486SOL    HW240095   4.637   2.434   7.855  0.2230 -3.1701  0.3272
 9487SOL     OW40096   3.363   2.697   9.570  0.3398 -1.0167 -0.2181
 9487SOL    HW140097   3.399   2.612   9.543  1.1442 -0.6715 -0.2391
 9487SOL    HW240098   3.270   2.691   9.547  0.8565 -1.3288 -2.2335
 9488SOL     OW40099   0.088   3.660   2.235 -0.1562 -0.3250  0.1128
 9488SOL    HW140100   0.037   3.720   2.289  1.6469 -0.8024  2.3488
 9488SOL    HW240101   0.147   3.620   2.299  1.6817  2.5829  0.2820
 9489SOL     OW40102   3.331   0.413   9.128  0.0936  0.0386  0.2007
 9489SOL    HW140103   3.354   0.327   9.092 -0.7744  0.2233 -0.7682
 9489SOL    HW240104   3.245   0.397   9.167  0.9509 -0.1253  2.0416
 9490SOL     OW40105   4.666   3.428   2.427  0.2334 -0.2665  0.0616
 9490SOL    HW140106   0.009   3.475   2.421 -0.1292  0.3174 -0.4222
 9490SOL    HW240107   4.625   3.471   2.501  0.9968 -0.3600  0.5413
 9491SOL     OW40108   2.854   3.509   5.735  0.1236 -0.2392 -0.0807
 9491SOL    HW140109   2.940   3.476   5.708  0.4807  1.2606 -0.7862
 9491SOL    HW240110   2.861   3.538   5.826 -0.9203 -0.3000  0.0143
 9492SOL     OW40111   2.372   3.664   6.803 -0.1705 -0.0516  0.3900
 9492SOL    HW140112   2.402   3.579   6.771 -1.5428  0.0878 -1.2487
 9492SOL    HW240113   2.441   3.718   6.763  0.0107 -0.0755  0.6668
 9493SOL     OW40114   3.480   4.065   0.510  0.3780  0.3291 -0.0842
 9493SOL    HW140115   3.521   3.991   0.555 -1.5224 -1.3138 -1.0470
 9493SOL    HW240116   3.474   4.021   0.425 -1.6362  3.1587 -1.3787
 9494SOL     OW40117   2.834   2.141   0.803  0.0850  0.0596 -0.4247
 9494SOL    HW140118   2.787   2.223   0.821  0.1830 -0.3158  1.4573
 9494SOL    HW240119   2.785   2.108   0.727  1.9369 -0.3219 -1.4494
 9495SOL     OW40120   3.389   0.258   3.105 -0.1028 -0.0409  0.2260
 9495SOL    HW140121   3.347   0.265   3.020  2.2395  1.5708 -0.7798
 9495SOL    HW240122   3.375   0.338   3.156 -0.7266 -1.3925  2.2185
 9496SOL     OW40123   2.139   4.689  13.273  0.2001 -0.7581 -0.3287
 9496SOL    HW140124   2.067   4.672  13.334 -0.1312  1.0125 -0.2373
 9496SOL    HW240125   2.103   4.646  13.196  0.2954 -0.4460 -0.5470
 9497SOL     OW40126   1.443   0.748  13.954  0.0311 -0.0362 -0.0183
 9497SOL    HW140127   1.411   0.823  14.005  0.8997  0.5465 -0.3372
 9497SOL    HW240128   1.372   0.748  13.889 -1.1502 -3.0963  1.2992
 9498SOL     OW40129   3.054   1.990  15.365  0.3020 -0.1196 -0.6220
 9498SOL    HW140130   2.968   1.998  15.407  0.6985  3.0996 -0.4099
 9498SOL    HW240131   3.046   2.054  15.295  0.5972  0.8886  0.2678
 9499SOL     OW40132   2.727   2.617  11.785 -0.0323 -0.7524  0.1465
 9499SOL    HW140133   2.798   2.663  11.739 -1.5804  2.8841  1.4449
 9499SOL    HW240134   2.774   2.559  11.845 -1.6552  0.2649  2.4015
 9500SOL     OW40135   4.169   1.024   3.638  0.1291  0.2080 -0.1823
 9500SOL    HW140136   4.217   1.081   3.578 -1.3123  0.6365 -0.9065
 9500SOL    HW240137   4.129   0.961   3.578 -3.5402  1.7501  0.6270
 9501SOL     OW40138   3.556   0.689   7.722 -0.0640 -0.0618 -0.1117
 9501SOL    HW140139   3.633   0.643   7.755 -0.6790 -2.5480 -2.0965
 9501SOL    HW240140   3.503   0.707   7.799 -0.9648  1.5348 -1.0937
 9502SOL     OW40141   1.270   0.754  10.533  0.0090  0.6224  0.2722
 9502SOL    HW140142   1.352   0.726  10.492 -0.5495 -1.7229  0.7596
 9502SOL    HW240143   1.202   0.692  10.510  0.6243  0.5882 -1.4897
 9503SOL     OW40144   4.242   1.586   4.858 -0.4758 -0.2395  0.3517
 9503SOL    HW140145   4.151   1.582   4.830 -0.2032 -1.9032 -0.2509
 9503SOL    HW240146   4.286   1.516   4.810 -0.8953  0.7279 -1.4354
 9504SOL     OW40147   4.665   1.270   9.534  0.0043  0.5512 -0.0145
 9504SOL    HW140148   4.614   1.286   9.613  1.5176 -0.1282  1.1018
 9504SOL    HW240149   4.704   1.183   9.541 -1.1029  0.1524  1.0981
 9505SOL     OW40150   3.078   4.189   3.647 -0.2307 -0.4952 -0.2583
 9505SOL    HW140151   3.173   4.180   3.645  0.2328  4.3649 -1.1033
 9505SOL    HW240152   3.067   4.151   3.734 -1.7638  1.0728  0.2288
 9506SOL     OW40153   4.107   0.828   3.447 -0.2751  0.1618  0.1313
 9506SOL    HW140154   4.117   0.858   3.356 -0.5132 -1.4887 -0.4427
 9506SOL    HW240155   4.058   0.746   3.439  1.9837 -1.2171  0.3168
 9507SOL     OW40156   0.657   0.026  12.140  0.4653  0.6097 -1.4899
 9507SOL    HW140157   0.589   0.000  12.078  0.9025 -1.8487 -0.9632
 9507SOL    HW240158   0.615   0.031  12.226  1.8708  0.5669 -0.7946
 9508SOL     OW40159   2.230   0.440  10.692  0.4082 -0.1909  0.4500
 9508SOL    HW140160   2.320   0.405  10.694  0.0930 -0.9784  0.8264
 9508SOL    HW240161   2.208   0.471  10.780 -1.2853 -0.2694  0.0530
 9509SOL     OW40162   1.608   0.638   5.492  0.2057  0.3681 -0.2143
 9509SOL    HW140163   1.529   0.654   5.440  1.2165  1.4327 -1.3980
 9509SOL    HW240164   1.573   0.643   5.581  1.5855 -1.2578  0.4127
 9510SOL     OW40165   3.759   0.380   3.505 -0.2424  0.3313 -0.2538
 9510SOL    HW140166   3.702   0.346   3.435  0.8885  0.6879 -1.3487
 9510SOL    HW240167   3.814   0.302   3.517  1.4552  1.5405 -0.2823
 9511SOL     OW40168   3.482   4.386   1.264  0.1137  0.1675  0.3229
 9511SOL    HW140169   3.505   4.349   1.349 -0.9990 -1.1279  0.0529
 9511SOL    HW240170   3.508   4.323   1.196  0.2354 -1.1672  1.6106
 9512SOL     OW40171   4.698   4.585   2.131  0.5812 -0.0145  0.3845
 9512SOL    HW140172   4.731   4.497   2.146 -1.4599 -0.4504  2.3383
 9512SOL    HW240173   4.701   4.618   2.221  0.9216 -1.8905  1.0583
 9513SOL     OW40174   2.856   3.999   2.697  0.1406 -0.2071 -0.0498
 9513SOL    HW140175   2.879   4.080   2.651 -1.8346  0.8396  0.8041
 9513SOL    HW240176   2.837   4.041   2.781 -2.6747  0.2529 -0.9087
 9514SOL     OW40177   4.410   3.663   5.177  0.0964  0.3171  0.7211
 9514SOL    HW140178   4.329   3.612   5.173 -1.2834  2.7015 -1.7637
 9514SOL    HW240179   4.384   3.755   5.184 -2.0982 -0.1765 -1.0008
 9515SOL     OW40180   4.284   3.605   1.106 -0.3329  0.4891 -0.6758
 9515SOL    HW140181   4.288   3.699   1.093 -2.4331  0.6925  0.1440
 9515SOL    HW240182   4.334   3.599   1.187  3.2894  2.1641 -2.7771
 9516SOL     OW40183   1.127   1.006  13.120 -0.8058  0.3146  0.4683
 9516SOL    HW140184   1.140   1.042  13.207  2.1376 -1.8321  0.9308
 9516SOL    HW240185   1.215   1.010  13.082 -1.5368  1.8889 -1.0705
 9517SOL     OW40186   0.280   3.106   5.531 -0.4586  0.0856  0.3788
 9517SOL    HW140187   0.290   3.055   5.451  0.3490  2.6353 -1.1307
 9517SOL    HW240188   0.357   3.065   5.571  0.9486  1.2709 -1.1454
 9518SOL     OW40189   0.242   3.300   3.469  0.1894  0.2715  0.2661
 9518SOL    HW140190   0.274   3.227   3.524 -1.5671  0.8995  2.1379
 9518SOL    HW240191   0.298   3.367   3.508  1.9864 -0.7727 -0.5209
 9519SOL     OW40192   3.824   1.294   9.218  0.4388 -0.2576 -0.3602
 9519SOL    HW140193   3.736   1.309   9.253 -0.3986 -0.3012 -2.4588
 9519SOL    HW240194   3.876   1.328   9.291  1.4595 -2.6646  0.0526
 9520SOL     OW40195   4.359   4.300   6.537 -0.1829  0.0140 -0.1056
 9520SOL    HW140196   4.307   4.273   6.613 -1.0747  0.6157 -0.4942
 9520SOL    HW240197   4.389   4.216   6.504 -0.3431  0.2267 -0.7853
 9521SOL     OW40198   2.407   2.951   5.547  0.1085  0.0559  0.1554
 9521SOL    HW140199   2.500   2.948   5.525 -0.4033 -1.9945 -1.7967
 9521SOL    HW240200   2.366   3.034   5.523 -0.8647 -0.1266  1.2303
 9522SOL     OW40201   0.041   1.327   3.466 -0.1806 -0.3803 -0.4683
 9522SOL    HW140202   0.045   1.291   3.555  2.2920  0.2665 -0.3309
 9522SOL    HW240203   0.107   1.396   3.459  1.7561 -2.2840 -0.7522
 9523SOL     OW40204   3.192   2.970   8.108  0.0749 -0.1965  0.1247
 9523SOL    HW140205   3.284   2.989   8.129 -0.1474 -1.2481  2.0597
 9523SOL    HW240206   3.197   2.940   8.017  0.2954 -1.7877  0.6565
 9524SOL     OW40207   1.731   2.062   1.301  0.0094  0.2794 -0.1607
 9524SOL    HW140208   1.809   2.056   1.245 -0.6054  0.3791 -1.0258
 9524SOL    HW240209   1.662   2.016   1.253  0.3550 -0.7352  0.3102
 9525SOL     OW40210   0.293   1.066   5.627 -0.0629 -0.0799  0.0250
 9525SOL    HW140211   0.335   1.135   5.678 -1.0424  0.3188  0.2885
 9525SOL    HW240212   0.227   1.035   5.689  1.5532 -2.2018  0.6985
 9526SOL     OW40213   2.125   0.176  10.761 -0.4490 -0.0283 -0.5145
 9526SOL    HW140214   2.200   0.134  10.718  1.2323  1.5475  0.8850
 9526SOL    HW240215   2.148   0.268  10.773 -0.9525 -0.1207  1.1418
 9527SOL     OW40216   2.701   0.370  10.521  0.1126 -0.1834  0.2184
 9527SOL    HW140217   2.624   0.316  10.503 -0.0928  0.1434  0.1155
 9527SOL    HW240218   2.727   0.404  10.435 -0.3480 -1.2445 -0.3481
 9528SOL     OW40219   1.492   0.413  16.631  0.3972  0.1224  0.0473
 9528SOL    HW140220   1.564   0.426  16.693  1.6091  1.2820 -1.5990
 9528SOL    HW240221   1.489   0.498  16.587  0.3595 -0.3850 -0.9505
 9529SOL     OW40222   3.662   4.577  16.371  0.4925 -0.0399  0.0467
 9529SOL    HW140223   3.704   4.502  16.412 -2.9766 -1.9877 -0.0412
 9529SOL    HW240224   3.568   4.565  16.384  0.5995 -1.4565 -0.5491
 9530SOL     OW40225   3.754   0.936   1.952 -0.1568  0.5107  0.1982
 9530SOL    HW140226   3.764   0.994   1.877 -1.7941  0.8963  0.2970
 9530SOL    HW240227   3.768   0.846   1.922 -0.3618  0.3631  0.5506
 9531SOL     OW40228   2.368   4.329  17.190 -0.2272  0.1082  0.3823
 9531SOL    HW140229   2.346   4.324  17.097 -3.3506 -1.5365  1.1933
 9531SOL    HW240230   2.371   4.423  17.206 -2.6917  0.2271  0.0714
 9532SOL     OW40231   4.678   2.044   2.398  0.1520 -0.1729 -0.2238
 9532SOL    HW140232   4.636   1.959   2.392  0.3620 -0.2656 -0.3931
 9532SOL    HW240233   4.603   2.101   2.382 -0.9930 -1.2985  1.2169
 9533SOL     OW40234   4.316   0.957  17.001 -0.4939  0.0263 -0.3077
 9533SOL    HW140235   4.221   0.952  16.988 -0.0624 -2.0176 -2.5933
 9533SOL    HW240236   4.343   0.962  16.909 -0.9133  2.9094 -0.2818
 9534SOL     OW40237   2.440   0.066  12.478  0.4443 -0.0391 -0.2472
 9534SOL    HW140238   2.524   0.112  12.486  1.3238 -1.3056 -2.1979
 9534SOL    HW240239   2.394   0.119  12.542 -0.9208 -2.1966  0.5579
 9535SOL     OW40240   4.535   1.923   3.295  0.1749 -0.1395  0.2540
 9535SOL    HW140241   4.589   2.000   3.280  2.4253 -1.6074  0.8305
 9535SOL    HW240242   4.589   1.872   3.356 -1.6217 -2.0615  0.2529
 9536SOL     OW40243   3.816   2.654   8.092 -0.0816 -0.0964  0.2001
 9536SOL    HW140244   3.799   2.686   8.003 -4.0681  2.4032  1.8942
 9536SOL    HW240245   3.743   2.595   8.110  0.8580 -0.0806  4.0855
 9537SOL     OW40246   3.500   2.715   8.641 -0.0279  0.4368  0.0047
 9537SOL    HW140247   3.562   2.714   8.569  0.4067  2.6980  0.3447
 9537SOL    HW240248   3.432   2.651   8.618  1.5034 -0.9851 -0.5295
 9538SOL     OW40249   4.301   2.827   4.670  0.3181  0.7724  0.2439
 9538SOL    HW140250   4.256   2.901   4.711  0.0294  1.2479 -0.9366
 9538SOL    HW240251   4.293   2.864   4.582  0.9650 -2.9837 -1.3969
 9539SOL     OW40252   3.868   2.102   5.441  0.0856  0.1374  0.3754
 9539SOL    HW140253   3.962   2.100   5.460  0.2611  2.7663 -0.1968
 9539SOL    HW240254   3.843   2.032   5.502  1.0062  0.0458  0.6501
 9540SOL     OW40255   4.483   3.457   3.998  0.5313 -0.5840  0.1484
 9540SOL    HW140256   4.575   3.460   3.971  1.4939  0.5369  3.6164
 9540SOL    HW240257   4.464   3.363   3.995  0.9576 -0.6472 -0.5560
 9541SOL     OW40258   1.480   0.021   3.819 -0.3590  0.8512  0.7291
 9541SOL    HW140259   1.416   4.703   3.778  1.6651  0.1805 -1.5006
 9541SOL    HW240260   1.559   4.707   3.822  0.2163  1.6664  0.4561
 9542SOL     OW40261   4.540   1.263   7.089  0.2364 -0.0309 -0.8478
 9542SOL    HW140262   4.595   1.302   7.021 -3.0397  0.7053 -3.1167
 9542SOL    HW240263   4.524   1.335   7.150 -2.6918 -1.0640 -0.3944
 9543SOL     OW40264   4.137   0.498   4.226  0.1608  0.6754 -0.1412
 9543SOL    HW140265   4.116   0.547   4.305  1.5785  2.3664 -0.8079
 9543SOL    HW240266   4.070   0.528   4.165  0.0445 -0.3582 -0.5198
 9544SOL     OW40267   4.574   2.826  13.904 -0.1495 -0.3135  0.1726
 9544SOL    HW140268   4.494   2.814  13.956 -0.4802 -0.2412 -0.3202
 9544SOL    HW240269   4.529   2.809  13.822 -3.0341  2.2747  1.2262
 9545SOL     OW40270   2.384   2.756   7.835 -0.2715 -0.1779 -0.4909
 9545SOL    HW140271   2.375   2.739   7.741 -0.7637 -1.8666 -0.1449
 9545SOL    HW240272   2.398   2.851   7.832 -0.5975 -0.1166  0.0907
 9546SOL     OW40273   0.620   1.510   7.558 -0.5405  0.0683 -0.4954
 9546SOL    HW140274   0.673   1.512   7.478  1.1770  1.7876  0.6848
 9546SOL    HW240275   0.641   1.592   7.604 -1.5954 -1.3949  2.5957
 9547SOL     OW40276   4.066   3.747   5.481 -0.8521 -0.1241 -0.1354
 9547SOL    HW140277   4.011   3.745   5.403 -0.2370  0.9835 -0.6116
 9547SOL    HW240278   4.122   3.671   5.465  1.7603  1.5608  0.9928
 9548SOL     OW40279   1.834   4.729   5.089 -1.4684  0.0999  0.9809
 9548SOL    HW140280   1.801   0.053   5.025 -0.6408 -1.3812 -0.8959
 9548SOL    HW240281   1.799   4.649   5.049 -1.9317 -0.5054  2.5878
 9549SOL     OW40282   1.631   0.499   1.862 -0.0149 -0.3972 -0.1925
 9549SOL    HW140283   1.572   0.518   1.935 -1.0134  0.7606 -1.2972
 9549SOL    HW240284   1.593   0.555   1.794  1.0792  0.1407 -0.3627
 9550SOL     OW40285   3.285   2.184   9.282  0.0789  0.2058  0.4821
 9550SOL    HW140286   3.372   2.224   9.278  0.0552  0.1331 -0.9154
 9550SOL    HW240287   3.256   2.209   9.369  1.7268 -0.6886  1.2927
 9551SOL     OW40288   1.404   0.789  16.679  0.7115  0.7718  0.1066
 9551SOL    HW140289   1.382   0.866  16.626 -0.6158 -1.7983 -3.0805
 9551SOL    HW240290   1.395   0.717  16.616 -1.0154  2.2969 -1.4333
 9552SOL     OW40291   4.600   0.154   8.783 -0.0132 -0.1987  0.3429
 9552SOL    HW140292   4.572   0.242   8.757  0.9189 -0.3737 -1.2434
 9552SOL    HW240293   4.570   0.159   8.874  1.0376 -1.3111  0.7384
 9553SOL     OW40294   0.608   1.032  13.691  0.1959  0.2028 -0.3136
 9553SOL    HW140295   0.612   1.001  13.600 -0.2439  0.5259 -0.4486
 9553SOL    HW240296   0.584   0.954  13.741  3.7568 -2.2255 -2.3523
 9554SOL     OW40297   0.520   3.213   3.631 -0.1494 -0.3006  0.3621
 9554SOL    HW140298   0.472   3.240   3.709  0.9834 -0.0561  0.9735
 9554SOL    HW240299   0.539   3.121   3.652 -2.1437 -0.1089  2.8644
 9555SOL     OW40300   0.014   3.542   8.608 -0.0843  0.8700  0.2659
 9555SOL    HW140301   4.727   3.483   8.678 -0.9460  0.1262 -0.6901
 9555SOL    HW240302   0.109   3.552   8.617  0.3033 -0.0970 -2.7024
 9556SOL     OW40303   4.387   4.680   1.066 -0.6424 -0.0743  0.8689
 9556SOL    HW140304   4.325   4.626   1.018 -0.6052  0.1874  0.5275
 9556SOL    HW240305   4.398   4.630   1.147 -0.5069 -1.4548  0.0014
 9557SOL     OW40306   3.740   1.597   8.102 -0.5237 -0.0191  0.4371
 9557SOL    HW140307   3.649   1.591   8.132  0.1179 -1.4218  2.1211
 9557SOL    HW240308   3.733   1.690   8.081 -0.8497 -0.9322 -3.3511
 9558SOL     OW40309   0.224   3.190   2.446 -0.2538  0.5161  0.5935
 9558SOL    HW140310   0.244   3.133   2.372 -0.9610 -1.8785  2.2438
 9558SOL    HW240311   0.135   3.213   2.417 -0.9463 -4.6812 -1.3067
 9559SOL     OW40312   0.797   2.227   3.851  0.3720  0.2348 -0.9817
 9559SOL    HW140313   0.775   2.139   3.881  0.4247 -0.0262 -1.7124
 9559SOL    HW240314   0.828   2.259   3.936 -2.2662 -0.0255  0.0819
 9560SOL     OW40315   3.461   0.182  15.933 -0.1931 -0.2051  0.2987
 9560SOL    HW140316   3.377   0.191  15.888  0.2226  2.4322  0.0582
 9560SOL    HW240317   3.465   0.239  16.009 -0.2262  1.3359 -0.8619
 9561SOL     OW40318   4.061   3.943  15.775 -0.6324 -0.2426  0.2409
 9561SOL    HW140319   4.036   3.905  15.859 -1.6665 -0.1212 -0.0108
 9561SOL    HW240320   4.136   3.886  15.754 -0.2096  0.2708  0.3595
 9562SOL     OW40321   2.425   3.983   2.025  0.2119 -0.4023  0.4682
 9562SOL    HW140322   2.444   4.071   2.057  0.8613  0.0391 -1.1306
 9562SOL    HW240323   2.333   3.981   2.051  0.5161 -0.0119  1.5799
 9563SOL     OW40324   3.603   2.229   0.109  0.2926  0.7456  0.1151
 9563SOL    HW140325   3.685   2.255   0.068  1.4093 -0.2902  1.7100
 9563SOL    HW240326   3.637   2.247   0.196  0.7641  1.4125 -0.2103
 9564SOL     OW40327   4.214   2.828  10.003 -0.3085  0.0175  0.0451
 9564SOL    HW140328   4.264   2.786   9.933 -1.8442 -4.0164  1.4330
 9564SOL    HW240329   4.136   2.773  10.011  0.6582 -1.8851 -3.5170
 9565SOL     OW40330   1.016   1.940   4.849  0.5693 -0.0438 -0.1612
 9565SOL    HW140331   0.995   2.022   4.893  0.2911 -1.0547  1.5769
 9565SOL    HW240332   1.111   1.953   4.849  0.4130  1.0942 -0.8581
 9566SOL     OW40333   3.845   1.347   6.714  0.5268  0.3128  0.0520
 9566SOL    HW140334   3.823   1.312   6.628  1.3051  0.2941 -0.1387
 9566SOL    HW240335   3.927   1.300   6.731 -0.8583 -1.1319  2.7344
 9567SOL     OW40336   2.208   1.551   9.773 -0.5180  0.5998 -0.4089
 9567SOL    HW140337   2.252   1.583   9.852  1.3523 -0.9298 -0.8323
 9567SOL    HW240338   2.115   1.546   9.794 -0.3702 -1.6578 -0.2463
 9568SOL     OW40339   4.363   3.378   6.597 -0.0154 -0.0348 -0.5086
 9568SOL    HW140340   4.305   3.410   6.528 -1.6159 -2.8247 -0.4623
 9568SOL    HW240341   4.438   3.437   6.593  0.6954 -0.9115 -0.0705
 9569SOL     OW40342   0.554   4.450   2.384 -0.2859 -0.0701 -0.3245
 9569SOL    HW140343   0.491   4.520   2.366  0.0069  0.5646  1.0762
 9569SOL    HW240344   0.630   4.506   2.371 -0.5321 -0.2047 -2.3078
   4.73999   4.73999  17.75759
